Membrane in water
40344
    1TMC1    C1    1   3.615   3.163  10.984  0.1863 -0.5653  0.1865
    1TMC1    C2    2   3.523   3.202  10.894  0.0052  0.1740 -0.5280
    1TMC1    C3    3   3.416   3.270  10.939 -0.1356  0.0778  0.5598
    1TMC1    C4    4   3.618   3.214  11.113  0.5171  0.0690 -0.3460
    1TMC1    C5    5   3.514   3.292  11.155  0.0070  0.1727  0.3478
    1TMC1    C6    6   3.410   3.315  11.069  0.0671  0.5453  0.0273
    1TMC1     C    7   3.637   3.018  10.975  0.4288  0.3576 -0.2373
    1TMC1     O    8   3.545   2.972  10.908  0.4979 -0.2261  0.1731
    1TMC1     H    9   3.532   3.167  10.791  1.6541 -1.9190  0.3157
    1TMC1    H1   10   3.699   3.178  11.176 -1.1195  0.2085  1.8343
    1TMC1    H2   11   3.324   3.375  11.095  1.1379  1.9267  0.3518
    1TMC1    C7   12   3.484   3.314  11.291 -0.0533 -0.3263  0.1114
    1TMC1    C8   13   3.285   3.213  10.905  0.0218 -0.1960  0.0477
    1TMC1    O1   14   3.527   3.250  11.386 -0.2558  0.0235  0.4592
    1TMC1    O2   15   3.187   3.276  10.934 -0.7248 -0.4285 -0.2598
    1TMC1    O3   16   3.433   3.440  11.296 -0.4045 -0.3439 -0.3991
    1TMC1    H3   17   3.433   3.488  11.211 -0.0108  1.8596  0.8417
    1TMC1    O5   18   3.303   3.074  10.905 -0.1860  0.1633  0.1094
    1TMC1    H5   19   3.398   3.050  10.894 -0.2802 -0.2092  0.1234
    2MPD2     C   20   3.752   2.550  11.169  0.3211 -0.5461  0.2208
    2MPD2    C1   21   3.652   2.599  11.088  0.0745 -0.1867 -0.7009
    2MPD2    C2   22   3.658   2.725  11.035 -0.1458 -0.3456  0.5326
    2MPD2    C3   23   3.747   2.818  11.083  0.3861 -0.7950 -0.0705
    2MPD2    C4   24   3.845   2.772  11.171  0.1086 -0.4453  0.2032
    2MPD2    C5   25   3.848   2.642  11.213  1.6007  0.7012 -0.1595
    2MPD2     H   26   3.586   2.761  10.963 -0.5411 -1.0965  0.5533
    2MPD2    H1   27   3.906   2.847  11.220 -0.1731 -1.3226  1.8877
    2MPD2    H2   28   3.760   2.448  11.206  0.2208 -0.3827  0.6988
    2MPD2    H3   29   3.927   2.619  11.283  0.6035  0.8501  1.0076
    2MPD2     N   30   3.736   2.959  11.050 -0.6592  0.0694 -0.1551
    2MPD2    H5   31   3.798   3.021  11.102  0.2269 -0.7558 -0.2294
    2MPD2    N1   32   3.537   2.530  11.052  0.5927 -0.0205  0.1255
    2MPD2    H7   33   3.466   2.580  10.999 -0.0586 -0.6308  0.4095
    3TMC1    C1   34   3.150   0.261  10.219  0.5784  0.4245 -0.3071
    3TMC1    C2   35   3.154   0.354  10.321 -0.2180 -0.4745  0.4992
    3TMC1    C3   36   3.281   0.411  10.339 -0.4370  0.1068 -0.4256
    3TMC1    C4   37   3.251   0.245  10.126 -0.0782 -0.4983  0.8405
    3TMC1    C5   38   3.373   0.301  10.152  0.2106 -0.6123  0.1263
    3TMC1    C6   39   3.395   0.377  10.264  0.5780  0.6316  0.5078
    3TMC1     C   40   3.023   0.185  10.194 -0.0951 -0.2417 -0.2194
    3TMC1     O   41   3.026   0.097  10.107 -0.8091 -0.3143 -0.0404
    3TMC1     H   42   3.084   0.378  10.401  1.4952 -0.5082  2.0042
    3TMC1    H1   43   3.228   0.180  10.043  1.7956  1.8188 -1.5207
    3TMC1    H2   44   3.497   0.399  10.293  1.1857 -2.0988  0.3767
    3TMC1    C7   45   3.477   0.308  10.054 -0.8687 -0.0539 -0.6856
    3TMC1    C8   46   3.292   0.501  10.446  0.4978 -0.0243 -0.4549
    3TMC1    O1   47   3.579   0.372  10.073 -0.2657 -0.8022 -0.0202
    3TMC1    O2   48   3.198   0.555  10.495 -0.0233  0.0860  0.2050
    3TMC1    O3   49   3.442   0.246   9.937 -0.1342  0.0370  0.0402
    3TMC1    H3   50   3.374   0.176   9.941  0.8301 -0.7013  3.2979
    3TMC1    O5   51   3.405   0.470  10.512 -0.2736 -0.2257  0.1497
    3TMC1    H5   52   3.446   0.389  10.476  0.1252 -0.0502  0.2064
    4MPD2     C   53   2.530   0.097  10.310  0.1263  0.5597 -0.5978
    4MPD2    C1   54   2.581   0.179  10.405  0.1727  0.4978 -0.7470
    4MPD2    C2   55   2.711   0.213  10.398  0.6949 -0.4300 -0.4041
    4MPD2    C3   56   2.792   0.168  10.291  0.4239 -0.7687  0.0424
    4MPD2    C4   57   2.741   0.077  10.203  0.5241 -0.4990  0.0035
    4MPD2    C5   58   2.609   0.041  10.213  0.2135  0.7356 -0.0590
    4MPD2     H   59   2.747   0.268  10.485 -0.5143 -1.7360  0.9163
    4MPD2    H1   60   2.784   0.034  10.113  1.6129  0.7102 -0.0461
    4MPD2    H2   61   2.425   0.073  10.300  0.1325  0.0966  0.4903
    4MPD2    H3   62   2.559   4.724  10.132  2.3177  0.5955 -1.2954
    4MPD2     N   63   2.925   0.220  10.280  0.0318  0.0162 -0.5060
    4MPD2    H5   64   2.942   0.295  10.346  1.7680 -0.9320  0.1195
    4MPD2    N1   65   2.502   0.225  10.512  0.3982  0.1289 -0.2654
    4MPD2    H7   66   2.560   0.285  10.571 -0.3945  1.6730 -1.0760
    5TCq1    O1   67   4.359   0.409  11.950 -0.4082  0.1086 -0.1567
    5TCq1    C1   68   4.287   0.341  11.862 -0.0490 -0.3842 -0.1221
    5TCq1    O2   69   4.338   0.290  11.762  0.1027  0.1885  0.4595
    5TCq1    C2   70   4.147   0.391  11.872  0.1765 -0.1930 -0.7886
    5TCq1    C3   71   4.094   0.395  11.998 -0.9529  0.2532 -0.4450
    5TCq1    C4   72   3.963   0.414  12.005 -0.2886 -0.3487  0.1598
    5TCq1    C5   73   3.883   0.440  11.899  0.9343 -0.1278 -0.7618
    5TCq1    C6   74   3.939   0.437  11.779 -0.2116  0.3175  0.1288
    5TCq1    C7   75   4.072   0.402  11.760  0.3463 -0.0510 -0.2979
    5TCq1    C8   76   3.865   0.461  11.655 -0.1022  0.2226 -0.2588
    5TCq1    O4   77   3.905   0.414  11.551 -0.1750 -0.2393  0.2538
    5TCq1    C9   78   3.891   0.387  12.129 -0.1824  0.7181 -0.0642
    5TCq1    O5   79   3.769   0.396  12.125  0.5558  0.0981 -0.4670
    5TCq1    O6   80   3.959   0.361  12.233 -0.3040  0.0146 -0.3539
    5TCq1    H1   81   4.296   0.463  12.003  1.1204  0.8540  0.9081
    5TCq1    H2   82   4.157   0.370  12.082 -0.9800  1.2480 -0.1270
    5TCq1    H3   83   3.775   0.437  11.905  0.9249 -0.4109 -1.0703
    5TCq1    H4   84   4.124   0.403  11.665  0.0180 -2.0841 -0.4978
    6MPD2     C   85   3.580   0.683  11.620 -0.0521  0.2131  0.2628
    6MPD2    C1   86   3.668   0.582  11.590  0.2655  0.7780  0.1856
    6MPD2    C2   87   3.663   0.535  11.457  0.5055 -0.1269  1.2631
    6MPD2    C3   88   3.567   0.571  11.364 -0.2170  0.4075 -0.1098
    6MPD2    C4   89   3.474   0.666  11.406 -0.3615 -0.1190  0.1092
    6MPD2    C5   90   3.483   0.721  11.529 -0.1752 -0.2017  0.7907
    6MPD2     H   91   3.728   0.455  11.421 -1.2169 -1.7354  1.7151
    6MPD2    H1   92   3.409   0.705  11.328 -0.4420  3.0095  1.7400
    6MPD2    H2   93   3.573   0.726  11.719  0.1734  0.4910  0.1559
    6MPD2    H3   94   3.406   0.788  11.567  2.1382  2.6285  0.5221
    6MPD2     N   95   3.569   0.506  11.234 -0.0680 -0.4987  1.5882
    6MPD2    H5   96   3.632   0.427  11.225 -1.4023 -1.2495 -0.9997
    6MPD2    N1   97   3.764   0.546  11.683 -0.5541 -0.8800  0.2230
    6MPD2    H7   98   3.769   0.595  11.772 -0.5974  0.4472 -0.4974
    7TCq1    O1   99   0.013   4.595  12.766  0.2937 -0.0607  0.0254
    7TCq1    C1  100   0.117   4.573  12.844 -0.3646  0.0060 -0.1240
    7TCq1    O2  101   0.125   4.613  12.961 -0.1460  0.4963  0.1795
    7TCq1    C2  102   0.181   4.447  12.789 -0.8020 -0.2431  0.2774
    7TCq1    C3  103   0.108   4.359  12.714  0.0576  0.1142 -0.6402
    7TCq1    C4  104   0.148   4.229  12.725  0.1331 -0.9217  0.5145
    7TCq1    C5  105   0.265   4.185  12.782 -0.1297 -0.4452  0.2873
    7TCq1    C6  106   0.338   4.284  12.848  0.2344  0.9397  0.2038
    7TCq1    C7  107   0.288   4.414  12.856  0.2285 -0.1645 -0.3995
    7TCq1    C8  108   0.458   4.251  12.923 -0.6755  0.9885 -0.8277
    7TCq1    O4  109   0.495   4.135  12.919  0.4108  0.0326  0.3930
    7TCq1    C9  110   0.078   4.125  12.667  0.0402 -0.2620  0.4917
    7TCq1    O5  111   0.063   4.132  12.543  0.4938  0.1641  0.0607
    7TCq1    O6  112   0.045   4.024  12.738  0.2575 -0.2210 -0.3120
    7TCq1    H1  113   0.029   4.568  12.673  1.3985 -0.3434  0.2954
    7TCq1    H2  114   0.015   4.388  12.668  1.1806  3.0121 -1.0403
    7TCq1    H3  115   0.286   4.078  12.780  0.1662 -0.3780 -0.0831
    7TCq1    H4  116   0.319   4.493  12.924  1.0022  0.9695 -2.0650
    8MPD2     C  117   0.756   4.379  13.334 -0.4416  0.2351  0.6773
    8MPD2    C1  118   0.720   4.259  13.288  0.2765  0.6000  0.2495
    8MPD2    C2  119   0.658   4.246  13.163 -0.1316 -0.3386  0.0483
    8MPD2    C3  120   0.610   4.356  13.092 -0.4887 -0.4360  0.3358
    8MPD2    C4  121   0.654   4.474  13.142 -0.0042  0.4653 -0.6389
    8MPD2    C5  122   0.715   4.489  13.261 -0.3207 -0.7750 -0.8960
    8MPD2     H  123   0.633   4.148  13.123  1.9575 -0.7176 -0.3366
    8MPD2    H1  124   0.631   4.564  13.087 -1.9705  1.4546  1.7756
    8MPD2    H2  125   0.813   4.402  13.423  0.4589  2.0006 -0.3517
    8MPD2    H3  126   0.730   4.589  13.301 -0.8198 -0.1984 -2.1729
    8MPD2     N  127   0.529   4.359  12.971  0.0707 -0.3120 -0.0416
    8MPD2    H5  128   0.503   4.454  12.945 -2.4266 -0.4926  1.8259
    8MPD2    N1  129   0.772   4.150  13.362  0.1291 -0.7612  0.0847
    8MPD2    H7  130   0.804   4.177  13.454 -2.7250 -2.2710  1.5187
    9TMC1    C1  131   3.363   4.094  10.753  0.2674 -0.1276  0.4074
    9TMC1    C2  132   3.444   4.179  10.688  0.2718 -0.4361 -0.6018
    9TMC1    C3  133   3.489   4.151  10.563  0.2820  0.3042  0.0431
    9TMC1    C4  134   3.302   3.992  10.679 -0.2192 -0.1605 -0.4092
    9TMC1    C5  135   3.345   3.968  10.549  0.3075 -0.4061 -0.1621
    9TMC1    C6  136   3.428   4.054  10.489  0.0542  0.0173  0.5117
    9TMC1     C  137   3.360   4.089  10.901  0.1022 -1.1440  0.2181
    9TMC1     O  138   3.405   4.193  10.946 -0.0212 -0.1545 -0.2120
    9TMC1     H  139   3.495   4.262  10.736 -1.4995  0.4087 -0.1787
    9TMC1    H1  140   3.231   3.925  10.724  0.5545 -0.8769 -0.2457
    9TMC1    H2  141   3.454   4.039  10.385  1.4013 -0.8901  0.9819
    9TMC1    C7  142   3.259   3.891  10.459  0.1273 -0.2052  0.5211
    9TMC1    C8  143   3.552   4.267  10.491 -0.0488  0.6523 -0.2487
    9TMC1    O1  144   3.315   3.807  10.392 -0.2442  0.4012  0.3087
    9TMC1    O2  145   3.489   4.341  10.419 -0.0680 -0.0382 -0.9692
    9TMC1    O3  146   3.123   3.894  10.489 -0.0738 -0.5383 -0.1769
    9TMC1    H3  147   3.111   3.974  10.544  0.6689 -1.1167  0.8355
    9TMC1    O5  148   3.663   4.304  10.564 -0.4228  0.0456 -0.3965
    9TMC1    H5  149   3.697   4.221  10.605  0.3941 -1.0670 -3.3392
   10MPD2     C  150   3.326   4.049  11.193  0.0452  0.2799 -0.2836
   10MPD2    C1  151   3.280   3.961  11.096  0.7793 -0.0162 -0.1348
   10MPD2    C2  152   3.219   3.840  11.133  0.1697  0.3623 -0.7998
   10MPD2    C3  153   3.191   3.815  11.266  0.4025  0.3871  0.0689
   10MPD2    C4  154   3.227   3.905  11.361 -0.4822 -0.3247 -0.3935
   10MPD2    C5  155   3.300   4.016  11.324 -0.0995 -0.2182  0.1956
   10MPD2     H  156   3.200   3.767  11.055  0.6659  0.3036 -0.8669
   10MPD2    H1  157   3.211   3.892  11.467  1.3269  3.5231  0.3266
   10MPD2    H2  158   3.388   4.137  11.177  0.3095 -0.2224 -2.0176
   10MPD2    H3  159   3.330   4.085  11.402 -1.7898 -0.2452  0.8799
   10MPD2     N  160   3.136   3.697  11.319 -0.2866  0.3563 -0.8946
   10MPD2    H5  161   3.135   3.695  11.420  1.4317  1.4244 -0.8613
   10MPD2    N1  162   3.291   3.985  10.955 -0.2922  0.2060 -0.0115
   10MPD2    H7  163   3.257   3.919  10.886  0.5521  1.5307 -1.6979
   11TCq1    O1  164   3.840   3.168  13.592 -0.0269  0.2420  0.8492
   11TCq1    C1  165   3.942   3.221  13.665  0.4548  0.1937 -0.3249
   11TCq1    O2  166   4.056   3.194  13.630 -0.1350 -0.1096 -0.5673
   11TCq1    C2  167   3.903   3.359  13.696  0.2928 -0.6716  0.6835
   11TCq1    C3  168   4.000   3.453  13.671 -0.4492  0.6807  0.0186
   11TCq1    C4  169   3.966   3.584  13.677 -0.0706  0.1853 -0.2138
   11TCq1    C5  170   3.836   3.621  13.697  0.2871  0.8884  0.0570
   11TCq1    C6  171   3.739   3.529  13.706 -0.0568  0.4841  0.1005
   11TCq1    C7  172   3.772   3.393  13.701  0.0698 -0.5483  0.2963
   11TCq1    C8  173   3.599   3.566  13.720  0.5900  0.1973  1.0228
   11TCq1    O4  174   3.581   3.690  13.731  0.2339  0.2647 -0.1024
   11TCq1    C9  175   4.069   3.688  13.652 -0.3974 -0.3307 -0.4711
   11TCq1    O5  176   4.044   3.807  13.661 -0.0792 -0.7387  0.2513
   11TCq1    O6  177   4.187   3.645  13.622  0.2396 -0.1914  0.1413
   11TCq1    H1  178   3.754   3.214  13.602 -0.8516 -1.3695  1.1470
   11TCq1    H2  179   4.106   3.430  13.665 -0.1750  2.5595 -2.2788
   11TCq1    H3  180   3.816   3.727  13.712 -0.0519  0.6965  0.9811
   11TCq1    H4  181   3.698   3.316  13.723  0.1420 -0.6118  0.3155
   12MPD2     C  182   3.309   3.590  13.745  0.2149  0.4015 -0.0246
   12MPD2    C1  183   3.369   3.468  13.739 -0.4642  0.1958 -0.1298
   12MPD2    C2  184   3.292   3.350  13.738  0.2489 -0.0856 -0.4020
   12MPD2    C3  185   3.156   3.362  13.730  0.2445 -0.1448  0.0456
   12MPD2    C4  186   3.099   3.484  13.739  0.7789 -0.1628  0.0162
   12MPD2    C5  187   3.175   3.594  13.736  0.0044 -0.0434  1.0358
   12MPD2     H  188   3.351   3.260  13.738  0.4396  0.0354  1.7499
   12MPD2    H1  189   2.997   3.513  13.719  0.0070 -0.3451  3.6039
   12MPD2    H2  190   3.363   3.679  13.717  1.5876 -0.6005 -0.5730
   12MPD2    H3  191   3.118   3.686  13.730 -0.9648 -0.6236  1.3015
   12MPD2     N  192   3.069   3.248  13.730  0.4312  0.3082 -0.1611
   12MPD2    H5  193   2.969   3.266  13.734  0.5277  0.4535  1.4066
   12MPD2    N1  194   3.513   3.457  13.727  0.3229  0.3926  0.5363
   12MPD2    H7  195   3.561   3.369  13.710 -1.4116 -0.4061 -0.1124
   13TCq1    O1  196   3.569   3.763  11.519  0.0978 -0.0104  0.3462
   13TCq1    C1  197   3.588   3.878  11.447  0.9707  0.0533  0.3572
   13TCq1    O2  198   3.579   3.990  11.500  0.0001 -1.2230 -0.1785
   13TCq1    C2  199   3.661   3.850  11.322  0.0914 -0.0506  0.3223
   13TCq1    C3  200   3.739   3.949  11.268  0.4082 -0.3868  0.5290
   13TCq1    C4  201   3.747   3.957  11.131  0.7189 -0.4909 -0.2978
   13TCq1    C5  202   3.690   3.868  11.044 -0.1203 -0.0432  0.1804
   13TCq1    C6  203   3.616   3.763  11.103 -0.3558  0.5112  0.0809
   13TCq1    C7  204   3.603   3.755  11.238  0.1820 -0.5826  0.3229
   13TCq1    C8  205   3.527   3.675  11.029 -0.6059 -0.1980 -0.8253
   13TCq1    O4  206   3.453   3.607  11.096 -0.1614  0.0491 -0.4806
   13TCq1    C9  207   3.843   4.052  11.083 -0.7347  0.6965  0.1236
   13TCq1    O5  208   3.925   4.111  11.155  0.1339  0.5882 -0.2626
   13TCq1    O6  209   3.835   4.070  10.958  0.1604 -0.5384  0.0617
   13TCq1    H1  210   3.608   3.686  11.473 -1.3578 -0.1351 -0.6984
   13TCq1    H2  211   3.788   4.022  11.331  1.4257 -1.3479  0.8425
   13TCq1    H3  212   3.714   3.881  10.939  2.0366 -2.2417  0.4099
   13TCq1    H4  213   3.539   3.687  11.292  1.7776 -2.2355  0.1277
   14MPD2     C  214   3.500   3.628  10.665  0.2022  0.3928 -0.0176
   14MPD2    C1  215   3.465   3.627  10.796  0.2527  0.5690  0.6378
   14MPD2    C2  216   3.330   3.598  10.825 -0.0273 -0.9107  0.2301
   14MPD2    C3  217   3.247   3.553  10.724 -0.2495  0.0511  0.1404
   14MPD2    C4  218   3.297   3.530  10.595 -0.7360 -0.1476 -0.1305
   14MPD2    C5  219   3.421   3.578  10.573  0.3500 -0.1612 -0.3659
   14MPD2     H  220   3.278   3.618  10.919  0.5076  0.7603  0.1742
   14MPD2    H1  221   3.238   3.480  10.520  0.6701 -1.0508 -0.6313
   14MPD2    H2  222   3.591   3.679  10.633  1.0285 -1.4184 -0.5284
   14MPD2    H3  223   3.460   3.582  10.472 -0.2419 -0.6158 -0.6193
   14MPD2     N  224   3.121   3.504  10.763 -0.9348 -0.3634 -0.0485
   14MPD2    H5  225   3.093   3.506  10.861  0.0294 -0.6674  0.2288
   14MPD2    N1  226   3.549   3.678  10.894 -0.0874 -0.3438  0.3997
   14MPD2    H7  227   3.637   3.712  10.856  0.0782 -0.9185  0.2714
   15TCq1    O1  228   0.375   1.656   1.565 -0.4192 -0.1985  0.4753
   15TCq1    C1  229   0.283   1.739   1.619  0.1349 -0.4553 -0.3153
   15TCq1    O2  230   0.179   1.762   1.550 -0.6922  0.0561  0.3777
   15TCq1    C2  231   0.358   1.841   1.692  0.0766 -0.5855 -0.1737
   15TCq1    C3  232   0.431   1.808   1.804 -0.3366  0.0735 -0.1301
   15TCq1    C4  233   0.503   1.903   1.871  0.1737 -0.1784 -0.0303
   15TCq1    C5  234   0.521   2.024   1.816  0.5362 -0.0579 -0.3149
   15TCq1    C6  235   0.456   2.053   1.700 -0.1707 -0.1057 -0.2079
   15TCq1    C7  236   0.365   1.967   1.639 -0.9250 -0.3290  0.3998
   15TCq1    C8  237   0.470   2.192   1.651  0.1982  0.6974 -0.3644
   15TCq1    O4  238   0.536   2.265   1.719 -0.0552  0.2260 -0.4996
   15TCq1    C9  239   0.576   1.869   1.988 -0.2347  0.1646  0.1046
   15TCq1    O5  240   0.664   1.950   2.025 -0.5194 -0.3397 -0.1931
   15TCq1    O6  241   0.550   1.758   2.037  0.0901  0.1176 -0.6980
   15TCq1    H1  242   0.463   1.652   1.609  0.2420 -0.2501 -0.8352
   15TCq1    H2  243   0.438   1.709   1.849  0.1842  0.7271  1.2262
   15TCq1    H3  244   0.586   2.096   1.865 -1.4034  1.4453  0.0510
   15TCq1    H4  245   0.327   1.990   1.540  2.4373  0.6472 -0.6505
   16MPD2     C  246   0.241   2.356   1.414  0.2115  0.0513  0.2668
   16MPD2    C1  247   0.360   2.332   1.488 -0.3024  0.1005 -0.2238
   16MPD2    C2  248   0.468   2.415   1.461 -0.6295  0.2965  0.5978
   16MPD2    C3  249   0.466   2.506   1.357  0.4208  0.0924  0.6275
   16MPD2    C4  250   0.344   2.525   1.291  0.2459  0.7158 -0.3063
   16MPD2    C5  251   0.234   2.454   1.327  0.1455  0.1780  0.2773
   16MPD2     H  252   0.561   2.407   1.516 -0.8480 -0.0871  0.9186
   16MPD2    H1  253   0.341   2.594   1.208  0.8357  1.0327 -0.0678
   16MPD2    H2  254   0.161   2.283   1.417  0.9170 -0.6529  2.0736
   16MPD2    H3  255   0.140   2.463   1.274  0.2789 -0.4155 -0.0581
   16MPD2     N  256   0.588   2.568   1.324  0.4523  0.0678 -0.5286
   16MPD2    H5  257   0.665   2.536   1.382  0.9407 -0.1936 -1.3300
   16MPD2    N1  258   0.364   2.218   1.567 -0.6319 -0.9279  0.1017
   16MPD2    H7  259   0.299   2.145   1.541 -0.7523 -0.1931 -1.6398
   17TMC1    C1  260   2.895   1.762  10.635  0.4161 -0.1908 -0.0560
   17TMC1    C2  261   2.984   1.723  10.730 -0.4278 -0.5372  0.6222
   17TMC1    C3  262   3.013   1.591  10.723  0.0452  0.1672 -0.0441
   17TMC1    C4  263   2.843   1.679  10.540 -0.9226 -0.0536  0.0304
   17TMC1    C5  264   2.883   1.545  10.541 -0.2372  0.4223 -0.2451
   17TMC1    C6  265   2.979   1.500  10.627  0.7232  0.3188 -0.6202
   17TMC1     C  266   2.865   1.901  10.605 -0.3649 -0.0002  0.5438
   17TMC1     O  267   2.765   1.932  10.541  0.4867  0.5479 -0.6690
   17TMC1     H  268   3.004   1.783  10.818  2.3184 -1.1274  0.4226
   17TMC1    H1  269   2.768   1.713  10.470 -0.6576  0.8777  0.1917
   17TMC1    H2  270   2.983   1.397  10.659  0.5943  0.4411 -0.2008
   17TMC1    C7  271   2.799   1.454  10.465  0.2280 -0.5809 -0.5381
   17TMC1    C8  272   3.120   1.548  10.806  0.0183 -0.0316 -0.3601
   17TMC1    O1  273   2.684   1.478  10.423 -0.3583  0.2921  0.2678
   17TMC1    O2  274   3.150   1.623  10.901  0.6196 -0.1687 -0.2393
   17TMC1    O3  275   2.872   1.349  10.436 -0.1966 -0.4227 -0.0631
   17TMC1    H3  276   2.957   1.345  10.484  0.2517  1.9415 -0.6767
   17TMC1    O5  277   3.197   1.474  10.728  0.4390 -0.2287 -0.3006
   17TMC1    H5  278   3.157   1.440  10.645  0.4448 -0.0495 -0.3762
   18MPD2     C  279   2.846   2.195  10.599 -0.1831 -0.2971 -0.4665
   18MPD2    C1  280   2.964   2.125  10.624 -0.5051  0.3371 -0.1741
   18MPD2    C2  281   3.075   2.193  10.643 -0.4657  0.7771 -0.6061
   18MPD2    C3  282   3.085   2.330  10.647 -0.6549  0.8745 -0.2923
   18MPD2    C4  283   2.968   2.410  10.631  0.6005  0.0916 -0.2149
   18MPD2    C5  284   2.850   2.335  10.610 -0.8450 -0.0152  0.0188
   18MPD2     H  285   3.162   2.130  10.657 -0.7788  0.5002  0.0861
   18MPD2    H1  286   2.963   2.518  10.633 -1.5760  0.0061 -0.9249
   18MPD2    H2  287   2.750   2.147  10.585 -0.3860  0.3851 -1.4050
   18MPD2    H3  288   2.755   2.384  10.596  0.0308  1.4271 -0.8447
   18MPD2     N  289   3.203   2.400  10.674 -0.7202 -0.1209 -0.1714
   18MPD2    H5  290   3.199   2.501  10.662 -0.4408 -0.0411  0.4066
   18MPD2    N1  291   2.961   1.986  10.638 -0.0604 -0.4179  0.4530
   18MPD2    H7  292   3.046   1.943  10.674  1.5365  0.6445 -1.9914
   19TMC2    C1  293   4.288   3.638  14.161  0.6546  0.3047 -0.0652
   19TMC2    C2  294   4.223   3.712  14.249  0.2365 -0.1703 -0.2249
   19TMC2    C3  295   4.090   3.701  14.270 -1.1645  0.6265  0.1088
   19TMC2    C4  296   4.227   3.531  14.099 -0.1389  0.3339  0.0837
   19TMC2    C5  297   4.095   3.513  14.136  0.2025 -0.8791 -0.0776
   19TMC2    C6  298   4.025   3.591  14.220 -0.1376 -0.3801  0.1815
   19TMC2     C  299   4.433   3.664  14.138  0.0487 -0.1642 -0.6096
   19TMC2     O  300   4.482   3.753  14.208 -0.1370 -0.5995  0.3458
   19TMC2     H  301   4.267   3.806  14.281  0.6306  0.5541 -2.9397
   19TMC2    H1  302   4.279   3.459  14.038  0.5348  2.2725 -1.6399
   19TMC2    H2  303   3.921   3.585  14.248  0.3879 -1.1214  1.9428
   19TMC2    C7  304   4.031   3.397  14.072 -0.4412  0.1838 -0.1795
   19TMC2    C8  305   4.031   3.762  14.385  0.5487  0.1977  0.1508
   19TMC2    O1  306   4.101   3.315  14.011  0.1466 -0.2733  0.4026
   19TMC2    O2  307   3.961   3.691  14.456 -0.6067  0.1911  0.1691
   19TMC2    O5  308   4.032   3.897  14.371  0.0165  0.3268  0.5906
   19TMC2    H5  309   4.071   3.922  14.285  0.0926 -4.3251 -0.7216
   20MPD2     C  310   4.720   3.668  14.060 -0.2325 -0.0271  0.5754
   20MPD2    C1  311   4.637   3.557  14.051 -0.3691 -0.2049 -1.0768
   20MPD2    C2  312   4.692   3.430  14.050  0.2481  0.0736  0.0015
   20MPD2    C3  313   0.093   3.410  14.065 -0.5804  0.1279  0.3419
   20MPD2    C4  314   0.173   3.523  14.060 -0.5708  0.0287 -0.1998
   20MPD2    C5  315   0.119   3.645  14.059 -0.8261 -0.0273  0.4184
   20MPD2     H  316   4.623   3.347  14.041  0.3986  0.3200 -3.3791
   20MPD2    H1  317   0.281   3.517  14.069 -0.5885 -1.4926 -1.1067
   20MPD2    H2  318   4.684   3.770  14.068  2.4094  0.9685 -0.2562
   20MPD2    H3  319   0.187   3.729  14.060 -0.8905  0.0423 -1.0683
   20MPD2     N  320   0.153   3.281  14.067  0.1240  0.3682 -0.5956
   20MPD2    H5  321   0.254   3.267  14.070  0.0135 -0.3495 -0.3079
   20MPD2    N1  322   4.495   3.572  14.056 -0.1893  0.1837 -0.0736
   20MPD2    H7  323   4.444   3.487  14.035  1.6125 -0.9934  0.3533
   21TMC2    C1  324   2.575   3.602  13.648 -0.2354 -0.0781 -0.4654
   21TMC2    C2  325   2.643   3.483  13.616  0.4131 -0.8567  0.2433
   21TMC2    C3  326   2.586   3.368  13.661 -0.4751  0.1305 -0.7333
   21TMC2    C4  327   2.443   3.596  13.690 -0.2787  0.0851 -0.6510
   21TMC2    C5  328   2.391   3.479  13.728 -0.2542 -0.5363 -0.8404
   21TMC2    C6  329   2.456   3.362  13.714 -0.1397  0.1708  0.6718
   21TMC2     C  330   2.647   3.680  13.734  0.3430 -0.7427 -0.4120
   21TMC2     O  331   2.741   3.626  13.791  0.1083  0.2808  0.3476
   21TMC2     H  332   2.746   3.488  13.580  0.4314  0.8638  0.5288
   21TMC2    H1  333   2.401   3.688  13.728 -0.3891 -0.8260  1.4893
   21TMC2    H2  334   2.421   3.278  13.772  2.8244 -0.9869  0.7760
   21TMC2    C7  335   2.332   3.484  13.855 -0.6278 -0.0638 -0.1001
   21TMC2    C8  336   2.678   3.258  13.696  0.3771 -0.1706 -0.6004
   21TMC2    O1  337   2.392   3.438  13.950  0.1449  0.0532  0.2088
   21TMC2    O2  338   2.794   3.285  13.731  0.1290 -0.3083  0.3509
   21TMC2    O5  339   2.623   3.137  13.673 -0.3348 -0.1385  0.1777
   21TMC2    H5  340   2.528   3.141  13.653 -0.7587 -0.3512  2.0833
   22MPD2     C  341   2.476   3.948  14.116  0.2236 -1.0460  0.1342
   22MPD2    C1  342   2.542   3.827  14.117 -0.0550  0.5160  0.5500
   22MPD2    C2  343   2.578   3.781  13.994 -0.5439  0.4211 -0.1139
   22MPD2    C3  344   2.575   3.862  13.883  0.1473  0.1095  0.1979
   22MPD2    C4  345   2.509   3.981  13.884 -0.5563  0.5963 -0.2109
   22MPD2    C5  346   2.454   4.021  14.004 -1.3879 -0.3815  0.5025
   22MPD2     H  347   2.621   3.682  13.987  0.6709  0.9381 -0.0596
   22MPD2    H1  348   2.484   4.044  13.798 -0.6860 -1.2704 -1.5380
   22MPD2    H2  349   2.449   4.003  14.205  1.9215  2.4268 -1.5114
   22MPD2    H3  350   2.385   4.104  14.013 -0.1283  0.5620  1.6496
   22MPD2     N  351   2.600   3.809  13.751 -0.7682 -0.0568  0.6044
   22MPD2    H5  352   2.547   3.827  13.667  1.2845  1.5457 -0.3384
   22MPD2    N1  353   2.566   3.747  14.227  0.3564 -0.5679 -0.0589
   22MPD2    H7  354   2.612   3.657  14.220  1.4019 -0.1396  1.1711
   23TMC2    C1  355   3.561   4.543  14.254  0.0074 -0.4074  0.3608
   23TMC2    C2  356   3.572   4.642  14.160  0.7708  0.1636  0.0077
   23TMC2    C3  357   3.480   4.635  14.061  0.7046  0.2096 -0.2755
   23TMC2    C4  358   3.459   4.450  14.269 -0.0278  0.1286 -0.3414
   23TMC2    C5  359   3.381   4.438  14.160 -1.3244 -0.9849  0.0631
   23TMC2    C6  360   3.380   4.536  14.061  0.2661  0.0577  0.5239
   23TMC2     C  361   3.642   4.560  14.371 -0.6618 -0.7066 -0.1846
   23TMC2     O  362   3.654   4.460  14.441 -0.5683 -0.0592  0.3171
   23TMC2     H  363   3.659   4.706  14.153  0.8218  0.1116  0.1642
   23TMC2    H1  364   3.475   4.376  14.347  1.4282  1.5487  0.7193
   23TMC2    H2  365   3.334   4.511  13.966 -0.6550 -0.3356  1.0735
   23TMC2    C7  366   3.263   4.356  14.169  0.0574 -0.8247 -0.3443
   23TMC2    C8  367   3.510   4.709  13.934  0.2298 -0.2317 -0.9157
   23TMC2    O1  368   3.267   4.255  14.239 -0.2745 -0.0603 -0.4258
   23TMC2    O2  369   3.626   4.724  13.896  0.1425  0.2374 -0.0529
   23TMC2    O5  370   3.399   0.032  13.887  0.4323 -0.6447  0.3123
   23TMC2    H5  371   3.313   0.012  13.930  1.1913 -1.0305  1.6277
   24MPD2     C  372   3.796   0.144  14.746 -0.5894  0.1948 -0.0062
   24MPD2    C1  373   3.789   0.003  14.756 -0.4588  0.4844 -0.1422
   24MPD2    C2  374   3.743   4.671  14.644  0.8377 -0.4253  0.0831
   24MPD2    C3  375   3.696   0.003  14.529  0.2025 -0.1752  0.8255
   24MPD2    C4  376   3.687   0.137  14.534  0.2680 -0.0759  0.3398
   24MPD2    C5  377   3.748   0.207  14.634  0.1178  0.3431  0.1240
   24MPD2     H  378   3.735   4.563  14.639 -1.2974 -0.2907  0.8988
   24MPD2    H1  379   3.632   0.189  14.457  0.5534 -1.1116 -0.5515
   24MPD2    H2  380   3.818   0.205  14.833 -1.2482  1.5810 -0.8021
   24MPD2    H3  381   3.746   0.316  14.632  1.3315  0.3580 -0.2832
   24MPD2     N  382   3.659   4.688  14.403  0.1965 -0.2297  0.0155
   24MPD2    H5  383   3.635   0.015  14.327  1.1556 -0.2733 -0.3228
   24MPD2    N1  384   3.838   4.662  14.867  0.1882  0.1183  0.1082
   24MPD2    H7  385   3.814   4.564  14.866  1.1777 -0.1281  0.5154
   25TMC2    C1  386   3.325   1.293  11.959 -0.6576  0.4743  0.0639
   25TMC2    C2  387   3.459   1.324  11.973 -0.8247 -0.5205  0.6566
   25TMC2    C3  388   3.496   1.455  11.954  0.4982 -0.1888 -0.0483
   25TMC2    C4  389   3.234   1.393  11.947  0.0085  0.4439  0.6547
   25TMC2    C5  390   3.272   1.523  11.938 -0.2721  0.0803 -0.3615
   25TMC2    C6  391   3.400   1.561  11.942 -0.5120  0.6553  0.2699
   25TMC2     C  392   3.297   1.163  11.933  0.3925  0.2820 -0.2190
   25TMC2     O  393   3.376   1.082  11.971 -0.6267  0.3304  0.4182
   25TMC2     H  394   3.523   1.238  11.990 -0.6054 -1.1372 -3.1104
   25TMC2    H1  395   3.128   1.384  11.931  0.0235 -0.1770  0.9012
   25TMC2    H2  396   3.423   1.667  11.947  0.9037  0.3081  1.0773
   25TMC2    C7  397   3.164   1.626  11.949 -0.0091 -0.1092  0.4216
   25TMC2    C8  398   3.629   1.484  12.002  0.1586 -0.5490  0.2505
   25TMC2    O1  399   3.060   1.600  12.006  0.1390  0.0293 -0.8905
   25TMC2    O2  400   3.649   1.591  12.059 -0.3666 -0.1919 -0.9555
   25TMC2    O5  401   3.708   1.424  11.916 -0.5738  0.4662 -0.0141
   25TMC2    H5  402   3.661   1.354  11.865 -0.8677  0.4369  0.2987
   26MPD2     C  403   3.094   0.819  11.614 -0.1441 -1.1139 -0.1377
   26MPD2    C1  404   3.020   0.938  11.620 -0.3202  0.0094 -0.7501
   26MPD2    C2  405   3.052   1.041  11.696 -0.0568  0.2294 -0.2838
   26MPD2    C3  406   3.152   1.028  11.793  0.0290 -0.3384  0.4292
   26MPD2    C4  407   3.222   0.905  11.798 -0.0668 -0.1882 -0.7582
   26MPD2    C5  408   3.186   0.801  11.714 -0.4605  0.4942 -0.0260
   26MPD2     H  409   2.998   1.135  11.691 -0.0910  0.2163 -0.1576
   26MPD2    H1  410   3.299   0.893  11.873  0.1699  2.9068 -0.4940
   26MPD2    H2  411   3.078   0.741  11.542  1.5695 -2.2861  0.7409
   26MPD2    H3  412   3.242   0.709  11.710 -1.0582  0.0988  0.7943
   26MPD2     N  413   3.186   1.146  11.857  0.3770 -0.5149 -0.8318
   26MPD2    H5  414   3.113   1.217  11.851 -0.2918 -1.1189  0.2247
   26MPD2    N1  415   2.925   0.950  11.513  0.4637  0.2391  0.3060
   26MPD2    H7  416   2.918   0.867  11.455 -0.6919 -1.4256  2.8195
   27TMC2    C1  417   1.444   3.904  11.750 -0.1905 -0.0967 -0.0423
   27TMC2    C2  418   1.559   3.875  11.676 -0.5824 -0.3541 -0.6197
   27TMC2    C3  419   1.641   3.984  11.658  0.1244  0.0369 -0.0123
   27TMC2    C4  420   1.422   4.031  11.804 -0.1248 -0.5756 -0.1407
   27TMC2    C5  421   1.507   4.133  11.773  0.3880 -0.3390 -0.2237
   27TMC2    C6  422   1.613   4.113  11.697 -0.6110 -0.8060 -0.1454
   27TMC2     C  423   1.396   3.791  11.837 -0.2514  0.6610 -0.6709
   27TMC2     O  424   1.429   3.680  11.804 -0.0053 -0.2723 -0.2407
   27TMC2     H  425   1.588   3.772  11.660  2.1303  0.4498 -0.9216
   27TMC2    H1  426   1.340   4.059  11.869 -0.1845 -1.5697  0.2168
   27TMC2    H2  427   1.689   4.190  11.693 -2.3618  0.8983 -1.0738
   27TMC2    C7  428   1.525   4.211  11.893  0.0818  0.7692 -0.0167
   27TMC2    C8  429   1.759   3.960  11.581  0.2224  0.2187 -0.0485
   27TMC2    O1  430   1.529   4.330  11.884  0.1926  0.2614 -0.2944
   27TMC2    O2  431   1.776   3.860  11.517 -0.0395  0.1492 -0.3024
   27TMC2    O5  432   1.859   4.040  11.615 -0.0954  0.4218 -0.7715
   27TMC2    H5  433   1.837   4.108  11.682  0.7794  0.4915 -0.5512
   28MPD2     C  434   1.134   3.622  12.253 -0.2719  0.6306  0.0871
   28MPD2    C1  435   1.123   3.759  12.249 -0.0777  0.5281 -0.6209
   28MPD2    C2  436   1.191   3.831  12.149  0.8786  1.0447  0.0037
   28MPD2    C3  437   1.274   3.762  12.059  0.7025 -0.4107 -0.4504
   28MPD2    C4  438   1.289   3.623  12.080  0.8980 -0.3946 -0.4939
   28MPD2    C5  439   1.225   3.551  12.174 -0.1919  0.3970 -0.0365
   28MPD2     H  440   1.175   3.937  12.142  1.7845  1.2673  1.2353
   28MPD2    H1  441   1.347   3.571  12.005  0.9013  2.0928 -2.2017
   28MPD2    H2  442   1.074   3.571  12.326  0.5464  0.1573  0.4345
   28MPD2    H3  443   1.230   3.443  12.177  2.4037  0.5276  0.4084
   28MPD2     N  444   1.336   3.838  11.959  0.4633  0.3426  0.8329
   28MPD2    H5  445   1.324   3.937  11.975  0.7492  0.4233  0.5454
   28MPD2    N1  446   1.027   3.812  12.330  0.2506 -0.0661  0.1765
   28MPD2    H7  447   0.975   3.745  12.386 -2.3685  0.5501 -1.5029
   29TMC2    C1  448   1.176   2.047  14.351 -0.1572 -0.3885 -0.4952
   29TMC2    C2  449   1.200   2.102  14.473 -0.4675  0.5232  1.1037
   29TMC2    C3  450   1.276   2.214  14.476  0.8821 -0.3386  0.2747
   29TMC2    C4  451   1.205   2.108  14.230  0.1275  0.1441 -0.3472
   29TMC2    C5  452   1.278   2.221  14.238 -0.3622  0.9877  0.9271
   29TMC2    C6  453   1.313   2.277  14.353  0.3640  0.2310  0.3933
   29TMC2     C  454   1.104   1.925  14.326  0.4957  0.0400  0.3884
   29TMC2     O  455   1.127   1.830  14.402 -0.1635 -0.0416  0.6913
   29TMC2     H  456   1.164   2.056  14.564 -1.1489  0.1611  0.6521
   29TMC2    H1  457   1.187   2.058  14.136 -0.8721  2.0675 -1.1903
   29TMC2    H2  458   1.363   2.373  14.356 -2.6461  1.8746 -2.5582
   29TMC2    C7  459   1.365   2.239  14.123  0.0238  0.9785  0.4849
   29TMC2    C8  460   1.301   2.265  14.604 -0.1226 -0.0966  0.2741
   29TMC2    O1  461   1.317   2.199  14.016  0.1313  0.3086  0.3786
   29TMC2    O2  462   1.305   2.201  14.706 -0.0670 -0.2785  0.0650
   29TMC2    O5  463   1.314   2.400  14.593 -0.0808  0.6311  0.3380
   29TMC2    H5  464   1.282   2.434  14.507 -2.7811 -0.3870  0.9307
   30MPD2     C  465   0.824   1.657  14.002  0.4028 -0.2259 -0.2837
   30MPD2    C1  466   0.926   1.621  14.090  0.2244  0.3805  0.0774
   30MPD2    C2  467   0.981   1.708  14.172  0.3789  0.0221  0.0444
   30MPD2    C3  468   0.936   1.840  14.172  0.3708 -0.0693  0.7303
   30MPD2    C4  469   0.829   1.876  14.092 -0.0774 -0.2890  0.2364
   30MPD2    C5  470   0.775   1.787  14.008  0.3890  0.5250  1.1194
   30MPD2     H  471   1.062   1.677  14.237 -1.5822 -3.6750  0.7214
   30MPD2    H1  472   0.797   1.980  14.092 -0.0423 -0.2828 -0.6888
   30MPD2    H2  473   0.796   1.588  13.923  1.1694 -0.9601  0.0850
   30MPD2    H3  474   0.698   1.808  13.934  0.6792 -0.4128  0.5620
   30MPD2     N  475   1.004   1.944  14.235  0.9264  0.1424  0.6608
   30MPD2    H5  476   0.961   2.035  14.220 -0.8679 -0.8923 -0.4181
   30MPD2    N1  477   0.967   1.486  14.095 -0.4541 -1.0484 -0.1639
   30MPD2    H7  478   1.053   1.463  14.143  0.3610  0.7995 -0.7467
   31TMC2    C1  479   3.470   0.575  15.224  0.4237 -0.1049  0.1477
   31TMC2    C2  480   3.362   0.654  15.264  1.1408  0.1471 -0.6050
   31TMC2    C3  481   3.325   0.652  15.394  0.4515 -0.6424  0.2178
   31TMC2    C4  482   3.545   0.512  15.320 -0.8040  0.4641  0.2619
   31TMC2    C5  483   3.510   0.514  15.452 -0.5123  0.1335  0.1725
   31TMC2    C6  484   3.400   0.587  15.489  0.6549  1.2177  0.8475
   31TMC2     C  485   3.530   0.606  15.094 -1.0741 -0.2952 -0.1003
   31TMC2     O  486   3.464   0.681  15.022  0.4923 -0.4359 -0.2000
   31TMC2     H  487   3.296   0.701  15.191  2.0731 -1.3634 -2.4252
   31TMC2    H1  488   3.639   0.467  15.290 -1.2531  0.0583 -0.5473
   31TMC2    H2  489   3.364   0.596  15.591 -0.4485  0.5035  0.5200
   31TMC2    C7  490   3.604   0.469  15.553 -0.1524  0.6441  0.1953
   31TMC2    C8  491   3.207   0.714  15.449  0.6930  0.2751 -0.3396
   31TMC2    O1  492   3.707   0.421  15.506  0.2551  0.1251  0.2362
   31TMC2    O2  493   3.158   0.686  15.556  0.3675 -0.7814 -0.0211
   31TMC2    O5  494   3.136   0.779  15.357  0.2882  0.4475  0.0625
   31TMC2    H5  495   3.195   0.822  15.291  0.6372 -2.4618 -1.5027
   32MPD2     C  496   3.913   0.640  14.740 -0.1570 -0.5434 -0.8135
   32MPD2    C1  497   3.788   0.691  14.745  0.9613  0.1027 -0.2441
   32MPD2    C2  498   3.711   0.673  14.862  0.5481  0.7930 -0.4628
   32MPD2    C3  499   3.749   0.588  14.962 -0.3585  0.8241  0.1990
   32MPD2    C4  500   3.872   0.523  14.950  0.4279  0.0974  0.0901
   32MPD2    C5  501   3.951   0.554  14.842 -0.2137 -0.0501 -0.5174
   32MPD2     H  502   3.630   0.739  14.889 -1.9701 -1.7784 -1.7426
   32MPD2    H1  503   3.908   0.447  15.019 -0.5579  0.3073  0.8327
   32MPD2    H2  504   3.979   0.655  14.655 -0.0305 -0.2220 -0.6550
   32MPD2    H3  505   4.049   0.508  14.833 -0.4279  0.0420 -3.3209
   32MPD2     N  506   3.663   0.562  15.073  0.0930 -0.0792  0.2512
   32MPD2    H5  507   3.695   0.493  15.140 -1.7424 -2.0698 -0.9605
   32MPD2    N1  508   3.751   0.785  14.642  0.5322 -0.9219 -0.1816
   32MPD2    H7  509   3.818   0.812  14.571  0.1445 -1.4847 -0.7599
   33TMC2    C1  510   3.240   3.331  10.279 -0.0809 -0.3376 -0.5242
   33TMC2    C2  511   3.111   3.371  10.297  0.7257  0.3515  0.2956
   33TMC2    C3  512   3.047   3.414  10.188  0.0459 -0.0881  0.6428
   33TMC2    C4  513   3.302   3.338  10.157  0.3363 -0.1751  0.0159
   33TMC2    C5  514   3.242   3.406  10.059  0.4455  1.0239 -0.4367
   33TMC2    C6  515   3.107   3.436  10.068 -0.4248 -0.4523  0.1273
   33TMC2     C  516   3.291   3.241  10.375  0.1545 -0.1738  0.3319
   33TMC2     O  517   3.212   3.170  10.430 -0.6548 -0.4758 -0.4700
   33TMC2     H  518   3.058   3.366  10.391  1.2445  0.9775  0.6224
   33TMC2    H1  519   3.401   3.294  10.144  0.5520  0.4220 -0.3614
   33TMC2    H2  520   3.043   3.470   9.987 -1.1935 -2.2095  0.0035
   33TMC2    C7  521   3.314   3.416   9.936 -0.7237  0.6105  0.6356
   33TMC2    C8  522   2.909   3.469  10.207 -0.9051 -0.0598 -0.5410
   33TMC2    O1  523   3.420   3.364   9.928  0.2014 -0.1782  0.9900
   33TMC2    O2  524   2.852   3.542  10.126  0.5302  0.2884 -0.5701
   33TMC2    O5  525   2.839   3.373  10.270  0.1302  0.8215 -0.1661
   33TMC2    H5  526   2.897   3.300  10.302  1.4893  1.5598 -0.9402
   34MPD2     C  527   3.716   3.079  10.604  0.1103 -0.1167  0.0930
   34MPD2    C1  528   3.601   3.008  10.587  0.2646  0.5254 -0.7072
   34MPD2    C2  529   3.496   3.067  10.522 -0.6683 -0.0839 -0.4940
   34MPD2    C3  530   3.509   3.204  10.482 -0.5727 -0.2772 -0.1373
   34MPD2    C4  531   3.633   3.265  10.494 -0.2700 -0.3069 -0.2251
   34MPD2    C5  532   3.733   3.204  10.559  0.3934 -0.2613  0.0272
   34MPD2     H  533   3.403   3.016  10.501 -1.8988  1.7044  0.5671
   34MPD2    H1  534   3.655   3.366  10.462 -0.7216 -0.0155  0.3885
   34MPD2    H2  535   3.802   3.036  10.654  1.2426  1.3162 -0.6240
   34MPD2    H3  536   3.829   3.252  10.571  0.6922 -0.9734  0.5077
   34MPD2     N  537   3.425   3.270  10.391 -0.4869  0.7427  0.4853
   34MPD2    H5  538   3.468   3.344  10.336  0.8792 -0.4887 -0.0993
   34MPD2    N1  539   3.598   2.866  10.617  0.3077 -0.0494  0.4255
   34MPD2    H7  540   3.685   2.821  10.643  0.1926 -1.3982 -1.4789
   35TMC2    C1  541   0.468   4.430  11.265  0.2821  0.0200  0.5906
   35TMC2    C2  542   0.425   4.427  11.133 -0.2061  0.6703  0.5090
   35TMC2    C3  543   0.312   4.358  11.103  0.2518  0.4504  0.5498
   35TMC2    C4  544   0.397   4.364  11.363 -0.1216 -0.1167 -0.1313
   35TMC2    C5  545   0.290   4.286  11.321  0.3896  0.7398  0.2441
   35TMC2    C6  546   0.245   4.280  11.196  0.5859 -0.3423  0.0785
   35TMC2     C  547   0.591   4.503  11.307  0.2054 -0.4550  0.0771
   35TMC2     O  548   0.620   4.589  11.230 -0.0203 -0.1776  0.0425
   35TMC2     H  549   0.478   4.497  11.069 -2.6508 -0.6005 -2.8879
   35TMC2    H1  550   0.421   4.388  11.466 -0.3868 -0.1499 -0.0632
   35TMC2    H2  551   0.168   4.211  11.164 -0.2034  0.5964 -0.0579
   35TMC2    C7  552   0.254   4.165  11.404 -0.3630 -0.0739  0.2660
   35TMC2    C8  553   0.289   4.363  10.964  0.1564 -0.1213  0.5986
   35TMC2    O1  554   0.211   4.074  11.335  0.0630 -0.4345 -0.2394
   35TMC2    O2  555   0.370   4.397  10.876  0.4464 -0.3359  0.3437
   35TMC2    O5  556   0.159   4.320  10.940  0.3178 -0.0112  0.1982
   35TMC2    H5  557   0.103   4.328  11.020 -1.4038  0.1782 -1.0292
   36MPD2     C  558   0.868   4.728  11.669  0.1838  0.0704  0.1698
   36MPD2    C1  559   0.847   4.600  11.713 -0.0646  0.8333  0.2211
   36MPD2    C2  560   0.774   4.519  11.635  0.0387 -0.1118 -0.1352
   36MPD2    C3  561   0.725   4.568  11.511 -0.1879 -0.4765  0.4926
   36MPD2    C4  562   0.756   4.695  11.466  0.3317  0.1169  0.3169
   36MPD2    C5  563   0.828   0.042  11.546  0.2653 -0.0722 -0.3236
   36MPD2     H  564   0.741   4.419  11.661  2.1786 -1.0234 -0.9003
   36MPD2    H1  565   0.706   0.007  11.382  0.5772 -0.1607  0.0135
   36MPD2    H2  566   0.922   0.059  11.735  1.2105  0.7104 -1.3032
   36MPD2    H3  567   0.840   0.147  11.523 -3.3835  0.0751 -1.5976
   36MPD2     N  568   0.635   4.488  11.437 -0.3237  0.1216 -0.2475
   36MPD2    H5  569   0.597   4.409  11.489 -0.1839  0.1565 -0.0915
   36MPD2    N1  570   0.884   4.570  11.845  1.0374 -0.1506  0.4655
   36MPD2    H7  571   0.919   4.648  11.899  2.2683  0.0660 -0.6569
   37TMC2    C1  572   2.284   3.865  11.899 -0.2300 -0.2448 -0.3963
   37TMC2    C2  573   2.203   3.760  11.883 -0.1937 -0.0356  0.5095
   37TMC2    C3  574   2.178   3.727  11.749  0.5088 -0.3227  0.0008
   37TMC2    C4  575   2.352   3.927  11.800 -0.7368 -0.2627 -0.9584
   37TMC2    C5  576   2.328   3.886  11.675 -0.6710 -0.5251  0.8488
   37TMC2    C6  577   2.237   3.789  11.645 -0.0378 -0.4751 -0.3826
   37TMC2     C  578   2.297   3.918  12.031  0.0633  0.4030 -0.6753
   37TMC2     O  579   2.222   3.878  12.112  0.1181 -0.8250  0.0019
   37TMC2     H  580   2.146   3.715  11.964  1.5901 -0.8675  1.2986
   37TMC2    H1  581   2.400   4.023  11.816  0.0298 -0.5942 -1.2374
   37TMC2    H2  582   2.211   3.766  11.542 -1.1811  1.2406 -0.4733
   37TMC2    C7  583   2.410   3.947  11.570  0.4669 -0.6238 -0.2522
   37TMC2    C8  584   2.057   3.666  11.716 -0.3493 -0.5745  0.0844
   37TMC2    O1  585   2.514   4.007  11.603  0.5801 -0.1089  0.0992
   37TMC2    O2  586   2.031   3.578  11.633 -0.4488 -0.0057 -0.4631
   37TMC2    O5  587   1.962   3.746  11.771 -0.5690 -0.0732  0.0189
   37TMC2    H5  588   1.995   3.824  11.820 -0.6799 -0.0738  0.0936
   38MPD2     C  589   2.518   4.247  12.355  1.1446 -0.4297  0.8928
   38MPD2    C1  590   2.612   4.211  12.259 -0.1965 -0.1637 -0.2366
   38MPD2    C2  591   2.573   4.124  12.153 -0.5297 -0.0663 -0.0523
   38MPD2    C3  592   2.450   4.071  12.150  0.0225  0.3257  0.5087
   38MPD2    C4  593   2.364   4.105  12.255 -0.4061  0.3736  0.5086
   38MPD2    C5  594   2.401   4.192  12.355  0.4735 -0.2803  0.3778
   38MPD2     H  595   2.645   4.091  12.080 -0.2192 -1.4728  0.8808
   38MPD2    H1  596   2.264   4.064  12.251 -0.1501 -0.4484  2.5368
   38MPD2    H2  597   2.547   4.316  12.433  0.7593  0.3867  0.3082
   38MPD2    H3  598   2.328   4.211  12.433  0.7525  1.2186  0.2732
   38MPD2     N  599   2.419   3.983  12.043 -0.4122  0.1621  0.3530
   38MPD2    H5  600   2.477   3.984  11.960 -1.5896 -0.3050 -0.4727
   38MPD2    N1  601   2.744   4.266  12.259  0.4101 -0.2306  0.1715
   38MPD2    H7  602   2.794   4.246  12.173 -0.4305  2.3491 -0.9279
   39TMC2    C1  603   0.830   2.036   1.603 -0.9174 -0.4567 -0.3941
   39TMC2    C2  604   0.857   1.929   1.684  0.4373 -0.4732  0.2786
   39TMC2    C3  605   0.880   1.950   1.818  0.8165  0.4443  0.7408
   39TMC2    C4  606   0.831   2.164   1.653  0.0931  0.2257  0.1857
   39TMC2    C5  607   0.863   2.175   1.787 -0.3336  0.0036 -0.0597
   39TMC2    C6  608   0.890   2.071   1.874  1.0525 -0.0600 -0.5904
   39TMC2     C  609   0.744   2.016   1.484 -0.2757 -0.4932 -0.5139
   39TMC2     O  610   0.684   2.106   1.430  0.6588 -1.0695 -0.5875
   39TMC2     H  611   0.865   1.829   1.643 -1.0830 -0.4925  0.0166
   39TMC2    H1  612   0.790   2.250   1.600 -3.2331 -1.5610 -0.1647
   39TMC2    H2  613   0.914   2.091   1.977  2.0105  3.3318 -1.4810
   39TMC2    C7  614   0.814   2.294   1.849  0.3103 -0.6085  0.7190
   39TMC2    C8  615   0.960   1.853   1.889  0.3000  0.3389 -0.5075
   39TMC2    O1  616   0.761   2.286   1.957  0.1650 -0.5556 -0.5825
   39TMC2    O2  617   1.053   1.785   1.846 -1.4305 -0.3964 -0.2987
   39TMC2    O5  618   0.903   1.847   2.005 -0.5344 -0.5463 -0.2495
   39TMC2    H5  619   0.823   1.903   2.010 -0.7277 -0.9346  1.0561
   40MPD2     C  620   0.708   1.724   1.274 -0.1810  0.5514  0.4674
   40MPD2    C1  621   0.659   1.832   1.332 -0.3879 -0.1179 -0.5886
   40MPD2    C2  622   0.532   1.879   1.304 -0.2484  0.0227 -0.2159
   40MPD2    C3  623   0.462   1.816   1.202  0.4823  0.0651  0.0075
   40MPD2    C4  624   0.515   1.703   1.151  0.1074 -0.2490  0.4183
   40MPD2    C5  625   0.642   1.664   1.175 -0.2182 -0.2173  0.2837
   40MPD2     H  626   0.496   1.970   1.350  3.0427  0.3523  1.7319
   40MPD2    H1  627   0.457   1.662   1.069  0.4182  0.2807 -0.0682
   40MPD2    H2  628   0.806   1.689   1.307  0.0490 -0.2158 -1.0022
   40MPD2    H3  629   0.689   1.585   1.117 -2.2450 -0.1096 -1.5122
   40MPD2     N  630   0.339   1.873   1.152  0.1043  0.3899  0.3860
   40MPD2    H5  631   0.297   1.822   1.075 -1.9798 -0.2874  1.9464
   40MPD2    N1  632   0.745   1.888   1.426  0.0203 -0.6496  0.3152
   40MPD2    H7  633   0.826   1.836   1.455  1.8171  0.7976 -2.0937
   41TMC2    C1  634   3.672   4.658  13.512  0.4246  0.0470  0.1357
   41TMC2    C2  635   3.597   4.583  13.595 -0.0282 -0.6350 -0.0980
   41TMC2    C3  636   3.465   4.588  13.574  0.3866  0.4259  0.4157
   41TMC2    C4  637   3.619   0.011  13.422  0.1648 -0.0995  0.2210
   41TMC2    C5  638   3.482   0.015  13.412  0.0747  0.6546 -0.4247
   41TMC2    C6  639   3.403   4.667  13.480 -0.0704 -0.0302 -0.2823
   41TMC2     C  640   3.809   4.686  13.554 -0.0548  0.5417  0.4080
   41TMC2     O  641   3.880   0.003  13.467  0.6666 -0.1987  0.9974
   41TMC2     H  642   3.636   4.529  13.680  1.6729  0.8648  0.0769
   41TMC2    H1  643   3.687   0.079  13.372  1.1528 -0.6127  0.8838
   41TMC2    H2  644   3.297   4.663  13.459  0.4190  0.0689 -2.7739
   41TMC2    C7  645   3.419   0.096  13.308  0.2683 -0.5929 -0.2218
   41TMC2    C8  646   3.371   4.512  13.655 -0.8365 -0.3082 -0.7438
   41TMC2    O1  647   3.302   0.130  13.314 -0.0100  0.1120 -0.2029
   41TMC2    O2  648   3.256   4.544  13.663 -0.1367 -0.3312  0.1970
   41TMC2    O5  649   3.411   4.389  13.681  0.1461 -0.2782  0.4461
   41TMC2    H5  650   3.503   4.364  13.656  0.9633  2.6425  0.5826
   42MPD2     C  651   4.069   0.025  13.672  0.2758 -0.1873 -0.4476
   42MPD2    C1  652   3.964   4.707  13.748  0.0268 -0.0739 -0.2588
   42MPD2    C2  653   3.980   4.694  13.885  0.6668  0.3294 -0.1374
   42MPD2    C3  654   4.094   0.002  13.955 -0.2711 -0.3015 -0.1998
   42MPD2    C4  655   4.193   0.067  13.878 -0.4170 -0.2504 -0.2083
   42MPD2    C5  656   4.174   0.082  13.742 -0.1978  0.4265  0.1947
   42MPD2     H  657   3.900   4.654  13.946  0.3505 -0.5720 -1.1462
   42MPD2    H1  658   4.280   0.111  13.926 -0.8497 -0.1945  0.5238
   42MPD2    H2  659   4.067   0.046  13.565 -3.7416 -1.5817 -0.6472
   42MPD2    H3  660   4.246   0.144  13.690  0.1363  0.2347  0.4279
   42MPD2     N  661   4.104   4.734  14.100 -0.4122  0.0714  0.7891
   42MPD2    H5  662   4.176   0.058  14.138  0.8943 -1.6279  0.9653
   42MPD2    N1  663   3.840   4.673  13.691  0.4642 -0.3841  0.1325
   42MPD2    H7  664   3.770   4.642  13.758 -1.0131 -0.8353 -1.6059
   43TMC2    C1  665   1.068   3.639   0.988  0.6784  0.0781 -0.1573
   43TMC2    C2  666   0.959   3.727   1.012  0.7002  0.2939 -0.1777
   43TMC2    C3  667   0.994   3.839   1.084 -0.1502 -0.0619 -0.4010
   43TMC2    C4  668   1.199   3.670   1.032  0.8381 -0.9023  0.1966
   43TMC2    C5  669   1.217   3.784   1.106  1.0087  0.3654  0.3574
   43TMC2    C6  670   1.116   3.874   1.128  0.4132 -0.4898 -0.0191
   43TMC2     C  671   1.060   3.524   0.901  0.0415  0.0681  0.3148
   43TMC2     O  672   1.158   3.447   0.905 -0.2032 -0.0776  0.1694
   43TMC2     H  673   0.858   3.703   0.978 -0.5205  0.4835  3.3216
   43TMC2    H1  674   1.279   3.599   1.014 -2.0974 -3.9338 -0.7218
   43TMC2    H2  675   1.119   3.968   1.183  1.1987 -0.4303 -0.1623
   43TMC2    C7  676   1.348   3.808   1.166 -0.0125  0.7838  0.4195
   43TMC2    C8  677   0.912   3.958   1.081  0.5399 -0.9104 -0.1013
   43TMC2    O1  678   1.430   3.717   1.143  0.4219  0.4370  0.4699
   43TMC2    O2  679   0.936   4.069   1.125 -0.0823  0.0994 -0.6574
   43TMC2    O5  680   0.791   3.913   1.034 -0.1243 -0.1231 -0.5606
   43TMC2    H5  681   0.715   3.974   1.040  0.7594  0.7545  1.4362
   44MPD2     C  682   0.932   3.316   0.450 -0.1677 -0.3551 -0.3477
   44MPD2    C1  683   1.046   3.290   0.529 -0.9856 -0.5362 -0.1197
   44MPD2    C2  684   1.050   3.359   0.647 -0.0396  0.0874  0.4397
   44MPD2    C3  685   0.945   3.437   0.696  0.1681  0.3188  0.4232
   44MPD2    C4  686   0.836   3.446   0.616 -0.0207  0.1453  0.4113
   44MPD2    C5  687   0.832   3.393   0.495 -0.0508  0.5785  0.0477
   44MPD2     H  688   1.145   3.347   0.699  0.4035 -2.0636 -0.8325
   44MPD2    H1  689   0.751   3.508   0.641 -0.9836 -1.1215  0.3383
   44MPD2    H2  690   0.923   3.268   0.354  0.5667  0.5139 -0.8599
   44MPD2    H3  691   0.741   3.393   0.435  0.6714 -0.6214 -1.0498
   44MPD2     N  692   0.953   3.518   0.811  0.2708  0.0895  0.1958
   44MPD2    H5  693   0.890   3.597   0.825 -0.2499  0.0129 -1.7690
   44MPD2    N1  694   1.165   3.229   0.488 -0.0474  0.2946 -0.4672
   44MPD2    H7  695   1.227   3.200   0.563  0.9522  0.9767 -1.0269
   45TMC2    C1  696   1.993   4.496   9.537  0.1720  0.1771 -0.1400
   45TMC2    C2  697   2.059   4.433   9.441  0.1041 -0.6328 -0.4984
   45TMC2    C3  698   2.163   4.504   9.386 -0.0374 -0.6668  0.1244
   45TMC2    C4  699   2.033   4.618   9.585  0.4856 -0.5746  0.6211
   45TMC2    C5  700   2.136   4.683   9.523 -0.2040  0.5004  0.3278
   45TMC2    C6  701   2.204   4.631   9.417 -0.5188 -0.2558  0.3095
   45TMC2     C  702   1.933   4.420   9.638  0.1228  0.3085 -0.2124
   45TMC2     O  703   1.897   4.478   9.741  0.4657  0.1648 -0.1610
   45TMC2     H  704   2.055   4.325   9.446  0.5832 -0.5453  1.7361
   45TMC2    H1  705   1.998   4.660   9.679  1.2731 -0.2348  0.7615
   45TMC2    H2  706   2.297   4.665   9.373 -0.1910 -0.6596  0.6965
   45TMC2    C7  707   2.184   0.059   9.594  0.7005  0.3311  0.3297
   45TMC2    C8  708   2.218   4.454   9.263  0.0124 -0.2583 -0.0060
   45TMC2    O1  709   2.122   0.093   9.692 -0.4851  0.2780 -0.6342
   45TMC2    O2  710   2.308   4.515   9.209 -0.5893 -0.0886  0.1521
   45TMC2    O5  711   2.110   4.406   9.202  0.6400  0.3803  0.2225
   45TMC2    H5  712   2.051   4.355   9.262 -1.2962  1.7572 -0.5086
   46MPD2     C  713   1.774   4.209   9.784  0.8535  0.3320 -0.1574
   46MPD2    C1  714   1.803   4.210   9.647  0.1997  0.0366  0.4830
   46MPD2    C2  715   1.742   4.120   9.569 -0.0569 -0.9999  0.5074
   46MPD2    C3  716   1.651   4.025   9.620  0.1817 -0.4829  0.4283
   46MPD2    C4  717   1.630   4.021   9.750  0.2426 -0.3907  0.6454
   46MPD2    C5  718   1.697   4.104   9.834  0.5527 -0.2077  0.0497
   46MPD2     H  719   1.759   4.134   9.462  0.1781 -1.7937  0.4425
   46MPD2    H1  720   1.559   3.950   9.791 -2.3689  2.8495  1.6589
   46MPD2    H2  721   1.808   4.284   9.854  1.5415  0.0810 -0.2192
   46MPD2    H3  722   1.663   4.107   9.937 -1.3916  2.1304 -0.6719
   46MPD2     N  723   1.568   3.956   9.532  0.6401 -0.1120 -0.1043
   46MPD2    H5  724   1.572   3.975   9.432  0.3488  1.8694  0.2469
   46MPD2    N1  725   1.871   4.311   9.582 -0.3226  0.1883 -0.7281
   46MPD2    H7  726   1.880   4.313   9.480  2.6113  0.7688 -0.4571
   47TMC2    C1  727   4.221   0.348   8.516 -0.2819 -0.4383  0.1092
   47TMC2    C2  728   4.193   0.396   8.387  0.6494 -0.0934 -0.1746
   47TMC2    C3  729   4.069   0.381   8.340 -0.0321  0.4366  0.1479
   47TMC2    C4  730   4.132   0.282   8.594  0.7652 -0.7121  0.2796
   47TMC2    C5  731   4.009   0.257   8.530  0.8870 -0.3893  0.0564
   47TMC2    C6  732   3.976   0.304   8.406  0.1063 -0.0529 -0.1083
   47TMC2     C  733   4.357   0.365   8.567  0.0193  0.2355 -0.2895
   47TMC2     O  734   4.435   0.436   8.507  0.0378  0.0041 -0.2871
   47TMC2     H  735   4.271   0.449   8.333 -0.1119  1.5197  0.2968
   47TMC2    H1  736   4.147   0.275   8.701 -1.7421  0.6605  0.7089
   47TMC2    H2  737   3.878   0.288   8.362 -0.9325  1.5282  1.6354
   47TMC2    C7  738   3.932   0.147   8.597 -0.1456  0.0436  0.3878
   47TMC2    C8  739   4.057   0.392   8.195 -0.2731 -0.0337 -0.9771
   47TMC2    O1  740   3.934   0.149   8.721 -0.4798 -0.2231 -0.0528
   47TMC2    O2  741   4.143   0.360   8.112 -0.1816  0.2233 -0.3194
   47TMC2    O5  742   3.931   0.418   8.170  0.0296  0.8646 -0.1827
   47TMC2    H5  743   3.878   0.438   8.250  0.9063 -2.3465  1.1713
   48MPD2     C  744   4.612   0.343   8.731  0.3404  0.0235  0.2989
   48MPD2    C1  745   4.501   0.260   8.744  0.5103  0.0977 -0.2960
   48MPD2    C2  746   4.514   0.163   8.841  0.4859  0.7409  0.2545
   48MPD2    C3  747   4.635   0.145   8.916  0.1807  1.2019 -1.0435
   48MPD2    C4  748   0.010   0.227   8.892 -0.0101  0.4044 -0.3537
   48MPD2    C5  749   4.728   0.333   8.805  0.7579  0.9555 -0.5652
   48MPD2     H  750   4.436   0.091   8.863 -0.5286  1.8106  0.1501
   48MPD2    H1  751   0.102   0.221   8.949 -0.1013  0.1135 -0.2362
   48MPD2    H2  752   4.615   0.432   8.670 -2.8987  0.9591  1.5131
   48MPD2    H3  753   0.065   0.410   8.783  1.0894  0.3184 -1.7177
   48MPD2     N  754   4.634   0.030   8.995  0.3493  0.1387  0.2500
   48MPD2    H5  755   4.546   4.715   9.002 -0.4454  1.3034 -1.2692
   48MPD2    N1  756   4.380   0.271   8.671 -0.2246  0.8032  0.0257
   48MPD2    H7  757   4.302   0.222   8.713  2.4082 -2.0629  1.6407
   49TMC2    C1  758   2.308   1.491  10.456 -0.6035  0.3946 -0.2091
   49TMC2    C2  759   2.217   1.421  10.379 -0.2485  0.1603 -0.0718
   49TMC2    C3  760   2.230   1.285  10.374  0.4003  0.2353 -0.5043
   49TMC2    C4  761   2.401   1.419  10.537  0.0920  0.1977 -0.3484
   49TMC2    C5  762   2.403   1.281  10.527  0.2955  0.6529  0.3047
   49TMC2    C6  763   2.312   1.213  10.448 -0.2020  0.1297 -0.6182
   49TMC2     C  764   2.301   1.637  10.468 -0.1629 -0.4122 -0.3249
   49TMC2     O  765   2.220   1.694  10.394 -0.1712  0.0764  0.2191
   49TMC2     H  766   2.134   1.469  10.330 -0.1466  0.4407  0.0305
   49TMC2    H1  767   2.488   1.467  10.580 -1.5133  2.4099  0.4218
   49TMC2    H2  768   2.323   1.106  10.435 -0.7664  0.1254 -1.0795
   49TMC2    C7  769   2.515   1.207  10.584 -0.7445 -1.0368  0.3558
   49TMC2    C8  770   2.136   1.216  10.297 -0.5624  0.0141  0.0846
   49TMC2    O1  771   2.516   1.085  10.555 -0.0355 -1.0215  0.2773
   49TMC2    O2  772   2.092   1.261  10.190  0.0733  0.2615  0.5850
   49TMC2    O5  773   2.084   1.113  10.360  0.5011 -0.0806  0.2909
   49TMC2    H5  774   2.120   1.092  10.449  0.1978  1.7316  0.8448
   50MPD2     C  775   2.361   1.927  10.534 -0.1920  0.2228 -0.2142
   50MPD2    C1  776   2.416   1.816  10.595  0.3588 -0.1878  0.6647
   50MPD2    C2  777   2.494   1.838  10.704  0.2143  0.2609  0.6003
   50MPD2    C3  778   2.527   1.969  10.744 -0.2778  0.5135 -0.1284
   50MPD2    C4  779   2.481   2.078  10.674  0.2925 -0.4760 -0.2964
   50MPD2    C5  780   2.403   2.054  10.562 -0.0440  0.5048  0.1106
   50MPD2     H  781   2.530   1.751  10.757 -0.6627  0.1614  1.0271
   50MPD2    H1  782   2.514   2.179  10.695 -0.2995 -0.0885 -1.2076
   50MPD2    H2  783   2.305   1.916  10.442  1.4258 -0.3079 -1.1322
   50MPD2    H3  784   2.376   2.140  10.501 -3.1524  1.7624  3.2686
   50MPD2     N  785   2.624   1.986  10.854  0.6372 -0.4973  0.0841
   50MPD2    H5  786   2.651   2.079  10.887  1.1255  0.3876 -2.8353
   50MPD2    N1  787   2.398   1.687  10.554  0.1480  0.9281  0.0276
   50MPD2    H7  788   2.430   1.615  10.619  0.7607  1.5928  0.4634
   51TMC2    C1  789   4.256   1.759   1.746  0.2067  0.6960  0.2144
   51TMC2    C2  790   4.144   1.830   1.727 -0.3451 -0.4006  0.4310
   51TMC2    C3  791   4.134   1.967   1.731 -0.3681 -0.2153  0.4232
   51TMC2    C4  792   4.362   1.832   1.781  0.2413 -0.4593  0.3033
   51TMC2    C5  793   4.356   1.967   1.803 -0.4419 -0.3770 -0.2836
   51TMC2    C6  794   4.240   2.037   1.781 -0.0477  0.3278 -0.1100
   51TMC2     C  795   4.269   1.625   1.693 -0.4145 -0.1770 -0.0718
   51TMC2     O  796   4.177   1.585   1.626  0.2667 -0.6612 -0.0574
   51TMC2     H  797   4.057   1.766   1.724 -1.4913  1.1363  1.0971
   51TMC2    H1  798   4.457   1.782   1.789  0.1907 -0.8611 -1.4924
   51TMC2    H2  799   4.236   2.140   1.815 -1.8387 -0.4735  2.0843
   51TMC2    C7  800   4.475   2.040   1.831  0.2183  0.4954  0.1276
   51TMC2    C8  801   4.007   2.027   1.735  0.3240  0.4549 -0.2266
   51TMC2    O1  802   4.472   2.162   1.803  0.3659  0.0141  0.4575
   51TMC2    O2  803   3.902   1.959   1.739  0.8027  0.1607  0.1215
   51TMC2    O5  804   4.012   2.155   1.692  0.6722  0.0012  0.2745
   51TMC2    H5  805   4.093   2.189   1.649 -0.0887  2.2346  0.6010
   52MPD2     C  806   4.495   1.163   1.650  0.3100 -0.4311 -0.3353
   52MPD2    C1  807   4.384   1.225   1.590  0.4246  0.0293  0.0365
   52MPD2    C2  808   4.337   1.344   1.622  0.6218  0.5991  0.1553
   52MPD2    C3  809   4.406   1.418   1.716 -0.0430 -0.1956  0.0101
   52MPD2    C4  810   4.508   1.355   1.787 -0.2196 -0.4303 -0.7701
   52MPD2    C5  811   4.548   1.231   1.755 -0.1694  0.3909 -0.0138
   52MPD2     H  812   4.255   1.384   1.564  1.0844  0.0090 -0.9046
   52MPD2    H1  813   4.560   1.404   1.868 -0.4183  0.2481 -1.0483
   52MPD2    H2  814   4.527   1.064   1.619  0.2460 -0.4280 -0.4114
   52MPD2    H3  815   4.629   1.189   1.813 -0.2416  1.6044  0.9698
   52MPD2     N  816   4.374   1.555   1.751  0.1271 -0.1689  0.7083
   52MPD2    H5  817   4.420   1.600   1.830 -0.8008  0.1214  1.0863
   52MPD2    N1  818   4.329   1.169   1.476  0.0044  0.6319  0.3635
   52MPD2    H7  819   4.256   1.228   1.439  0.1072  0.6218  0.1422
   53TMC2    C1  820   2.786   4.430  11.174 -0.2149 -1.1155  0.5994
   53TMC2    C2  821   2.835   4.522  11.085  0.6566  0.9763 -0.6703
   53TMC2    C3  822   2.924   4.608  11.136  0.6110 -1.1871  0.7060
   53TMC2    C4  823   2.814   4.443  11.313  0.5074 -1.0466  0.0212
   53TMC2    C5  824   2.909   4.532  11.358 -0.0351 -0.7832 -0.1946
   53TMC2    C6  825   2.964   4.619  11.268 -0.3205 -0.3397  0.0649
   53TMC2     C  826   2.705   4.318  11.125 -0.0673 -0.0769 -0.3520
   53TMC2     O  827   2.681   4.312  11.002 -0.0911  0.0121 -0.5305
   53TMC2     H  828   2.820   4.518  10.977  3.4666 -1.4771 -0.9756
   53TMC2    H1  829   2.770   4.371  11.381  0.0094 -0.9482 -0.1985
   53TMC2    H2  830   3.021   4.704  11.302  0.9971 -0.1844 -2.5273
   53TMC2    C7  831   2.900   4.564  11.505 -0.0259 -0.2976  0.4753
   53TMC2    C8  832   2.948   4.733  11.064  0.0172  0.3178 -0.1620
   53TMC2    O1  833   2.795   4.529  11.555 -0.1656  0.6249  0.0372
   53TMC2    O2  834   3.040   0.073  11.084  0.2748 -0.0230  0.1832
   53TMC2    O5  835   2.838   0.032  10.997  0.2687 -0.2532  0.2789
   53TMC2    H5  836   2.763   4.704  11.006 -0.2641  0.5854  1.7589
   54MPD2     C  837   2.521   4.073  11.088 -0.4568  0.2670  0.2887
   54MPD2    C1  838   2.547   4.138  11.205  0.1430  0.2162  0.4196
   54MPD2    C2  839   2.488   4.097  11.320 -0.0313  0.9825 -0.2522
   54MPD2    C3  840   2.410   3.987  11.323  0.7783 -0.6104  0.7645
   54MPD2    C4  841   2.352   3.949  11.199  0.0615 -1.2640  0.3757
   54MPD2    C5  842   2.411   3.987  11.081 -0.1394 -0.5240  0.1309
   54MPD2     H  843   2.509   4.155  11.410  0.6434  1.1877 -0.5352
   54MPD2    H1  844   2.276   3.872  11.193  0.2896 -1.4991  0.5142
   54MPD2    H2  845   2.575   4.090  10.996  0.7559 -0.3621  0.8803
   54MPD2    H3  846   2.385   3.946  10.984 -0.4943 -0.9268  0.3957
   54MPD2     N  847   2.358   3.933  11.440 -0.0806 -0.0765  0.8360
   54MPD2    H5  848   2.284   3.866  11.422  1.3907 -1.6998  0.8519
   54MPD2    N1  849   2.639   4.245  11.225 -0.6830  0.1836  0.2044
   54MPD2    H7  850   2.652   4.277  11.320 -1.2830 -2.6958  1.2595
   55TMC2    C1  851   4.041   3.334  17.503 -0.4222 -0.2754 -0.0729
   55TMC2    C2  852   4.105   3.376  17.388 -0.6667 -0.2512  0.0561
   55TMC2    C3  853   4.147   3.279  17.300 -0.2950 -0.2463 -0.5233
   55TMC2    C4  854   4.010   3.200  17.525 -0.2542 -0.5541  0.6882
   55TMC2    C5  855   4.065   3.113  17.437 -0.0850  0.1654  1.0498
   55TMC2    C6  856   4.140   3.142  17.329  0.0330 -0.4042 -0.4220
   55TMC2     C  857   3.992   3.436  17.596  0.2043 -0.0757 -0.2555
   55TMC2     O  858   3.915   3.399  17.682  0.4989 -0.1024 -0.0305
   55TMC2     H  859   4.094   3.477  17.351 -2.7742 -0.5310 -0.0786
   55TMC2    H1  860   3.943   3.166  17.603 -0.1680  0.8499  1.3917
   55TMC2    H2  861   4.174   3.062  17.263  1.6056 -2.6361  3.0906
   55TMC2    C7  862   4.096   2.976  17.481  0.0867  0.2021 -0.1171
   55TMC2    C8  863   4.216   3.321  17.184 -0.7260 -0.0078  1.0411
   55TMC2    O1  864   4.131   2.886  17.404 -0.1566 -0.0852 -0.0997
   55TMC2    O2  865   4.256   3.436  17.177 -0.3433  0.0853  0.3984
   55TMC2    O5  866   4.250   3.219  17.107  0.0596  0.6139 -0.3739
   55TMC2    H5  867   4.213   3.130  17.127  1.4404 -0.1970 -1.4017
   56MPD2     C  868   4.071   3.785  17.637  0.4870  0.0672  0.5985
   56MPD2    C1  869   3.998   3.679  17.653  0.6460  0.5967 -0.0688
   56MPD2    C2  870   3.918   3.676   0.026 -0.0886 -0.3273 -0.7697
   56MPD2    C3  871   3.898   3.794   0.100  0.5286  0.1109  0.0010
   56MPD2    C4  872   3.971   3.906   0.070  0.4173  0.0109  0.7956
   56MPD2    C5  873   4.064   3.904  17.708 -1.0707  0.0271 -0.2610
   56MPD2     H  874   3.866   3.588   0.062  1.5690 -0.9811  0.0242
   56MPD2    H1  875   3.971   3.991   0.137  1.3760 -0.0807  0.9193
   56MPD2    H2  876   4.157   3.781  17.570 -0.6053  1.8839 -0.9149
   56MPD2    H3  877   4.132   3.986  17.688 -0.5088 -0.3562  0.0871
   56MPD2     N  878   3.809   3.791   0.207  0.1960 -0.7301 -0.1758
   56MPD2    H5  879   3.777   3.700   0.238 -4.8006  0.6759 -1.2423
   56MPD2    N1  880   4.044   3.563  17.587 -0.2577 -0.6019  0.2131
   56MPD2    H7  881   4.117   3.574  17.518 -1.7864 -0.0544 -1.2954
   57TMC2    C1  882   3.071   2.723  13.464  0.2907  0.1790 -0.3773
   57TMC2    C2  883   3.031   2.610  13.397  0.4923 -0.3656 -0.4155
   57TMC2    C3  884   3.122   2.514  13.365  0.2784 -0.0265  0.4685
   57TMC2    C4  885   3.205   2.744  13.489  0.9481 -0.5176  0.5901
   57TMC2    C5  886   3.293   2.663  13.428 -0.0717  0.5783 -0.0956
   57TMC2    C6  887   3.257   2.543  13.365  0.1240  0.0338  0.1415
   57TMC2     C  888   3.036   2.835  13.391  1.0880 -0.1860 -0.0960
   57TMC2     O  889   3.062   2.944  13.433 -0.3868  0.6360  0.4459
   57TMC2     H  890   2.926   2.586  13.390  0.4406  0.1277 -1.2905
   57TMC2    H1  891   3.239   2.833  13.540 -0.1951 -0.4968  1.3042
   57TMC2    H2  892   3.334   2.484  13.317  0.3921  1.3792 -1.0820
   57TMC2    C7  893   3.436   2.693  13.448 -0.1994  0.2042  0.6369
   57TMC2    C8  894   3.072   2.415  13.270  0.0606 -0.5317 -0.3974
   57TMC2    O1  895   3.455   2.776  13.534  0.1420  0.2832 -0.6708
   57TMC2    O2  896   2.975   2.454  13.210  0.2690 -0.7365 -0.0400
   57TMC2    O5  897   3.168   2.332  13.230  0.0503 -0.7681  0.5260
   57TMC2    H5  898   3.247   2.325  13.288  0.1988  0.0995  0.4306
   58MPD2     C  899   2.798   3.044  12.972  1.2498 -0.0048 -0.2528
   58MPD2    C1  900   2.814   3.096  13.098 -0.9165 -0.9226 -0.4307
   58MPD2    C2  901   2.871   3.019  13.200 -0.1120 -0.1157  0.3125
   58MPD2    C3  902   2.909   2.887  13.182 -0.2763 -0.6497  0.0478
   58MPD2    C4  903   2.869   2.831  13.062 -0.5744  0.2229  0.3118
   58MPD2    C5  904   2.826   2.905  12.960 -0.0913  0.1353 -0.4611
   58MPD2     H  905   2.887   3.071  13.294  1.4255 -0.4083  0.2276
   58MPD2    H1  906   2.891   2.727  13.037 -2.4784 -0.8598  3.0986
   58MPD2    H2  907   2.761   3.102  12.889  0.2172 -1.3697 -0.7453
   58MPD2    H3  908   2.814   2.857  12.864 -2.4291  0.0703 -0.1319
   58MPD2     N  909   2.975   2.798  13.274  0.0269  0.8631 -0.6126
   58MPD2    H5  910   2.988   2.702  13.243 -2.4003  0.8151 -1.4803
   58MPD2    N1  911   2.784   3.232  13.128  0.0085 -0.1939  0.2483
   58MPD2    H7  912   2.805   3.258  13.224 -0.1447 -0.5935  0.3906
   59TMC2    C1  913   0.659   3.366  12.450  0.0914 -0.5600  0.3285
   59TMC2    C2  914   0.626   3.236  12.412  0.0169  0.4229 -0.3767
   59TMC2    C3  915   0.585   3.217  12.280 -0.2188  0.4425  0.3696
   59TMC2    C4  916   0.682   3.457  12.354 -0.0206 -0.3825 -0.0073
   59TMC2    C5  917   0.666   3.427  12.225  0.4009  0.0996  0.0125
   59TMC2    C6  918   0.611   3.310  12.177 -0.0269  0.0411 -0.6166
   59TMC2     C  919   0.635   3.405  12.592  0.0933 -0.4411  0.0697
   59TMC2     O  920   0.574   3.328  12.665 -0.5041  0.6332  0.1209
   59TMC2     H  921   0.621   3.158  12.487  2.5290  1.9108  1.3049
   59TMC2    H1  922   0.721   3.555  12.378 -2.6112  1.1110 -1.8711
   59TMC2    H2  923   0.605   3.282  12.073  0.0560  0.7414 -0.8108
   59TMC2    C7  924   0.751   3.487  12.128 -0.2789 -0.4008 -0.1560
   59TMC2    C8  925   0.551   3.081  12.231 -0.2274  0.1318 -0.1733
   59TMC2    O1  926   0.808   3.415  12.046 -0.3959 -0.0228  0.1211
   59TMC2    O2  927   0.574   3.037  12.119  0.2097 -0.0577  0.1357
   59TMC2    O5  928   0.465   3.025  12.322 -0.2111  0.7600  0.4251
   59TMC2    H5  929   0.439   3.078  12.401  1.3283  1.3174  0.5460
   60MPD2     C  930   0.574   3.562  12.841 -0.2283  0.0851  0.2670
   60MPD2    C1  931   0.671   3.598  12.746 -0.1915 -0.6572 -0.6305
   60MPD2    C2  932   0.741   3.717  12.767  0.5162 -0.0388  0.4545
   60MPD2    C3  933   0.723   3.791  12.885 -0.5087  0.8358 -0.2178
   60MPD2    C4  934   0.637   3.750  12.982 -0.1732 -0.0847  0.9410
   60MPD2    C5  935   0.555   3.643  12.952 -0.1930 -0.2752 -0.0492
   60MPD2     H  936   0.813   3.748  12.692  1.8447 -0.7067  1.4430
   60MPD2    H1  937   0.631   3.806  13.075  0.5636  1.9164 -0.2264
   60MPD2    H2  938   0.508   3.477  12.837 -2.6764  2.0611 -1.4602
   60MPD2    H3  939   0.477   3.608  13.018 -0.2626 -1.9447 -0.9976
   60MPD2     N  940   0.812   3.896  12.918 -0.2069 -0.6802  0.8243
   60MPD2    H5  941   0.794   3.928  13.013  2.2642 -0.8230  1.3618
   60MPD2    N1  942   0.694   3.529  12.626  0.6659  0.0275 -0.0950
   60MPD2    H7  943   0.761   3.574  12.564  0.9045 -1.4798 -0.9382
   61TMC2    C1  944   0.158   1.065  16.052  0.3249 -0.8728  0.2506
   61TMC2    C2  945   0.212   1.099  16.176 -0.1659 -0.1623  0.7090
   61TMC2    C3  946   0.240   1.228  16.200 -0.0879  0.1617  0.1884
   61TMC2    C4  947   0.139   1.157  15.953  0.4411  0.5471  1.0891
   61TMC2    C5  948   0.176   1.286  15.981 -0.0664 -0.0097  0.1617
   61TMC2    C6  949   0.228   1.320  16.103  0.5061  0.6881 -0.1274
   61TMC2     C  950   0.179   0.926  16.022 -0.3643 -0.8572 -0.1503
   61TMC2     O  951   0.249   0.867  16.103 -0.3295  0.5547  0.0458
   61TMC2     H  952   0.234   1.021  16.248 -1.0574 -0.5882  0.5127
   61TMC2    H1  953   0.091   1.137  15.858  1.3006  0.6296  0.6303
   61TMC2    H2  954   0.269   1.418  16.121 -0.3690  1.2691 -1.2691
   61TMC2    C7  955   0.173   1.374  15.865 -0.8339 -0.0115 -0.1324
   61TMC2    C8  956   0.345   1.268  16.294 -0.0962 -0.4450  0.5229
   61TMC2    O1  957   0.177   1.322  15.756 -0.0052  0.1001 -0.2606
   61TMC2    O2  958   0.428   1.349  16.273 -0.3470 -0.0327  0.3435
   61TMC2    O5  959   0.336   1.186  16.397 -0.2746  0.1076  0.3923
   61TMC2    H5  960   0.254   1.137  16.418 -0.0203 -0.3438  0.3386
   62MPD2     C  961   0.185   0.636  15.934  0.1067 -0.0005  0.8465
   62MPD2    C1  962   0.111   0.738  15.874  0.1840  0.0853  0.2982
   62MPD2    C2  963   0.048   0.706  15.758 -0.1323  0.0256 -0.2014
   62MPD2    C3  964   0.066   0.578  15.703  0.4894  0.4550  0.1277
   62MPD2    C4  965   0.137   0.481  15.769 -0.2392  0.3240  1.0488
   62MPD2    C5  966   0.198   0.511  15.884  0.3451 -1.0146 -0.5846
   62MPD2     H  967   4.714   0.780  15.721  1.9056  2.2020  0.3323
   62MPD2    H1  968   0.145   0.381  15.727  0.9872  0.4734  0.9412
   62MPD2    H2  969   0.246   0.663  16.020 -0.2831 -0.4078  1.2541
   62MPD2    H3  970   0.242   0.435  15.949  0.7733  0.4359  0.8190
   62MPD2     N  971   0.032   0.544  15.573 -0.0124 -0.3001  0.0807
   62MPD2    H5  972   0.067   0.459  15.528 -0.4890 -1.4617  1.9338
   62MPD2    N1  973   0.115   0.877  15.914  0.2632  0.1374  0.0799
   62MPD2    H7  974   0.046   0.930  15.861 -0.8969 -1.6412 -0.1666
   63TMC2    C1  975   4.606   0.548  10.070  0.2818  0.3454  0.2102
   63TMC2    C2  976   4.519   0.552  10.185 -0.2181 -0.8172  0.2676
   63TMC2    C3  977   4.456   0.667  10.213 -0.4696  0.0284 -0.1404
   63TMC2    C4  978   4.636   0.664  10.012  0.3326 -0.0055 -0.3116
   63TMC2    C5  979   4.562   0.777  10.033  0.4507 -0.2353 -0.3361
   63TMC2    C6  980   4.475   0.783  10.139 -0.1014 -0.0004  0.0395
   63TMC2     C  981   4.571   0.444   9.972  0.3496  0.2912  0.2237
   63TMC2     O  982   4.602   0.465   9.856  0.2994  0.2229 -0.5042
   63TMC2     H  983   4.497   0.462  10.240 -3.3856 -0.4626 -0.3965
   63TMC2    H1  984   4.689   0.665   9.918  0.0055 -0.8603 -0.5080
   63TMC2    H2  985   4.404   0.864  10.152 -0.5518 -0.0265 -2.0770
   63TMC2    C7  986   4.569   0.892   9.947  0.7593  0.6806 -0.2723
   63TMC2    C8  987   4.355   0.665  10.321  0.6684 -1.3232  0.7391
   63TMC2    O1  988   4.616   0.871   9.837  0.6429 -0.0732 -0.5532
   63TMC2    O2  989   4.271   0.576  10.338 -0.2975 -0.1618 -0.1969
   63TMC2    O5  990   4.349   0.789  10.375 -1.0349  0.2409 -0.5279
   63TMC2    H5  991   4.429   0.842  10.354 -0.7613  0.4736  1.1408
   64MPD2     C  992   4.304   0.033   9.825 -0.3627  0.7937 -0.5322
   64MPD2    C1  993   4.330   0.024   9.965 -0.0488 -0.2600  0.5106
   64MPD2    C2  994   4.411   0.125  10.030 -0.0529 -0.3489 -0.5923
   64MPD2    C3  995   4.459   0.228   9.955  0.0124  0.4810  0.0424
   64MPD2    C4  996   4.429   0.234   9.821 -0.8215 -0.1833  0.0167
   64MPD2    C5  997   4.353   0.142   9.758 -0.2535 -0.4589  0.7108
   64MPD2     H  998   4.428   0.113  10.137 -3.6655 -3.0335 -0.3161
   64MPD2    H1  999   4.479   0.309   9.761 -0.2678  0.1852  0.9478
   64MPD2    H2 1000   4.240   4.696   9.778  0.9127  0.2994 -1.4967
   64MPD2    H3 1001   4.336   0.152   9.652 -0.7167  1.3764  0.9564
   64MPD2     N 1002   4.527   0.332  10.028 -0.0971 -0.7185 -0.2771
   64MPD2    H5 1003   4.534   0.321  10.128 -1.1553  1.6481  0.0500
   64MPD2    N1 1004   4.278   4.658  10.049 -0.2116 -0.2884  0.0643
   64MPD2    H7 1005   4.304   4.664  10.147 -1.8699  2.6674  0.3338
   65TMC2    C1 1006   0.666   0.298  15.260 -0.2329 -0.1436  0.6086
   65TMC2    C2 1007   0.713   0.226  15.147  0.2870  0.3779  0.1849
   65TMC2    C3 1008   0.783   0.291  15.055  0.1561  0.5265  0.4019
   65TMC2    C4 1009   0.691   0.436  15.273  0.4029  0.0637 -1.0715
   65TMC2    C5 1010   0.765   0.496  15.172 -0.4637  0.0272  0.7901
   65TMC2    C6 1011   0.804   0.424  15.061  0.2811  0.4217  0.2765
   65TMC2     C 1012   0.641   0.232  15.389 -0.1047  0.4825 -0.2734
   65TMC2     O 1013   0.678   0.289  15.493  0.4073 -0.8660  0.1016
   65TMC2     H 1014   0.715   0.118  15.159  0.3082  0.4642  0.9467
   65TMC2    H1 1015   0.640   0.489  15.352  3.0890  0.5562  0.3496
   65TMC2    H2 1016   0.851   0.468  14.973 -1.5586  0.5208 -0.6571
   65TMC2    C7 1017   0.802   0.640  15.169  0.5728  0.4567  0.1436
   65TMC2    C8 1018   0.822   0.225  14.934  0.0733 -0.1855 -0.2713
   65TMC2    O1 1019   0.890   0.679  15.094 -0.2030 -0.2482 -0.2990
   65TMC2    O2 1020   0.905   0.269  14.855 -0.5012 -0.0782 -0.4760
   65TMC2    O5 1021   0.728   0.132  14.901  0.1227 -0.3506  0.4712
   65TMC2    H5 1022   0.662   0.119  14.972  2.0498  1.2872  2.5789
   66MPD2     C 1023   0.645   0.021  15.592  0.0341 -0.2432 -0.2820
   66MPD2    C1 1024   0.597   4.734  15.466  0.0286 -0.1220  0.2550
   66MPD2    C2 1025   0.570   4.609  15.417 -0.0851 -0.6933 -0.1506
   66MPD2    C3 1026   0.583   4.495  15.496  0.3247  0.6253  0.1404
   66MPD2    C4 1027   0.629   4.515  15.627  0.2158 -0.5439 -0.1619
   66MPD2    C5 1028   0.665   4.647  15.672 -0.0064  0.6268 -0.0472
   66MPD2     H 1029   0.537   4.605  15.314 -1.2608 -0.6523  0.2236
   66MPD2    H1 1030   0.646   4.430  15.692  1.7129 -2.0116 -2.4759
   66MPD2    H2 1031   0.674   0.119  15.628  0.1518 -0.6246  0.6683
   66MPD2    H3 1032   0.697   4.663  15.774 -3.1651 -1.3097  1.2736
   66MPD2     N 1033   0.567   4.365  15.450  0.0141 -1.0812 -0.2985
   66MPD2    H5 1034   0.582   4.288  15.514 -0.8377 -1.2334 -0.2809
   66MPD2    N1 1035   0.601   0.107  15.372 -0.3496 -0.0654  0.3194
   66MPD2    H7 1036   0.566   0.092  15.278  0.9361 -1.6806  0.1112
   67TMC2    C1 1037   0.686   3.537  13.988 -0.5171  0.4321  1.1030
   67TMC2    C2 1038   0.619   3.433  14.048 -0.9169 -0.2436  1.0781
   67TMC2    C3 1039   0.622   3.433  14.187 -0.1830 -0.0879  0.3689
   67TMC2    C4 1040   0.736   3.650  14.052 -0.0681  0.1572 -0.1382
   67TMC2    C5 1041   0.744   3.644  14.189  0.2831 -0.0392 -0.0241
   67TMC2    C6 1042   0.683   3.534  14.263  0.5483  0.1665  0.1460
   67TMC2     C 1043   0.691   3.529  13.835 -0.5375  0.1772 -0.1601
   67TMC2     O 1044   0.702   3.421  13.775 -0.7831 -0.6398  0.0274
   67TMC2     H 1045   0.578   3.355  13.985  0.6083 -0.6374  0.5837
   67TMC2    H1 1046   0.809   3.711  14.000 -0.6457  0.5793 -0.4516
   67TMC2    H2 1047   0.695   3.527  14.370  1.1938 -1.3333 -0.0233
   67TMC2    C7 1048   0.874   3.684  14.236 -0.5255 -0.1682  0.4717
   67TMC2    C8 1049   0.512   3.356  14.250  0.1837  0.8978 -0.0275
   67TMC2    O1 1050   0.964   3.656  14.156 -0.1780 -0.0217  0.1356
   67TMC2    O2 1051   0.414   3.331  14.179 -0.0576  0.1594 -1.0545
   67TMC2    O5 1052   0.530   3.328  14.381  0.5624  0.5570  0.0080
   67TMC2    H5 1053   0.619   3.345  14.418 -0.3261  1.0309  1.9248
   68MPD2     C 1054   0.628   3.578  13.543 -0.5038 -0.3650  0.1650
   68MPD2    C1 1055   0.618   3.675  13.644  0.3719 -1.0149  0.3845
   68MPD2    C2 1056   0.564   3.798  13.610  0.4434 -0.8638 -0.0516
   68MPD2    C3 1057   0.525   3.833  13.483  0.0721 -0.0188 -0.3651
   68MPD2    C4 1058   0.531   3.741  13.383  0.0335 -0.3411 -0.1782
   68MPD2    C5 1059   0.587   3.618  13.415  0.2250 -0.0689  0.1315
   68MPD2     H 1060   0.535   3.862  13.693 -0.2117 -0.2158 -0.7822
   68MPD2    H1 1061   0.494   3.766  13.285 -0.7663 -0.6620  0.0430
   68MPD2    H2 1062   0.684   3.485  13.552  1.9646  1.1829  0.8599
   68MPD2    H3 1063   0.609   3.540  13.344  0.8091  1.3053 -1.1851
   68MPD2     N 1064   0.477   3.961  13.447  0.2803 -0.2175 -0.6390
   68MPD2    H5 1065   0.441   3.978  13.354 -1.0947  0.8281  0.1037
   68MPD2    N1 1066   0.659   3.656  13.781  1.0847  0.0364 -0.0084
   68MPD2    H7 1067   0.645   3.733  13.847  1.2551 -1.2851  1.5667
   69TMC2    C1 1068   3.368   0.182  12.168  0.6230 -0.0879  0.0459
   69TMC2    C2 1069   3.312   0.300  12.131 -0.5849 -0.2733 -0.2135
   69TMC2    C3 1070   3.367   0.360  12.022 -0.0444 -1.2135 -0.1362
   69TMC2    C4 1071   3.481   0.137  12.103  0.0841  0.4488  0.1156
   69TMC2    C5 1072   3.529   0.203  11.991 -0.0630  0.6628  0.0567
   69TMC2    C6 1073   3.472   0.318  11.953  0.1942  0.8338 -0.2495
   69TMC2     C 1074   3.336   0.119  12.296 -0.6172 -0.2375  0.2715
   69TMC2     O 1075   3.227   0.145  12.346 -0.3947  0.8042 -0.1720
   69TMC2     H 1076   3.222   0.332  12.182 -0.1672  0.7637 -0.1212
   69TMC2    H1 1077   3.531   0.046  12.134  1.2463  0.6332 -1.2278
   69TMC2    H2 1078   3.509   0.367  11.863  0.4585  1.6349  0.2975
   69TMC2    C7 1079   3.622   0.140  11.892 -0.1898 -0.2461  0.1482
   69TMC2    C8 1080   3.279   0.454  11.949  0.3700  0.3506 -0.6304
   69TMC2    O1 1081   3.652   0.204  11.795 -0.8556 -0.5363  0.0929
   69TMC2    O2 1082   3.158   0.455  11.966  1.0613  0.1844  0.0030
   69TMC2    O5 1083   3.350   0.562  11.928  0.0851 -0.5630 -0.3131
   69TMC2    H5 1084   3.444   0.541  11.944 -0.0193 -1.5730 -0.9718
   70MPD2     C 1085   3.523   4.620  12.491  0.2924 -0.8539  0.2265
   70MPD2    C1 1086   3.407   4.681  12.448 -0.1241  0.3893  0.6555
   70MPD2    C2 1087   3.291   4.667  12.518  0.1779 -0.4023 -0.7400
   70MPD2    C3 1088   3.301   4.586  12.637  0.1941  0.5903 -0.7303
   70MPD2    C4 1089   3.420   4.532  12.679  0.2380 -0.4124  0.2110
   70MPD2    C5 1090   3.531   4.557  12.604  0.3190  0.5153 -0.5053
   70MPD2     H 1091   3.193   4.712  12.506  0.4585  1.2716  3.4455
   70MPD2    H1 1092   3.416   4.478  12.773 -1.1820  0.6497  0.7664
   70MPD2    H2 1093   3.618   4.638  12.442 -0.9219  0.5578 -1.6049
   70MPD2    H3 1094   3.624   4.509  12.634  0.5068  0.9220 -0.4468
   70MPD2     N 1095   3.190   4.542  12.715 -0.1172  0.1113  0.0108
   70MPD2    H5 1096   3.214   4.479  12.792  0.5912  0.5316  0.1277
   70MPD2    N1 1097   3.427   0.031  12.340  0.2988 -0.1700  0.0872
   70MPD2    H7 1098   3.523   0.032  12.306  0.2350 -1.2038 -0.1401
   71TMC2    C1 1099   0.922   1.176   1.548  0.1247 -0.8167  0.5132
   71TMC2    C2 1100   1.004   1.073   1.585 -0.1316  0.3557  0.3921
   71TMC2    C3 1101   0.979   1.018   1.711  0.9000  0.4192  0.1844
   71TMC2    C4 1102   0.820   1.223   1.623 -0.8333 -0.5606 -0.2038
   71TMC2    C5 1103   0.793   1.149   1.739 -0.5863  0.5821  0.2054
   71TMC2    C6 1104   0.877   1.056   1.784  0.0934 -0.3121  0.4056
   71TMC2     C 1105   0.934   1.256   1.427  1.1458  0.4662 -0.7062
   71TMC2     O 1106   0.845   1.340   1.405  0.0210 -0.4725  0.4833
   71TMC2     H 1107   1.079   1.032   1.518 -1.3593  2.4713 -2.2625
   71TMC2    H1 1108   0.773   1.320   1.612 -1.2469 -0.7674 -0.2626
   71TMC2    H2 1109   0.853   1.006   1.878 -0.9371  0.2740  0.4513
   71TMC2    C7 1110   0.693   1.198   1.830 -0.7102  0.6284  0.5212
   71TMC2    C8 1111   1.046   0.896   1.749 -0.7155  0.2136 -0.2851
   71TMC2    O1 1112   0.718   1.181   1.950  0.1688  0.0384  0.2058
   71TMC2    O2 1113   0.986   0.794   1.737 -0.3196  0.4025 -0.4904
   71TMC2    O5 1114   1.173   0.912   1.729  0.5615  0.0595 -0.7889
   71TMC2    H5 1115   1.201   1.006   1.733  1.7296 -0.3101 -0.4230
   72MPD2     C 1116   1.189   1.450   1.029 -0.5142  0.4916 -1.2615
   72MPD2    C1 1117   1.055   1.448   1.061 -0.0876 -0.1625 -0.1762
   72MPD2    C2 1118   1.013   1.376   1.172  1.0863  0.0967 -0.7673
   72MPD2    C3 1119   1.101   1.314   1.258  0.0284 -0.5225  0.7743
   72MPD2    C4 1120   1.237   1.308   1.226 -0.2705  0.3650 -0.6602
   72MPD2    C5 1121   1.275   1.375   1.114 -0.5565  0.4245  0.3690
   72MPD2     H 1122   0.905   1.369   1.176  0.9643  1.9059 -0.9878
   72MPD2    H1 1123   1.313   1.266   1.290 -1.4485  0.6527  0.9368
   72MPD2    H2 1124   1.223   1.501   0.940 -0.6495  2.5770 -0.1232
   72MPD2    H3 1125   1.380   1.366   1.089  0.2055  1.3003  3.3587
   72MPD2     N 1126   1.061   1.251   1.375 -0.0890  0.0416 -0.2129
   72MPD2    H5 1127   1.120   1.187   1.427 -0.3431 -1.7485 -2.1291
   72MPD2    N1 1128   0.955   1.514   0.980 -0.1198  0.1295 -0.0192
   72MPD2    H7 1129   0.859   1.483   0.995  0.1041 -1.1277 -1.2529
   73TMC2    C1 1130   4.493   2.845  13.889  0.9382 -0.2254 -0.0983
   73TMC2    C2 1131   4.434   2.842  14.011  0.5500 -0.2935 -0.2172
   73TMC2    C3 1132   4.467   2.741  14.100 -0.0352  0.4784 -0.0067
   73TMC2    C4 1133   4.574   2.740  13.856  0.2726 -0.1993  0.2355
   73TMC2    C5 1134   4.617   2.648  13.946 -0.6817 -0.3917 -0.7420
   73TMC2    C6 1135   4.556   2.642  14.074  0.0508 -0.5965 -0.3468
   73TMC2     C 1136   4.542   2.966  13.823  0.4885 -0.7612  0.2490
   73TMC2     O 1137   4.658   2.963  13.789  0.1627 -0.0525  0.2632
   73TMC2     H 1138   4.352   2.908  14.037 -0.2095 -1.0337 -0.7170
   73TMC2    H1 1139   4.610   2.735  13.754 -0.4752 -0.2311 -0.0324
   73TMC2    H2 1140   4.568   2.556  14.139  0.5342 -0.4174 -0.2087
   73TMC2    C7 1141   0.032   2.643  13.943 -0.2534  1.1847  0.6067
   73TMC2    C8 1142   4.416   2.745  14.230 -0.0090 -0.8582  0.6810
   73TMC2    O1 1143   0.090   2.564  14.016  0.8383  0.7858  0.2222
   73TMC2    O2 1144   4.312   2.801  14.264 -0.2011 -0.9942  0.7516
   73TMC2    O5 1145   4.500   2.683  14.314  0.5941 -0.0263 -0.1093
   73TMC2    H5 1146   4.589   2.675  14.273  1.3217  2.1188  1.0281
   74MPD2     C 1147   4.553   3.469  13.720  0.0093  0.5150 -0.3837
   74MPD2    C1 1148   4.648   3.373  13.708 -0.3628 -0.5567 -0.1110
   74MPD2    C2 1149   4.625   3.244  13.749  0.2067 -0.4521 -0.6575
   74MPD2    C3 1150   4.499   3.208  13.796  0.1155  0.2282 -0.4587
   74MPD2    C4 1151   4.400   3.306  13.797  0.3443 -0.0239 -0.0499
   74MPD2    C5 1152   4.432   3.436  13.768 -0.2032 -0.0558 -0.3788
   74MPD2     H 1153   4.698   3.165  13.742  0.1814 -0.5837  0.6673
   74MPD2    H1 1154   4.299   3.291  13.833  0.6908 -0.6793  0.6513
   74MPD2    H2 1155   4.573   3.573  13.698  1.6294  0.2374 -0.2442
   74MPD2    H3 1156   4.352   3.509  13.778 -1.7096 -1.7927  0.4040
   74MPD2     N 1157   4.465   3.075  13.839 -0.0085  0.9090 -0.2978
   74MPD2    H5 1158   4.376   3.066  13.888  0.9428  0.0424  1.2574
   74MPD2    N1 1159   0.035   3.425  13.662 -0.7072  0.7284 -0.3111
   74MPD2    H7 1160   0.041   3.515  13.616 -0.7743  1.5679  1.3275
   75TMC2    C1 1161   0.407   4.182  13.466  0.0459  0.5052 -0.1718
   75TMC2    C2 1162   0.455   4.308  13.494 -0.7954  0.7745  0.3260
   75TMC2    C3 1163   0.397   4.413  13.435 -0.7612  0.3392 -0.3772
   75TMC2    C4 1164   0.324   4.161  13.366  1.0322 -0.4660 -0.3160
   75TMC2    C5 1165   0.275   4.271  13.298  0.4248  0.4811  0.0003
   75TMC2    C6 1166   0.305   4.395  13.338 -0.6313 -0.4454  0.6576
   75TMC2     C 1167   0.484   4.071  13.531 -0.0708 -0.4318 -1.0414
   75TMC2     O 1168   0.539   4.086  13.643 -0.6915  0.0408 -0.5980
   75TMC2     H 1169   0.524   4.323  13.577  1.1568 -1.8131 -0.8101
   75TMC2    H1 1170   0.298   4.064  13.325  0.7967 -0.8125  0.6589
   75TMC2    H2 1171   0.250   4.479  13.296  1.1517  0.3850 -0.0134
   75TMC2    C7 1172   0.177   4.249  13.191  0.1420 -0.4143  0.4172
   75TMC2    C8 1173   0.435   4.543  13.481 -0.1851  0.1168 -0.1729
   75TMC2    O1 1174   0.192   4.149  13.122 -0.0573 -0.2684  0.2695
   75TMC2    O2 1175   0.465   4.551  13.598  0.6628 -0.0778 -0.4376
   75TMC2    O5 1176   0.380   4.647  13.406 -0.3723  0.5647  0.6580
   75TMC2    H5 1177   0.383   4.622  13.311 -1.0376  2.4118  0.1417
   76TMC2    C1 1178   4.572   4.278  12.153 -0.4068 -0.5052 -0.2812
   76TMC2    C2 1179   4.641   4.160  12.156 -0.1679 -0.8743  0.4851
   76TMC2    C3 1180   4.649   4.099  12.276  0.0736  0.3527 -0.2341
   76TMC2    C4 1181   4.513   4.328  12.258 -0.4520 -1.1475 -0.3757
   76TMC2    C5 1182   4.510   4.255  12.375 -0.4370 -0.0093  1.0895
   76TMC2    C6 1183   4.578   4.136  12.383  0.3856  0.0546 -0.0981
   76TMC2     C 1184   4.558   4.349  12.030 -0.3720  0.7837 -0.3736
   76TMC2     O 1185   4.566   4.471  12.037  0.1480  0.2532 -0.4762
   76TMC2     H 1186   4.710   4.128  12.079  0.5361  1.3187  0.1767
   76TMC2    H1 1187   4.445   4.409  12.235  0.5336  0.4516  2.3825
   76TMC2    H2 1188   4.564   4.071  12.469 -1.5606  0.1131 -0.3716
   76TMC2    C7 1189   4.456   4.313  12.490 -0.7262  0.8532 -0.3922
   76TMC2    C8 1190   4.707   3.969  12.275  0.5144 -0.4040  0.1142
   76TMC2    O1 1191   4.451   4.235  12.584  0.0278  0.0403  0.0430
   76TMC2    O2 1192   4.694   3.896  12.177  0.3368  0.0646  0.1246
   76TMC2    O5 1193   4.734   3.932  12.398 -0.1872  0.1699 -0.2796
   76TMC2    H5 1194   0.013   4.006  12.460  1.3115 -1.8201  1.7550
   77MPD2     C 1195   4.617   4.359  11.518  0.3332  0.1143 -0.2199
   77MPD2    C1 1196   4.569   4.457  11.606  1.1273 -0.3872 -0.1053
   77MPD2    C2 1197   4.558   4.423  11.745  0.1087  0.0432 -0.0922
   77MPD2    C3 1198   4.598   4.299  11.791  0.2585 -0.5366 -0.6746
   77MPD2    C4 1199   4.646   4.207  11.700 -0.2726  0.4664  0.4822
   77MPD2    C5 1200   4.660   4.236  11.568  0.2290 -0.3636 -0.6230
   77MPD2     H 1201   4.509   4.493  11.811  0.4420  0.8889 -0.7425
   77MPD2    H1 1202   4.681   4.113  11.742 -1.3916 -0.5403 -0.8533
   77MPD2    H2 1203   4.616   4.374  11.411 -1.0289 -1.7740 -0.4646
   77MPD2    H3 1204   4.699   4.155  11.508 -2.0637 -2.3209  0.5172
   77MPD2     N 1205   4.577   4.262  11.922 -0.0830 -0.5479 -0.0223
   77MPD2    H5 1206   4.593   4.165  11.946  2.9926 -0.2604 -0.9408
   77MPD2    N1 1207   4.510   4.574  11.564 -0.0128  0.3518 -0.0779
   77MPD2    H7 1208   4.469   4.631  11.638  0.1262 -1.2935  1.2571
   78TMC2    C1 1209   0.752   0.954   1.257  0.3375  0.1635 -0.4002
   78TMC2    C2 1210   0.675   1.069   1.245  0.4736  0.6328 -0.0324
   78TMC2    C3 1211   0.717   1.161   1.152  0.3666  0.0053  0.5887
   78TMC2    C4 1212   0.874   0.953   1.198  0.1242  0.3028  0.5406
   78TMC2    C5 1213   0.907   1.047   1.094 -0.2984 -0.4165  0.1217
   78TMC2    C6 1214   0.817   1.144   1.067  0.6079  0.5555  0.3499
   78TMC2     C 1215   0.744   0.869   1.376 -0.0868  0.4122 -0.1351
   78TMC2     O 1216   0.816   0.773   1.388  0.2244 -0.4653  0.7664
   78TMC2     H 1217   0.576   1.073   1.290  0.2407  0.2713 -0.5008
   78TMC2    H1 1218   0.938   0.865   1.195  0.2053  0.3604  0.5587
   78TMC2    H2 1219   0.837   1.220   0.993 -0.5372 -0.3684 -0.9183
   78TMC2    C7 1220   1.027   1.024   1.017  0.4512 -0.2468 -0.0261
   78TMC2    C8 1221   0.633   1.275   1.120  0.5283 -0.3588  0.7107
   78TMC2    O1 1222   1.111   0.946   1.063 -0.0171 -0.4486  0.1287
   78TMC2    O2 1223   0.679   1.375   1.064 -0.7109 -0.4155  0.1235
   78TMC2    O5 1224   0.500   1.238   1.126  0.5883  0.0311 -0.5943
   78TMC2    H5 1225   0.470   1.145   1.113  2.2887 -0.7563  1.0547
   79MPD1     C 1226   0.531   0.795   1.838 -0.1437 -0.0454  0.3513
   79MPD1    C1 1227   0.642   0.731   1.775 -0.0080 -0.2208 -0.2135
   79MPD1    C2 1228   0.679   0.774   1.647 -0.0782  0.0879 -1.0636
   79MPD1    C3 1229   0.609   0.873   1.587  0.0303 -0.1498  0.1286
   79MPD1    C4 1230   0.500   0.932   1.645  0.5551 -0.3536 -0.3351
   79MPD1    C5 1231   0.468   0.893   1.772  0.5805  0.5385 -0.4205
   79MPD1     H 1232   0.774   0.736   1.611  0.8397  1.0274  0.3397
   79MPD1    H1 1233   0.447   1.012   1.595  0.8731  0.6345  0.9178
   79MPD1    H2 1234   0.494   0.778   1.938 -0.8186  0.3923  0.1790
   79MPD1    H3 1235   0.391   0.946   1.826 -0.0017 -1.1871  0.4454
   79MPD1     N 1236   0.641   0.920   1.459  0.0788  0.0969  0.6094
   79MPD1    H5 1237   0.586   1.004   1.440 -0.0754  0.0459  0.8250
   79MPD1    N1 1238   0.697   0.608   1.834  0.1663 -0.3579 -0.1058
   79MPD1    H6 1239   0.675   0.593   1.932  0.2601 -0.4162 -0.0931
   79MPD1    H7 1240   0.794   0.583   1.817  0.5395  1.3054 -0.3721
   80TMC2    C1 1241   2.922   4.057  11.227 -1.0143  0.0672  0.3587
   80TMC2    C2 1242   2.927   4.040  11.094 -0.3573 -0.1189  0.5333
   80TMC2    C3 1243   2.896   3.915  11.044 -0.3767  0.5386  0.4415
   80TMC2    C4 1244   2.868   3.962  11.308  0.0415 -0.8455 -0.1272
   80TMC2    C5 1245   2.826   3.847  11.252  0.5386 -0.2385 -0.2553
   80TMC2    C6 1246   2.844   3.816  11.124 -0.2496  0.4454  0.5654
   80TMC2     C 1247   3.001   4.160  11.283  0.7440  0.6153 -0.5099
   80TMC2     O 1248   3.056   4.228  11.198 -0.2818 -0.4173 -0.0153
   80TMC2     H 1249   2.973   4.109  11.024 -0.1124  1.6959  2.4861
   80TMC2    H1 1250   2.862   3.974  11.415  1.1810  3.1091 -0.4995
   80TMC2    H2 1251   2.815   3.716  11.095 -2.3852  0.6208  2.1297
   80TMC2    C7 1252   2.741   3.751  11.331  0.7419 -0.1916 -0.0507
   80TMC2    C8 1253   2.953   3.875  10.925 -0.2802 -0.2966 -0.0980
   80TMC2    O1 1254   2.702   3.649  11.267 -0.4041  0.5984 -0.2472
   80TMC2    O2 1255   2.985   3.938  10.826 -0.0244  0.1764  0.0310
   80TMC2    O5 1256   2.987   3.744  10.935  0.0767 -0.1268 -1.0942
   80TMC2    H5 1257   2.979   3.698  11.022 -0.8638 -1.9170 -2.1231
   81MPD2     C 1258   3.191   4.318  11.439 -0.3969  0.1072  0.0885
   81MPD2    C1 1259   3.078   4.260  11.496 -0.6596  0.1080  1.3279
   81MPD2    C2 1260   3.057   4.271  11.632 -0.6207 -0.0213 -0.2632
   81MPD2    C3 1261   3.159   4.324  11.718 -0.3912 -0.0380 -0.1355
   81MPD2    C4 1262   3.274   4.365  11.662 -0.1750 -0.4569 -0.9830
   81MPD2    C5 1263   3.289   4.371  11.522  0.1994  0.0216  0.0356
   81MPD2     H 1264   2.965   4.233  11.676 -0.7340 -1.2847 -1.5828
   81MPD2    H1 1265   3.361   4.398  11.717 -1.5277  1.7041 -0.0950
   81MPD2    H2 1266   3.205   4.326  11.332  1.0233  1.4312  0.3737
   81MPD2    H3 1267   3.387   4.396  11.484 -0.4204 -1.0202 -2.2673
   81MPD2     N 1268   3.132   4.350  11.856 -0.2105  0.1381 -0.3569
   81MPD2    H5 1269   3.207   4.393  11.910 -1.2245  2.4706 -0.8179
   81MPD2    N1 1270   2.991   4.183  11.419 -0.0053  0.6033  0.0072
   81MPD2    H7 1271   2.919   4.133  11.470  0.3605 -0.8132 -0.8962
   82TMC2    C1 1272   0.884   3.869  10.616 -0.0194 -0.5349 -0.2371
   82TMC2    C2 1273   0.987   3.931  10.549  0.0556 -0.1355 -0.0960
   82TMC2    C3 1274   1.113   3.887  10.562 -0.2955 -0.7362  0.0969
   82TMC2    C4 1275   0.907   3.765  10.708  0.4196 -0.2320 -0.5269
   82TMC2    C5 1276   1.036   3.720  10.717 -0.4686  0.1078  0.0072
   82TMC2    C6 1277   1.134   3.777  10.643  0.4982  0.2913  0.1676
   82TMC2     C 1278   0.747   3.888  10.561  0.0121  0.2735 -0.6239
   82TMC2     O 1279   0.738   3.960  10.459  0.0352 -0.6244 -0.8294
   82TMC2     H 1280   0.973   4.012  10.479 -1.9479 -1.1095 -0.8353
   82TMC2    H1 1281   0.829   3.712  10.761  0.2916 -0.4802 -0.9599
   82TMC2    H2 1282   1.236   3.744  10.650  0.6834  0.3611 -2.0455
   82TMC2    C7 1283   1.053   3.582  10.768 -0.2673  0.3518  0.1219
   82TMC2    C8 1284   1.219   3.925  10.468  0.1473  0.0779 -0.5941
   82TMC2    O1 1285   0.953   3.510  10.777  0.0293  0.8573 -0.1794
   82TMC2    O2 1286   1.184   3.991  10.365  0.5220 -0.8892 -0.3198
   82TMC2    O5 1287   1.337   3.927  10.535  0.3010 -0.0722  0.1152
   82TMC2    H5 1288   1.338   3.903  10.630 -0.4354  1.7911  0.5918
   83MPD2     C 1289   0.255   3.736  10.533 -0.0496 -0.0476  0.7496
   83MPD2    C1 1290   0.335   3.790  10.436  0.7788  0.0030 -0.0551
   83MPD2    C2 1291   0.473   3.817  10.462 -0.0722 -0.7862 -0.2085
   83MPD2    C3 1292   0.520   3.798  10.589 -0.2262  0.0477  0.4749
   83MPD2    C4 1293   0.436   3.759  10.688 -0.8313  0.1910  0.6961
   83MPD2    C5 1294   0.307   3.723  10.661  0.6908 -0.0807  0.0418
   83MPD2     H 1295   0.534   3.850  10.379  0.3592 -0.2667  0.3105
   83MPD2    H1 1296   0.467   3.764  10.792  0.8059 -1.3351  0.2783
   83MPD2    H2 1297   0.152   3.708  10.518 -0.2199  0.0818  1.6651
   83MPD2    H3 1298   0.239   3.700  10.743  0.2158 -1.0347 -0.6133
   83MPD2     N 1299   0.650   3.826  10.632  0.2414  0.3963  0.6801
   83MPD2    H5 1300   0.664   3.802  10.729  1.1625  1.2331  0.7513
   83MPD2    N1 1301   0.281   3.800  10.306  0.2510 -0.0025 -0.3895
   83MPD2    H7 1302   0.186   3.768  10.288  0.6096  0.6326 -3.3927
   84TMC2    C1 1303   2.798   2.076  11.223  0.6408  0.6438  0.3681
   84TMC2    C2 1304   2.859   1.977  11.293  0.3479  0.4243 -0.1317
   84TMC2    C3 1305   2.884   1.860  11.227 -0.1609  0.6706  0.4335
   84TMC2    C4 1306   2.750   2.057  11.091  0.5929  0.4332  0.5290
   84TMC2    C5 1307   2.775   1.935  11.032 -0.3026  0.2024  0.1349
   84TMC2    C6 1308   2.843   1.835  11.098 -0.3816  0.5873  0.4975
   84TMC2     C 1309   2.799   2.213  11.280  0.0876 -0.3092 -0.0493
   84TMC2     O 1310   2.832   2.210  11.397  0.6688 -0.3635 -0.0534
   84TMC2     H 1311   2.874   1.980  11.400  1.6688 -0.2160 -0.2942
   84TMC2    H1 1312   2.682   2.124  11.039 -0.8989 -2.0578 -0.7032
   84TMC2    H2 1313   2.884   1.753  11.039  0.0588 -0.2388  1.9593
   84TMC2    C7 1314   2.687   1.886  10.919  0.3714  0.8119 -0.1476
   84TMC2    C8 1315   2.934   1.752  11.311 -0.2790 -0.4507  0.2560
   84TMC2    O1 1316   2.699   1.773  10.884 -0.0201  0.1305 -0.3318
   84TMC2    O2 1317   2.978   1.756  11.421 -0.6400  0.4940 -0.3620
   84TMC2    O5 1318   2.863   1.648  11.266 -0.6461 -0.6970  0.0172
   84TMC2    H5 1319   2.810   1.670  11.187 -2.0577  0.1302  1.1782
   85TMC2    C1 1320   3.574   1.317  15.736 -0.6044  0.1996  0.0232
   85TMC2    C2 1321   3.478   1.394  15.680  0.2791  0.0738  0.2121
   85TMC2    C3 1322   3.506   1.443  15.556 -0.1888  0.5609  0.6876
   85TMC2    C4 1323   3.689   1.290  15.672  0.2329 -0.1674  0.0601
   85TMC2    C5 1324   3.707   1.331  15.546 -0.0771  0.5492 -0.0751
   85TMC2    C6 1325   3.619   1.414  15.487 -0.9939  0.2411  0.2576
   85TMC2     C 1326   3.540   1.246  15.853  0.2070  0.2836 -0.2340
   85TMC2     O 1327   3.637   1.218  15.928 -0.5726  0.1611 -0.3859
   85TMC2     H 1328   3.385   1.425  15.727 -0.1663  2.4106 -2.1764
   85TMC2    H1 1329   3.760   1.224  15.721  0.1168  0.3261  0.8886
   85TMC2    H2 1330   3.626   1.457  15.388 -0.9318  1.7834  0.9359
   85TMC2    C7 1331   3.776   1.237  15.453 -0.2251  0.0368  0.0556
   85TMC2    C8 1332   3.407   1.539  15.498 -0.0602  0.1358  0.5538
   85TMC2    O1 1333   3.801   1.129  15.506  0.0192  0.0439  0.0068
   85TMC2    O2 1334   3.286   1.520  15.492  0.6188 -0.6708 -0.3557
   85TMC2    O5 1335   3.473   1.654  15.459 -0.7585  0.1704 -0.5528
   85TMC2    H5 1336   3.563   1.656  15.498 -1.4959 -1.4099  1.2274
   86MPD2     C 1337   3.230   0.981  16.163 -0.1483 -0.3497  0.1313
   86MPD2    C1 1338   3.182   0.967  16.038  0.3440 -0.0892 -0.1522
   86MPD2    C2 1339   3.241   1.037  15.931  0.0842 -0.1895  0.2260
   86MPD2    C3 1340   3.356   1.114  15.951  0.2312 -0.1326 -0.0575
   86MPD2    C4 1341   3.409   1.125  16.079 -0.1977 -0.6786 -0.0307
   86MPD2    C5 1342   3.340   1.057  16.179  0.1957 -0.2845  1.1706
   86MPD2     H 1343   3.194   1.024  15.834  0.0470 -1.1160  0.3622
   86MPD2    H1 1344   3.496   1.183  16.108 -1.6957  1.6640 -0.2110
   86MPD2    H2 1345   3.199   0.938  16.257  0.8772  0.3374  0.7836
   86MPD2    H3 1346   3.379   1.071  16.280  2.0472 -2.0532  0.6961
   86MPD2     N 1347   3.412   1.194  15.846  0.2231 -0.5463  0.2445
   86MPD2    H5 1348   3.365   1.208  15.757  1.8088 -4.1675 -1.1632
   86MPD2    N1 1349   3.077   0.872  16.008  0.5717 -0.0561 -0.1243
   86MPD2    H7 1350   3.057   0.862  15.909 -1.5966 -1.2648  0.4312
   87TMC2    C1 1351   0.903   4.312   0.821 -0.1119  0.1399 -0.2900
   87TMC2    C2 1352   1.033   4.360   0.823  0.1844  0.2584  0.3639
   87TMC2    C3 1353   1.052   4.490   0.858 -0.7505  0.1350 -0.2186
   87TMC2    C4 1354   0.803   4.399   0.848  0.1831 -1.0495 -0.2695
   87TMC2    C5 1355   0.831   4.529   0.892  0.2789  0.7201  0.5924
   87TMC2    C6 1356   0.959   4.571   0.909 -0.3997 -0.0176  0.5561
   87TMC2     C 1357   0.874   4.177   0.770 -0.0086  0.0054  0.4286
   87TMC2     O 1358   0.766   4.166   0.717 -0.2625 -0.1231  0.6295
   87TMC2     H 1359   1.122   4.310   0.786 -0.5713 -0.7108 -0.1439
   87TMC2    H1 1360   0.703   4.359   0.837 -0.0317 -0.7796  0.6960
   87TMC2    H2 1361   0.984   4.662   0.962  1.2970  1.3903 -2.6804
   87TMC2    C7 1362   0.728   4.602   0.939  0.5814 -0.3794  0.1889
   87TMC2    C8 1363   1.186   4.551   0.844 -0.4966  0.1875  0.7885
   87TMC2    O1 1364   0.635   4.535   0.978  0.5585  0.2161 -0.3191
   87TMC2    O2 1365   1.285   4.485   0.824  0.0743  0.0069  0.0025
   87TMC2    O5 1366   1.184   4.693   0.860  0.3140  0.0136 -0.0533
   87TMC2    H5 1367   1.095   4.735   0.862  0.3194 -0.2418  4.9267
   88MPD2     C 1368   0.548   0.085   1.051  0.0098 -0.0869 -0.1405
   88MPD2    C1 1369   0.676   0.106   0.996  0.2152  0.3037  0.0473
   88MPD2    C2 1370   0.734   0.228   0.994 -0.0787 -1.3421 -0.5696
   88MPD2    C3 1371   0.663   0.334   1.052  0.2244 -0.3724 -0.3029
   88MPD2    C4 1372   0.535   0.326   1.088  0.0895 -0.5529 -0.3965
   88MPD2    C5 1373   0.481   0.205   1.078  0.3217  0.1539  0.1990
   88MPD2     H 1374   0.827   0.245   0.941  0.3061  0.5758  0.7283
   88MPD2    H1 1375   0.485   0.414   1.127  2.1204  1.3589 -2.1168
   88MPD2    H2 1376   0.507   4.720   1.058  0.5953 -0.4284 -1.5205
   88MPD2    H3 1377   0.379   0.197   1.114  0.9830 -3.2024  1.3254
   88MPD2     N 1378   0.713   0.472   1.039 -0.2829 -0.0269 -0.2350
   88MPD2    H5 1379   0.649   0.549   1.056 -0.5503 -0.8074  2.2333
   88MPD2    N1 1380   0.757   4.735   0.944 -0.0231 -0.7598  0.1673
   88MPD2    H7 1381   0.839   0.022   0.889 -1.1213 -1.4078 -1.7248
   89TMC2    C1 1382   1.040   3.064   1.654 -0.0865 -0.3849  0.7709
   89TMC2    C2 1383   0.979   3.052   1.538 -0.4411 -0.3582 -0.2806
   89TMC2    C3 1384   1.059   3.095   1.434  0.0002  0.3552  0.1570
   89TMC2    C4 1385   1.170   3.109   1.674  0.0110  0.4362  0.1838
   89TMC2    C5 1386   1.248   3.103   1.568 -1.2075  0.1941  0.2688
   89TMC2    C6 1387   1.195   3.103   1.447  1.1708 -0.0799 -0.5748
   89TMC2     C 1388   0.992   2.991   1.771  0.0077  0.5871 -0.9263
   89TMC2     O 1389   1.029   3.032   1.880  0.2515 -0.2769 -0.0130
   89TMC2     H 1390   0.880   3.010   1.520 -0.8202  0.4949 -0.1778
   89TMC2    H1 1391   1.207   3.119   1.775  1.8972  0.5147 -0.5107
   89TMC2    H2 1392   1.250   3.114   1.354 -2.9165  1.6861 -2.8105
   89TMC2    C7 1393   1.382   3.159   1.587  0.1234  0.5363 -0.2889
   89TMC2    C8 1394   1.012   3.079   1.296  0.5024 -0.3879 -0.4422
   89TMC2    O1 1395   1.395   3.198   1.703 -0.1254  0.0272  0.0203
   89TMC2    O2 1396   1.076   3.020   1.212 -0.8845  0.1893  0.4709
   89TMC2    O5 1397   0.881   3.106   1.300 -0.4024  0.5099  0.1009
   89TMC2    H5 1398   0.851   3.145   1.384 -2.4665 -0.9650  0.0407
   90MPD2     C 1399   0.839   2.560   1.976  0.1500 -0.2906  0.2103
   90MPD2    C1 1400   0.867   2.537   1.843 -0.7843 -0.1532  0.3927
   90MPD2    C2 1401   0.904   2.642   1.767  0.9910 -0.2588  0.4954
   90MPD2    C3 1402   0.907   2.770   1.820  0.3008 -0.5975 -0.5762
   90MPD2    C4 1403   0.875   2.794   1.952  0.6129  0.1188 -0.0871
   90MPD2    C5 1404   0.845   2.688   2.027  0.4005 -0.5383  0.2918
   90MPD2     H 1405   0.936   2.614   1.668  0.0028  0.4743 -0.0317
   90MPD2    H1 1406   0.878   2.888   2.006 -1.5030 -0.9773  1.9135
   90MPD2    H2 1407   0.798   2.486   2.044  1.7536  2.1589  3.8348
   90MPD2    H3 1408   0.802   2.708   2.125 -1.5592 -1.9114 -0.2874
   90MPD2     N 1409   0.931   2.872   1.731 -0.1842 -0.3650  0.3534
   90MPD2    H5 1410   0.942   2.841   1.635  0.8704  3.1264 -0.6573
   90MPD2    N1 1411   0.863   2.404   1.787  0.3069  0.2556 -0.0107
   90MPD2    H7 1412   0.909   2.387   1.699  1.6285  0.8565  0.5586
   91TMC2    C1 1413   2.929   2.500  16.146 -0.4507 -0.6552 -0.7165
   91TMC2    C2 1414   2.944   2.562  16.269  0.5598  0.4998 -0.6447
   91TMC2    C3 1415   2.831   2.559  16.348  0.3962 -0.1152  0.1519
   91TMC2    C4 1416   2.814   2.444  16.103 -0.5849 -0.7211  0.2015
   91TMC2    C5 1417   2.717   2.422  16.205 -0.7415  0.4427 -0.0973
   91TMC2    C6 1418   2.720   2.475  16.328 -0.3832 -0.2169  0.2163
   91TMC2     C 1419   3.024   2.523  16.043 -0.0406  0.9913 -0.5477
   91TMC2     O 1420   2.982   2.525  15.928 -0.6623  0.2896 -0.3547
   91TMC2     H 1421   3.040   2.603  16.300 -0.5715  2.9943 -0.4338
   91TMC2    H1 1422   2.812   2.399  16.005  1.0437  0.9969 -0.6189
   91TMC2    H2 1423   2.646   2.459  16.406 -0.0699  0.9450  0.7432
   91TMC2    C7 1424   2.633   2.298  16.188 -0.7152 -0.5712 -0.8466
   91TMC2    C8 1425   2.844   2.623  16.482  0.0091 -0.1642 -0.2665
   91TMC2    O1 1426   2.588   2.248  16.290  0.6679 -0.7549 -0.2732
   91TMC2    O2 1427   2.948   2.634  16.540  0.0398 -0.2186  0.0408
   91TMC2    O5 1428   2.720   2.658  16.522  0.4446 -0.2827 -0.1011
   91TMC2    H5 1429   2.647   2.644  16.457 -1.5105 -1.3725  2.3357
   92MPD2     C 1430   3.269   2.579  15.880  0.2807 -0.1236  0.8994
   92MPD2    C1 1431   3.267   2.544  16.013 -0.3441 -0.4116  0.5836
   92MPD2    C2 1432   3.386   2.546  16.084 -0.0024  0.1074  0.2098
   92MPD2    C3 1433   3.504   2.584  16.027 -0.3005  0.1627 -0.5491
   92MPD2    C4 1434   3.502   2.617  15.897  0.3655 -0.6577  0.1785
   92MPD2    C5 1435   3.389   2.614  15.820 -0.7203  0.3668  0.6432
   92MPD2     H 1436   3.383   2.515  16.188  0.9319 -2.3024 -0.4765
   92MPD2    H1 1437   3.587   2.655  15.841  0.6460 -1.8344 -0.2092
   92MPD2    H2 1438   3.181   2.606  15.823 -0.3940 -0.8848  1.5970
   92MPD2    H3 1439   3.386   2.641  15.715  2.2408 -0.2009  0.4217
   92MPD2     N 1440   3.617   2.590  16.108 -0.4993 -0.0898  0.2387
   92MPD2    H5 1441   3.602   2.551  16.200 -1.2121 -1.1948 -0.3380
   92MPD2    N1 1442   3.153   2.507  16.089  0.0627  0.2291 -0.7515
   92MPD2    H7 1443   3.168   2.486  16.187  0.9555  0.9775 -0.7246
   93TMC2    C1 1444   4.267   2.272  14.224 -0.7277 -0.0459  0.4583
   93TMC2    C2 1445   4.231   2.297  14.354 -0.2182  0.4062  0.3257
   93TMC2    C3 1446   4.336   2.304  14.439  0.4322 -0.1834 -0.0203
   93TMC2    C4 1447   4.396   2.261  14.190  0.3347 -0.1373  0.3850
   93TMC2    C5 1448   4.496   2.263  14.286 -0.2865  0.4656  0.3573
   93TMC2    C6 1449   4.464   2.296  14.410 -0.2102  0.5222 -0.1212
   93TMC2     C 1450   4.175   2.232  14.119 -0.3845 -0.9299 -0.7480
   93TMC2     O 1451   4.222   2.182  14.019 -0.1412  0.0355 -0.3055
   93TMC2     H 1452   4.131   2.294  14.395 -0.3506 -1.9126 -0.1596
   93TMC2    H1 1453   4.419   2.260  14.084 -0.0198 -0.8834  0.3204
   93TMC2    H2 1454   4.545   2.307  14.481 -1.5618 -3.3005  2.0155
   93TMC2    C7 1455   4.636   2.242  14.252  0.0627 -0.2884  0.6704
   93TMC2    C8 1456   4.301   2.318  14.579  0.2620  0.6441  0.8581
   93TMC2    O1 1457   4.660   2.267  14.133  0.7383 -0.2700  0.3415
   93TMC2    O2 1458   4.381   2.305  14.669  0.5664  0.0806  0.4132
   93TMC2    O5 1459   4.232   2.432  14.564  0.2737  0.3757 -0.2812
   93TMC2    H5 1460   4.216   2.460  14.471 -1.2194 -1.6489 -0.6544
   94MPD2     C 1461   3.808   2.220  14.134  0.6760  0.7864 -0.1473
   94MPD2    C1 1462   3.931   2.185  14.082  0.2639 -0.1377  0.5389
   94MPD2    C2 1463   3.940   2.136  13.952 -0.5354 -0.6050  0.6255
   94MPD2    C3 1464   3.828   2.115  13.875 -0.1766  0.5146  0.5622
   94MPD2    C4 1465   3.706   2.142  13.931 -0.2209  0.2073  0.8963
   94MPD2    C5 1466   3.701   2.200  14.052 -0.2342  0.2160  0.9968
   94MPD2     H 1467   4.040   2.127  13.910 -1.0144 -2.3739 -0.1195
   94MPD2    H1 1468   3.615   2.148  13.872  1.1674  1.9212 -1.0804
   94MPD2    H2 1469   3.782   2.270  14.226  0.3784 -0.9536  0.7202
   94MPD2    H3 1470   3.602   2.225  14.089 -0.2246  0.8024  0.6173
   94MPD2     N 1471   3.826   2.077  13.735 -0.4185 -0.0298  0.6657
   94MPD2    H5 1472   3.744   2.099  13.679  0.5913  1.6628 -0.1577
   94MPD2    N1 1473   4.044   2.223  14.159 -0.1475  0.3646  0.1139
   94MPD2    H7 1474   4.013   2.262  14.248  0.6452 -0.8208  0.9066
   95TMC2    C1 1475   0.111   3.650  15.989 -0.4259  0.0540 -0.0182
   95TMC2    C2 1476   0.024   3.549  16.010 -0.7354 -0.1519 -0.4454
   95TMC2    C3 1477   4.710   3.535  16.137 -0.6227 -0.3098  0.2338
   95TMC2    C4 1478   0.157   3.730  16.086  0.5253 -0.4331  0.0675
   95TMC2    C5 1479   0.097   3.720  16.209 -0.0643 -1.0757  0.0885
   95TMC2    C6 1480   4.733   3.625  16.237  0.2091 -0.3050  0.1137
   95TMC2     C 1481   0.148   3.697  15.850 -0.0573 -0.0926 -0.0926
   95TMC2     O 1482   0.211   3.803  15.838 -0.0838 -0.2492  0.2238
   95TMC2     H 1483   4.731   3.478  15.932 -1.5554 -0.0886 -0.2007
   95TMC2    H1 1484   0.230   3.810  16.081  0.3936 -0.1843  2.0527
   95TMC2    H2 1485   4.661   3.627  16.318  1.6279  0.8256  1.3554
   95TMC2    C7 1486   0.148   3.798  16.316 -0.4819 -0.0580  0.1822
   95TMC2    C8 1487   4.611   3.431  16.145  0.3956 -0.2884  0.5095
   95TMC2    O1 1488   0.263   3.846  16.303 -0.0993 -0.2098  0.0519
   95TMC2    O2 1489   4.578   3.370  16.042 -0.1681 -0.3896  0.9500
   95TMC2    O5 1490   4.586   3.395  16.274  0.0231  0.2328  0.5750
   95TMC2    H5 1491   4.603   3.478  16.324  3.0260  0.1329 -0.3052
   96MPD2     C 1492   0.208   3.579  15.357  0.1985 -0.5035 -0.1969
   96MPD2    C1 1493   0.233   3.693  15.419  0.0912 -0.5092  0.1379
   96MPD2    C2 1494   0.201   3.703  15.556  0.3071 -0.5952  0.3310
   96MPD2    C3 1495   0.147   3.594  15.619 -0.1100 -0.4977  0.3500
   96MPD2    C4 1496   0.111   3.481  15.544 -0.4255  0.6346 -0.2589
   96MPD2    C5 1497   0.138   3.480  15.410 -0.0117  0.6634  0.8318
   96MPD2     H 1498   0.208   3.801  15.603  0.1819 -0.4099 -0.0358
   96MPD2    H1 1499   0.081   3.390  15.595  1.1627  0.2539 -0.0029
   96MPD2    H2 1500   0.246   3.573  15.256  0.9560  1.0472  0.0053
   96MPD2    H3 1501   0.112   3.393  15.352 -1.1123  0.3592  1.7828
   96MPD2     N 1502   0.113   3.598  15.757  0.4287 -0.1217  0.0872
   96MPD2    H5 1503   0.059   3.524  15.800  0.2006  1.5796  2.6600
   96MPD2    N1 1504   0.308   3.792  15.344  0.2206 -0.1234  0.3098
   96MPD2    H7 1505   0.324   3.782  15.244  2.0851  1.1361  0.4875
   97TMC2    C1 1506   1.905   2.658  17.556  0.5766  1.0965 -0.0837
   97TMC2    C2 1507   1.865   2.572  17.457  0.3347 -0.3099  0.4689
   97TMC2    C3 1508   1.935   2.572  17.343 -0.1053 -0.3904 -0.4721
   97TMC2    C4 1509   2.019   2.733  17.541  0.1358 -0.3607 -0.0675
   97TMC2    C5 1510   2.097   2.701  17.433  0.3963  0.1655 -0.4111
   97TMC2    C6 1511   2.064   2.620  17.331 -0.1726  0.0285 -0.2377
   97TMC2     C 1512   1.837   2.634  17.680 -0.6829 -0.7160 -0.1684
   97TMC2     O 1513   1.805   2.515  17.691 -0.2748 -0.3159  0.0351
   97TMC2     H 1514   1.769   2.524  17.468  0.3883 -0.3528  0.7589
   97TMC2    H1 1515   2.044   2.801  17.622  0.1732 -0.7463  0.2459
   97TMC2    H2 1516   2.123   2.596  17.243 -0.8306 -1.4896 -0.2615
   97TMC2    C7 1517   2.233   2.709  17.472  0.2550 -0.0053  0.2497
   97TMC2    C8 1518   1.904   2.466  17.248  0.0098  0.4169 -0.7899
   97TMC2    O1 1519   2.259   2.777  17.570  0.5857 -0.1770  0.2251
   97TMC2    O2 1520   1.884   2.486  17.129  0.2536 -0.0812 -0.4636
   97TMC2    O5 1521   1.908   2.348  17.318 -0.0877 -0.0058  0.1689
   97TMC2    H5 1522   1.962   2.342  17.400  1.0753  0.6166 -0.5510
   98MPD2     C 1523   1.879   2.722   0.441 -0.0632 -1.0542 -0.1188
   98MPD2    C1 1524   1.878   2.604   0.369  0.4107  0.3063 -0.5487
   98MPD2    C2 1525   1.864   2.607   0.233  0.0396 -0.3778 -0.7972
   98MPD2    C3 1526   1.860   2.729   0.170 -0.6570  0.2775  0.0469
   98MPD2    C4 1527   1.877   2.850   0.238  0.2233  0.1733 -0.7243
   98MPD2    C5 1528   1.876   2.844   0.378 -0.0871  0.3568 -0.2481
   98MPD2     H 1529   1.865   2.518   0.172  0.4658 -0.2125 -1.0312
   98MPD2    H1 1530   1.873   2.940   0.178  1.0837  0.5466 -0.2413
   98MPD2    H2 1531   1.880   2.716   0.549  0.0377  0.6379 -0.0304
   98MPD2    H3 1532   1.869   2.925   0.448  1.4046  0.6654 -0.4406
   98MPD2     N 1533   1.855   2.739   0.028  0.2340  0.7607 -0.2926
   98MPD2    H5 1534   1.863   2.835  17.735 -0.1991  1.2696  1.0936
   98MPD2    N1 1535   1.881   2.486   0.442 -0.2508  0.0360 -0.2202
   98MPD2    H7 1536   1.885   2.498   0.543 -1.1658 -0.8047 -0.0792
   99TMC2    C1 1537   1.559   4.446   1.633 -0.6698  0.1363  0.3128
   99TMC2    C2 1538   1.641   4.552   1.629 -0.1215 -0.6350 -0.9186
   99TMC2    C3 1539   1.587   4.670   1.670  0.3204 -0.3530 -0.7496
   99TMC2    C4 1540   1.434   4.453   1.673 -0.2516 -0.2908  0.4379
   99TMC2    C5 1541   1.377   4.572   1.705  0.2667  0.0757  0.0715
   99TMC2    C6 1542   1.459   4.684   1.703 -0.4589  0.2936 -0.7304
   99TMC2     C 1543   1.615   4.323   1.590 -0.7210 -0.0092  0.2841
   99TMC2     O 1544   1.729   4.294   1.622  0.5527 -0.3131 -0.0262
   99TMC2     H 1545   1.746   4.545   1.603 -0.2569 -1.1165 -1.3413
   99TMC2    H1 1546   1.368   4.370   1.694 -0.9569 -0.3000 -1.8354
   99TMC2    H2 1547   1.417   0.048   1.718 -0.1429  0.0706  1.6073
   99TMC2    C7 1548   1.245   4.584   1.761  0.6422 -0.6813  0.0282
   99TMC2    C8 1549   1.675   0.050   1.666  0.5362 -0.3251  0.0098
   99TMC2    O1 1550   1.229   4.680   1.836  0.1186  0.1188 -0.1942
   99TMC2    O2 1551   1.791   0.032   1.684  0.0586  0.1953 -0.1227
   99TMC2    O5 1552   1.610   0.143   1.589 -0.4618  0.4100 -0.3975
   99TMC2    H5 1553   1.522   0.118   1.554 -1.2032 -0.4105  2.0283
  100MPD2     C 1554   1.682   4.078   1.441 -0.0735 -0.7542 -0.5193
  100MPD2    C1 1555   1.556   4.132   1.448  0.0589 -0.2090  0.1545
  100MPD2    C2 1556   1.461   4.073   1.371  0.6510 -0.2290 -0.3706
  100MPD2    C3 1557   1.476   3.963   1.301 -0.3422  0.7251 -0.1171
  100MPD2    C4 1558   1.595   3.895   1.313 -0.3141 -0.4885  0.1814
  100MPD2    C5 1559   1.698   3.962   1.372  0.2581 -0.0218 -0.5785
  100MPD2     H 1560   1.363   4.117   1.358  0.8111 -0.3559 -1.9519
  100MPD2    H1 1561   1.622   3.812   1.248  0.2908  0.3609 -0.6534
  100MPD2    H2 1562   1.765   4.119   1.499 -0.1184  3.0560 -3.1244
  100MPD2    H3 1563   1.798   3.920   1.376  0.7885  1.6902  3.2383
  100MPD2     N 1564   1.366   3.923   1.231 -0.1498  0.1223  0.1161
  100MPD2    H5 1565   1.287   3.987   1.236 -0.0659  0.2807 -0.6158
  100MPD2    N1 1566   1.525   4.253   1.517 -0.2810 -0.4625  0.7402
  100MPD2    H7 1567   1.426   4.275   1.526 -0.5041 -0.7809 -0.8360
  101TMC2    C1 1568   1.925   4.460  13.107  0.6840 -0.2759 -0.0749
  101TMC2    C2 1569   1.959   4.425  13.233  0.8599  0.1253  0.6606
  101TMC2    C3 1570   2.090   4.403  13.260  0.1013  0.9042 -0.2420
  101TMC2    C4 1571   2.016   4.510  13.018  0.3329  0.1210  0.9628
  101TMC2    C5 1572   2.145   4.499  13.056  0.9977 -0.1941 -0.0760
  101TMC2    C6 1573   2.191   4.437  13.171 -0.1913  0.1383  0.2705
  101TMC2     C 1574   1.783   4.444  13.065  0.4614  0.4288 -0.0649
  101TMC2     O 1575   1.706   4.405  13.152 -0.0931 -0.0853  0.1381
  101TMC2     H 1576   1.882   4.380  13.294  1.8432 -1.2309  0.8922
  101TMC2    H1 1577   1.991   4.591  12.950  2.9982 -0.3254 -0.5465
  101TMC2    H2 1578   2.291   4.406  13.198  0.0331 -0.4448 -1.2466
  101TMC2    C7 1579   2.236   4.547  12.958  0.2002  0.3962  0.1056
  101TMC2    C8 1580   2.112   4.369  13.405  0.1018 -0.1973 -0.2773
  101TMC2    O1 1581   2.184   4.594  12.854  0.4523  0.2022 -0.2044
  101TMC2    O2 1582   2.217   4.316  13.442 -0.0230 -0.3396 -0.1864
  101TMC2    O5 1583   2.057   4.476  13.465 -0.0593  0.0592  0.2132
  101TMC2    H5 1584   1.977   4.516  13.425  1.4413  0.7310 -2.1118
  102MPD2     C 1585   1.640   4.498  12.735 -0.2208  0.0787 -0.1217
  102MPD2    C1 1586   1.639   4.461  12.863 -0.2041  0.4148 -0.4811
  102MPD2    C2 1587   1.532   4.392  12.918  0.4605  0.2410  0.2495
  102MPD2    C3 1588   1.420   4.378  12.838 -1.7194 -0.0875 -0.5339
  102MPD2    C4 1589   1.420   4.421  12.706  0.3283 -0.3254  0.2521
  102MPD2    C5 1590   1.534   4.478  12.654  0.1994  0.9595  0.2432
  102MPD2     H 1591   1.541   4.351  13.017 -0.1746  1.1227  0.6737
  102MPD2    H1 1592   1.337   4.397  12.639 -0.2984 -0.4164  1.0626
  102MPD2    H2 1593   1.728   4.543  12.692  0.6903 -1.3345  0.2704
  102MPD2    H3 1594   1.541   4.495  12.547  0.7175 -0.8295 -0.0069
  102MPD2     N 1595   1.304   4.326  12.892 -0.5870 -0.2450 -0.9636
  102MPD2    H5 1596   1.311   4.301  12.990 -1.3290 -0.9693 -1.1032
  102MPD2    N1 1597   1.758   4.486  12.936 -0.7440 -0.2180  0.0022
  102MPD2    H7 1598   1.835   4.525  12.882  1.3088 -0.5188  2.6657
  103TMC2    C1 1599   4.073   0.270  12.635  0.4167 -0.1486  0.5886
  103TMC2    C2 1600   4.062   0.372  12.541  0.1999  0.1562 -0.2466
  103TMC2    C3 1601   3.983   0.476  12.576  0.2450 -1.0462  0.6560
  103TMC2    C4 1602   4.015   0.279  12.757  0.4954 -0.0353 -0.1280
  103TMC2    C5 1603   3.931   0.385  12.782 -0.2374  0.3201  0.0741
  103TMC2    C6 1604   3.913   0.484  12.692  0.3390  0.1319  1.2348
  103TMC2     C 1605   4.148   0.157  12.589  0.1231 -0.1215  0.4114
  103TMC2     O 1606   4.172   0.137  12.469  0.1620 -0.2358 -0.0109
  103TMC2     H 1607   4.111   0.362  12.445  1.6301 -0.7327  0.5723
  103TMC2    H1 1608   3.992   0.190  12.813  0.6529  0.1331  0.2028
  103TMC2    H2 1609   3.853   0.571  12.718 -0.2034  0.3419 -0.7180
  103TMC2    C7 1610   3.853   0.374  12.910  0.5161  0.0292 -0.5800
  103TMC2    C8 1611   3.985   0.594  12.486 -0.4401 -0.1423  0.0674
  103TMC2    O1 1612   3.904   0.318  13.006  0.4595 -0.1781  0.2076
  103TMC2    O2 1613   3.943   0.708  12.517  0.2183  0.5340  0.0692
  103TMC2    O5 1614   4.025   0.573  12.358  0.5698 -0.6611 -0.1769
  103TMC2    H5 1615   4.013   0.482  12.324 -0.1657 -0.7392  0.2881
  104MPD2     C 1616   4.353   4.677  12.814 -0.0065  0.1525 -0.2440
  104MPD2    C1 1617   4.288   4.717  12.698 -0.2678  0.0938  0.4101
  104MPD2    C2 1618   4.304   4.636  12.584  0.0761 -0.4231  0.4486
  104MPD2    C3 1619   4.380   4.520  12.587  0.2998 -0.0258 -0.4209
  104MPD2    C4 1620   4.442   4.489  12.703 -0.2918  0.1444 -0.0794
  104MPD2    C5 1621   4.431   4.569  12.815 -0.4857 -0.0591 -0.5786
  104MPD2     H 1622   4.240   4.657  12.498  0.1421 -0.7064  0.3329
  104MPD2    H1 1623   4.505   4.403  12.721 -0.1851  0.1794 -0.2811
  104MPD2    H2 1624   4.328   4.724  12.909 -0.1932 -1.4629  0.5135
  104MPD2    H3 1625   4.482   4.530  12.902  0.8568 -2.7102 -2.5759
  104MPD2     N 1626   4.414   4.443  12.475  0.4819  0.5530  0.2853
  104MPD2    H5 1627   4.408   4.474  12.379 -3.7785  1.9344  0.9824
  104MPD2    N1 1628   4.206   0.098  12.698 -0.2647  0.1879 -0.1286
  104MPD2    H7 1629   4.196   0.157  12.780 -0.6350  1.7064 -1.2671
  105TMC2    C1 1630   0.793   3.710  17.708 -0.6189  0.4109  0.8717
  105TMC2    C2 1631   0.747   3.839  17.687  0.4015  0.0117 -0.1269
  105TMC2    C3 1632   0.703   3.909   0.056 -0.6985 -0.1489  0.3315
  105TMC2    C4 1633   0.795   3.655   0.092 -0.2965  0.8720 -0.0930
  105TMC2    C5 1634   0.757   3.736   0.196 -0.6850 -0.2367 -0.7071
  105TMC2    C6 1635   0.705   3.861   0.176 -0.0144  0.7852  0.1402
  105TMC2     C 1636   0.854   3.630  17.604 -0.4427 -0.3653 -0.0999
  105TMC2     O 1637   0.840   3.511  17.618  0.1299  0.0518  0.6544
  105TMC2     H 1638   0.732   3.871  17.585  0.5807 -0.0128 -0.1613
  105TMC2    H1 1639   0.833   3.554   0.109 -1.5531  0.2959 -0.6770
  105TMC2    H2 1640   0.672   3.925   0.257 -1.9198 -0.1681  0.1320
  105TMC2    C7 1641   0.832   3.703   0.318  0.4292 -0.8494 -0.5840
  105TMC2    C8 1642   0.656   4.042   0.044 -0.0208  0.8265 -0.3155
  105TMC2    O1 1643   0.906   3.610   0.309  0.7814  0.0382 -0.1375
  105TMC2    O2 1644   0.608   4.109   0.135 -0.1367  0.1334 -0.2588
  105TMC2    O5 1645   0.717   4.099  17.680  0.3144  0.0796 -0.2870
  105TMC2    H5 1646   0.768   4.041  17.619 -0.2079 -1.1509  0.4487
  106MPD2     C 1647   1.182   3.542  17.229  0.5384 -0.0474 -0.0297
  106MPD2    C1 1648   1.135   3.665  17.223 -0.8116  0.3383  0.4521
  106MPD2    C2 1649   1.065   3.722  17.320 -0.4590 -0.3143  0.0941
  106MPD2    C3 1650   1.010   3.637  17.415 -0.0860  0.2269 -0.5840
  106MPD2    C4 1651   1.044   3.504  17.416  0.1743  0.6588  0.4265
  106MPD2    C5 1652   1.136   3.462  17.326  0.2886 -0.2482  0.2319
  106MPD2     H 1653   1.034   3.826  17.318 -0.3572 -0.2731  0.8957
  106MPD2    H1 1654   1.010   3.426  17.483  1.2318 -1.1457 -1.1524
  106MPD2    H2 1655   1.232   3.495  17.144 -0.6277 -1.4662  0.0671
  106MPD2    H3 1656   1.165   3.359  17.307  0.7845  0.2730 -1.8718
  106MPD2     N 1657   0.924   3.692  17.508  0.1039  0.0275  0.3928
  106MPD2    H5 1658   0.917   3.793  17.510 -2.0123 -0.1403  1.0022
  106MPD2    N1 1659   1.172   3.758  17.115 -0.0031  0.2369  0.1665
  106MPD2    H7 1660   1.136   3.853  17.121  0.4178  0.3689  0.6286
  107TMC2    C1 1661   2.263   2.643  11.851  0.1778 -0.0370 -0.7883
  107TMC2    C2 1662   2.312   2.555  11.940 -0.7013  1.5157 -0.0574
  107TMC2    C3 1663   2.443   2.520  11.935 -0.4519 -0.1130 -0.1599
  107TMC2    C4 1664   2.348   2.720  11.776 -0.2104 -0.2376  0.5806
  107TMC2    C5 1665   2.482   2.691  11.776 -0.4357  0.1759 -0.0573
  107TMC2    C6 1666   2.533   2.581  11.844 -0.3325  0.1303  0.2135
  107TMC2     C 1667   2.124   2.687  11.854  0.2223  0.3638  0.0982
  107TMC2     O 1668   2.072   2.701  11.965 -0.1420  0.5231 -0.0296
  107TMC2     H 1669   2.255   2.496  12.011  0.0612 -0.2932 -0.9458
  107TMC2    H1 1670   2.306   2.798  11.713 -0.8065  0.5139  1.9269
  107TMC2    H2 1671   2.635   2.545  11.842 -0.0690  0.8729  0.1655
  107TMC2    C7 1672   2.532   2.702  11.644 -0.5042  0.4165 -0.5526
  107TMC2    C8 1673   2.475   2.398  12.006  0.3076 -0.0054  0.5433
  107TMC2    O1 1674   2.508   2.806  11.588 -0.7225  0.1862  0.3909
  107TMC2    O2 1675   2.396   2.312  12.031 -0.2106  0.0782 -0.7014
  107TMC2    O5 1676   2.606   2.406  12.047 -0.1468  0.7765  0.2201
  107TMC2    H5 1677   2.637   2.498  12.033  3.0609 -0.5468 -1.3244
  108MPD2     C 1678   1.916   2.802  11.573 -0.1916  0.2957 -0.3874
  108MPD2    C1 1679   1.950   2.770  11.704  0.3386  0.4325 -0.6861
  108MPD2    C2 1680   1.856   2.802  11.803  0.0138 -0.2965 -0.4253
  108MPD2    C3 1681   1.745   2.882  11.773 -0.3863  0.0823 -0.0255
  108MPD2    C4 1682   1.716   2.913  11.644 -0.0658  0.7639  0.5623
  108MPD2    C5 1683   1.804   2.875  11.552  0.2333 -0.1981  0.2657
  108MPD2     H 1684   1.876   2.779  11.907 -1.6533  2.1418  0.4104
  108MPD2    H1 1685   1.623   2.962  11.618 -1.0113 -2.9407 -2.9767
  108MPD2    H2 1686   1.977   2.765  11.491 -1.6591 -0.1503 -1.2762
  108MPD2    H3 1687   1.781   2.892  11.448  0.7932 -0.9153  0.0224
  108MPD2     N 1688   1.656   2.926  11.871 -0.4411  0.1823 -1.0026
  108MPD2    H5 1689   1.580   2.983  11.834 -0.4158  0.0418 -1.2728
  108MPD2    N1 1690   2.077   2.711  11.727  0.5751 -0.0075 -0.2294
  108MPD2    H7 1691   2.127   2.678  11.646 -0.6522 -3.4017  0.3872
  109TMC2    C1 1692   1.082   1.892   1.207 -0.0662 -0.0559  0.0370
  109TMC2    C2 1693   1.018   2.008   1.238 -0.7705 -0.7010 -0.0133
  109TMC2    C3 1694   1.035   2.112   1.153  0.4677  0.2215 -0.4315
  109TMC2    C4 1695   1.153   1.874   1.086 -0.5196 -0.8054 -0.1533
  109TMC2    C5 1696   1.181   1.984   1.009  0.3454  0.0458 -0.0487
  109TMC2    C6 1697   1.125   2.105   1.045  0.1708 -0.5379  0.2148
  109TMC2     C 1698   1.097   1.798   1.316 -1.3219 -0.1803 -0.3979
  109TMC2     O 1699   1.009   1.793   1.402  0.0668 -0.4131 -0.4606
  109TMC2     H 1700   0.977   2.029   1.336 -1.5567  1.1264 -0.7365
  109TMC2    H1 1701   1.188   1.775   1.057 -1.5171 -1.0784 -0.4416
  109TMC2    H2 1702   1.136   2.195   0.987  0.9174 -0.0043  1.1968
  109TMC2    C7 1703   1.278   1.979   0.908 -0.0606 -0.2120 -0.3470
  109TMC2    C8 1704   0.991   2.243   1.196  0.2807 -0.4997  0.9954
  109TMC2    O1 1705   1.341   2.085   0.902 -0.4776 -0.5212  0.5339
  109TMC2    O2 1706   1.068   2.340   1.179  0.1619 -0.2485  0.1332
  109TMC2    O5 1707   0.861   2.235   1.248  0.1385  0.2395  0.1657
  109TMC2    H5 1708   0.827   2.157   1.199  0.5488  0.3715 -0.3330
  110MPD2     C 1709   1.398   1.468   1.567  0.1888  0.0026  0.2674
  110MPD2    C1 1710   1.467   1.503   1.453 -0.4820  0.6323 -0.4293
  110MPD2    C2 1711   1.404   1.593   1.364 -0.2290 -0.0617  0.0742
  110MPD2    C3 1712   1.280   1.647   1.390 -0.1063 -0.4495  0.5828
  110MPD2    C4 1713   1.214   1.609   1.507  0.8436  0.1186 -0.2035
  110MPD2    C5 1714   1.271   1.516   1.594  0.3229  0.0243  0.0652
  110MPD2     H 1715   1.438   1.607   1.262  3.7661 -0.6306  1.3429
  110MPD2    H1 1716   1.119   1.654   1.534  0.2481  0.7242 -3.3144
  110MPD2    H2 1717   1.431   1.397   1.641  3.2221  1.7381  0.5683
  110MPD2    H3 1718   1.214   1.495   1.684  1.2117  1.1712  0.8875
  110MPD2     N 1719   1.225   1.740   1.299 -0.2951 -0.5581 -0.0838
  110MPD2    H5 1720   1.281   1.770   1.220  1.1750  0.7701  1.4629
  110MPD2    N1 1721   1.577   1.428   1.420 -0.2865  0.1109 -0.3778
  110MPD2    H7 1722   1.601   1.342   1.467  1.1063  0.5564 -0.2807
  111TMC2    C1 1723   1.527   0.405  11.838 -0.7350  1.4464 -0.4679
  111TMC2    C2 1724   1.477   0.510  11.918 -0.0619 -0.7615 -0.1760
  111TMC2    C3 1725   1.563   0.552  12.015 -0.1824 -0.0314 -0.4141
  111TMC2    C4 1726   1.654   0.358  11.845  0.0252  0.6624 -0.1444
  111TMC2    C5 1727   1.740   0.417  11.930 -0.0361 -0.2582 -0.2099
  111TMC2    C6 1728   1.690   0.497  12.029  0.2076 -0.4574 -0.0201
  111TMC2     C 1729   1.458   0.380  11.712 -0.3615  0.7333 -0.3141
  111TMC2     O 1730   1.411   0.472  11.648  0.2154 -0.2786 -0.2661
  111TMC2     H 1731   1.370   0.523  11.906 -0.4922 -0.8096  3.6206
  111TMC2    H1 1732   1.684   0.275  11.781  0.5326  0.8910 -0.2001
  111TMC2    H2 1733   1.763   0.524  12.104  0.4451  0.5225 -0.6023
  111TMC2    C7 1734   1.877   0.370  11.935 -0.0799  0.7202  0.9320
  111TMC2    C8 1735   1.519   0.640  12.125  0.3344  0.0376  0.3963
  111TMC2    O1 1736   1.944   0.395  12.034 -0.5217 -0.0676 -0.0193
  111TMC2    O2 1737   1.559   0.615  12.240 -0.1498 -0.4068  0.1628
  111TMC2    O5 1738   1.394   0.682  12.100 -0.3052  0.0847 -0.1408
  111TMC2    H5 1739   1.394   0.718  12.009 -0.3564  1.0677  0.2471
  112MPD2     C 1740   1.459   0.085  11.304 -0.0630  0.4711  0.0984
  112MPD2    C1 1741   1.451   0.221  11.316 -0.5671  0.3786 -0.1325
  112MPD2    C2 1742   1.445   0.273  11.442  0.2874 -0.1612  0.2387
  112MPD2    C3 1743   1.454   0.195  11.552  0.5879  0.6842  0.0814
  112MPD2    C4 1744   1.466   0.057  11.538  0.4774  1.2216  1.0330
  112MPD2    C5 1745   1.465   0.006  11.411  0.3040 -0.3118 -0.2436
  112MPD2     H 1746   1.461   0.380  11.436  2.5021 -0.3984  1.7658
  112MPD2    H1 1747   1.473   4.722  11.620  0.6795  0.0089 -0.0261
  112MPD2    H2 1748   1.470   0.040  11.206 -0.7727  1.7830 -0.5831
  112MPD2    H3 1749   1.469   4.635  11.392  1.9230 -0.9087  3.4090
  112MPD2     N 1750   1.475   0.247  11.681 -0.2330  0.2372  0.2260
  112MPD2    H5 1751   1.517   0.188  11.751 -0.8136 -1.4107 -0.8076
  112MPD2    N1 1752   1.451   0.300  11.201  0.3741 -1.2138  0.1773
  112MPD2    H7 1753   1.475   0.398  11.208 -0.9075 -0.7707 -1.8957
  113TMC2    C1 1754   4.598   4.190   0.591 -0.5369 -0.1536 -0.1771
  113TMC2    C2 1755   4.522   4.304   0.576 -0.1186  0.4330  0.4840
  113TMC2    C3 1756   4.404   4.292   0.505  0.7060 -0.4139 -0.6370
  113TMC2    C4 1757   4.564   4.075   0.531 -0.7873  0.2511 -0.1006
  113TMC2    C5 1758   4.442   4.064   0.466 -0.8013 -0.0790 -0.1966
  113TMC2    C6 1759   4.362   4.174   0.454  0.2437  0.5752 -0.4493
  113TMC2     C 1760   4.708   4.193   0.696 -0.9189  0.1221 -0.7012
  113TMC2     O 1761   0.006   4.302   0.739 -0.3357  0.5649 -0.0826
  113TMC2     H 1762   4.543   4.400   0.622 -0.0111  0.2316  0.8579
  113TMC2    H1 1763   4.624   3.985   0.537  1.7563  1.9867  0.1686
  113TMC2    H2 1764   4.267   4.174   0.402  0.0282 -1.1896 -0.0649
  113TMC2    C7 1765   4.374   3.936   0.444  0.5912 -0.9465 -0.0383
  113TMC2    C8 1766   4.339   4.414   0.465  0.6141  0.0172 -0.1235
  113TMC2    O1 1767   4.262   3.943   0.401 -0.3048  0.3870  0.2254
  113TMC2    O2 1768   4.346   4.519   0.527  0.0693 -0.2570 -0.2940
  113TMC2    O5 1769   4.301   4.406   0.332  0.5032  0.6721  0.3952
  113TMC2    H5 1770   4.307   4.316   0.291 -1.4331 -1.1914  4.2666
  114MPD2     C 1771   0.372   3.950   0.913  0.5485 -0.5031  0.2401
  114MPD2    C1 1772   0.330   4.084   0.916  0.1024 -0.4572 -0.2662
  114MPD2    C2 1773   0.215   4.126   0.857  0.7131 -0.2033 -0.4558
  114MPD2    C3 1774   0.128   4.037   0.804  0.3247 -0.1245 -0.9774
  114MPD2    C4 1775   0.155   3.900   0.808  0.0676 -0.0984 -0.0921
  114MPD2    C5 1776   0.272   3.859   0.870 -0.2773 -0.5500 -0.4093
  114MPD2     H 1777   0.189   4.231   0.859  0.5646 -0.2832  1.9298
  114MPD2    H1 1778   0.086   3.830   0.763 -2.1943  2.0863  0.0015
  114MPD2    H2 1779   0.457   3.907   0.963  1.0165 -0.5958 -0.6331
  114MPD2    H3 1780   0.286   3.751   0.872  0.9560 -0.3916  0.0104
  114MPD2     N 1781   0.015   4.069   0.732  0.1677  1.0481  0.0956
  114MPD2    H5 1782   4.686   3.997   0.700 -0.8900  2.8820 -1.9517
  114MPD2    N1 1783   0.402   4.191   0.984  0.3080 -0.2388  0.1430
  114MPD2    H7 1784   0.359   4.283   0.974  0.4670  0.0329  2.0324
  115TMC2    C1 1785   1.320   1.251  17.564  0.1732 -0.2957  0.0874
  115TMC2    C2 1786   1.450   1.213  17.542 -0.1331 -0.3537  0.3718
  115TMC2    C3 1787   1.544   1.301  17.602 -0.3948  0.0583 -0.4145
  115TMC2    C4 1788   1.278   1.372  17.619 -0.1955  0.4653  0.0121
  115TMC2    C5 1789   1.379   1.459  17.650  0.1818 -0.1869 -0.3879
  115TMC2    C6 1790   1.508   1.420  17.660 -0.3010  0.1738 -0.0060
  115TMC2     C 1791   1.221   1.148  17.535  0.1120  0.6050 -0.5412
  115TMC2     O 1792   1.263   1.053  17.473  0.5571  0.0799  0.3894
  115TMC2     H 1793   1.474   1.116  17.501  0.1207 -0.1848  0.1256
  115TMC2    H1 1794   1.172   1.396  17.622 -0.3471 -0.2660  0.3251
  115TMC2    H2 1795   1.590   1.478  17.701 -1.6668  2.2847 -0.2577
  115TMC2    C7 1796   1.344   1.582  17.707 -0.5327 -0.5663  0.2613
  115TMC2    C8 1797   1.689   1.289  17.569  0.3988 -0.0929 -0.6910
  115TMC2    O1 1798   1.227   1.587   0.004  0.9975  0.7592 -0.0958
  115TMC2    O2 1799   1.769   1.363  17.624  0.0859 -1.5893 -0.5266
  115TMC2    O5 1800   1.725   1.180  17.499 -0.8262 -0.2712 -0.3806
  115TMC2    H5 1801   1.661   1.118  17.458  0.5159 -2.3389  0.6325
  116MPD2     C 1802   0.749   0.977  17.610 -0.2963  1.0610  0.0073
  116MPD2    C1 1803   0.848   0.922  17.531 -0.9889 -0.5167  0.6635
  116MPD2    C2 1804   0.969   0.990  17.526  0.6188  0.0138  1.0049
  116MPD2    C3 1805   0.991   1.098  17.612  0.6709  0.6061  0.0298
  116MPD2    C4 1806   0.882   1.158  17.675 -0.2033  0.1475  0.0930
  116MPD2    C5 1807   0.760   1.089  17.676  0.0249  0.1781 -1.2295
  116MPD2     H 1808   1.048   0.960  17.458  0.3268  2.5534 -0.4477
  116MPD2    H1 1809   0.895   1.246  17.737 -0.3404  0.1677  0.0942
  116MPD2    H2 1810   0.651   0.932  17.617 -0.1647  0.6061 -1.0076
  116MPD2    H3 1811   0.686   1.117   0.010  1.4881 -1.1934  0.7672
  116MPD2     N 1812   1.114   1.164  17.619 -0.1280 -0.5443 -0.1628
  116MPD2    H5 1813   1.126   1.244  17.680 -0.5417  0.6865 -1.6837
  116MPD2    N1 1814   0.810   0.813  17.452  0.1247 -0.4980 -0.0872
  116MPD2    H7 1815   0.715   0.778  17.460  0.6678 -1.9365  0.0733
  117TMC2    C1 1816   3.751   2.566  13.801  0.1546 -0.3713  0.1382
  117TMC2    C2 1817   3.859   2.489  13.819  0.0217  0.9166  0.5413
  117TMC2    C3 1818   3.976   2.551  13.855  0.6199 -0.3373 -0.1360
  117TMC2    C4 1819   3.752   2.701  13.831 -0.4570 -0.0042 -0.2761
  117TMC2    C5 1820   3.873   2.758  13.869  0.1252  0.7142  0.3150
  117TMC2    C6 1821   3.988   2.684  13.871 -0.8321  0.1724  0.0341
  117TMC2     C 1822   3.627   2.495  13.766  0.0524  0.2678 -0.5558
  117TMC2     O 1823   3.642   2.394  13.694  0.0715 -0.0914  0.3395
  117TMC2     H 1824   3.854   2.382  13.801  1.9929  0.7293  1.1128
  117TMC2    H1 1825   3.660   2.758  13.835 -1.4141 -1.5234 -0.6381
  117TMC2    H2 1826   4.074   2.729  13.921 -2.9983  2.7886  1.4255
  117TMC2    C7 1827   3.869   2.900  13.923 -0.1256 -0.3419  0.4846
  117TMC2    C8 1828   4.090   2.477  13.901 -0.3447 -1.2197 -0.4233
  117TMC2    O1 1829   3.974   2.948  13.969 -0.0676 -0.2843  0.3770
  117TMC2    O2 1830   4.180   2.526  13.970 -0.4898  1.3414  0.0959
  117TMC2    O5 1831   4.114   2.388  13.801 -0.3568 -0.1155  0.4108
  117TMC2    H5 1832   4.057   2.395  13.722  1.2415  1.2826 -0.6091
  118MPD2     C 1833   3.595   3.147  13.969  0.1691  0.0741  0.0672
  118MPD2    C1 1834   3.726   3.100  13.951  0.0185 -1.1213  0.1065
  118MPD2    C2 1835   3.828   3.194  13.983  0.2130  0.2851  0.1921
  118MPD2    C3 1836   3.800   3.319  14.038 -0.2766  0.3156 -0.1469
  118MPD2    C4 1837   3.668   3.357  14.061  0.2087 -0.2861  0.5853
  118MPD2    C5 1838   3.566   3.274  14.013 -0.3443 -0.2300 -0.3665
  118MPD2     H 1839   3.934   3.179  13.966 -0.4963 -2.3350 -1.9281
  118MPD2    H1 1840   3.647   3.456  14.102  1.4185  0.4003 -0.4771
  118MPD2    H2 1841   3.508   3.085  13.949  0.7292 -0.6301 -0.1905
  118MPD2    H3 1842   3.464   3.303  14.033  0.2391 -0.3627  2.8178
  118MPD2     N 1843   3.898   3.417  14.069  0.5050 -0.1173 -0.4845
  118MPD2    H5 1844   3.869   3.511  14.093  0.1970 -0.1625 -0.6809
  118MPD2    N1 1845   3.749   2.964  13.908 -0.5777  0.4825 -0.4905
  118MPD2    H7 1846   3.666   2.908  13.886 -1.6976  2.5616 -1.5670
  119TMC2    C1 1847   1.989   3.782  12.716  0.2831 -0.9941 -0.2135
  119TMC2    C2 1848   1.945   3.882  12.640 -0.4970 -0.9394 -0.1887
  119TMC2    C3 1849   1.815   3.874  12.596  0.1296  0.8497  0.3742
  119TMC2    C4 1850   1.919   3.670  12.746 -0.5313  0.2748  0.2635
  119TMC2    C5 1851   1.789   3.676  12.708 -0.5697  0.1519  0.1536
  119TMC2    C6 1852   1.735   3.774  12.634  0.0748  0.0376  0.9480
  119TMC2     C 1853   2.123   3.786  12.761 -0.6941  0.0047 -0.7325
  119TMC2     O 1854   2.146   3.703  12.850 -0.3123  0.0498  0.5283
  119TMC2     H 1855   2.008   3.968  12.618  1.4927 -2.6023 -0.9742
  119TMC2    H1 1856   1.973   3.583  12.780 -0.5797  0.3438  0.5134
  119TMC2    H2 1857   1.634   3.759  12.598  0.6440 -0.9004 -0.2700
  119TMC2    C7 1858   1.706   3.562  12.744  0.1011  0.2025  1.2562
  119TMC2    C8 1859   1.785   3.966  12.487  0.2136 -0.3257 -0.0002
  119TMC2    O1 1860   1.589   3.559  12.705 -0.2301 -0.4383  0.7118
  119TMC2    O2 1861   1.861   3.991  12.391  0.2484 -0.1834  0.7367
  119TMC2    O5 1862   1.716   4.064  12.561  0.5219 -0.8970 -0.1918
  119TMC2    H5 1863   1.669   4.031  12.640  0.5479 -0.5352 -0.0263
  120MPD2     C 1864   2.617   3.885  12.707 -0.1054 -0.0106 -0.0609
  120MPD2    C1 1865   2.546   3.825  12.808 -0.1522 -0.0091  0.0808
  120MPD2    C2 1866   2.410   3.802  12.790  0.1859 -0.9084 -0.3151
  120MPD2    C3 1867   2.347   3.853  12.679  0.0260 -0.6721 -0.2778
  120MPD2    C4 1868   2.417   3.909  12.574 -0.6186  0.2400 -0.4296
  120MPD2    C5 1869   2.554   3.927  12.590 -0.1482 -0.2295  0.1787
  120MPD2     H 1870   2.353   3.745  12.862 -0.4864 -1.2025 -1.0764
  120MPD2    H1 1871   2.367   3.944  12.485 -0.6765  0.5531 -0.2747
  120MPD2    H2 1872   2.723   3.900  12.724 -0.3586 -1.2036  2.4628
  120MPD2    H3 1873   2.602   3.984  12.512 -0.6838 -1.4092 -1.0108
  120MPD2     N 1874   2.206   3.842  12.664  0.4296  0.5675  0.2501
  120MPD2    H5 1875   2.156   3.880  12.584  0.1636 -0.7521 -0.2137
  120MPD2    N1 1876   2.619   3.774  12.924 -0.1136  0.1079  0.2680
  120MPD2    H7 1877   2.721   3.770  12.924 -0.0633  1.1306  2.9841
  121TMC2    C1 1878   3.917   0.755  14.182  0.2379  0.2044  0.3036
  121TMC2    C2 1879   3.896   0.686  14.298  1.2156 -0.1574 -0.4668
  121TMC2    C3 1880   3.764   0.657  14.329  0.0087 -0.0733 -0.2393
  121TMC2    C4 1881   3.813   0.806  14.109  0.6138 -0.1582  0.1479
  121TMC2    C5 1882   3.683   0.776  14.141  0.0027 -0.0178  0.3661
  121TMC2    C6 1883   3.660   0.704  14.253 -0.0117  0.3603  0.0979
  121TMC2     C 1884   4.040   0.832  14.155  0.1772 -0.0687  0.5479
  121TMC2     O 1885   4.113   0.860  14.250  0.2010 -0.0895  0.0220
  121TMC2     H 1886   3.978   0.638  14.351  1.3029  0.3063 -0.1735
  121TMC2    H1 1887   3.830   0.865  14.020 -0.2534  0.9208  0.6813
  121TMC2    H2 1888   3.564   0.661  14.279 -0.5176  1.0303 -0.6402
  121TMC2    C7 1889   3.575   0.803  14.048  0.5716 -0.1128 -0.2252
  121TMC2    C8 1890   3.739   0.529  14.394 -0.4415  0.0638  0.1242
  121TMC2    O1 1891   3.611   0.857  13.947  0.1361  0.0512  0.4195
  121TMC2    O2 1892   3.629   0.508  14.444 -0.8363 -0.3578 -0.2397
  121TMC2    O5 1893   3.837   0.440  14.362  0.1371 -0.3476 -0.3139
  121TMC2    H5 1894   3.905   0.478  14.304  1.5870 -0.0270  1.6096
  122MPD2     C 1895   4.228   1.038  14.038 -0.1122 -1.0091 -0.4421
  122MPD2    C1 1896   4.157   0.945  13.964  0.6023 -0.1232 -0.7197
  122MPD2    C2 1897   4.169   0.940  13.826  0.0959 -0.7650 -1.2210
  122MPD2    C3 1898   4.250   1.030  13.754  0.2547  0.2208  0.0914
  122MPD2    C4 1899   4.320   1.123  13.830  0.3521 -0.1203 -0.0939
  122MPD2    C5 1900   4.311   1.125  13.964  0.0606  0.2980 -0.1306
  122MPD2     H 1901   4.103   0.873  13.772 -1.3086  0.4429 -1.0339
  122MPD2    H1 1902   4.390   1.197  13.792  0.8496 -1.3697 -1.5972
  122MPD2    H2 1903   4.216   1.049  14.145 -1.2145  3.3190 -1.0304
  122MPD2    H3 1904   4.368   1.199  14.020  3.3854 -2.0882 -0.3204
  122MPD2     N 1905   4.259   1.031  13.612  0.1232  0.3141  0.8858
  122MPD2    H5 1906   4.321   1.101  13.574 -1.8615  0.4306 -2.1017
  122MPD2    N1 1907   4.057   0.862  14.022  0.0410 -0.0516  0.2018
  122MPD2    H7 1908   3.999   0.812  13.954 -0.3093 -0.1396  0.5675
  123TMC2    C1 1909   2.410   4.127  10.157  0.7219  0.6482 -0.6173
  123TMC2    C2 1910   2.481   4.189  10.051  0.5208 -0.4029 -0.0230
  123TMC2    C3 1911   2.489   4.122   9.935 -0.2831  0.3861  0.1276
  123TMC2    C4 1912   2.340   4.008  10.132 -0.2800 -0.0192 -0.5134
  123TMC2    C5 1913   2.359   3.939  10.012 -0.6853 -0.1542  0.5979
  123TMC2    C6 1914   2.436   3.997   9.913  1.1655  0.1764  0.1624
  123TMC2     C 1915   2.374   4.209  10.270  0.0944  1.2299 -0.4964
  123TMC2     O 1916   2.371   4.329  10.249 -0.0775 -0.3376 -0.3459
  123TMC2     H 1917   2.537   4.280  10.068 -1.4722  0.8228  0.0706
  123TMC2    H1 1918   2.267   3.965  10.199  1.2526 -1.9327 -0.0563
  123TMC2    H2 1919   2.461   3.950   9.819  0.3261 -0.2771  0.1652
  123TMC2    C7 1920   2.298   3.814   9.983  0.7426 -0.9092 -0.4778
  123TMC2    C8 1921   2.585   4.173   9.835  0.2033  0.6081 -0.0291
  123TMC2    O1 1922   2.289   3.771   9.868 -0.2445  0.3984 -0.2948
  123TMC2    O2 1923   2.646   4.103   9.752  0.0207 -0.5229  0.5936
  123TMC2    O5 1924   2.545   4.299   9.825  0.3701  0.0578  0.5690
  123TMC2    H5 1925   2.480   4.306   9.898 -0.7160 -0.9108 -0.3189
  124MPD2     C 1926   2.118   4.251  10.714 -0.5571 -0.8066  0.2226
  124MPD2    C1 1927   2.169   4.125  10.701  0.5337 -0.4818 -0.1415
  124MPD2    C2 1928   2.222   4.087  10.577 -0.1254 -0.4021 -0.3306
  124MPD2    C3 1929   2.254   4.180  10.487 -0.8261 -0.3097 -0.3920
  124MPD2    C4 1930   2.215   4.312  10.505 -0.7315 -0.0463  0.0229
  124MPD2    C5 1931   2.133   4.342  10.615  0.8895  0.0229 -0.0072
  124MPD2     H 1932   2.262   3.991  10.547 -1.7508 -1.0409 -0.4461
  124MPD2    H1 1933   2.239   4.392  10.436 -1.1842  1.1013  1.1800
  124MPD2    H2 1934   2.054   4.290  10.793  1.8093  1.7296  0.8862
  124MPD2    H3 1935   2.098   4.443  10.632 -0.1192  0.0693 -2.4532
  124MPD2     N 1936   2.332   4.134  10.372  0.4783  0.1746 -0.1484
  124MPD2    H5 1937   2.359   4.036  10.374 -0.5161 -0.1038 -0.1450
  124MPD2    N1 1938   2.155   4.028  10.804 -0.2286  0.6472 -0.1160
  124MPD2    H7 1939   2.104   4.069  10.882 -0.8323 -3.2873  1.5626
  125TMC2    C1 1940   3.594   4.529   9.158 -0.0722  0.0149  1.7076
  125TMC2    C2 1941   3.473   4.532   9.221  0.1540 -1.1084  0.0639
  125TMC2    C3 1942   3.359   4.513   9.143 -0.0460  0.2670 -0.5035
  125TMC2    C4 1943   3.602   4.504   9.026  0.4904 -0.2419 -0.8280
  125TMC2    C5 1944   3.488   4.474   8.955  0.3652  0.7565 -0.3988
  125TMC2    C6 1945   3.365   4.468   9.017  0.1183  0.6230 -0.2481
  125TMC2     C 1946   3.717   4.583   9.224 -0.3084 -1.2225  0.4566
  125TMC2     O 1947   3.798   4.643   9.155 -0.0281 -0.5204 -0.1021
  125TMC2     H 1948   3.457   4.565   9.323 -0.0514  1.6884 -0.8723
  125TMC2    H1 1949   3.701   4.482   8.987  0.6982 -0.6018 -0.0811
  125TMC2    H2 1950   3.279   4.444   8.955  0.2026 -0.1462 -0.0708
  125TMC2    C7 1951   3.466   4.511   8.823  0.1438 -0.2015 -0.2542
  125TMC2    C8 1952   3.230   4.556   9.193 -0.1827 -0.0586  0.3572
  125TMC2    O1 1953   3.368   4.484   8.754  0.9525 -0.2890  0.5096
  125TMC2    O2 1954   3.206   4.660   9.255 -0.2258  0.3872 -1.0426
  125TMC2    O5 1955   3.141   4.474   9.137  0.2518 -0.1962 -0.3322
  125TMC2    H5 1956   3.184   4.389   9.113  0.9538  0.5582 -1.7936
  126MPD1     C 1957   3.972   4.690   9.654 -0.7945  0.1133 -0.0545
  126MPD1    C1 1958   3.899   4.578   9.680  0.0534  0.2304  0.2724
  126MPD1    C2 1959   3.822   4.524   9.579 -0.2750 -0.7245  0.1669
  126MPD1    C3 1960   3.816   4.585   9.454  0.4204 -0.3240  1.1070
  126MPD1    C4 1961   3.902   4.687   9.427  0.6746  0.1329  0.3784
  126MPD1    C5 1962   3.976   0.003   9.529 -0.1794  0.0798  0.1894
  126MPD1     H 1963   3.752   4.443   9.595 -0.3914 -0.4702  0.9328
  126MPD1    H1 1964   3.921   4.733   9.331 -1.7435 -0.8465 -0.5479
  126MPD1    H2 1965   4.031   0.011   9.726 -2.9301  4.0568 -1.4086
  126MPD1    H3 1966   4.044   0.086   9.513 -1.5917  1.0986 -0.4956
  126MPD1     N 1967   3.724   4.537   9.359 -0.7360  0.3787  0.1174
  126MPD1    H5 1968   3.649   4.477   9.390 -1.4645 -0.3736 -3.1127
  126MPD1    N1 1969   3.887   4.533   9.811  0.9655  0.5159  0.2696
  126MPD1    H6 1970   3.865   4.434   9.810  0.4375  0.6271  2.7037
  126MPD1    H7 1971   3.976   4.550   9.858  1.8104 -1.8528 -0.4823
  127TMC2    C1 1972   4.013   3.794   9.463 -0.2287 -0.1038  0.4279
  127TMC2    C2 1973   4.081   3.694   9.529 -0.3671  0.3073  0.2342
  127TMC2    C3 1974   4.011   3.578   9.563  0.0659 -0.3339  0.4687
  127TMC2    C4 1975   3.880   3.781   9.429 -0.3320 -0.0994 -0.0780
  127TMC2    C5 1976   3.821   3.659   9.459 -0.0583 -0.0681 -0.1094
  127TMC2    C6 1977   3.880   3.552   9.523 -0.0659 -0.3390  0.3668
  127TMC2     C 1978   4.092   3.895   9.397 -0.1887 -0.4730  0.2872
  127TMC2     O 1979   4.193   3.935   9.451 -0.1059 -0.0631 -0.1755
  127TMC2     H 1980   4.189   3.700   9.539 -0.2229  0.1160 -1.3211
  127TMC2    H1 1981   3.833   3.854   9.364  0.9582  1.2670  0.5321
  127TMC2    H2 1982   3.833   3.455   9.532 -0.7319 -0.1298 -0.8454
  127TMC2    C7 1983   3.685   3.641   9.433  0.6057  0.2289 -0.4790
  127TMC2    C8 1984   4.083   3.472   9.611 -0.9455 -0.1041 -0.4515
  127TMC2    O1 1985   3.642   3.700   9.339  0.7939  0.2672 -0.3969
  127TMC2    O2 1986   4.042   3.358   9.609  0.0396  0.0748  0.0735
  127TMC2    O5 1987   4.157   3.515   9.712  0.2342  0.0972  0.0136
  127TMC2    H5 1988   4.144   3.611   9.728 -0.4707 -0.4258  2.5922
  128MPD2     C 1989   4.068   3.991   9.042  0.5128  0.2787 -0.4572
  128MPD2    C1 1990   4.125   3.992   9.169 -1.0541 -0.3833  0.4486
  128MPD2    C2 1991   4.228   4.077   9.195  0.1345 -0.2192  0.1087
  128MPD2    C3 1992   4.289   4.156   9.096 -0.2351  0.0622  0.0453
  128MPD2    C4 1993   4.231   4.159   8.977  0.2907 -0.0281  0.4969
  128MPD2    C5 1994   4.121   4.077   8.951 -0.1029  0.4226 -0.0002
  128MPD2     H 1995   4.274   4.084   9.293  1.0878 -0.6046 -0.3019
  128MPD2    H1 1996   4.267   4.228   8.902 -1.4350  0.0125 -0.2880
  128MPD2    H2 1997   3.993   3.924   9.004 -0.0169  0.3223  0.5029
  128MPD2    H3 1998   4.080   4.091   8.851  0.4628  4.9263  0.3761
  128MPD2     N 1999   4.396   4.231   9.146 -0.2191 -0.4215  0.5961
  128MPD2    H5 2000   4.433   4.206   9.238 -0.0895 -0.6396  0.4837
  128MPD2    N1 2001   4.052   3.917   9.265  0.1527 -0.1948  0.3180
  128MPD2    H7 2002   3.982   3.854   9.227  2.1607 -0.8213 -2.3262
  129TMC2    C1 2003   3.556   0.390   0.721 -1.1433  0.6865 -0.3512
  129TMC2    C2 2004   3.519   0.519   0.724 -0.1356 -0.4854  0.1576
  129TMC2    C3 2005   3.386   0.545   0.718 -0.1386  0.4476 -0.4607
  129TMC2    C4 2006   3.470   0.289   0.707  0.0755  0.1641 -0.1607
  129TMC2    C5 2007   3.344   0.325   0.699 -0.4314 -0.2529 -0.2009
  129TMC2    C6 2008   3.290   0.450   0.713 -0.3452  0.1000  0.8695
  129TMC2     C 2009   3.695   0.364   0.751 -0.7831  0.0691 -0.0474
  129TMC2     O 2010   3.729   0.242   0.733 -0.2996 -0.0917  0.5332
  129TMC2     H 2011   3.590   0.599   0.743 -2.3274  1.4987  0.0937
  129TMC2    H1 2012   3.506   0.187   0.697 -2.0474 -0.3752 -2.1703
  129TMC2    H2 2013   3.183   0.465   0.721 -0.5720 -0.6477 -0.8088
  129TMC2    C7 2014   3.248   0.214   0.717 -0.2015 -0.5282 -1.0535
  129TMC2    C8 2015   3.334   0.672   0.749 -0.1631 -0.3691  0.1536
  129TMC2    O1 2016   3.132   0.238   0.696  0.5054  0.6646  0.2197
  129TMC2    O2 2017   3.217   0.693   0.771 -0.2518  0.0566  0.1184
  129TMC2    O5 2018   3.419   0.769   0.703  0.3092  0.8758  0.1607
  129TMC2    H5 2019   3.498   0.729   0.660 -1.4425 -0.7556 -1.5678
  130MPD2     C 2020   3.985   0.354   0.836  0.3405 -0.2866  0.3955
  130MPD2    C1 2021   3.902   0.464   0.846 -0.1467 -0.0958  0.3359
  130MPD2    C2 2022   3.954   0.578   0.897  0.0582 -1.2039 -0.1159
  130MPD2    C3 2023   4.089   0.594   0.935 -0.3053 -0.0568 -0.7649
  130MPD2    C4 2024   4.172   0.485   0.928 -0.0311 -0.2475  1.0815
  130MPD2    C5 2025   4.115   0.363   0.887  0.0045 -0.4826  0.4483
  130MPD2     H 2026   3.886   0.660   0.914  1.4709  0.1704 -1.1131
  130MPD2    H1 2027   4.279   0.494   0.936  0.2315 -0.2490 -2.2597
  130MPD2    H2 2028   3.956   0.259   0.794 -0.2004  0.3875 -0.7741
  130MPD2    H3 2029   4.182   0.278   0.881 -0.0935 -0.4968 -0.5349
  130MPD2     N 2030   4.125   0.721   0.993 -0.0301  1.0778  0.2610
  130MPD2    H5 2031   4.058   0.796   1.005  0.6715  1.7643 -0.1450
  130MPD2    N1 2032   3.766   0.467   0.815 -0.0881 -0.2443 -0.1901
  130MPD2    H7 2033   3.718   0.555   0.830 -1.7042 -1.2433  0.5290
  131TMC2    C1 2034   1.961   4.063  10.190 -0.2744  0.3824 -0.8043
  131TMC2    C2 2035   1.958   4.195  10.232  0.6870 -0.2717  0.1456
  131TMC2    C3 2036   1.999   4.286  10.135  0.6358 -0.5532  0.6677
  131TMC2    C4 2037   1.998   4.027  10.064 -0.0408  1.3673  0.0226
  131TMC2    C5 2038   2.029   4.127   9.973  0.1232 -0.2364  0.1264
  131TMC2    C6 2039   2.031   4.259  10.007 -0.0723  0.4039  0.9520
  131TMC2     C 2040   1.954   3.963  10.290  0.1626  0.1335  0.1954
  131TMC2     O 2041   1.964   3.999  10.404  0.8005 -0.3674 -0.1291
  131TMC2     H 2042   1.936   4.222  10.334  0.8714 -1.6505  0.5484
  131TMC2    H1 2043   2.022   3.926  10.032 -0.1080  1.2208  0.4441
  131TMC2    H2 2044   2.064   4.336   9.939  1.0950 -0.3828  0.6375
  131TMC2    C7 2045   2.074   4.085   9.841 -0.3234 -0.5828  0.6569
  131TMC2    C8 2046   2.041   4.419  10.175  0.2112 -0.1829  0.0651
  131TMC2    O1 2047   2.050   3.973   9.798 -0.1845  0.3205  0.0330
  131TMC2    O2 2048   2.109   4.486  10.096  0.0128  0.0662  0.1630
  131TMC2    O5 2049   1.983   4.461  10.290 -0.0850  0.1123 -0.3086
  131TMC2    H5 2050   1.914   4.401  10.325 -0.2402  1.2341  1.2679
  132MPD2     C 2051   1.884   3.605  10.266  0.0263  0.2457  0.9024
  132MPD2    C1 2052   1.945   3.723  10.319 -0.6513  0.5699 -0.2103
  132MPD2    C2 2053   2.005   3.714  10.444  0.4432  0.3346 -0.4205
  132MPD2    C3 2054   1.992   3.603  10.523  0.3604 -0.3502 -0.3382
  132MPD2    C4 2055   1.929   3.492  10.474  0.4642 -0.3195 -0.2574
  132MPD2    C5 2056   1.886   3.495  10.344  0.5478 -0.0115  0.0152
  132MPD2     H 2057   2.049   3.802  10.491 -2.2587 -0.0288  2.7822
  132MPD2    H1 2058   1.934   3.395  10.521  0.9630 -0.4358 -0.5593
  132MPD2    H2 2059   1.837   3.606  10.169 -0.4801 -0.4933  1.1408
  132MPD2    H3 2060   1.843   3.407  10.298  1.4462 -1.0541  1.1822
  132MPD2     N 2061   2.054   3.611  10.653 -0.3884  1.2450 -0.5129
  132MPD2    H5 2062   2.119   3.687  10.668  0.0558  0.9974 -1.1533
  132MPD2    N1 2063   1.949   3.838  10.239  0.2703 -0.1341  0.0387
  132MPD2    H7 2064   1.922   3.826  10.141 -1.1649  0.8658  0.3133
  133TMC2    C1 2065   0.582   3.323   9.711 -0.0572  0.1108  0.3078
  133TMC2    C2 2066   0.569   3.344   9.847  0.1360  0.2850  0.3797
  133TMC2    C3 2067   0.488   3.264   9.923  0.0160  0.1984 -0.4216
  133TMC2    C4 2068   0.524   3.210   9.659  0.5975  0.2164  0.3057
  133TMC2    C5 2069   0.444   3.126   9.739  0.5483  0.2364  0.3473
  133TMC2    C6 2070   0.433   3.148   9.873  0.6804  0.0852 -0.1040
  133TMC2     C 2071   0.664   3.418   9.636 -0.0468 -0.2012 -0.0910
  133TMC2     O 2072   0.767   3.463   9.692  0.0856 -0.3768 -0.4791
  133TMC2     H 2073   0.619   3.434   9.882 -0.2600  1.1606 -1.3159
  133TMC2    H1 2074   0.541   3.186   9.554  0.4967 -1.1310  0.6106
  133TMC2    H2 2075   0.369   3.089   9.938  0.3134  0.6268  0.0268
  133TMC2    C7 2076   0.363   3.026   9.668  0.0783  0.4577 -0.3839
  133TMC2    C8 2077   0.523   3.259  10.066 -0.4155  0.2151 -0.0327
  133TMC2    O1 2078   0.402   2.991   9.557  0.1690 -0.5069 -0.1268
  133TMC2    O2 2079   0.463   3.199  10.154  0.0143 -0.2846  0.4874
  133TMC2    O5 2080   0.653   3.295  10.076 -0.2013  0.3476 -0.3420
  133TMC2    H5 2081   0.686   3.321   9.987 -3.5023 -0.8287 -1.9042
  134MPD2     C 2082   0.631   3.525   9.278  0.1552 -0.2922 -0.4218
  134MPD2    C1 2083   0.684   3.509   9.409 -0.0851 -0.1980 -1.3125
  134MPD2    C2 2084   0.791   3.596   9.443 -0.6972  0.6626 -0.3518
  134MPD2    C3 2085   0.838   3.692   9.348  0.4883  0.3183 -0.1905
  134MPD2    C4 2086   0.783   3.697   9.223  0.3362  0.7242 -0.4443
  134MPD2    C5 2087   0.685   3.611   9.188 -0.2146  0.1766  0.2018
  134MPD2     H 2088   0.829   3.608   9.543 -0.3239 -2.8780 -0.0545
  134MPD2    H1 2089   0.815   3.770   9.149 -0.4263  2.0313  0.5296
  134MPD2    H2 2090   0.544   3.476   9.235 -0.7235  1.8181 -1.0394
  134MPD2    H3 2091   0.646   3.618   9.086  0.6157  0.1813 -0.1146
  134MPD2     N 2092   0.939   3.784   9.383 -0.4025 -0.5125  0.3977
  134MPD2    H5 2093   0.956   3.856   9.314  1.6719 -0.5425  0.8598
  134MPD2    N1 2094   0.628   3.417   9.502  0.0677 -1.1707  0.8513
  134MPD2    H7 2095   0.540   3.373   9.474 -1.3776  2.7882 -0.8029
  135TMC2    C1 2096   4.037   1.423   9.060  0.6464 -0.3474  0.2033
  135TMC2    C2 2097   4.145   1.326   9.075 -0.7894  0.2100  0.6457
  135TMC2    C3 2098   4.134   1.227   9.171 -0.1152 -0.0416  0.7916
  135TMC2    C4 2099   3.932   1.419   9.144 -0.4768 -0.1656 -0.6379
  135TMC2    C5 2100   3.946   1.339   9.256  0.7202 -0.5422 -0.0753
  135TMC2    C6 2101   4.042   1.236   9.269  0.3017 -0.5678  0.1030
  135TMC2     C 2102   4.042   1.526   8.954  0.0755 -0.5562 -0.1848
  135TMC2     O 2103   3.941   1.592   8.930  0.7241 -0.1373  0.4971
  135TMC2     H 2104   4.236   1.328   9.015 -2.2044  2.2813 -1.4340
  135TMC2    H1 2105   3.866   1.505   9.144  0.1532  0.3178 -0.0990
  135TMC2    H2 2106   4.054   1.187   9.364  0.1551  1.4603  1.1597
  135TMC2    C7 2107   3.833   1.336   9.340  0.1292  0.2898  0.3835
  135TMC2    C8 2108   4.257   1.156   9.220  0.0651 -0.0857  0.1598
  135TMC2    O1 2109   3.768   1.436   9.335 -0.5905 -0.6408  0.0091
  135TMC2    O2 2110   4.308   1.190   9.323 -0.7646  0.1825  0.1968
  135TMC2    O5 2111   4.322   1.121   9.108  0.0617 -0.2131  0.1336
  135TMC2    H5 2112   4.258   1.093   9.038  0.0026 -0.3175  0.2299
  136MPD2     C 2113   4.157   1.776   8.833  0.1513  0.2832 -0.2766
  136MPD2    C1 2114   4.231   1.665   8.860  0.9168 -0.7247 -0.0839
  136MPD2    C2 2115   4.372   1.665   8.856  0.5465  0.4757 -0.4922
  136MPD2    C3 2116   4.442   1.784   8.832 -0.0859 -0.2211  0.1021
  136MPD2    C4 2117   4.358   1.895   8.806 -0.5095  0.0830 -0.6652
  136MPD2    C5 2118   4.221   1.887   8.812  0.0804  0.5145  0.6676
  136MPD2     H 2119   4.422   1.575   8.889 -0.9170 -0.8021 -1.7218
  136MPD2    H1 2120   4.406   1.988   8.779  1.7683 -0.8513  0.1333
  136MPD2    H2 2121   4.050   1.790   8.842  0.3351  0.3701  1.7148
  136MPD2    H3 2122   4.156   1.972   8.798  0.5932  0.3247 -2.9945
  136MPD2     N 2123   4.586   1.796   8.849  0.0028  0.0204  0.3100
  136MPD2    H5 2124   4.622   1.891   8.851  0.4410 -0.1640  1.1523
  136MPD2    N1 2125   4.172   1.545   8.910 -0.0094  0.4948 -0.2220
  136MPD2    H7 2126   4.239   1.472   8.930  0.5008  1.1739  0.5951
  137TMC2    C1 2127   3.322   0.079   8.564 -0.1328 -0.3318  0.0498
  137TMC2    C2 2128   3.327   0.115   8.431  0.5041 -0.0288 -0.0923
  137TMC2    C3 2129   3.263   0.033   8.338 -0.3625 -0.0892  0.4955
  137TMC2    C4 2130   3.235   4.713   8.604  0.2575  0.0604  0.5475
  137TMC2    C5 2131   3.174   4.634   8.515  0.2360 -0.0805 -0.4992
  137TMC2    C6 2132   3.196   4.660   8.380  0.8288  0.0600 -0.2057
  137TMC2     C 2133   3.411   0.144   8.654  0.0392 -0.1032 -0.3219
  137TMC2     O 2134   3.491   0.221   8.601 -0.0903 -0.2858 -0.6121
  137TMC2     H 2135   3.406   0.182   8.400  0.6102 -0.0105  0.2153
  137TMC2    H1 2136   3.228   4.685   8.708 -0.5071 -0.0252  0.4745
  137TMC2    H2 2137   3.163   4.601   8.296 -0.8651  0.6836  0.0202
  137TMC2    C7 2138   3.091   4.522   8.548  0.2368  0.9051 -0.5957
  137TMC2    C8 2139   3.331   0.017   8.210 -0.5748 -0.2254  1.1270
  137TMC2    O1 2140   3.071   4.434   8.465  0.2474 -0.3860 -0.5140
  137TMC2    O2 2141   3.443   0.069   8.185 -0.5844  0.5039 -0.1430
  137TMC2    O5 2142   3.231   4.734   8.116 -0.1370 -0.2896  0.3313
  137TMC2    H5 2143   3.141   4.720   8.153 -0.6186 -0.5903 -0.9656
  138MPD2     C 2144   3.427   0.126   9.016 -0.8673 -0.3230  0.1703
  138MPD2    C1 2145   3.478   0.137   8.889 -0.2847 -0.1284  0.3611
  138MPD2    C2 2146   3.620   0.167   8.878  0.0382 -0.2549  0.2868
  138MPD2    C3 2147   3.697   0.183   8.988 -0.0087  0.1063  0.6386
  138MPD2    C4 2148   3.640   0.165   9.113  0.2729  0.2576  0.9867
  138MPD2    C5 2149   3.508   0.139   9.126 -0.2130 -0.3761 -0.4461
  138MPD2     H 2150   3.658   0.166   8.777  2.1496 -0.1522  1.0794
  138MPD2    H1 2151   3.702   0.157   9.201  2.2779 -1.4603 -0.5589
  138MPD2    H2 2152   3.322   0.108   9.040 -1.5430 -1.2472 -3.4579
  138MPD2    H3 2153   3.472   0.124   9.227  0.6438  0.7883  0.0215
  138MPD2     N 2154   3.831   0.195   8.974  0.6853 -0.2320  0.3737
  138MPD2    H5 2155   3.876   0.182   8.884  3.7655 -0.5751  1.9796
  138MPD2    N1 2156   3.397   0.105   8.783 -0.0567  0.4528 -0.2398
  138MPD2    H7 2157   3.308   0.068   8.813 -0.0503 -1.3221 -2.4612
  139TMC2    C1 2158   4.348   3.302  13.423  0.1642  0.1021  0.1008
  139TMC2    C2 2159   4.436   3.405  13.416 -0.2147 -0.1312 -0.3359
  139TMC2    C3 2160   4.395   3.531  13.397  0.6308 -0.3679 -0.4146
  139TMC2    C4 2161   4.210   3.319  13.394 -0.1061 -0.7272  0.0651
  139TMC2    C5 2162   4.173   3.447  13.371  0.1659  0.0938 -0.3309
  139TMC2    C6 2163   4.259   3.551  13.371 -0.0434 -0.2884  0.4204
  139TMC2     C 2164   4.404   3.180  13.469  0.4217  0.4347 -0.0457
  139TMC2     O 2165   4.517   3.155  13.436  0.1084 -0.4052 -0.5653
  139TMC2     H 2166   4.537   3.382  13.448  0.1219  0.6981 -0.7925
  139TMC2    H1 2167   4.138   3.238  13.397  0.3071 -1.0429  1.7684
  139TMC2    H2 2168   4.229   3.655  13.374  0.8291 -0.0346  0.2476
  139TMC2    C7 2169   4.034   3.488  13.352 -0.2915 -0.3459  0.6926
  139TMC2    C8 2170   4.478   3.640  13.439  0.2309 -0.6348  0.0958
  139TMC2    O1 2171   4.020   3.608  13.333 -0.2782 -0.2552  0.4182
  139TMC2    O2 2172   4.597   3.629  13.433 -0.4449  0.3442  0.0300
  139TMC2    O5 2173   4.409   3.716  13.527  0.1595  0.1279 -0.0318
  139TMC2    H5 2174   4.324   3.670  13.541  0.8021 -1.7701 -2.4321
  140MPD2     C 2175   4.219   2.885  13.582 -0.2208  0.1008 -0.6661
  140MPD2    C1 2176   4.320   2.957  13.527  0.8038 -0.3455  0.4262
  140MPD2    C2 2177   4.440   2.892  13.490  0.4817  0.6912  0.6573
  140MPD2    C3 2178   4.454   2.753  13.512  0.0961  0.2837 -0.2807
  140MPD2    C4 2179   4.339   2.692  13.552  0.1676  0.4372  0.2241
  140MPD2    C5 2180   4.230   2.752  13.597 -0.1775  0.0571  1.0940
  140MPD2     H 2181   4.521   2.946  13.443 -0.1265  0.0084 -1.1610
  140MPD2    H1 2182   4.328   2.584  13.555  2.4531  0.2066  0.2570
  140MPD2    H2 2183   4.128   2.937  13.611  0.7250  0.5622  1.4859
  140MPD2    H3 2184   4.152   2.693  13.642 -1.6503  1.3588  0.2300
  140MPD2     N 2185   4.577   2.687  13.477 -1.3354  0.0322 -0.5413
  140MPD2    H5 2186   4.647   2.747  13.433 -3.1432  2.8962  0.5650
  140MPD2    N1 2187   4.301   3.096  13.508 -0.1044 -0.2767  0.4512
  140MPD2    H7 2188   4.214   3.148  13.520  0.1921  1.1319 -3.2741
  141TMC2    C1 2189   4.056   4.705  14.326 -0.2769  0.0588  0.1283
  141TMC2    C2 2190   4.058   4.603  14.416  0.2986  0.3263  0.3702
  141TMC2    C3 2191   4.115   4.630  14.539  0.2050 -0.2562 -0.7937
  141TMC2    C4 2192   4.087   0.093  14.365  0.2679  0.1887  0.3425
  141TMC2    C5 2193   4.139   0.119  14.485 -0.4602  0.3620 -0.9051
  141TMC2    C6 2194   4.157   0.016  14.576  0.5715 -0.2520 -0.0792
  141TMC2     C 2195   4.010   4.690  14.187  0.5696  0.7141  0.7850
  141TMC2     O 2196   3.918   4.609  14.163 -0.0854  0.6671  0.1065
  141TMC2     H 2197   4.025   4.509  14.374  1.5431 -1.5928  3.6527
  141TMC2    H1 2198   4.066   0.175  14.296 -0.0733 -2.1474 -2.3315
  141TMC2    H2 2199   4.227   0.023  14.659 -1.0780  1.3248  1.1637
  141TMC2    C7 2200   4.175   0.255  14.508 -0.0859 -0.1966 -0.3302
  141TMC2    C8 2201   4.135   4.524  14.628 -0.2432 -0.0003 -0.8050
  141TMC2    O1 2202   4.144   0.338  14.422  0.5352 -0.0903  0.1354
  141TMC2    O2 2203   4.137   4.549  14.747  0.0772  0.1476 -0.0776
  141TMC2    O5 2204   4.230   4.463  14.552 -0.1441 -0.7787  0.1512
  141TMC2    H5 2205   4.232   4.492  14.458 -2.9710 -0.5798  0.1485
  142TMC2    C1 2206   2.296   3.057  10.665 -0.4131  0.4361  0.6915
  142TMC2    C2 2207   2.327   3.109  10.790  0.3939 -0.0713  0.1702
  142TMC2    C3 2208   2.310   3.242  10.810  0.2635  0.1475  0.2805
  142TMC2    C4 2209   2.259   3.139  10.565  0.3478  0.2713  0.2572
  142TMC2    C5 2210   2.256   3.276  10.588 -0.3558 -0.3491 -0.4620
  142TMC2    C6 2211   2.289   3.336  10.710 -0.3274 -0.3759 -0.2338
  142TMC2     C 2212   2.267   2.919  10.658  0.0521  0.7433  0.3006
  142TMC2     O 2213   2.335   2.847  10.728  0.4967  0.3509 -0.1490
  142TMC2     H 2214   2.344   3.043  10.874  2.2057 -0.9165 -0.8717
  142TMC2    H1 2215   2.253   3.101  10.464 -0.2754  0.2407  0.3045
  142TMC2    H2 2216   2.262   3.440  10.728 -1.6148 -0.5970 -0.8843
  142TMC2    C7 2217   2.268   3.379  10.481 -0.0028  0.1434  0.4549
  142TMC2    C8 2218   2.350   3.300  10.933  0.4701  0.1199 -0.0731
  142TMC2    O1 2219   2.302   3.489  10.517 -0.3901  0.3709 -0.0636
  142TMC2    O2 2220   2.368   3.422  10.938  0.1571  0.3427 -0.0950
  142TMC2    O5 2221   2.271   3.245  11.025 -0.1337 -0.0565  0.2776
  142TMC2    H5 2222   2.228   3.164  10.989  0.2862  0.6663 -1.8663
  143MPD2     C 2223   2.022   2.507  10.477 -0.1263 -0.1726 -0.3820
  143MPD2    C1 2224   2.095   2.521  10.592 -0.3095  0.5243  0.1770
  143MPD2    C2 2225   2.165   2.640  10.623  0.2340 -0.0516  0.3268
  143MPD2    C3 2226   2.138   2.748  10.542  0.5383 -0.2171 -0.3442
  143MPD2    C4 2227   2.057   2.736  10.437 -0.4889  0.4820 -0.1566
  143MPD2    C5 2228   2.006   2.616  10.402 -0.3987 -0.1094  0.1683
  143MPD2     H 2229   2.233   2.651  10.707 -1.5949 -0.9488  1.9211
  143MPD2    H1 2230   2.030   2.821  10.376  0.6959  0.7959 -0.2435
  143MPD2    H2 2231   1.975   2.413  10.448  1.9006 -0.4656 -2.7315
  143MPD2    H3 2232   1.949   2.608  10.311 -0.7722  2.5783  0.1682
  143MPD2     N 2233   2.185   2.882  10.558 -0.4471  0.3731  0.3397
  143MPD2    H5 2234   2.145   2.946  10.490 -1.1137  0.0764  0.4432
  143MPD2    N1 2235   2.126   2.404  10.671  0.0005  0.0511 -0.0322
  143MPD2    H7 2236   2.078   2.320  10.639 -0.3577  0.3041 -0.1581
  144TMC2    C1 2237   0.422   3.148   0.626  0.2346 -1.3689 -0.3786
  144TMC2    C2 2238   0.384   3.260   0.555  0.1098 -0.4548  1.1783
  144TMC2    C3 2239   0.414   3.384   0.615 -0.0512 -0.1723 -0.1877
  144TMC2    C4 2240   0.496   3.156   0.749 -0.4458 -0.7779 -0.4212
  144TMC2    C5 2241   0.528   3.282   0.793  0.2773 -0.3275 -0.0853
  144TMC2    C6 2242   0.491   3.398   0.728  0.1569  0.6643  0.5574
  144TMC2     C 2243   0.327   3.046   0.614 -0.0637 -0.1724  0.1331
  144TMC2     O 2244   0.229   3.068   0.546 -0.5199 -0.2554  0.4275
  144TMC2     H 2245   0.324   3.264   0.465 -0.3966 -0.8792  1.4955
  144TMC2    H1 2246   0.534   3.066   0.796  0.9295  0.4871  0.8791
  144TMC2    H2 2247   0.516   3.498   0.760  1.7121  0.1786  0.8792
  144TMC2    C7 2248   0.617   3.294   0.903  0.5892 -0.6202 -0.2394
  144TMC2    C8 2249   0.389   3.510   0.546  0.3127  0.0087  0.3274
  144TMC2    O1 2250   0.696   3.204   0.916 -0.4648 -0.0483 -0.0272
  144TMC2    O2 2251   0.346   3.611   0.605 -0.1835 -0.3201  0.1256
  144TMC2    O5 2252   0.399   3.483   0.415 -0.4865 -0.0699 -0.0567
  144TMC2    H5 2253   0.441   3.399   0.386 -0.4033  0.4853 -1.5615
  145MPD2     C 2254   0.101   2.609   0.746 -0.2600  1.0077 -0.0302
  145MPD2    C1 2255   0.079   2.687   0.632  0.3989  0.1253  0.0314
  145MPD2    C2 2256   0.163   2.800   0.619 -1.1068 -0.5680  0.1206
  145MPD2    C3 2257   0.269   2.821   0.704  0.0910  0.1682 -0.3299
  145MPD2    C4 2258   0.283   2.740   0.811 -0.1124 -0.1635  0.4746
  145MPD2    C5 2259   0.198   2.632   0.828  0.5908  0.0552 -0.4642
  145MPD2     H 2260   0.159   2.863   0.532  1.3228  0.8454  1.0268
  145MPD2    H1 2261   0.369   2.740   0.876 -0.3872 -0.8298  0.8332
  145MPD2    H2 2262   0.031   2.530   0.769 -0.6721  2.2873  3.0713
  145MPD2    H3 2263   0.216   2.561   0.908 -0.3313  0.3970  0.0470
  145MPD2     N 2264   0.358   2.933   0.690 -0.6980  0.1159 -0.0527
  145MPD2    H5 2265   0.430   2.951   0.758 -2.2071  0.6453  1.4052
  145MPD2    N1 2266   4.707   2.670   0.545 -0.5670 -0.0398 -0.1495
  145MPD2    H7 2267   4.695   2.736   0.469 -0.0048 -0.8348 -0.9396
  146TMC2    C1 2268   2.112   0.684  11.857  0.4596 -0.8634 -0.2042
  146TMC2    C2 2269   2.072   0.682  11.728 -0.3055 -0.8362 -0.7284
  146TMC2    C3 2270   2.175   0.647  11.639 -0.5648  0.9517  0.2409
  146TMC2    C4 2271   2.230   0.639  11.914  0.5508  0.6942 -0.2066
  146TMC2    C5 2272   2.323   0.605  11.820  0.3057 -0.0435  0.4568
  146TMC2    C6 2273   2.300   0.613  11.683  0.1569  0.9311  0.1286
  146TMC2     C 2274   2.016   0.745  11.951 -0.4177 -0.4654  0.1298
  146TMC2     O 2275   1.935   0.814  11.895 -0.3031  0.2123 -0.1432
  146TMC2     H 2276   1.975   0.710  11.690 -0.1946 -1.2943 -1.3512
  146TMC2    H1 2277   2.257   0.672  12.014  1.8502 -2.0889  0.3488
  146TMC2    H2 2278   2.375   0.590  11.609 -0.6507  0.4994 -0.5627
  146TMC2    C7 2279   2.454   0.564  11.867 -0.2466  0.1065  0.1304
  146TMC2    C8 2280   2.156   0.629  11.493 -0.2208 -0.7216 -0.1845
  146TMC2    O1 2281   2.545   0.554  11.786 -0.3617  0.0707 -0.2509
  146TMC2    O2 2282   2.210   0.534  11.437  0.2754 -0.4058  0.0275
  146TMC2    O5 2283   2.152   0.748  11.436 -0.1891 -0.2829 -0.3045
  146TMC2    H5 2284   2.138   0.815  11.505 -2.7657 -1.0468 -0.1175
  147MPD2     C 2285   2.762   0.356  12.221  0.2909 -0.7172  0.8454
  147MPD2    C1 2286   2.631   0.372  12.274  0.0749  0.3860  0.1673
  147MPD2    C2 2287   2.531   0.434  12.198 -0.2582 -0.0796  0.4042
  147MPD2    C3 2288   2.557   0.468  12.066  0.0210 -0.1676  0.0530
  147MPD2    C4 2289   2.686   0.469  12.023  0.2353 -0.7095  0.1888
  147MPD2    C5 2290   2.782   0.410  12.099  0.6132 -0.2577 -0.0037
  147MPD2     H 2291   2.436   0.463  12.242  0.5484  2.9676  0.1816
  147MPD2    H1 2292   2.711   0.510  11.926  1.5414 -0.7267  0.5205
  147MPD2    H2 2293   2.844   0.299  12.263  1.8131  0.3337 -0.6708
  147MPD2    H3 2294   2.879   0.406  12.050 -0.4460 -2.4901 -1.9528
  147MPD2     N 2295   2.445   0.530  11.996  0.5353  0.0928  0.1175
  147MPD2    H5 2296   2.354   0.539  12.041  0.8206  2.3965  0.2467
  147MPD2    N1 2297   2.606   0.324  12.401  0.0780  0.6332  0.4004
  147MPD2    H7 2298   2.693   0.293  12.444  0.4689 -1.8912 -2.2246
  148TMC2    C1 2299   1.568   0.008  10.355  0.0781 -0.4435 -0.1622
  148TMC2    C2 2300   1.622   0.115  10.420  0.4047  0.0640  0.7429
  148TMC2    C3 2301   1.728   0.088  10.499 -0.0249  1.2967 -0.5040
  148TMC2    C4 2302   1.609   4.614  10.372  0.1477 -0.2129 -0.8607
  148TMC2    C5 2303   1.707   4.596  10.459  0.4779 -0.4135 -0.7135
  148TMC2    C6 2304   1.760   4.697  10.530  0.7636  0.3059 -0.1208
  148TMC2     C 2305   1.492   0.041  10.234 -0.5501 -0.0152 -0.2688
  148TMC2     O 2306   1.519   0.145  10.175 -0.4584  0.7457 -0.3230
  148TMC2     H 2307   1.600   0.215  10.383  0.4967  0.2362  1.1517
  148TMC2    H1 2308   1.581   4.533  10.305 -1.3384  0.4058 -0.9987
  148TMC2    H2 2309   1.843   4.680  10.597  0.7097  0.4623 -0.0127
  148TMC2    C7 2310   1.728   4.458  10.495  0.2800 -0.2218  0.3259
  148TMC2    C8 2311   1.809   0.194  10.557 -0.4741  0.2970  0.1163
  148TMC2    O1 2312   1.750   4.381  10.400  0.2317  0.0845  0.6587
  148TMC2    O2 2313   1.754   0.303  10.568  0.1264  0.1901  0.4223
  148TMC2    O5 2314   1.931   0.182  10.507 -0.4281 -0.3400  0.2028
  148TMC2    H5 2315   1.966   0.090  10.497 -0.0905  0.0034 -1.9142
  149MPD2     C 2316   1.334   0.027   9.991  0.6304 -0.9121 -0.0724
  149MPD2    C1 2317   1.333   4.661  10.089 -0.1342 -0.4667  0.6265
  149MPD2    C2 2318   1.254   4.548  10.071  0.5711  0.8137  0.0858
  149MPD2    C3 2319   1.176   4.534   9.959 -0.5309  0.8263 -0.8068
  149MPD2    C4 2320   1.185   4.625   9.858  0.6949  0.3795  0.1370
  149MPD2    C5 2321   1.261   4.734   9.877 -0.1747 -0.4831 -0.1044
  149MPD2     H 2322   1.273   4.468  10.141 -1.5235 -0.2737 -0.5800
  149MPD2    H1 2323   1.125   4.612   9.769 -1.5872  0.0033  1.7490
  149MPD2    H2 2324   1.390   0.120   9.993  0.6054 -0.8925 -0.2246
  149MPD2    H3 2325   1.265   0.080   9.806 -2.2928  0.6703  1.1067
  149MPD2     N 2326   1.090   4.426   9.932 -0.3206 -0.2629  0.1929
  149MPD2    H5 2327   1.044   4.442   9.842  1.7842  0.2410 -0.8025
  149MPD2    N1 2328   1.406   4.670  10.202  0.1964 -0.4175  0.6274
  149MPD2    H7 2329   1.409   4.593  10.267 -0.7960 -1.8519 -1.0324
  150TMC2    C1 2330   3.654   3.519  12.193  0.5631  0.4989  0.4651
  150TMC2    C2 2331   3.653   3.388  12.223  0.2346  0.0100 -1.0209
  150TMC2    C3 2332   3.752   3.350  12.304  0.5387  0.1908 -0.1848
  150TMC2    C4 2333   3.752   3.605  12.221  0.0248 -0.1911  0.0969
  150TMC2    C5 2334   3.859   3.559  12.289  0.0723 -0.8347  0.6568
  150TMC2    C6 2335   3.864   3.424  12.328 -0.4585 -0.4948  0.1881
  150TMC2     C 2336   3.523   3.585  12.163 -0.2777 -0.0626  0.9614
  150TMC2     O 2337   3.501   3.691  12.222  0.2027  0.4175 -0.1221
  150TMC2     H 2338   3.571   3.319  12.210 -0.7669  1.1841 -0.8559
  150TMC2    H1 2339   3.743   3.708  12.189 -0.9015 -0.2748  0.0852
  150TMC2    H2 2340   3.944   3.373  12.381  0.1735 -0.4101 -0.6884
  150TMC2    C7 2341   3.974   3.644  12.303 -0.1748  0.0369 -0.5136
  150TMC2    C8 2342   3.771   3.205  12.309  0.4296 -0.5562  0.0697
  150TMC2    O1 2343   3.975   3.758  12.256  0.1284 -0.0869  0.3173
  150TMC2    O2 2344   3.705   3.117  12.369 -0.5963 -0.1409 -0.1178
  150TMC2    O5 2345   3.848   3.183  12.198 -1.0298 -0.1681 -0.6582
  150TMC2    H5 2346   3.880   3.258  12.144  0.8612  0.5277  1.4704
  151MPD2     C 2347   3.082   3.631  11.889  0.2252 -0.4659  0.7269
  151MPD2    C1 2348   3.162   3.539  11.839 -0.2138 -0.9254  0.0188
  151MPD2    C2 2349   3.271   3.493  11.908 -0.6030 -0.0264  0.3065
  151MPD2    C3 2350   3.324   3.565  12.010  0.0614 -0.6955  0.1522
  151MPD2    C4 2351   3.255   3.676  12.047  0.4404 -0.3358 -0.1775
  151MPD2    C5 2352   3.134   3.707  11.988 -0.2550  0.4780 -0.4689
  151MPD2     H 2353   3.315   3.398  11.881 -3.0329 -1.0489 -0.0038
  151MPD2    H1 2354   3.295   3.749  12.116  0.0184  0.3725 -0.6888
  151MPD2    H2 2355   2.988   3.659  11.842  1.2579  0.0324 -1.0409
  151MPD2    H3 2356   3.088   3.799  12.024  0.3823 -0.1213  1.8678
  151MPD2     N 2357   3.455   3.533  12.057 -0.2496  0.5204 -0.0167
  151MPD2    H5 2358   3.498   3.455  12.008  0.6218  2.8708 -3.0008
  151MPD2    N1 2359   3.113   3.471  11.722  0.1741  1.0841 -0.0070
  151MPD2    H7 2360   3.019   3.498  11.695 -0.1863 -0.5482 -0.4113
  152TMC2    C1 2361   3.370   3.158  12.683  0.2532  0.0577  0.3778
  152TMC2    C2 2362   3.403   3.028  12.656 -0.1989  0.3925 -0.7687
  152TMC2    C3 2363   3.540   2.998  12.642  0.3085 -0.5852  0.6055
  152TMC2    C4 2364   3.463   3.250  12.712  0.4021  0.3916  0.4781
  152TMC2    C5 2365   3.592   3.207  12.699  1.4155  0.4883  0.3070
  152TMC2    C6 2366   3.640   3.079  12.671  0.2251 -0.7675  0.3208
  152TMC2     C 2367   3.242   3.210  12.642 -0.1392  0.0809 -0.0532
  152TMC2     O 2368   3.225   3.329  12.644 -0.4792 -0.3119  0.1158
  152TMC2     H 2369   3.334   2.952  12.620  1.5456 -1.6085  0.0599
  152TMC2    H1 2370   3.439   3.352  12.740  4.1088  0.5614  2.9906
  152TMC2    H2 2371   3.744   3.058  12.651  0.0722 -0.2537 -1.0558
  152TMC2    C7 2372   3.693   3.309  12.701 -0.1452 -0.2152 -0.1620
  152TMC2    C8 2373   3.563   2.865  12.600 -0.3859 -0.4019 -0.4689
  152TMC2    O1 2374   3.810   3.277  12.729 -0.0915  0.1787  0.5033
  152TMC2    O2 2375   3.488   2.768  12.611  0.5640 -0.1614 -0.7166
  152TMC2    O5 2376   3.645   2.881  12.493  0.1929 -0.0180 -0.9273
  152TMC2    H5 2377   3.672   2.974  12.481  0.7111 -0.0901 -0.3136
  153MPD2     C 2378   2.916   3.059  12.594  0.5785  0.7266  0.5113
  153MPD2    C1 2379   3.015   3.149  12.578 -0.0437 -0.1583  0.6143
  153MPD2    C2 2380   2.981   3.268  12.510  0.2373 -0.3241 -0.4572
  153MPD2    C3 2381   2.850   3.292  12.467  0.5739  0.4922  0.1507
  153MPD2    C4 2382   2.760   3.189  12.485  0.1045 -0.0043 -0.7174
  153MPD2    C5 2383   2.784   3.085  12.572 -0.0739 -0.5291 -0.2388
  153MPD2     H 2384   3.053   3.340  12.472 -0.5989  1.2406  0.9148
  153MPD2    H1 2385   2.655   3.204  12.462  0.2788  0.5020 -1.1966
  153MPD2    H2 2386   2.932   2.967  12.649 -1.3475  0.6556  0.9741
  153MPD2    H3 2387   2.706   3.015  12.598  0.8093 -1.3006  0.3092
  153MPD2     N 2388   2.802   3.415  12.408 -0.0720  0.4033  0.1988
  153MPD2    H5 2389   2.869   3.491  12.421  2.7839 -1.9841 -0.4013
  153MPD2    N1 2390   3.141   3.117  12.635  0.1165 -1.0187  0.1040
  153MPD2    H7 2391   3.153   3.019  12.658 -3.8122 -1.0824  1.8508
  154TMC2    C1 2392   0.155   4.094   0.362  0.3505  0.0754  0.5617
  154TMC2    C2 2393   0.267   4.075   0.430  0.2695  0.2188 -0.1423
  154TMC2    C3 2394   0.305   3.944   0.438  0.3415  0.3346  0.5172
  154TMC2    C4 2395   0.070   3.989   0.321  0.3957 -0.2028  0.1627
  154TMC2    C5 2396   0.115   3.865   0.345  0.1111 -0.6906 -0.2861
  154TMC2    C6 2397   0.233   3.836   0.405 -0.6084  0.7802  0.0558
  154TMC2     C 2398   0.116   4.236   0.350 -0.6768  0.2827 -0.5696
  154TMC2     O 2399   0.173   4.320   0.417 -0.1436  0.5478  0.0668
  154TMC2     H 2400   0.338   4.151   0.461 -0.3613  0.6231  0.3038
  154TMC2    H1 2401   4.709   4.009   0.276  0.1242 -3.5334 -0.7556
  154TMC2    H2 2402   0.269   3.738   0.432 -1.3494  0.6253  0.4783
  154TMC2    C7 2403   0.030   3.757   0.313  0.1374  0.6335 -0.1586
  154TMC2    C8 2404   0.430   3.925   0.513 -0.1136  0.4568  0.0622
  154TMC2    O1 2405   4.648   3.790   0.304  0.5861  0.0901  0.5628
  154TMC2    O2 2406   0.471   4.006   0.593 -0.4629 -0.1306 -0.6432
  154TMC2    O5 2407   0.503   3.826   0.456 -0.2337 -0.5571  0.6301
  154TMC2    H5 2408   0.451   3.796   0.378 -0.9860 -0.7119  1.1844
  155MPD2     C 2409   4.644   4.405   0.093  0.0149 -0.8815  0.1287
  155MPD2    C1 2410   4.696   4.383   0.224 -0.2833  0.4730  0.6170
  155MPD2    C2 2411   4.692   4.493   0.310  0.1526 -0.7361 -0.9144
  155MPD2    C3 2412   4.624   4.610   0.281 -0.3454 -0.3727 -0.4824
  155MPD2    C4 2413   4.571   4.630   0.152 -0.6124  0.4710 -0.0167
  155MPD2    C5 2414   4.578   4.526   0.058  0.3359  0.4221  0.2042
  155MPD2     H 2415   0.012   4.484   0.403 -0.8970 -0.5019 -0.2592
  155MPD2    H1 2416   4.523   4.723   0.123 -0.5146  1.0102  1.5646
  155MPD2    H2 2417   4.636   4.326   0.020  2.3371 -1.0404  0.0642
  155MPD2    H3 2418   4.556   4.534  17.693 -1.6007 -0.3466  0.5542
  155MPD2     N 2419   4.622   4.701   0.393 -0.0739 -0.4072 -0.6953
  155MPD2    H5 2420   4.670   4.673   0.477  1.3297 -1.5729 -1.8852
  155MPD2    N1 2421   0.021   4.258   0.253  0.4112 -0.5207 -0.0007
  155MPD2    H7 2422   0.006   4.187   0.183  0.1849 -0.0706 -0.4104
  156TMC2    C1 2423   3.881   0.793  11.411  0.1005 -0.2644  0.1434
  156TMC2    C2 2424   3.929   0.691  11.324 -0.3845 -0.6713 -0.0764
  156TMC2    C3 2425   3.861   0.671  11.208  0.2968 -0.5473  0.7105
  156TMC2    C4 2426   3.789   0.879  11.367 -1.0450 -0.3061  0.2310
  156TMC2    C5 2427   3.725   0.852  11.252  0.1702  0.0371  0.2750
  156TMC2    C6 2428   3.761   0.749  11.170 -1.2880 -0.7305  0.5155
  156TMC2     C 2429   3.926   0.803  11.548  0.7485 -0.1418  0.3522
  156TMC2     O 2430   3.872   0.879  11.625  0.8674  0.8662 -0.3705
  156TMC2     H 2431   3.994   0.608  11.350 -2.2947 -2.6114 -1.4130
  156TMC2    H1 2432   3.771   0.962  11.434 -2.8538  1.4652 -2.3956
  156TMC2    H2 2433   3.710   0.749  11.075 -0.0894  0.1662 -0.1364
  156TMC2    C7 2434   3.639   0.962  11.210 -0.1905 -0.0511  0.2107
  156TMC2    C8 2435   3.937   0.600  11.101  1.1939 -0.0091 -0.0768
  156TMC2    O1 2436   3.675   1.073  11.255 -0.3114 -0.2083  0.3670
  156TMC2    O2 2437   3.879   0.529  11.018 -0.4545  0.4932  0.2954
  156TMC2    O5 2438   4.071   0.634  11.111  0.1198  0.3424 -0.0771
  156TMC2    H5 2439   4.094   0.692  11.187  1.2198 -0.3841  0.1433
  157MPD2     C 2440   4.256   0.694  11.675 -0.1432 -0.2879  0.1962
  157MPD2    C1 2441   4.122   0.731  11.686  0.6687 -0.4569 -0.1849
  157MPD2    C2 2442   4.064   0.770  11.807 -0.8276 -0.2618 -0.2247
  157MPD2    C3 2443   4.139   0.767  11.926 -0.9970  0.0194  0.3291
  157MPD2    C4 2444   4.272   0.725  11.917 -0.4133 -0.1129 -0.1435
  157MPD2    C5 2445   4.331   0.690  11.795 -0.6737 -0.8365  0.9961
  157MPD2     H 2446   3.958   0.786  11.818 -0.7590  0.5627 -0.8006
  157MPD2    H1 2447   4.326   0.709  12.010 -3.1526 -0.3005  1.4223
  157MPD2    H2 2448   4.304   0.666  11.582 -1.2205 -2.5811  0.3469
  157MPD2    H3 2449   4.432   0.650  11.793  0.7857  2.6778  5.6487
  157MPD2     N 2450   4.082   0.816  12.045  0.3284 -0.6559  0.3845
  157MPD2    H5 2451   3.981   0.824  12.042  0.3647  0.0830  1.2298
  157MPD2    N1 2452   4.050   0.753  11.563  0.1193 -0.3474 -0.2105
  157MPD2    H7 2453   4.100   0.716  11.483  0.9587  0.5011 -0.0848
  158TMC2    C1 2454   4.345   0.009  13.266 -0.8816  0.4509 -0.5442
  158TMC2    C2 2455   4.386   0.117  13.191  0.3877  0.3298 -0.9820
  158TMC2    C3 2456   4.298   0.191  13.126 -0.7440 -0.3011 -0.3262
  158TMC2    C4 2457   4.214   4.696  13.258  0.3510 -0.1715  0.3522
  158TMC2    C5 2458   4.130   0.032  13.187 -0.2777 -0.5675 -0.3105
  158TMC2    C6 2459   4.162   0.156  13.125  0.0810 -0.0615 -0.1064
  158TMC2     C 2460   4.432   4.703  13.371  0.3839  0.4373 -0.5304
  158TMC2     O 2461   4.549   0.004  13.375 -0.0842  1.1368 -0.5531
  158TMC2     H 2462   4.488   0.149  13.210  0.2012  0.4139 -0.1307
  158TMC2    H1 2463   4.188   4.594  13.280 -1.4782  0.9684  3.4260
  158TMC2    H2 2464   4.090   0.212  13.066  0.8099 -0.2258 -1.1614
  158TMC2    C7 2465   4.012   4.715  13.131 -0.6055 -0.3866 -0.3757
  158TMC2    C8 2466   4.333   0.232  12.992 -0.2328 -0.0734 -0.2127
  158TMC2    O1 2467   3.994   0.012  13.016  0.7697 -0.4390 -0.0016
  158TMC2    O2 2468   4.254   0.275  12.909 -0.2719 -0.7799  0.9401
  158TMC2    O5 2469   4.460   0.187  12.968 -0.1594  0.2255  0.7918
  158TMC2    H5 2470   4.478   0.108  13.024 -1.1382  0.9568  2.1211
  159MPD2     C 2471   4.460   4.542  13.860 -0.1241 -0.4236  0.1891
  159MPD2    C1 2472   4.335   4.499  13.805  0.3469  0.4506 -0.2779
  159MPD2    C2 2473   4.316   4.530  13.670  0.2100  0.3507 -0.0468
  159MPD2    C3 2474   4.399   4.599  13.591  0.2023 -0.0297 -0.0566
  159MPD2    C4 2475   4.526   4.617  13.638 -0.9037  0.4619 -1.0273
  159MPD2    C5 2476   4.550   4.589  13.769  0.6419  0.2956 -0.6386
  159MPD2     H 2477   4.221   4.514  13.620  0.2319 -0.5023  0.1885
  159MPD2    H1 2478   4.613   4.667  13.596 -0.7685  1.7023  0.7657
  159MPD2    H2 2479   4.481   4.521  13.964  1.5296  1.4675  0.2250
  159MPD2    H3 2480   4.647   4.620  13.807  0.2719  2.1746 -1.2660
  159MPD2     N 2481   4.355   4.640  13.465 -0.2284 -0.2746 -0.2315
  159MPD2    H5 2482   4.256   4.627  13.447  0.0792 -2.7664 -0.2251
  159MPD2    N1 2483   4.243   4.443  13.893  0.0816 -1.1226 -0.5304
  159MPD2    H7 2484   4.273   4.421  13.987  1.4634 -1.6652 -1.0980
  160TMC2    C1 2485   4.189   3.541   1.385  0.6027  0.2209 -0.4910
  160TMC2    C2 2486   4.286   3.478   1.461  0.8020 -0.0907 -0.2958
  160TMC2    C3 2487   4.418   3.506   1.449 -0.1969  0.4089  0.1359
  160TMC2    C4 2488   4.230   3.615   1.278  0.0254 -0.5364 -0.4871
  160TMC2    C5 2489   4.365   3.634   1.261 -0.4223 -0.2491 -0.0183
  160TMC2    C6 2490   4.455   3.608   1.360  0.5037 -0.0220 -0.6132
  160TMC2     C 2491   4.054   3.489   1.399  0.3258  0.0572  0.4563
  160TMC2     O 2492   4.039   3.402   1.485 -0.8733  0.1461 -0.1247
  160TMC2     H 2493   4.254   3.407   1.536  0.1439 -1.0742 -1.5048
  160TMC2    H1 2494   4.160   3.667   1.214 -1.5091 -1.7180  0.2325
  160TMC2    H2 2495   4.555   3.649   1.358  1.7221 -3.1114 -1.9226
  160TMC2    C7 2496   4.391   3.745   1.178  0.8152  0.0590 -0.0070
  160TMC2    C8 2497   4.507   3.474   1.560 -0.9074 -0.2002  0.6279
  160TMC2    O1 2498   4.467   3.833   1.219 -0.0658  0.1058  0.5673
  160TMC2    O2 2499   4.473   3.441   1.676  0.2094  0.3822  0.4528
  160TMC2    O5 2500   4.629   3.442   1.498 -0.3716 -0.8625  0.2873
  160TMC2    H5 2501   4.630   3.463   1.402  3.0952 -1.0503  0.2701
  161MPD2     C 2502   3.766   3.414   1.388  0.0030 -0.3083  0.0139
  161MPD2    C1 2503   3.824   3.525   1.321 -0.0517  0.1018 -0.7517
  161MPD2    C2 2504   3.746   3.605   1.241 -0.3727  0.6215  0.3383
  161MPD2    C3 2505   3.612   3.580   1.219  0.2139 -0.4185  0.4080
  161MPD2    C4 2506   3.556   3.467   1.289 -0.7562  0.1006  0.4859
  161MPD2    C5 2507   3.630   3.394   1.376 -0.5650 -0.1737  1.1600
  161MPD2     H 2508   3.799   3.690   1.200 -0.3788 -0.4019 -1.7855
  161MPD2    H1 2509   3.448   3.452   1.284 -0.8065  1.0334 -1.0994
  161MPD2    H2 2510   3.821   3.355   1.461 -2.1646 -0.7752  1.2685
  161MPD2    H3 2511   3.588   3.308   1.427  1.5218 -1.9248 -0.0324
  161MPD2     N 2512   3.530   3.656   1.138 -0.0181  0.1549 -0.2595
  161MPD2    H5 2513   3.436   3.618   1.124 -0.1165  0.2526  0.1621
  161MPD2    N1 2514   3.962   3.561   1.331 -0.4437 -0.4392  0.6824
  161MPD2    H7 2515   3.991   3.650   1.292 -2.0008  0.4452  1.5745
  162TMC2    C1 2516   1.722   0.418   0.639 -0.6727 -0.3557 -0.7225
  162TMC2    C2 2517   1.646   0.466   0.744  0.1943 -0.2450 -0.1232
  162TMC2    C3 2518   1.709   0.514   0.852  0.2236 -0.8773 -0.4453
  162TMC2    C4 2519   1.862   0.422   0.638 -0.2137  0.7896 -0.3682
  162TMC2    C5 2520   1.920   0.497   0.740 -0.5732 -0.0071 -0.0328
  162TMC2    C6 2521   1.846   0.525   0.850 -0.0871  0.1389  0.1867
  162TMC2     C 2522   1.667   0.355   0.523 -0.1427  1.2267 -0.4508
  162TMC2     O 2523   1.729   0.263   0.470 -0.0361  0.1222 -0.4528
  162TMC2     H 2524   1.537   0.467   0.741  0.2056 -0.5822 -0.7835
  162TMC2    H1 2525   1.916   0.379   0.555 -0.9386 -3.1589  1.2034
  162TMC2    H2 2526   1.905   0.559   0.935  2.6184 -1.0104 -1.2589
  162TMC2    C7 2527   2.064   0.510   0.741  0.0112 -0.5252 -0.0935
  162TMC2    C8 2528   1.639   0.484   0.976  0.3012 -0.7340  0.7177
  162TMC2    O1 2529   2.100   0.615   0.791 -0.2865  0.8097 -0.9552
  162TMC2    O2 2530   1.520   0.496   0.991 -0.2180  0.3570 -0.4572
  162TMC2    O5 2531   1.696   0.368   1.011 -0.7156 -0.5284  0.3490
  162TMC2    H5 2532   1.793   0.360   1.018 -0.7517 -1.2892 -0.0383
  163MPD2     C 2533   1.283   0.286   0.203 -0.1423  0.0968  0.7694
  163MPD2    C1 2534   1.398   0.210   0.223 -0.3938  0.0387 -0.0841
  163MPD2    C2 2535   1.476   0.242   0.329  0.2780  0.5251  1.0239
  163MPD2    C3 2536   1.457   0.359   0.395  0.6818  0.4332 -0.0453
  163MPD2    C4 2537   1.345   0.438   0.373  0.1855  0.7513 -0.1974
  163MPD2    C5 2538   1.251   0.398   0.279 -0.0089 -0.0425 -0.7627
  163MPD2     H 2539   1.567   0.189   0.353  1.5206  2.1492 -0.1183
  163MPD2    H1 2540   1.332   0.522   0.440 -2.4709 -0.8342  1.2723
  163MPD2    H2 2541   1.227   0.252   0.116  0.6649 -0.1898  0.3524
  163MPD2    H3 2542   1.165   0.459   0.254 -1.8716 -1.7330  1.4984
  163MPD2     N 2543   1.543   0.407   0.495 -0.1818 -0.7827 -0.0160
  163MPD2    H5 2544   1.518   0.490   0.549 -1.1644 -0.9745 -0.1770
  163MPD2    N1 2545   1.412   0.100   0.135  0.7368  0.2435  0.2092
  163MPD2    H7 2546   1.349   0.095   0.055 -0.4981 -1.0599  1.2507
  164TMC2    C1 2547   2.320   0.217  10.682  0.5251 -0.8155 -0.1013
  164TMC2    C2 2548   2.360   0.335  10.750 -0.3519  0.4913 -0.6410
  164TMC2    C3 2549   2.293   0.372  10.860  0.2560 -0.1668  0.4359
  164TMC2    C4 2550   2.202   0.153  10.722  0.8287  0.2148 -0.1181
  164TMC2    C5 2551   2.143   0.196  10.839  0.1307  0.3986 -0.5931
  164TMC2    C6 2552   2.179   0.308  10.906 -0.2290  0.2324  0.2841
  164TMC2     C 2553   2.373   0.179  10.549 -0.4950 -0.4744  0.2907
  164TMC2     O 2554   2.316   0.088  10.495  0.1927  0.6095 -0.6568
  164TMC2     H 2555   2.451   0.383  10.716 -1.1558  2.8004  0.4630
  164TMC2    H1 2556   2.183   0.052  10.687 -0.5053  1.0514 -1.7921
  164TMC2    H2 2557   2.126   0.338  10.996  2.0552  3.4932  0.5391
  164TMC2    C7 2558   2.018   0.128  10.867  0.4337 -0.0274  0.4877
  164TMC2    C8 2559   2.346   0.494  10.933  0.7526 -0.4256  0.6186
  164TMC2    O1 2560   1.964   0.067  10.780 -0.2383 -0.5365 -0.8646
  164TMC2    O2 2561   2.447   0.549  10.893  0.5734  0.5401 -0.1198
  164TMC2    O5 2562   2.316   0.481  11.061 -0.4241 -0.1670 -0.0108
  164TMC2    H5 2563   2.239   0.424  11.084  0.0534 -1.6103 -1.9572
  165TMC2    C1 2564   0.209   2.529   1.793 -0.9756  0.6280  0.0646
  165TMC2    C2 2565   0.309   2.565   1.872 -0.5292  0.0660  0.5908
  165TMC2    C3 2566   0.389   2.671   1.832  0.2154  0.1336  0.0820
  165TMC2    C4 2567   0.189   2.590   1.672  0.2461  0.0748  0.1508
  165TMC2    C5 2568   0.269   2.694   1.634 -0.2331  0.6624 -0.3240
  165TMC2    C6 2569   0.370   2.731   1.712 -0.2012  0.4950  0.3504
  165TMC2     C 2570   0.130   2.418   1.831 -0.9127  0.1584 -0.4759
  165TMC2     O 2571   0.009   2.429   1.796  0.2086 -0.3089 -1.0515
  165TMC2     H 2572   0.306   2.533   1.975  0.9287  2.1741  1.2896
  165TMC2    H1 2573   0.101   2.564   1.615  0.0880  0.9121  0.0027
  165TMC2    H2 2574   0.425   2.824   1.700  2.0109 -0.8825 -0.1591
  165TMC2    C7 2575   0.235   2.767   1.509  0.2636  0.2696  0.0777
  165TMC2    C8 2576   0.471   2.733   1.940 -0.4044 -0.0287 -0.4238
  165TMC2    O1 2577   0.132   2.740   1.452 -0.1065  0.2916 -0.6102
  165TMC2    O2 2578   0.524   2.845   1.925 -0.5293 -0.0343  0.0313
  165TMC2    O5 2579   0.507   2.632   2.023  0.2922  0.1999  0.4903
  165TMC2    H5 2580   0.480   2.546   1.985  2.0433  0.8459 -2.2437
  166MPD2     C 2581   0.047   1.932   2.009  0.0661 -0.4914  0.4472
  166MPD2    C1 2582   4.701   2.017   1.941 -0.0531 -0.1032  0.5256
  166MPD2    C2 2583   0.009   2.146   1.913 -0.7035  0.2079 -0.0233
  166MPD2    C3 2584   0.140   2.186   1.933 -0.4453  0.2228  0.7575
  166MPD2    C4 2585   0.221   2.096   1.995  0.1644  1.1228 -0.0110
  166MPD2    C5 2586   0.174   1.972   2.043 -0.1328  0.4915  0.1399
  166MPD2     H 2587   4.675   2.217   1.871 -0.9452 -0.4793 -0.7926
  166MPD2    H1 2588   0.317   2.129   2.033  0.1910  0.5012  0.4558
  166MPD2    H2 2589   0.013   1.833   2.039 -2.2949  0.2856  0.3353
  166MPD2    H3 2590   0.230   1.904   2.107 -0.0051  1.0517  0.6233
  166MPD2     N 2591   0.198   2.316   1.898  0.0100 -0.3813  0.5215
  166MPD2    H5 2592   0.297   2.335   1.910 -0.1054  0.5581 -0.0582
  166MPD2    N1 2593   4.575   1.963   1.898 -0.2737 -0.0974 -0.2548
  166MPD2    H7 2594   4.566   1.864   1.917  1.6169  0.0356  1.3192
  167TMC2    C1 2595   1.338   3.731  12.526  0.2820  0.7000 -0.4463
  167TMC2    C2 2596   1.223   3.711  12.598  0.9234  0.8182  0.4715
  167TMC2    C3 2597   1.182   3.586  12.632  0.5600 -0.6760  0.1276
  167TMC2    C4 2598   1.416   3.634  12.475  0.1545  0.6246 -0.2607
  167TMC2    C5 2599   1.372   3.510  12.503 -0.6056  0.3865  0.1073
  167TMC2    C6 2600   1.263   3.484  12.584  0.3885 -0.7021  0.0324
  167TMC2     C 2601   1.373   3.873  12.513  0.2071  0.0659 -0.6735
  167TMC2     O 2602   1.340   3.948  12.604 -0.2277 -0.2090  0.1919
  167TMC2     H 2603   1.162   3.796  12.629  0.2223  1.1683 -1.9024
  167TMC2    H1 2604   1.508   3.653  12.422 -0.2722  2.3001 -0.4251
  167TMC2    H2 2605   1.252   3.380  12.613 -3.0435  0.1397  1.6514
  167TMC2    C7 2606   1.448   3.397  12.460 -0.1626  0.0554  0.0440
  167TMC2    C8 2607   1.039   3.571  12.617 -0.0967  0.7495 -0.2250
  167TMC2    O1 2608   1.428   3.292  12.520  0.4031  0.2195 -0.2872
  167TMC2    O2 2609   0.978   3.639  12.538 -0.1209  0.2366  0.3379
  167TMC2    O5 2610   0.993   3.465  12.688 -0.8763 -0.1068 -0.6760
  167TMC2    H5 2611   1.053   3.454  12.764 -1.1918 -1.9266 -0.6984
  168MPD2     C 2612   1.433   4.151  12.398 -0.1502 -0.1445  0.2075
  168MPD2    C1 2613   1.467   4.034  12.341  0.3750  0.4369  0.1177
  168MPD2    C2 2614   1.507   4.030  12.214 -0.1120 -0.0260 -0.2106
  168MPD2    C3 2615   1.503   4.140  12.134 -0.0843 -0.3129 -0.5401
  168MPD2    C4 2616   1.474   4.263  12.191  0.2059  0.0904  0.1193
  168MPD2    C5 2617   1.445   4.266  12.321  0.6437 -0.0010 -0.3606
  168MPD2     H 2618   1.534   3.936  12.167  2.1188  1.2659 -1.4971
  168MPD2    H1 2619   1.485   4.355  12.134 -2.7934  0.4361  0.0900
  168MPD2    H2 2620   1.409   4.162  12.503  0.8223 -1.8013  0.6053
  168MPD2    H3 2621   1.407   4.359  12.361 -0.2993 -0.6528  0.2560
  168MPD2     N 2622   1.529   4.127  11.999 -0.0194 -0.4869  0.1288
  168MPD2    H5 2623   1.555   4.031  11.982 -1.1299 -0.3166 -2.6655
  168MPD2    N1 2624   1.438   3.901  12.394 -0.7760 -0.3432  0.4461
  168MPD2    H7 2625   1.449   3.824  12.328  1.0577  2.0378 -2.0511
  169MPD1     C 2626   3.782   3.604   8.873  0.0106  0.0576 -0.1538
  169MPD1    C1 2627   3.820   3.483   8.923  0.2378  0.0192 -0.0717
  169MPD1    C2 2628   3.730   3.410   9.008 -0.5006 -0.5652 -0.4766
  169MPD1    C3 2629   3.606   3.461   9.033 -0.0959 -0.0147  0.1656
  169MPD1    C4 2630   3.565   3.583   8.974  0.3154  0.0316 -0.0560
  169MPD1    C5 2631   3.655   3.652   8.897  0.2235 -1.2891 -1.0783
  169MPD1     H 2632   3.773   3.323   9.056  0.9810  1.0126  1.0949
  169MPD1    H1 2633   3.479   3.643   9.001 -0.0967 -0.2931 -0.6638
  169MPD1    H2 2634   3.845   3.664   8.808 -1.0787 -0.0072 -1.2529
  169MPD1    H3 2635   3.632   3.749   8.856 -0.5620 -0.4796  1.2921
  169MPD1     N 2636   3.531   3.388   9.131 -0.0743  0.0279  0.3525
  169MPD1    H5 2637   3.580   3.315   9.182  0.1465  1.7071  2.5089
  169MPD1    N1 2638   3.956   3.462   8.924 -0.5050 -0.4196 -0.0828
  169MPD1    H6 2639   4.002   3.489   8.838  0.5426 -0.7573  0.3687
  169MPD1    H7 2640   3.993   3.368   8.937 -1.9309 -1.1250 -1.1795
  170MPD1     C 2641   1.801   1.405  12.740 -0.2104 -0.3613  1.1156
  170MPD1    C1 2642   1.846   1.533  12.730  0.1570  0.2785  0.1369
  170MPD1    C2 2643   1.933   1.580  12.827  0.1278 -0.1571 -0.1263
  170MPD1    C3 2644   1.967   1.507  12.942 -0.0959 -0.0675 -0.3333
  170MPD1    C4 2645   1.929   1.375  12.938  0.5975  0.3024 -0.2091
  170MPD1    C5 2646   1.851   1.322  12.840 -0.3223  0.8512 -0.5814
  170MPD1     H 2647   1.971   1.680  12.808 -0.2568  0.1280  0.5789
  170MPD1    H1 2648   1.953   1.311  13.022 -0.0467 -0.0200 -0.2651
  170MPD1    H2 2649   1.735   1.355  12.669  1.8648 -1.3376 -0.1226
  170MPD1    H3 2650   1.818   1.220  12.855 -2.7944  1.6367 -0.7594
  170MPD1     N 2651   2.052   1.575  13.036  0.3343 -0.0827 -0.2551
  170MPD1    H5 2652   2.090   1.665  13.009 -0.1146  0.8259  2.1644
  170MPD1    N1 2653   1.823   1.599  12.605 -0.3641  0.2367 -0.3569
  170MPD1    H6 2654   1.732   1.574  12.566 -0.4465 -1.4106  0.8351
  170MPD1    H7 2655   1.823   1.699  12.620 -0.4203 -0.0347  1.5443
  171MPD1     C 2656   1.396   2.612  14.918 -0.0204 -0.0049 -0.3243
  171MPD1    C1 2657   1.477   2.582  15.020 -0.3286 -0.2479 -0.0100
  171MPD1    C2 2658   1.422   2.554  15.146  0.1011  0.6137 -0.1684
  171MPD1    C3 2659   1.283   2.561  15.162 -0.2107  0.3374  0.1950
  171MPD1    C4 2660   1.199   2.580  15.054 -0.1313 -0.6557 -0.1692
  171MPD1    C5 2661   1.262   2.609  14.930 -0.2881  0.6054 -0.0455
  171MPD1     H 2662   1.498   2.544  15.223 -1.8892  1.4186  1.8907
  171MPD1    H1 2663   1.092   2.567  15.066 -0.0538  0.0497  1.2729
  171MPD1    H2 2664   1.425   2.624  14.814 -2.2106  1.1097 -0.8087
  171MPD1    H3 2665   1.201   2.614  14.841  0.5030  2.5765 -0.4729
  171MPD1     N 2666   1.235   2.544  15.284  0.4117 -0.0335 -0.1231
  171MPD1    H5 2667   1.134   2.541  15.295  0.3089 -0.9807 -1.2637
  171MPD1    N1 2668   1.610   2.536  15.000 -0.2146  0.0331  0.3162
  171MPD1    H6 2669   1.678   2.554  15.073 -0.1643 -1.1607  0.5638
  171MPD1    H7 2670   1.646   2.577  14.915 -1.9742  1.7274  0.3918
  172MPD1     C 2671   0.341   2.032   0.666  0.6880  0.3766  0.7230
  172MPD1    C1 2672   0.280   2.062   0.544 -0.3708 -0.2637 -0.3062
  172MPD1    C2 2673   0.266   2.197   0.505 -0.4129  0.0335 -0.3847
  172MPD1    C3 2674   0.305   2.297   0.584  0.4664 -0.6425 -0.8011
  172MPD1    C4 2675   0.360   2.266   0.707  0.1789  0.3899 -0.3288
  172MPD1    C5 2676   0.380   2.138   0.745 -0.4257 -0.0827 -0.3489
  172MPD1     H 2677   0.246   2.225   0.402  1.9765 -0.1653 -0.9043
  172MPD1    H1 2678   0.385   2.339   0.784  0.2624 -0.3658  0.3606
  172MPD1    H2 2679   0.372   1.931   0.689  2.1169  0.6715  0.0714
  172MPD1    H3 2680   0.421   2.107   0.841 -1.4079  0.1719  0.1550
  172MPD1     N 2681   0.309   2.435   0.546  0.5513 -0.2318 -0.0086
  172MPD1    H5 2682   0.361   2.500   0.603  0.7521  0.4190 -0.9454
  172MPD1    N1 2683   0.259   1.953   0.453 -0.2487  0.4640 -0.0177
  172MPD1    H6 2684   0.225   1.869   0.499 -0.2679 -0.6356 -2.0552
  172MPD1    H7 2685   0.188   1.973   0.383  0.3953 -1.4307 -1.2046
  173MPD1     C 2686   2.075   1.653  13.769  0.6089  0.2512  0.2241
  173MPD1    C1 2687   2.112   1.689  13.893 -0.5187 -0.0910  0.7726
  173MPD1    C2 2688   2.020   1.657  13.993 -0.5433 -0.3125 -1.1359
  173MPD1    C3 2689   1.907   1.584  13.966 -0.1296  0.6962  0.2345
  173MPD1    C4 2690   1.884   1.544  13.831  0.7927  0.6551  0.0181
  173MPD1    C5 2691   1.974   1.573  13.732  0.1011  0.2590  0.6222
  173MPD1     H 2692   2.037   1.681  14.097  1.6471 -0.8978 -1.3596
  173MPD1    H1 2693   1.798   1.479  13.817 -1.1601  2.5516  3.0681
  173MPD1    H2 2694   2.136   1.690  13.688 -0.1851 -0.0165 -0.4900
  173MPD1    H3 2695   1.947   1.545  13.631 -1.4863 -0.1978  1.1850
  173MPD1     N 2696   1.819   1.551  14.074 -0.2273 -0.0645  0.3856
  173MPD1    H5 2697   1.851   1.571  14.168  2.0933  0.8378 -0.5734
  173MPD1    N1 2698   2.217   1.775  13.930 -0.1931  0.3465  0.3948
  173MPD1    H6 2699   2.243   1.756  14.027 -2.9207  0.2830  1.1055
  173MPD1    H7 2700   2.298   1.761  13.870  0.5820  0.0551  1.5120
  174MPD1     C 2701   1.990   1.377  14.972 -0.1108 -0.1078 -0.2336
  174MPD1    C1 2702   2.037   1.336  14.850  0.1737  0.7062  0.0442
  174MPD1    C2 2703   1.946   1.341  14.740  0.0473  0.1113 -0.3698
  174MPD1    C3 2704   1.819   1.398  14.755 -0.5233  0.1404  0.2967
  174MPD1    C4 2705   1.777   1.448  14.882  0.4755  0.4848 -0.4735
  174MPD1    C5 2706   1.870   1.443  14.982  0.0788 -0.3453  0.2818
  174MPD1     H 2707   1.976   1.278  14.658 -0.2912  1.3000 -1.3998
  174MPD1    H1 2708   1.680   1.492  14.899  0.4623 -0.3387  1.5617
  174MPD1    H2 2709   2.038   1.369  15.069  1.1585  1.1537 -0.7481
  174MPD1    H3 2710   1.837   1.465  15.082  0.4201 -0.1742  0.3572
  174MPD1     N 2711   1.733   1.396  14.642  1.1965  0.0708  0.4688
  174MPD1    H5 2712   1.636   1.423  14.650  0.5477 -1.4550 -2.2357
  174MPD1    N1 2713   2.146   1.255  14.854 -0.0449  0.4627 -0.2248
  174MPD1    H6 2714   2.190   1.253  14.762 -0.3377 -1.2189 -0.3203
  174MPD1    H7 2715   2.210   1.279  14.929 -1.0732  0.5658  0.6114
  175MPD1     C 2716   4.454   3.369  15.320  0.0859  0.2569 -0.1483
  175MPD1    C1 2717   4.337   3.376  15.388 -0.3129 -0.2788 -0.4519
  175MPD1    C2 2718   4.325   3.319  15.513 -0.2128  0.2298  0.3354
  175MPD1    C3 2719   4.433   3.261  15.574  0.7137 -0.3318  0.3342
  175MPD1    C4 2720   4.552   3.285  15.518  0.4728 -0.4609 -0.1799
  175MPD1    C5 2721   4.564   3.330  15.390  0.0564  0.4307 -0.0808
  175MPD1     H 2722   4.230   3.314  15.565  0.1110 -0.7424  0.8344
  175MPD1    H1 2723   4.640   3.255  15.574 -0.5742 -0.5919  1.3740
  175MPD1    H2 2724   4.458   3.413  15.221  0.7411 -0.5661 -0.4807
  175MPD1    H3 2725   4.659   3.316  15.340 -0.3913 -0.1808 -0.7420
  175MPD1     N 2726   4.432   3.204  15.699  0.5317 -0.4916 -0.0707
  175MPD1    H5 2727   4.520   3.191  15.749 -0.4174  0.0512  1.7622
  175MPD1    N1 2728   4.226   3.454  15.341  0.9727 -0.2430 -0.5083
  175MPD1    H6 2729   4.139   3.445  15.393 -0.3302  0.8341 -2.4845
  175MPD1    H7 2730   4.205   3.447  15.242 -1.1854 -1.2292  0.0193
  176MPD1     C 2731   1.999   0.879   0.223  0.5846  0.4893  0.3571
  176MPD1    C1 2732   2.021   1.017   0.240 -0.0555  0.1263  0.3303
  176MPD1    C2 2733   2.042   1.087   0.123  0.1103  0.1592  0.3227
  176MPD1    C3 2734   2.031   1.031  17.735 -0.5560  0.4720  0.3039
  176MPD1    C4 2735   1.990   0.905  17.722  0.1974 -0.4155 -0.3594
  176MPD1    C5 2736   1.975   0.829   0.097  0.0875  0.1051  0.1584
  176MPD1     H 2737   2.050   1.195   0.132  1.7840  0.2132 -1.7027
  176MPD1    H1 2738   1.975   0.864  17.623  0.1162  0.5887 -0.7534
  176MPD1    H2 2739   1.992   0.817   0.311 -1.1856  0.2353  0.0465
  176MPD1    H3 2740   1.947   0.725   0.082 -1.2057  0.4849 -0.0803
  176MPD1     N 2741   2.063   1.116  17.632 -0.1043  0.0744 -0.6339
  176MPD1    H5 2742   2.105   1.202  17.666  0.2292 -0.1645 -0.4400
  176MPD1    N1 2743   2.050   1.075   0.365  0.3352 -0.2960  0.1855
  176MPD1    H6 2744   2.015   1.170   0.363 -1.8207 -1.1150 -2.0036
  176MPD1    H7 2745   2.002   1.041   0.449 -1.4437  0.1566 -0.6409
  177MPD1     C 2746   0.325   4.470   9.849 -0.0753 -0.4530  0.0173
  177MPD1    C1 2747   0.344   4.580   9.765 -0.1114  0.4441  0.4265
  177MPD1    C2 2748   0.266   4.583   9.655  0.0655 -1.0232 -0.0012
  177MPD1    C3 2749   0.167   4.490   9.637  0.3185 -0.6882  0.2825
  177MPD1    C4 2750   0.138   4.390   9.730  0.4413 -0.2433 -0.1829
  177MPD1    C5 2751   0.225   4.378   9.834  0.8316  0.3567  0.0162
  177MPD1     H 2752   0.271   4.664   9.584 -3.7092  0.2115  1.1183
  177MPD1    H1 2753   0.063   4.313   9.711 -2.5439  2.5952  0.1628
  177MPD1    H2 2754   0.390   4.459   9.935  0.9247  0.5449 -0.6147
  177MPD1    H3 2755   0.208   4.300   9.907 -1.3747 -1.1683 -2.1333
  177MPD1     N 2756   0.100   4.492   9.510  0.0647 -0.3013  0.3295
  177MPD1    H5 2757   0.140   4.557   9.444 -1.6380 -0.1077 -0.5061
  177MPD1    N1 2758   0.452   4.671   9.780  0.2762 -0.0543 -0.2812
  177MPD1    H6 2759   0.485   4.672   9.876  0.9888  0.2712 -0.5278
  177MPD1    H7 2760   0.446   0.028   9.738  1.4024  0.0094 -0.3088
  178MPD1     C 2761   2.791   1.286  17.326  1.1862 -0.3284  0.4971
  178MPD1    C1 2762   2.687   1.198  17.301  0.1298 -0.4039  0.8428
  178MPD1    C2 2763   2.691   1.121  17.185  0.5112 -0.2833 -0.5781
  178MPD1    C3 2764   2.801   1.119  17.100  0.0734  0.2954 -0.1789
  178MPD1    C4 2765   2.906   1.195  17.136  0.0973  0.5387 -0.1137
  178MPD1    C5 2766   2.905   1.281  17.251 -0.5005  0.7414  0.1053
  178MPD1     H 2767   2.607   1.058  17.158  1.7089 -1.5071 -1.4559
  178MPD1    H1 2768   2.993   1.196  17.072  0.7059  1.1240  0.7209
  178MPD1    H2 2769   2.779   1.361  17.404  2.4966 -0.8102  1.1721
  178MPD1    H3 2770   2.989   1.345  17.272 -0.3626  0.1819  1.2389
  178MPD1     N 2771   2.816   1.050  16.975  0.2538  0.4710  0.1317
  178MPD1    H5 2772   2.912   1.056  16.940  0.0327  0.5919 -0.4481
  178MPD1    N1 2773   2.571   1.200  17.379  0.1707 -0.2381  0.5320
  178MPD1    H6 2774   2.539   1.103  17.378  1.4104 -0.6244 -2.7101
  178MPD1    H7 2775   2.588   1.221  17.477  0.3738  0.4436  0.3525
  179MPD1     C 2776   1.959   3.552  14.973  0.5447  0.4936 -0.1762
  179MPD1    C1 2777   1.837   3.600  14.934 -0.0415  0.0334  0.4527
  179MPD1    C2 2778   1.785   3.719  14.985 -0.1169 -0.3238 -0.8368
  179MPD1    C3 2779   1.858   3.791  15.077 -0.4171 -0.7234 -0.8199
  179MPD1    C4 2780   1.977   3.730  15.119  0.4132  0.4237  0.0072
  179MPD1    C5 2781   2.029   3.610  15.073 -0.1540  0.0771  0.4501
  179MPD1     H 2782   1.684   3.745  14.954  0.1431  1.0166 -0.5655
  179MPD1    H1 2783   2.028   3.787  15.196 -0.9167  0.7511  0.6324
  179MPD1    H2 2784   1.995   3.463  14.924 -3.7504 -2.0066  1.1940
  179MPD1    H3 2785   2.131   3.583  15.100  0.4728  2.5084  0.4991
  179MPD1     N 2786   1.814   3.906  15.137  0.4973  0.4673  0.1751
  179MPD1    H5 2787   1.879   3.961  15.192  0.4934  0.8583 -0.2138
  179MPD1    N1 2788   1.750   3.527  14.848  0.8210 -0.4085  0.4113
  179MPD1    H6 2789   1.754   3.585  14.765 -0.2470  0.9838  1.3248
  179MPD1    H7 2790   1.791   3.440  14.815  0.9964  0.8422 -2.7244
  180MPD1     C 2791   1.406   0.587  14.895  0.4380  0.0776 -0.1625
  180MPD1    C1 2792   1.515   0.643  14.840  0.1180 -0.2273  0.2069
  180MPD1    C2 2793   1.523   0.643  14.698 -0.1072 -0.7877  0.9204
  180MPD1    C3 2794   1.427   0.579  14.615  0.5409  0.2438 -0.1118
  180MPD1    C4 2795   1.316   0.530  14.678  0.3755  0.4892 -0.1811
  180MPD1    C5 2796   1.306   0.538  14.815  0.5547 -0.2580 -0.1501
  180MPD1     H 2797   1.597   0.694  14.638 -1.0962 -0.5178 -0.0720
  180MPD1    H1 2798   1.235   0.484  14.623  1.5530  1.1135 -2.4559
  180MPD1    H2 2799   1.384   0.577  15.001 -1.1905  1.3149 -0.3798
  180MPD1    H3 2800   1.220   0.495  14.865  1.1173  0.1619  1.1772
  180MPD1     N 2801   1.451   0.568  14.474  0.0529 -1.0985 -0.7609
  180MPD1    H5 2802   1.529   0.620  14.435 -1.0192  0.0526 -1.3881
  180MPD1    N1 2803   1.628   0.672  14.917 -0.0456  0.1128  0.1834
  180MPD1    H6 2804   1.685   0.749  14.880  0.7918  0.1124  1.4692
  180MPD1    H7 2805   1.596   0.704  15.008 -1.2470  0.3809 -0.3389
  181MPD1     C 2806   2.627   2.879   9.884  0.1252  0.0516  0.6689
  181MPD1    C1 2807   2.672   2.768   9.962  0.2586  0.3363 -1.4791
  181MPD1    C2 2808   2.799   2.727   9.951 -0.1339 -0.0109  0.2044
  181MPD1    C3 2809   2.883   2.782   9.860 -0.7804 -0.1291 -0.4698
  181MPD1    C4 2810   2.842   2.888   9.780  0.1068 -0.4545  0.2296
  181MPD1    C5 2811   2.709   2.933   9.784 -0.2553 -0.7496 -0.5450
  181MPD1     H 2812   2.836   2.645  10.012  1.0124  0.3198 -0.0466
  181MPD1    H1 2813   2.903   2.935   9.703 -1.5647 -1.3000 -1.5993
  181MPD1    H2 2814   2.522   2.903   9.888 -0.2117 -1.2912 -0.1814
  181MPD1    H3 2815   2.673   3.012   9.720 -3.0939 -1.5908  0.0031
  181MPD1     N 2816   3.019   2.747   9.846 -0.0330  0.1152 -0.3652
  181MPD1    H5 2817   3.073   2.797   9.776 -0.9630  0.6212 -0.7225
  181MPD1    N1 2818   2.579   2.698  10.042  0.3470 -0.2893  0.1251
  181MPD1    H6 2819   2.604   2.673  10.137  0.5031 -0.6705 -0.0176
  181MPD1    H7 2820   2.494   2.753  10.048  1.2688  1.1864 -0.5120
  182MPD1     C 2821   0.220   1.499   1.176  0.2545  0.0324  0.5583
  182MPD1    C1 2822   0.161   1.418   1.083 -0.2521  0.1405  0.3125
  182MPD1    C2 2823   0.039   1.450   1.027  0.3291  0.3486 -0.4147
  182MPD1    C3 2824   4.723   1.571   1.060  0.9299  0.4486  0.2613
  182MPD1    C4 2825   0.047   1.652   1.152 -0.5093 -0.0890 -0.3517
  182MPD1    C5 2826   0.166   1.621   1.213  0.2329 -1.5018 -0.6422
  182MPD1     H 2827   4.730   1.384   0.953 -1.3978  0.9469  0.0894
  182MPD1    H1 2828   0.016   1.753   1.178 -0.7153  0.0191 -1.0116
  182MPD1    H2 2829   0.313   1.458   1.213  0.1619 -1.1680 -0.5680
  182MPD1    H3 2830   0.219   1.694   1.273 -0.9066 -1.7721  0.7020
  182MPD1     N 2831   4.596   1.616   1.008  0.2278 -0.3427 -0.1269
  182MPD1    H5 2832   4.542   1.687   1.055  0.8673  0.1758 -0.1765
  182MPD1    N1 2833   0.205   1.281   1.067  0.4911 -0.0910  0.4051
  182MPD1    H6 2834   0.175   1.253   0.974 -0.1809 -0.6330  0.7819
  182MPD1    H7 2835   0.306   1.276   1.069  0.6376  2.3796 -1.0712
  183MPD1     C 2836   0.982   2.349   9.386 -0.0566 -0.3441 -0.3038
  183MPD1    C1 2837   0.955   2.242   9.462 -0.0107  0.1085  0.2002
  183MPD1    C2 2838   0.825   2.213   9.487 -0.0149 -0.0482  0.1178
  183MPD1    C3 2839   0.720   2.282   9.429 -1.1495  0.8337  0.0730
  183MPD1    C4 2840   0.751   2.388   9.349  0.0640 -0.1123  0.5721
  183MPD1    C5 2841   0.882   2.411   9.324  0.3347 -0.0100 -0.0275
  183MPD1     H 2842   0.800   2.123   9.542 -0.1426 -0.9984 -1.4870
  183MPD1    H1 2843   0.688   2.460   9.296  0.4507 -0.5855 -0.5279
  183MPD1    H2 2844   1.078   2.390   9.358 -0.0466  0.3263  0.7293
  183MPD1    H3 2845   0.913   2.499   9.268  1.2664  0.3472  1.0455
  183MPD1     N 2846   0.585   2.246   9.459  0.2327  0.0821  0.5233
  183MPD1    H5 2847   0.571   2.170   9.525  1.1938 -0.9530 -0.4731
  183MPD1    N1 2848   1.059   2.156   9.499  0.0021 -0.0673  0.0291
  183MPD1    H6 2849   1.058   2.134   9.598  0.8947 -2.2870 -0.4538
  183MPD1    H7 2850   1.148   2.196   9.470 -0.2652  0.5973  0.1271
  184MPD1     C 2851   3.881   3.779   9.846  0.5989 -0.0425 -0.3660
  184MPD1    C1 2852   4.018   3.818   9.830  0.2964  0.7377 -0.3559
  184MPD1    C2 2853   4.044   3.924   9.744 -0.1388 -0.6667 -0.8791
  184MPD1    C3 2854   3.937   4.002   9.695  0.0476 -0.1954  0.2970
  184MPD1    C4 2855   3.805   3.966   9.722  0.0167  0.1247 -0.1517
  184MPD1    C5 2856   3.784   3.854   9.792  0.6789 -0.9677 -0.5839
  184MPD1     H 2857   4.149   3.945   9.728 -0.2197  1.6441  1.6098
  184MPD1    H1 2858   3.724   4.025   9.680  0.4860  1.2906  0.5944
  184MPD1    H2 2859   3.855   3.679   9.880 -1.0012  0.7474  0.7038
  184MPD1    H3 2860   3.682   3.820   9.801  0.6378 -0.6913  0.0300
  184MPD1     N 2861   3.953   4.128   9.618 -0.4311 -0.4845 -0.5877
  184MPD1    H5 2862   3.866   4.169   9.586 -0.1107 -0.5637 -1.5572
  184MPD1    N1 2863   4.120   3.733   9.869  0.6449  0.1492 -0.3878
  184MPD1    H6 2864   4.208   3.783   9.872 -0.0406  1.1724  2.7224
  184MPD1    H7 2865   4.091   3.698   9.961  0.7626  0.1683 -0.3442
  185MPD1     C 2866   3.588   4.076   8.882  0.1321 -0.4091  0.0013
  185MPD1    C1 2867   3.690   4.164   8.840  0.1739 -0.1507 -0.0728
  185MPD1    C2 2868   3.759   4.219   8.944 -0.4933  0.8212 -0.0974
  185MPD1    C3 2869   3.729   4.201   9.078 -0.1385 -0.2260  0.0579
  185MPD1    C4 2870   3.620   4.125   9.115 -0.5679  0.6229 -0.3853
  185MPD1    C5 2871   3.546   4.071   9.014 -0.6059  0.1973 -0.2094
  185MPD1     H 2872   3.849   4.270   8.912  1.1761 -0.7135  2.1858
  185MPD1    H1 2873   3.608   4.126   9.222 -1.0342 -0.3419 -0.4353
  185MPD1    H2 2874   3.536   4.013   8.812  1.9680  0.3991 -2.1081
  185MPD1    H3 2875   3.473   3.994   9.035 -0.4968 -0.1596 -1.1094
  185MPD1     N 2876   3.818   4.237   9.178  0.0383 -0.0974 -0.3857
  185MPD1    H5 2877   3.795   4.200   9.270 -1.6489 -0.8237 -1.1072
  185MPD1    N1 2878   3.744   4.170   8.715  0.2949 -0.0627  0.3593
  185MPD1    H6 2879   3.667   4.162   8.649 -1.6828 -0.4576  2.7466
  185MPD1    H7 2880   3.797   4.255   8.694 -0.9611  0.4616 -0.7146
  186MPD1     C 2881   2.711   0.055  15.412 -0.1887  0.2376 -0.0557
  186MPD1    C1 2882   2.637   0.151  15.472 -0.2155 -0.6861 -0.4971
  186MPD1    C2 2883   2.616   0.143  15.610 -0.0988 -0.6029 -0.2555
  186MPD1    C3 2884   2.668   0.042  15.684 -0.8076  0.0252 -0.5586
  186MPD1    C4 2885   2.731   4.673  15.614 -0.2596 -0.3061 -0.0093
  186MPD1    C5 2886   2.753   4.679  15.481  0.1756  0.4547 -0.1593
  186MPD1     H 2887   2.566   0.220  15.666 -0.2356 -0.1383 -1.0150
  186MPD1    H1 2888   2.764   4.578  15.654 -0.5574 -0.9787 -1.3604
  186MPD1    H2 2889   2.738   0.060  15.307 -1.6603 -0.8634 -0.4788
  186MPD1    H3 2890   2.801   4.600  15.425  2.2008 -0.0717  2.3319
  186MPD1     N 2891   2.668   0.030  15.827 -0.5319  0.0565 -0.6415
  186MPD1    H5 2892   2.717   4.683  15.862 -2.0025 -1.6700 -2.7216
  186MPD1    N1 2893   2.599   0.272  15.404  1.3864  0.5605  0.1066
  186MPD1    H6 2894   2.501   0.299  15.414  1.4498 -0.0381  2.4921
  186MPD1    H7 2895   2.613   0.273  15.303  2.6265 -1.2709  0.2590
  187MPD1     C 2896   2.834   1.738  16.982 -0.1881 -0.6110 -0.0646
  187MPD1    C1 2897   2.759   1.730  17.096 -0.2012 -0.8181 -0.5074
  187MPD1    C2 2898   2.625   1.773  17.096  0.2446  0.1569 -0.0514
  187MPD1    C3 2899   2.574   1.825  16.980 -0.2189 -0.8348  0.6133
  187MPD1    C4 2900   2.653   1.840  16.876 -0.1587  0.4614 -0.2382
  187MPD1    C5 2901   2.781   1.797  16.871  0.2842  0.4073  0.3882
  187MPD1     H 2902   2.560   1.766  17.183 -0.3965 -2.0665 -0.7272
  187MPD1    H1 2903   2.611   1.884  16.787  0.6317 -2.8995 -2.2612
  187MPD1    H2 2904   2.930   1.691  16.966 -0.1144 -0.6321  0.4212
  187MPD1    H3 2905   2.851   1.816  16.791 -1.7219  1.2427 -1.1603
  187MPD1     N 2906   2.439   1.854  16.952 -0.3748 -0.5385  0.7108
  187MPD1    H5 2907   2.414   1.881  16.858  3.1299  1.7616  0.4259
  187MPD1    N1 2908   2.803   1.652  17.203  0.2817  0.0538 -0.2284
  187MPD1    H6 2909   2.904   1.637  17.206  0.3255  0.3129 -0.4087
  187MPD1    H7 2910   2.769   1.674  17.296  0.4809 -0.5811 -0.0042
  188MPD1     C 2911   2.676   1.031   9.628 -0.4890  0.3868  0.0376
  188MPD1    C1 2912   2.615   0.981   9.516 -0.6024  0.3202  0.0548
  188MPD1    C2 2913   2.510   0.900   9.542 -0.1672 -0.4155 -0.2445
  188MPD1    C3 2914   2.485   0.838   9.668 -0.2439 -0.2646  0.1826
  188MPD1    C4 2915   2.564   0.878   9.773 -0.7022 -0.4753  0.5332
  188MPD1    C5 2916   2.651   0.980   9.756 -0.3942  0.2014  0.4043
  188MPD1     H 2917   2.441   0.882   9.461 -0.8963 -1.1619  0.5411
  188MPD1    H1 2918   2.532   0.860   9.875  0.3962 -1.3857  0.7243
  188MPD1    H2 2919   2.767   1.089   9.621 -0.3448  0.1761  0.1463
  188MPD1    H3 2920   2.696   1.024   9.844  0.2609  0.6481 -0.1599
  188MPD1     N 2921   2.378   0.739   9.681 -0.3047 -0.3490 -0.3781
  188MPD1    H5 2922   2.359   0.712   9.776 -0.0441  0.0973 -0.1971
  188MPD1    N1 2923   2.627   1.050   9.395 -0.0714 -0.4000  0.0018
  188MPD1    H6 2924   2.717   1.096   9.384 -1.9202  3.4581  0.9515
  188MPD1    H7 2925   2.605   0.988   9.318 -0.8516  0.4293 -0.4439
  189MPD1     C 2926   3.205   2.405   0.342  0.2461  0.1617  0.2972
  189MPD1    C1 2927   3.091   2.386   0.265 -0.1070 -0.1400  0.2043
  189MPD1    C2 2928   3.040   2.493   0.191  0.4767  1.1181 -0.0625
  189MPD1    C3 2929   3.094   2.619   0.204 -0.1984  0.6821  0.4969
  189MPD1    C4 2930   3.199   2.638   0.291  0.2983  0.7882  1.1194
  189MPD1    C5 2931   3.252   2.531   0.357 -0.0388 -0.1274 -0.5715
  189MPD1     H 2932   2.958   2.466   0.126  1.0805 -0.7059 -0.0619
  189MPD1    H1 2933   3.244   2.734   0.311  1.1798  0.7043 -0.4605
  189MPD1    H2 2934   3.256   2.320   0.387 -1.6322 -1.1977 -0.1072
  189MPD1    H3 2935   3.332   2.545   0.428 -1.3220 -0.6316  0.9709
  189MPD1     N 2936   3.041   2.730   0.133  0.9829 -0.5951 -0.7836
  189MPD1    H5 2937   2.972   2.693   0.068 -1.2857  0.6694  0.9268
  189MPD1    N1 2938   3.048   2.253   0.234  0.4437 -0.4282  0.8355
  189MPD1    H6 2939   2.957   2.258   0.189  1.0420  0.3433 -0.3151
  189MPD1    H7 2940   3.046   2.187   0.311  1.6339 -1.2818  0.1333
  190MPD1     C 2941   1.888   0.511  15.579  0.1022 -0.5855 -0.2123
  190MPD1    C1 2942   1.934   0.636  15.614 -0.5093  0.6967 -0.2206
  190MPD1    C2 2943   2.050   0.679  15.564 -0.5384 -0.6930 -0.6623
  190MPD1    C3 2944   2.139   0.587  15.509 -0.0905 -0.8359  0.4797
  190MPD1    C4 2945   2.098   0.458  15.488  0.1188  0.6626  0.0854
  190MPD1    C5 2946   1.974   0.422  15.523  0.2263 -0.5412 -0.0909
  190MPD1     H 2947   2.085   0.782  15.568  0.4991 -1.0642 -0.1096
  190MPD1    H1 2948   2.161   0.382  15.444 -0.5128 -1.2342  2.4775
  190MPD1    H2 2949   1.784   0.482  15.580  0.1663 -0.7904  1.1289
  190MPD1    H3 2950   1.953   0.318  15.497  1.7438 -0.3362 -2.1661
  190MPD1     N 2951   2.274   0.631  15.482  0.2374  0.3218 -0.0684
  190MPD1    H5 2952   2.299   0.728  15.499  1.3330 -0.0948  0.6425
  190MPD1    N1 2953   1.848   0.732  15.649 -0.2739 -0.3179  0.1510
  190MPD1    H6 2954   1.885   0.819  15.686  1.4286 -0.5236 -1.0796
  190MPD1    H7 2955   1.762   0.696  15.691 -0.6336  0.0483 -0.2684
  191MPD1     C 2956   1.223   2.623  12.417 -0.3004 -0.2470  0.2523
  191MPD1    C1 2957   1.339   2.558  12.392 -0.1646  0.4934 -0.2940
  191MPD1    C2 2958   1.386   2.552  12.264 -0.1288 -0.7517 -0.0609
  191MPD1    C3 2959   1.342   2.634  12.160 -0.7025  0.2103 -0.1755
  191MPD1    C4 2960   1.239   2.716  12.199  0.3627 -0.4482  0.0428
  191MPD1    C5 2961   1.178   2.708  12.316  0.3540  0.3156  0.1928
  191MPD1     H 2962   1.457   2.472  12.247  0.9852  0.1325  0.4090
  191MPD1    H1 2963   1.196   2.786  12.128  1.4481  0.3077  0.1324
  191MPD1    H2 2964   1.174   2.619  12.513 -1.6904 -0.2970 -0.4549
  191MPD1    H3 2965   1.108   2.784  12.347  0.0504 -0.3753  1.1922
  191MPD1     N 2966   1.412   2.626  12.030 -0.2252 -0.1180 -0.5177
  191MPD1    H5 2967   1.495   2.569  12.020 -0.8269 -0.9070 -1.0597
  191MPD1    N1 2968   1.390   2.455  12.477  0.3928 -0.7076 -0.1500
  191MPD1    H6 2969   1.487   2.433  12.457 -0.4563 -4.7624  0.1102
  191MPD1    H7 2970   1.380   2.491  12.572  1.3511 -1.4279  0.2181
  192MPD1     C 2971   1.439   2.837  10.933  0.6561 -0.2898  0.2752
  192MPD1    C1 2972   1.334   2.798  11.007 -0.2224  0.1892 -0.0573
  192MPD1    C2 2973   1.354   2.774  11.144 -0.4132 -0.7119  0.3778
  192MPD1    C3 2974   1.482   2.776  11.196  0.1720  0.0729 -0.2908
  192MPD1    C4 2975   1.588   2.830  11.122  0.2059  0.0164  0.2226
  192MPD1    C5 2976   1.563   2.852  10.986  0.6011  0.1381  0.1905
  192MPD1     H 2977   1.271   2.760  11.212 -1.5613  0.7562 -0.7206
  192MPD1    H1 2978   1.688   2.846  11.160  1.1442  1.2002 -2.7386
  192MPD1    H2 2979   1.427   2.865  10.829  0.3922 -2.2556 -0.2247
  192MPD1    H3 2980   1.652   2.880  10.931 -0.6956  1.7357 -1.0782
  192MPD1     N 2981   1.509   2.744  11.331 -0.5675 -0.1879  0.3200
  192MPD1    H5 2982   1.603   2.705  11.335  0.2592  1.9420  1.2432
  192MPD1    N1 2983   1.211   2.804  10.954 -0.1331 -0.3946  0.1277
  192MPD1    H6 2984   1.151   2.744  11.010 -0.6897 -1.4440 -1.5905
  192MPD1    H7 2985   1.216   2.781  10.855 -0.9978  1.0375 -0.2542
  193MPD1     C 2986   0.319   2.855  16.603 -0.1431 -0.8772  0.5107
  193MPD1    C1 2987   0.392   2.752  16.556  0.2535 -0.8909  0.0626
  193MPD1    C2 2988   0.524   2.789  16.514  0.4251 -0.3103  0.2514
  193MPD1    C3 2989   0.561   2.917  16.488  0.2366  0.4776  0.2986
  193MPD1    C4 2990   0.476   3.019  16.526  0.2501 -0.5642 -1.0731
  193MPD1    C5 2991   0.358   2.987  16.590  0.3912 -0.1668 -0.6032
  193MPD1     H 2992   0.592   2.712  16.479  2.7255  1.9985 -0.3367
  193MPD1    H1 2993   0.494   3.125  16.512  2.6035 -0.8764 -0.4351
  193MPD1    H2 2994   0.222   2.825  16.640  0.4280 -0.3210  2.4501
  193MPD1    H3 2995   0.296   3.063  16.635  0.4627 -0.4758  0.0166
  193MPD1     N 2996   0.690   2.964  16.441  0.1996  0.0109  0.2701
  193MPD1    H5 2997   0.693   3.066  16.442  2.4195 -0.0736  2.2179
  193MPD1    N1 2998   0.350   2.620  16.592  0.1340 -0.0147 -0.1910
  193MPD1    H6 2999   0.250   2.628  16.579  0.0485 -1.4342 -0.3783
  193MPD1    H7 3000   0.376   2.549  16.523 -1.0906 -1.0604  0.4393
  194MPD1     C 3001   3.705   0.848  16.276  0.0447 -0.3147  0.0677
  194MPD1    C1 3002   3.627   0.750  16.324 -0.2782  0.0600  0.3453
  194MPD1    C2 3003   3.682   0.634  16.369  0.1369  0.1786 -0.0848
  194MPD1    C3 3004   3.812   0.594  16.366  0.0190 -0.4587 -1.4936
  194MPD1    C4 3005   3.891   0.703  16.329  0.2954  0.1969 -0.8822
  194MPD1    C5 3006   3.837   0.820  16.274 -0.8886  0.6815  0.3173
  194MPD1     H 3007   3.614   0.557  16.402 -0.0648 -0.0540 -1.0403
  194MPD1    H1 3008   3.996   0.693  16.353  0.0338  0.1651  0.2442
  194MPD1    H2 3009   3.660   0.943  16.249 -0.9023  0.0040  2.7885
  194MPD1    H3 3010   3.904   0.898  16.240 -2.0458  1.3807 -0.3784
  194MPD1     N 3011   3.865   0.478  16.423 -0.0235  0.3475 -0.1015
  194MPD1    H5 3012   3.963   0.468  16.448  0.7567  3.2673 -1.8456
  194MPD1    N1 3013   3.490   0.769  16.337 -0.1976  0.4513  0.4864
  194MPD1    H6 3014   3.456   0.864  16.348 -1.4863  0.1201 -0.6247
  194MPD1    H7 3015   3.438   0.704  16.395 -1.2570  0.5130 -0.3960
  195MPD1     C 3016   1.467   2.736   0.465  0.3160  1.0285  0.1274
  195MPD1    C1 3017   1.453   2.637   0.555 -0.4182 -0.5601 -0.0093
  195MPD1    C2 3018   1.466   2.507   0.519 -0.5701  0.2090  0.6640
  195MPD1    C3 3019   1.502   2.470   0.389 -1.0175 -0.8088 -0.8345
  195MPD1    C4 3020   1.523   2.565   0.297  0.5118 -0.1924 -0.3959
  195MPD1    C5 3021   1.509   2.693   0.337  0.0419  0.3768 -0.7373
  195MPD1     H 3022   1.423   2.438   0.590  0.9614  0.4083  1.7896
  195MPD1    H1 3023   1.567   2.545   0.199  2.4369  0.2685  0.3724
  195MPD1    H2 3024   1.459   2.843   0.473 -1.1409  0.8912  0.4062
  195MPD1    H3 3025   1.535   2.768   0.262 -0.7914  1.0589 -0.3374
  195MPD1     N 3026   1.520   2.339   0.356 -0.3390 -0.3228  0.2538
  195MPD1    H5 3027   1.554   2.321   0.262  0.4657  0.8302  0.3145
  195MPD1    N1 3028   1.411   2.678   0.682  0.0496  0.5247 -0.1650
  195MPD1    H6 3029   1.444   2.772   0.701  0.7312  0.0556  0.9412
  195MPD1    H7 3030   1.445   2.621   0.759  2.6694  0.3747 -1.4172
  196MPD1     C 3031   0.218   1.159   0.735 -0.4491  0.2975 -0.2091
  196MPD1    C1 3032   0.173   1.287   0.746 -0.2953 -1.1121  0.1889
  196MPD1    C2 3033   0.260   1.390   0.776  0.2313 -0.2462 -0.1766
  196MPD1    C3 3034   0.397   1.362   0.805 -0.1496 -0.1935 -0.0331
  196MPD1    C4 3035   0.441   1.237   0.798 -0.5212  0.9369 -0.3409
  196MPD1    C5 3036   0.353   1.134   0.769  0.4199 -0.3903 -0.3829
  196MPD1     H 3037   0.225   1.492   0.785  1.3010  0.0933  0.1315
  196MPD1    H1 3038   0.545   1.212   0.818 -0.5580  1.3286  0.3281
  196MPD1    H2 3039   0.156   1.084   0.688 -1.9282  2.2224 -1.3512
  196MPD1    H3 3040   0.382   1.030   0.770 -2.5868 -1.2003  0.5894
  196MPD1     N 3041   0.498   1.457   0.835 -0.3264  0.1722  0.3983
  196MPD1    H5 3042   0.590   1.425   0.861 -0.1829 -0.3425 -0.7428
  196MPD1    N1 3043   0.044   1.318   0.701 -0.5211 -0.4169 -0.5995
  196MPD1    H6 3044   4.706   1.247   0.708 -0.9121  0.2320  1.5914
  196MPD1    H7 3045   0.007   1.404   0.740 -0.9425 -0.0640 -1.7773
  197MPD1     C 3046   0.024   3.732  17.638 -0.0293 -0.2515 -0.2079
  197MPD1    C1 3047   0.000   3.813  17.537  0.0139 -0.3196  0.7364
  197MPD1    C2 3048   0.065   3.798  17.417  0.1236  0.9906 -0.7942
  197MPD1    C3 3049   0.159   3.697  17.396  0.2183  0.4653  0.0924
  197MPD1    C4 3050   0.179   3.603  17.501  0.4567  0.0764  0.0878
  197MPD1    C5 3051   0.112   3.623  17.621 -0.2447  0.1511  0.6974
  197MPD1     H 3052   0.045   3.864  17.334 -0.2595  3.9493  1.6687
  197MPD1    H1 3053   0.257   3.528  17.499 -0.0360 -0.3880 -1.7836
  197MPD1    H2 3054   4.714   3.737  17.736 -0.3602 -3.2231 -0.1999
  197MPD1    H3 3055   0.135   3.554  17.701 -0.4293  0.2007  0.7936
  197MPD1     N 3056   0.232   3.677  17.278 -0.1961 -0.0137  0.2377
  197MPD1    H5 3057   0.301   3.603  17.273  0.1201  0.4069 -1.8522
  197MPD1    N1 3058   4.650   3.919  17.557  0.7452  0.0266  0.1199
  197MPD1    H6 3059   4.567   3.881  17.602 -1.0414  1.6512 -1.7928
  197MPD1    H7 3060   4.632   3.979  17.477 -1.0444  0.5133  0.8885
  198MPD1     C 3061   1.525   1.721  15.353  0.1661  0.7723  0.6973
  198MPD1    C1 3062   1.559   1.815  15.449  0.2257  0.7996  0.0050
  198MPD1    C2 3063   1.695   1.838  15.472  1.0831 -0.4839 -0.1181
  198MPD1    C3 3064   1.789   1.801  15.375 -0.6789  0.6721  0.8322
  198MPD1    C4 3065   1.744   1.729  15.266 -0.0610  0.0986 -0.4844
  198MPD1    C5 3066   1.619   1.678  15.265 -0.0599 -0.0058 -0.2397
  198MPD1     H 3067   1.727   1.895  15.559 -0.9489  0.0634  0.2727
  198MPD1    H1 3068   1.816   1.699  15.191 -0.5644 -1.2024 -0.4514
  198MPD1    H2 3069   1.428   1.677  15.332  1.6289 -1.1875 -1.9542
  198MPD1    H3 3070   1.593   1.603  15.192  0.3606  0.9678 -1.3974
  198MPD1     N 3071   1.924   1.842  15.399 -0.6881 -0.0893  0.0648
  198MPD1    H5 3072   1.946   1.876  15.492  0.7300 -0.6586 -0.0619
  198MPD1    N1 3073   1.454   1.858  15.545 -0.8135 -0.1001  0.2431
  198MPD1    H6 3074   1.364   1.877  15.501 -1.1846 -0.3131  0.9210
  198MPD1    H7 3075   1.496   1.936  15.595 -0.7638 -1.7621  2.7905
  199MPD1     C 3076   3.700   2.560  10.250  0.8614  1.0587 -0.1075
  199MPD1    C1 3077   3.585   2.483  10.260  0.1742  0.2754  0.2980
  199MPD1    C2 3078   3.461   2.544  10.272 -0.0285  0.4473  0.7575
  199MPD1    C3 3079   3.453   2.680  10.279  0.3416 -0.2156  0.2269
  199MPD1    C4 3080   3.567   2.755  10.275 -0.4739  0.4550  0.6668
  199MPD1    C5 3081   3.693   2.694  10.262  0.4266  0.2585 -0.2694
  199MPD1     H 3082   3.377   2.476  10.271 -1.5498  2.3755 -1.9686
  199MPD1    H1 3083   3.561   2.862  10.286 -0.6333  0.0208  4.7921
  199MPD1    H2 3084   3.794   2.507  10.239 -0.1377 -0.8195  0.2446
  199MPD1    H3 3085   3.784   2.750  10.248 -0.3799  0.4750 -4.6997
  199MPD1     N 3086   3.331   2.749  10.312  0.0531 -0.5625  0.1221
  199MPD1    H5 3087   3.338   2.850  10.324 -0.3936 -0.5299  0.1296
  199MPD1    N1 3088   3.592   2.342  10.250 -0.1526  0.3513  0.1812
  199MPD1    H6 3089   3.502   2.296  10.262 -0.3632  0.1600 -2.0454
  199MPD1    H7 3090   3.648   2.314  10.329 -0.8502  1.8751  1.2220
  200MPD1     C 3091   3.085   2.523  15.563  0.2336 -0.2027 -0.3912
  200MPD1    C1 3092   2.981   2.609  15.578 -1.1285  0.1533 -1.0022
  200MPD1    C2 3093   2.939   2.672  15.466  0.3148 -0.1199 -0.1664
  200MPD1    C3 3094   3.003   2.658  15.342 -0.6299  0.0674  0.1122
  200MPD1    C4 3095   3.095   2.551  15.330  0.5039 -0.0108  0.2978
  200MPD1    C5 3096   3.139   2.490  15.442 -0.0259  0.0325 -0.1290
  200MPD1     H 3097   2.857   2.742  15.467 -1.7894 -2.6054  1.1191
  200MPD1    H1 3098   3.140   2.515  15.238 -1.2223  0.1534 -0.6020
  200MPD1    H2 3099   3.127   2.468  15.647  1.7999  0.1715 -0.9196
  200MPD1    H3 3100   3.210   2.409  15.440  0.3136  0.2742  1.5926
  200MPD1     N 3101   2.945   2.714  15.226  0.2780  0.0530  0.6773
  200MPD1    H5 3102   2.874   2.783  15.246 -0.9992 -1.1847  0.4445
  200MPD1    N1 3103   2.898   2.609  15.690  0.5968  0.4691 -0.7451
  200MPD1    H6 3104   2.857   2.701  15.707  0.1949  0.1308  0.0921
  200MPD1    H7 3105   2.948   2.574  15.771 -1.5466 -0.1465  0.2990
  201MPD1     C 3106   1.336   0.928  13.249  0.1663  0.1883  0.6475
  201MPD1    C1 3107   1.253   0.847  13.179 -0.0818  0.5178 -0.0233
  201MPD1    C2 3108   1.139   0.898  13.137  0.6509 -0.2500  0.2191
  201MPD1    C3 3109   1.110   1.033  13.156  0.2420  0.1017 -0.0817
  201MPD1    C4 3110   1.197   1.114  13.230  0.2135 -0.5301 -0.4790
  201MPD1    C5 3111   1.311   1.054  13.273  0.0642 -0.1474  0.7106
  201MPD1     H 3112   1.079   0.834  13.073  1.1798  1.8727 -2.4285
  201MPD1    H1 3113   1.188   1.221  13.242  2.0859 -0.4495  0.2722
  201MPD1    H2 3114   1.433   0.890  13.278  0.0761  0.0370  0.7515
  201MPD1    H3 3115   1.382   1.122  13.319  0.3593 -0.1094  0.1948
  201MPD1     N 3116   0.989   1.084  13.102 -0.5354 -1.5019  0.7294
  201MPD1    H5 3117   0.940   1.017  13.043  1.2225 -2.5223  0.4183
  201MPD1    N1 3118   1.269   0.710  13.179  0.0900 -1.1280  0.8335
  201MPD1    H6 3119   1.209   0.658  13.115 -0.0146 -0.8673  0.7163
  201MPD1    H7 3120   1.365   0.692  13.149 -0.1861 -1.1151 -0.0579
  202MPD1     C 3121   0.599   1.272   8.702  0.2810 -0.6775 -0.4453
  202MPD1    C1 3122   0.595   1.374   8.799  0.0194 -0.2030  0.6017
  202MPD1    C2 3123   0.617   1.340   8.932 -0.0621 -0.3278  0.7726
  202MPD1    C3 3124   0.604   1.211   8.977 -0.2359  0.2332  0.6296
  202MPD1    C4 3125   0.584   1.112   8.882  0.7853  0.2220  0.3864
  202MPD1    C5 3126   0.587   1.138   8.745  0.2905  0.6457 -0.4219
  202MPD1     H 3127   0.615   1.417   9.008  2.1889 -1.0115  1.5239
  202MPD1    H1 3128   0.579   1.006   8.906 -0.7646  0.3675  0.6860
  202MPD1    H2 3129   0.600   1.297   8.596 -0.8482  1.3859  0.0351
  202MPD1    H3 3130   0.574   1.054   8.678  1.2794 -0.5698  0.9156
  202MPD1     N 3131   0.617   1.170   9.111 -0.6704 -0.3449  0.5331
  202MPD1    H5 3132   0.594   1.074   9.134  1.3425 -0.7838  0.7373
  202MPD1    N1 3133   0.646   1.493   8.749  0.1517  0.4994 -0.0142
  202MPD1    H6 3134   0.613   1.573   8.804  0.5980  1.8002 -1.6414
  202MPD1    H7 3135   0.604   1.517   8.660  0.2007  0.3472 -0.0766
  203MPD1     C 3136   4.567   2.362  12.584 -0.0005 -0.2760 -0.1819
  203MPD1    C1 3137   4.505   2.294  12.484 -0.4581  0.1759 -0.0394
  203MPD1    C2 3138   4.508   2.157  12.482  0.1535  0.3512 -0.4140
  203MPD1    C3 3139   4.598   2.090  12.562 -0.9684  1.0019 -0.3452
  203MPD1    C4 3140   4.667   2.161  12.660  0.4330 -0.0904 -0.4195
  203MPD1    C5 3141   4.647   2.297  12.672  0.2379  0.8616  0.5313
  203MPD1     H 3142   4.455   2.099  12.407  1.1225 -1.7307  0.5203
  203MPD1    H1 3143   4.729   2.124  12.740 -2.9937 -1.2080  1.6970
  203MPD1    H2 3144   4.547   2.468  12.592  0.7235 -0.1507  0.0028
  203MPD1    H3 3145   4.680   2.351  12.760  0.8441 -1.4086  1.7235
  203MPD1     N 3146   4.598   1.950  12.556 -0.5292  0.0277 -0.3522
  203MPD1    H5 3147   4.542   1.894  12.493 -0.3668 -1.4244  0.7816
  203MPD1    N1 3148   4.418   2.360  12.394  0.6801 -0.0285  0.6774
  203MPD1    H6 3149   4.450   2.455  12.378  0.0531  0.0635 -0.0207
  203MPD1    H7 3150   4.400   2.318  12.303  1.2974  0.7108  0.2107
  204MPD1     C 3151   3.756   4.213  17.642 -0.1226  0.6888  0.0570
  204MPD1    C1 3152   3.770   4.182  17.507 -0.7443  0.4377 -0.1743
  204MPD1    C2 3153   3.739   4.053  17.469 -0.8506  0.8566 -0.9019
  204MPD1    C3 3154   3.672   3.961  17.550  0.5565 -0.4922  0.0438
  204MPD1    C4 3155   3.655   4.000  17.679  1.4438 -0.7282  0.5406
  204MPD1    C5 3156   3.700   4.123  17.726  0.1723 -0.2073 -0.1018
  204MPD1     H 3157   3.767   4.020  17.369  0.5787 -0.4447 -0.0704
  204MPD1    H1 3158   3.600   3.937   0.007 -1.5025  0.0284 -1.1591
  204MPD1    H2 3159   3.797   4.302  17.687 -3.3275  2.0122  0.3343
  204MPD1    H3 3160   3.676   4.168   0.081 -1.7727  0.2085 -0.7821
  204MPD1     N 3161   3.655   3.834  17.503  0.3556 -0.3400 -0.4880
  204MPD1    H5 3162   3.676   3.819  17.405 -2.0462 -1.2553 -0.8517
  204MPD1    N1 3163   3.843   4.271  17.425  0.8959  0.1444  0.3751
  204MPD1    H6 3164   3.817   4.368  17.438  0.5734 -0.1926  2.2315
  204MPD1    H7 3165   3.824   4.246  17.328 -1.8328 -0.2732  0.9984
  205MPD1     C 3166   4.612   2.391  17.415 -0.0339 -0.3797 -0.0475
  205MPD1    C1 3167   4.542   2.329  17.516  0.1165  0.2239 -0.0937
  205MPD1    C2 3168   4.407   2.341  17.525 -0.1854  0.4333  0.5139
  205MPD1    C3 3169   4.337   2.427  17.442 -0.5245 -0.1460 -0.3897
  205MPD1    C4 3170   4.404   2.506  17.355  0.1024  0.4386 -0.8499
  205MPD1    C5 3171   4.545   2.486  17.337  0.1889  0.5728  0.1902
  205MPD1     H 3172   4.359   2.285  17.605 -1.7949  1.9456  0.6199
  205MPD1    H1 3173   4.352   2.570  17.284 -2.8896 -1.5667 -0.4647
  205MPD1    H2 3174   4.716   2.372  17.391  0.0457 -1.7445  1.3913
  205MPD1    H3 3175   4.594   2.545  17.261 -0.1704  0.5569 -0.0531
  205MPD1     N 3176   4.200   2.453  17.447  0.0766 -0.2860 -0.3505
  205MPD1    H5 3177   4.163   2.514  17.375 -2.7222 -1.9449 -0.3158
  205MPD1    N1 3178   4.608   2.239  17.603 -0.1090 -0.3489 -0.3663
  205MPD1    H6 3179   4.564   2.242  17.694 -2.4719 -1.5724 -1.4865
  205MPD1    H7 3180   4.708   2.258  17.603 -0.1899 -0.0539  4.1981
  206MPD1     C 3181   4.661   4.678  16.480  1.0804  0.1190 -0.6098
  206MPD1    C1 3182   4.548   0.020  16.509  0.1741 -0.2112  0.1282
  206MPD1    C2 3183   4.434   4.734  16.435  0.1354  0.5182  0.2263
  206MPD1    C3 3184   4.427   4.641  16.330 -0.1496  0.6162  0.4949
  206MPD1    C4 3185   4.537   4.565  16.300  0.4143  0.1993  0.1203
  206MPD1    C5 3186   4.652   4.589  16.373  0.0033  0.1361  0.5478
  206MPD1     H 3187   4.343   0.045  16.470  0.1889 -0.7791  2.0748
  206MPD1    H1 3188   4.538   4.504  16.210 -0.1280  1.6125 -0.8443
  206MPD1    H2 3189   0.019   4.694  16.532  1.5416  2.0560 -1.9993
  206MPD1    H3 3190   0.006   4.535  16.344 -0.8480  0.3962 -2.6655
  206MPD1     N 3191   4.312   4.653  16.246 -0.0502  0.1723 -0.6241
  206MPD1    H5 3192   4.242   4.725  16.256  0.4726  0.3126  2.2290
  206MPD1    N1 3193   4.543   0.109  16.619  0.7449 -0.2974  0.2071
  206MPD1    H6 3194   4.479   0.074  16.690 -2.3660  1.9285 -1.4981
  206MPD1    H7 3195   4.633   0.121  16.665  0.8518  0.1150 -0.1093
  207MPD1     C 3196   1.977   1.462  10.609  0.0949 -0.6803 -0.7295
  207MPD1    C1 3197   1.935   1.575  10.544  0.5517  0.7358 -0.5269
  207MPD1    C2 3198   1.970   1.691  10.611 -0.2913  0.7364  0.0121
  207MPD1    C3 3199   2.044   1.689  10.728  0.5298  0.4328  0.3229
  207MPD1    C4 3200   2.073   1.575  10.790  0.1410  0.4776 -0.2057
  207MPD1    C5 3201   2.035   1.460  10.731  0.6604  0.2430  1.1858
  207MPD1     H 3202   1.932   1.784  10.570 -0.1117  1.6508  1.9222
  207MPD1    H1 3203   2.132   1.575  10.881  2.0318  0.9214 -1.4117
  207MPD1    H2 3204   1.963   1.366  10.561  1.7546 -1.3911  0.1989
  207MPD1    H3 3205   2.068   1.366  10.774  1.8772  0.3658  0.5423
  207MPD1     N 3206   2.083   1.813  10.805  0.1698 -0.3540 -0.3514
  207MPD1    H5 3207   2.134   1.792  10.890  0.7062  2.1692 -0.0698
  207MPD1    N1 3208   1.848   1.570  10.439 -0.3059  0.0919 -0.1039
  207MPD1    H6 3209   1.852   1.490  10.376 -2.2659 -0.5203  0.5547
  207MPD1    H7 3210   1.838   1.654  10.383 -0.7477 -0.1322 -0.3589
  208MPD1     C 3211   3.574   0.565  17.528  0.8559 -1.0785  0.4947
  208MPD1    C1 3212   3.714   0.597  17.534 -0.3265  0.4031 -0.0420
  208MPD1    C2 3213   3.747   0.725  17.561 -0.2677 -0.3825 -0.4880
  208MPD1    C3 3214   3.655   0.827  17.563 -0.4632 -0.9401 -0.0274
  208MPD1    C4 3215   3.520   0.799  17.543 -0.3366  0.5413 -0.7886
  208MPD1    C5 3216   3.481   0.668  17.537  0.0801  0.5420 -0.5454
  208MPD1     H 3217   3.853   0.749  17.562  0.1415 -1.9569 -3.9864
  208MPD1    H1 3218   3.451   0.883  17.538 -0.9337 -0.0122 -1.7264
  208MPD1    H2 3219   3.547   0.461  17.516  1.4672 -1.0622 -1.0091
  208MPD1    H3 3220   3.375   0.649  17.525  0.4551 -0.8784 -1.5880
  208MPD1     N 3221   3.706   0.958  17.589 -0.5267 -0.4757  0.2812
  208MPD1    H5 3222   3.803   0.963  17.620 -0.5474  0.5780  0.1699
  208MPD1    N1 3223   3.805   0.496  17.542  0.2915 -0.1284  0.1356
  208MPD1    H6 3224   3.772   0.409  17.501 -1.4893  1.5997 -2.0746
  208MPD1    H7 3225   3.901   0.523  17.521  0.0691 -1.0278 -2.0177
  209MPD1     C 3226   2.842   1.719  12.496  0.1501 -0.0477  0.4673
  209MPD1    C1 3227   2.944   1.663  12.430  0.2388 -0.9895 -0.0193
  209MPD1    C2 3228   2.928   1.663  12.291  0.3663  0.3033  0.1504
  209MPD1    C3 3229   2.807   1.688  12.234  0.3967  0.2907 -0.1688
  209MPD1    C4 3230   2.706   1.736  12.303  0.7727 -0.1233  0.0641
  209MPD1    C5 3231   2.726   1.754  12.437 -0.6249 -0.8924 -0.6276
  209MPD1     H 3232   3.005   1.622  12.227  0.2928  0.3786  0.0159
  209MPD1    H1 3233   2.609   1.766  12.266  2.0282  0.3035 -2.8569
  209MPD1    H2 3234   2.841   1.726  12.604 -1.6493  0.1650  0.4393
  209MPD1    H3 3235   2.638   1.784  12.494  1.1300 -1.7281  2.5237
  209MPD1     N 3236   2.796   1.678  12.100 -0.9076 -0.2212 -0.5201
  209MPD1    H5 3237   2.876   1.638  12.052  0.0889  0.6055  0.4759
  209MPD1    N1 3238   3.076   1.649  12.483  0.2379 -0.2794  0.3310
  209MPD1    H6 3239   3.143   1.587  12.438  0.2486 -1.1153  1.4914
  209MPD1    H7 3240   3.083   1.620  12.580 -0.0869  2.5760  1.2241
  210MPD1     C 3241   3.200   1.232  11.330  0.1393 -0.1421 -0.0651
  210MPD1    C1 3242   3.156   1.347  11.268 -0.4840  0.0384  0.0801
  210MPD1    C2 3243   3.089   1.442  11.343  0.4448 -0.0692  0.0244
  210MPD1    C3 3244   3.064   1.426  11.476  0.8928 -0.1896 -0.0364
  210MPD1    C4 3245   3.128   1.317  11.536  0.4078  0.4303 -0.1178
  210MPD1    C5 3246   3.193   1.221  11.462 -0.2901  0.3399  0.0268
  210MPD1     H 3247   3.041   1.522  11.287 -0.4993  0.5374  1.7152
  210MPD1    H1 3248   3.129   1.287  11.640 -1.1087 -0.9776 -0.5044
  210MPD1    H2 3249   3.243   1.152  11.271 -2.2697 -1.0544 -0.5986
  210MPD1    H3 3250   3.218   1.135  11.522  1.9477  0.3835 -0.8397
  210MPD1     N 3251   2.970   1.504  11.549 -0.2093 -0.1223 -0.1719
  210MPD1    H5 3252   2.936   1.588  11.504 -1.6175 -1.6965 -2.0765
  210MPD1    N1 3253   3.168   1.352  11.124  0.1136  0.2174 -0.5355
  210MPD1    H6 3254   3.170   1.447  11.087 -1.1274  0.3166 -0.3391
  210MPD1    H7 3255   3.250   1.294  11.107  0.5708  1.6913 -3.3416
  211MPD1     C 3256   4.534   2.342  15.850 -0.3882 -0.1974 -0.0055
  211MPD1    C1 3257   4.411   2.326  15.796 -0.6572  0.4052 -0.4375
  211MPD1    C2 3258   4.306   2.352  15.875  0.3283 -0.9489  0.0795
  211MPD1    C3 3259   4.316   2.381  16.005 -0.3748  0.1380  0.2538
  211MPD1    C4 3260   4.440   2.392  16.065  0.5561 -0.6692  0.8289
  211MPD1    C5 3261   4.547   2.355  15.987  0.7582 -0.0070 -0.4754
  211MPD1     H 3262   4.204   2.349  15.838  0.4001  1.5423 -0.2794
  211MPD1    H1 3263   4.463   2.411  16.169  0.9109 -4.2601  1.4114
  211MPD1    H2 3264   4.626   2.315  15.798 -0.1656  0.7790 -0.1124
  211MPD1    H3 3265   4.639   2.339  16.041  0.4261 -2.0799 -0.5038
  211MPD1     N 3266   4.201   2.422  16.069  0.5765 -0.3710 -0.0668
  211MPD1    H5 3267   4.116   2.420  16.013  0.6560  0.7394 -0.2347
  211MPD1    N1 3268   4.404   2.324  15.654  0.7195  0.2161 -0.3479
  211MPD1    H6 3269   4.489   2.307  15.600 -1.5990 -0.1717 -3.8404
  211MPD1    H7 3270   4.322   2.290  15.605  0.2109  1.8842 -0.6741
  212MPD1     C 3271   3.674   0.755  17.195  0.4111 -0.1103  0.0690
  212MPD1    C1 3272   3.540   0.791  17.183 -0.4682  0.0468  0.0764
  212MPD1    C2 3273   3.459   0.709  17.107  0.7868  0.1073  0.0448
  212MPD1    C3 3274   3.498   0.584  17.059 -0.3373  0.0293  0.4540
  212MPD1    C4 3275   3.629   0.548  17.083  0.0414 -0.3555 -0.5553
  212MPD1    C5 3276   3.710   0.636  17.144  0.1484  0.3201 -0.3888
  212MPD1     H 3277   3.355   0.739  17.095  0.0881 -2.3221  0.0179
  212MPD1    H1 3278   3.667   0.454  17.045 -0.0342 -0.1452 -1.1528
  212MPD1    H2 3279   3.747   0.807  17.255 -1.3665  0.9968  1.2611
  212MPD1    H3 3280   3.807   0.601  17.176 -0.9042 -0.9525  1.3743
  212MPD1     N 3281   3.408   0.486  16.999 -0.0199  0.9651  0.3345
  212MPD1    H5 3282   3.447   0.401  16.959 -1.1711  1.0841 -1.0665
  212MPD1    N1 3283   3.484   0.913  17.231  0.0710  0.0570  0.4448
  212MPD1    H6 3284   3.382   0.916  17.233  0.0580 -0.8200  1.3365
  212MPD1    H7 3285   3.518   0.942  17.323  1.1411 -1.0795  0.4017
  213MPD1     C 3286   1.387   0.638  16.079  0.4443  0.0485  0.1276
  213MPD1    C1 3287   1.369   0.528  16.006 -0.1225  0.4213 -0.0080
  213MPD1    C2 3288   1.329   0.545  15.870 -0.7854 -0.7130  0.5748
  213MPD1    C3 3289   1.281   0.668  15.825  0.2621 -0.3897  0.8617
  213MPD1    C4 3290   1.282   0.777  15.916 -0.4646  0.4509 -0.2444
  213MPD1    C5 3291   1.324   0.753  16.043 -0.1942  0.9935  0.1970
  213MPD1     H 3292   1.336   0.455  15.809 -1.3710 -0.9604  0.8769
  213MPD1    H1 3293   1.245   0.878  15.903  0.0960  0.5886 -0.7779
  213MPD1    H2 3294   1.421   0.627  16.181  0.1382 -1.4677  0.0577
  213MPD1    H3 3295   1.324   0.836  16.113  1.0777 -0.6233  2.1242
  213MPD1     N 3296   1.250   0.691  15.690  0.5879 -0.0260  0.1496
  213MPD1    H5 3297   1.259   0.609  15.630  0.2533  0.9445 -1.2174
  213MPD1    N1 3298   1.439   0.416  16.058 -0.1499  0.1538  0.1977
  213MPD1    H6 3299   1.407   0.327  16.019  0.8576  0.0228 -0.3484
  213MPD1    H7 3300   1.456   0.428  16.158 -1.2519 -2.1253  0.6640
  214MPD1     C 3301   1.042   0.032  15.192  0.3044 -0.0576  0.4001
  214MPD1    C1 3302   1.109   0.117  15.110  0.5475  0.1181 -0.5000
  214MPD1    C2 3303   1.120   0.250  15.153  0.3032 -0.5816  0.5212
  214MPD1    C3 3304   1.075   0.296  15.277  0.8085  0.4891 -0.4565
  214MPD1    C4 3305   1.013   0.204  15.353  0.4540 -0.3976 -0.2293
  214MPD1    C5 3306   1.003   0.071  15.316  0.4672 -0.7894  0.0646
  214MPD1     H 3307   1.170   0.319  15.087  0.5457 -1.0244  0.2412
  214MPD1    H1 3308   0.976   0.224  15.453 -0.3984 -2.7681 -0.0884
  214MPD1    H2 3309   1.040   4.661  15.173 -4.3929  0.2726 -0.9676
  214MPD1    H3 3310   0.963   4.728  15.380  0.4150 -1.8093 -1.2155
  214MPD1     N 3311   1.089   0.429  15.320  0.1385 -0.1086 -0.8805
  214MPD1    H5 3312   1.051   0.452  15.411 -1.3390  0.7273 -1.7113
  214MPD1    N1 3313   1.133   0.092  14.972 -0.3026  0.0728  0.0611
  214MPD1    H6 3314   1.205   0.154  14.934  1.5521 -1.5912  0.9035
  214MPD1    H7 3315   1.152   4.730  14.950 -0.3370  0.7263 -2.8748
  215MPD1     C 3316   0.582   1.420  10.599  0.2005 -0.1912  0.1736
  215MPD1    C1 3317   0.672   1.393  10.698  0.0056  0.0281  0.7200
  215MPD1    C2 3318   0.776   1.485  10.719  0.4714 -0.2822 -0.0365
  215MPD1    C3 3319   0.784   1.602  10.646  0.2202  0.7681  0.0193
  215MPD1    C4 3320   0.687   1.628  10.552  0.2287 -0.2532  0.3398
  215MPD1    C5 3321   0.588   1.539  10.528 -0.1861  0.4222  0.2819
  215MPD1     H 3322   0.858   1.454  10.784  0.2133 -0.7202  0.0794
  215MPD1    H1 3323   0.688   1.714  10.487  0.1545 -0.6876 -0.2424
  215MPD1    H2 3324   0.503   1.351  10.572  0.0286  0.6909 -1.6002
  215MPD1    H3 3325   0.514   1.557  10.451  0.2207  0.3339 -0.1328
  215MPD1     N 3326   0.894   1.692  10.671  0.4882 -0.1665  0.1155
  215MPD1    H5 3327   0.948   1.661  10.751  0.1092 -0.5997  0.2033
  215MPD1    N1 3328   0.685   1.258  10.737 -0.0725  0.1241  0.2042
  215MPD1    H6 3329   0.736   1.258  10.825  0.2345 -0.9192  0.0289
  215MPD1    H7 3330   0.597   1.207  10.732  0.1136 -0.0838 -1.1443
  216MPD1     C 3331   2.397   0.085   0.125  0.3971 -0.3811  0.5044
  216MPD1    C1 3332   2.506   0.151   0.085 -0.2563 -0.6258 -0.0358
  216MPD1    C2 3333   2.605   0.078   0.010 -0.0347 -0.0497 -0.0636
  216MPD1    C3 3334   2.587   4.681  17.719 -0.8167 -0.3741  0.5157
  216MPD1    C4 3335   2.480   4.612   0.025  0.0317 -0.1530 -0.3509
  216MPD1    C5 3336   2.382   4.678   0.097 -0.1515 -0.0051  0.1764
  216MPD1     H 3337   2.685   0.136  17.705 -1.0802  1.3073 -0.1637
  216MPD1    H1 3338   2.458   4.507   0.010 -0.2973 -0.1394  0.0122
  216MPD1    H2 3339   2.314   0.129   0.178  0.0660  1.7717 -1.8143
  216MPD1    H3 3340   2.298   4.622   0.137 -1.0559 -0.5107 -2.4191
  216MPD1     N 3341   2.679   4.604  17.643 -0.1850  0.0358 -0.2517
  216MPD1    H5 3342   2.763   4.654  17.615  1.4959 -1.7622  1.6308
  216MPD1    N1 3343   2.521   0.284   0.121 -0.0866 -0.4849 -0.3817
  216MPD1    H6 3344   2.618   0.313   0.130  0.5043 -2.6443  0.2762
  216MPD1    H7 3345   2.485   0.291   0.216  2.8582  1.4228  0.6094
  217MPD1     C 3346   0.714   2.302   9.028  0.0434  0.3151 -0.2559
  217MPD1    C1 3347   0.592   2.323   8.962  0.0210 -0.1984  1.3005
  217MPD1    C2 3348   0.500   2.219   8.961  0.1531  0.2980 -0.6134
  217MPD1    C3 3349   0.517   2.108   9.040 -0.0175  0.0473 -0.1745
  217MPD1    C4 3350   0.632   2.088   9.108  0.7590 -0.6655 -0.2225
  217MPD1    C5 3351   0.731   2.188   9.103 -0.0232  0.0717 -0.6938
  217MPD1     H 3352   0.419   2.229   8.889 -0.2678  1.5228  0.0376
  217MPD1    H1 3353   0.646   2.002   9.172 -1.0462 -0.1759  0.8185
  217MPD1    H2 3354   0.793   2.376   9.037  0.8221 -0.8352  2.3907
  217MPD1    H3 3355   0.828   2.182   9.150  0.0618 -1.0750 -1.0107
  217MPD1     N 3356   0.426   2.000   9.053 -0.3582 -0.0584 -0.9633
  217MPD1    H5 3357   0.462   1.918   9.101 -1.5010  0.9415  1.5908
  217MPD1    N1 3358   0.595   2.427   8.872 -0.2775 -0.6666  0.1283
  217MPD1    H6 3359   0.625   2.512   8.919 -1.2868  0.2159 -0.8222
  217MPD1    H7 3360   0.506   2.458   8.833  0.5926 -0.1694 -1.4596
  218MPD1     C 3361   1.103   1.878  11.415  0.1809 -0.3869  0.5081
  218MPD1    C1 3362   1.119   1.828  11.539 -0.0614 -0.1778  0.1801
  218MPD1    C2 3363   1.227   1.869  11.614 -0.0714  1.0033 -0.7420
  218MPD1    C3 3364   1.336   1.931  11.552  0.0389 -0.5755  0.4758
  218MPD1    C4 3365   1.322   1.982  11.422  0.7335 -0.1183 -0.1715
  218MPD1    C5 3366   1.200   1.966  11.358 -0.5163  0.0656 -0.5980
  218MPD1     H 3367   1.237   1.839  11.717 -0.8352  1.0841 -0.6426
  218MPD1    H1 3368   1.386   2.048  11.366  2.1776  0.1696  1.8178
  218MPD1    H2 3369   1.013   1.845  11.363  1.2711  0.2707 -1.7893
  218MPD1    H3 3370   1.189   2.014  11.261  0.1536  2.1040  0.3457
  218MPD1     N 3371   1.447   1.951  11.638  0.5275  0.2881 -0.0267
  218MPD1    H5 3372   1.443   1.903  11.727 -0.1223  0.3357 -0.0288
  218MPD1    N1 3373   1.013   1.754  11.595  0.3240 -0.1760 -0.3158
  218MPD1    H6 3374   0.958   1.719  11.517 -1.2850 -1.3329  1.3357
  218MPD1    H7 3375   1.056   1.677  11.646 -0.7449 -0.5226  0.0486
  219MPD1     C 3376   2.339   1.682  11.465  0.1404 -0.1596 -0.4379
  219MPD1    C1 3377   2.293   1.655  11.590  0.7642 -0.4395  0.4361
  219MPD1    C2 3378   2.205   1.739  11.657  1.0654  0.1038  0.3911
  219MPD1    C3 3379   2.154   1.846  11.581  0.2870 -0.1808  0.0475
  219MPD1    C4 3380   2.187   1.862  11.448 -0.8321 -0.8227  0.4742
  219MPD1    C5 3381   2.289   1.784  11.392  0.0318  0.3724  0.1397
  219MPD1     H 3382   2.159   1.708  11.750 -0.6090  0.7522 -0.2157
  219MPD1    H1 3383   2.157   1.946  11.386  2.2983 -0.1516 -0.1404
  219MPD1    H2 3384   2.409   1.620  11.409  0.9577 -0.6435  1.1345
  219MPD1    H3 3385   2.321   1.813  11.293  1.9181 -0.3049  0.5583
  219MPD1     N 3386   2.056   1.932  11.625  0.0762  0.0493  0.6277
  219MPD1    H5 3387   2.005   1.987  11.556 -0.7193  1.1009  2.0424
  219MPD1    N1 3388   2.321   1.527  11.644 -0.2073 -0.4787  0.6679
  219MPD1    H6 3389   2.413   1.494  11.617 -0.1030 -0.2217  0.7033
  219MPD1    H7 3390   2.317   1.527  11.746 -0.9717 -1.0499  0.6343
  220MPD1     C 3391   0.855   3.190   9.336  0.5861 -0.2910 -0.8729
  220MPD1    C1 3392   0.751   3.101   9.327  0.1886 -0.2764 -0.2773
  220MPD1    C2 3393   0.763   2.968   9.382 -0.3082 -0.4584  0.3969
  220MPD1    C3 3394   0.884   2.927   9.435  0.8546  0.0667  0.4125
  220MPD1    C4 3395   0.990   3.008   9.434 -0.8641 -0.1731  0.0523
  220MPD1    C5 3396   0.977   3.139   9.392 -0.9226 -0.9695  0.7046
  220MPD1     H 3397   0.678   2.901   9.373 -1.2759  0.8926 -0.6692
  220MPD1    H1 3398   1.090   2.972   9.455 -0.8920  0.4720  1.2598
  220MPD1    H2 3399   0.847   3.294   9.306  1.0628 -0.0393 -0.1435
  220MPD1    H3 3400   1.064   3.203   9.392 -1.5523 -0.0945 -1.2624
  220MPD1     N 3401   0.884   2.794   9.486 -0.5777  0.4539 -0.0402
  220MPD1    H5 3402   0.795   2.746   9.480 -1.4053  1.9219  0.4089
  220MPD1    N1 3403   0.643   3.138   9.241  0.2950 -0.4932  0.8765
  220MPD1    H6 3404   0.638   3.240   9.238  0.2838 -0.5365 -0.3845
  220MPD1    H7 3405   0.552   3.104   9.271  0.1128  0.2641  1.1856
  221MPD1     C 3406   4.189   1.924  15.852  0.0780 -0.5382  0.5705
  221MPD1    C1 3407   4.161   1.796  15.808  0.1679 -0.0165 -0.1539
  221MPD1    C2 3408   4.182   1.685  15.898 -0.2001  0.0236 -0.3846
  221MPD1    C3 3409   4.228   1.702  16.027  0.0307  0.6114  0.0184
  221MPD1    C4 3410   4.240   1.828  16.070  0.1752  0.6952  0.0321
  221MPD1    C5 3411   4.221   1.938  15.986  0.1445  0.4363  0.7593
  221MPD1     H 3412   4.152   1.587  15.861 -1.2817  0.0554  0.3958
  221MPD1    H1 3413   4.270   1.845  16.173 -1.8686  0.6614  0.6337
  221MPD1    H2 3414   4.176   2.018  15.799  0.2409 -1.5436 -1.2385
  221MPD1    H3 3415   4.237   2.034  16.033 -3.1097  1.2934  0.1311
  221MPD1     N 3416   4.252   1.601  16.117 -0.5358 -0.4806  0.2741
  221MPD1    H5 3417   4.293   1.624  16.207  1.0284  1.0061 -0.8185
  221MPD1    N1 3418   4.106   1.773  15.684 -0.5862 -0.1576  0.0650
  221MPD1    H6 3419   4.129   1.849  15.619  1.8274 -1.0387 -0.1160
  221MPD1    H7 3420   4.149   1.688  15.649  0.7965  0.8246 -0.6455
  222MPD1     C 3421   4.479   0.607  17.735  0.3547  0.4836  0.1817
  222MPD1    C1 3422   4.414   0.511   0.062 -0.1405 -0.2706  0.6632
  222MPD1    C2 3423   4.280   0.531   0.094 -0.3949 -0.4044  0.2335
  222MPD1    C3 3424   4.213   0.655   0.075 -0.3245 -0.5822  0.0038
  222MPD1    C4 3425   4.285   0.762   0.017 -0.6588 -0.5153 -0.0942
  222MPD1    C5 3426   4.422   0.736  17.725 -0.4995  0.1285  0.5218
  222MPD1     H 3427   4.222   0.456   0.147 -0.2746  0.1455  1.1398
  222MPD1    H1 3428   4.247   0.860  17.732  1.0752  0.5877  1.5783
  222MPD1    H2 3429   4.578   0.593  17.692  0.4349 -1.8314  1.1417
  222MPD1    H3 3430   4.484   0.816  17.684 -0.0417  0.0683  1.1070
  222MPD1     N 3431   4.080   0.680   0.110 -0.7938  0.0544 -0.1491
  222MPD1    H5 3432   4.044   0.775   0.103 -0.4326  0.0280 -2.4768
  222MPD1    N1 3433   4.449   0.380   0.054  0.3226 -0.5280 -0.3651
  222MPD1    H6 3434   4.550   0.372   0.063  0.6008  1.2780 -1.9345
  222MPD1    H7 3435   4.402   0.321   0.122  1.1373 -1.9398 -1.0184
  223MPD1     C 3436   3.137   0.221  17.661 -0.7884  0.2205 -0.1377
  223MPD1    C1 3437   3.102   0.354  17.677 -0.1078  0.6543  0.3270
  223MPD1    C2 3438   3.195   0.433   0.003  0.6268  0.6122  0.7427
  223MPD1    C3 3439   3.324   0.395   0.038  0.5340  0.2910 -0.3024
  223MPD1    C4 3440   3.355   0.262   0.005 -0.4279  0.0571  0.1293
  223MPD1    C5 3441   3.259   0.171  17.703  0.6358  0.3627  0.4874
  223MPD1     H 3442   3.164   0.533   0.028 -0.9729 -0.0536  1.3895
  223MPD1    H1 3443   3.455   0.223   0.023 -1.3732 -3.2025 -1.6745
  223MPD1    H2 3444   3.069   0.146  17.622  1.4277 -3.1942  2.5860
  223MPD1    H3 3445   3.293   0.070  17.685 -1.2162 -0.4855  1.7270
  223MPD1     N 3446   3.418   0.485   0.085  0.2705 -0.0903 -0.2801
  223MPD1    H5 3447   3.399   0.584   0.076  1.5474  0.0573 -1.3542
  223MPD1    N1 3448   2.971   0.392  17.658  0.3270  0.3050 -0.0696
  223MPD1    H6 3449   2.924   0.349  17.579 -1.8810 -0.5889  1.7310
  223MPD1    H7 3450   2.972   0.492  17.636 -2.8510 -0.1260 -2.0782
  224MPD1     C 3451   4.521   2.237   8.947 -0.0232 -0.8185  0.3784
  224MPD1    C1 3452   4.380   2.235   8.936 -0.2761 -0.1811  0.8383
  224MPD1    C2 3453   4.319   2.200   9.055  0.0096  0.3109  0.0776
  224MPD1    C3 3454   4.390   2.144   9.160  0.1046  0.0414  0.1046
  224MPD1    C4 3455   4.527   2.125   9.152 -0.1841 -1.3688  0.2043
  224MPD1    C5 3456   4.592   2.181   9.045 -0.5029  0.4577 -0.1573
  224MPD1     H 3457   4.211   2.209   9.053 -0.0662 -0.4973  0.5178
  224MPD1    H1 3458   4.583   2.076   9.231 -1.8383  0.2440  2.3991
  224MPD1    H2 3459   4.573   2.274   8.859  0.6564 -1.0976  0.6585
  224MPD1    H3 3460   4.698   2.159   9.039 -0.3388  1.3213 -0.3556
  224MPD1     N 3461   4.323   2.113   9.285  0.5944 -1.1913 -0.3727
  224MPD1    H5 3462   4.377   2.065   9.356 -0.6548  0.4052  1.6733
  224MPD1    N1 3463   4.315   2.302   8.830 -0.2006  0.1188 -0.8453
  224MPD1    H6 3464   4.215   2.288   8.821 -0.1276  0.3106 -1.9880
  224MPD1    H7 3465   4.358   2.281   8.740 -0.1880 -2.0602 -0.3382
  225MPD1     C 3466   0.995   3.193  12.482 -0.0561  0.6127 -0.1380
  225MPD1    C1 3467   0.955   3.060  12.472 -0.5316  1.0335 -0.2003
  225MPD1    C2 3468   0.931   3.008  12.340 -0.2496  0.1367  0.1363
  225MPD1    C3 3469   0.941   3.089  12.231  0.1346  0.3938 -0.7505
  225MPD1    C4 3470   0.989   3.218  12.251  0.2660  0.2752 -0.0558
  225MPD1    C5 3471   1.021   3.267  12.376  0.0244  0.2160  0.2590
  225MPD1     H 3472   0.900   2.905  12.334 -2.1684  0.6699  0.7474
  225MPD1    H1 3473   1.008   3.281  12.165 -2.3701  0.6093 -0.3788
  225MPD1    H2 3474   1.010   3.225  12.584 -0.6745 -0.5144  0.2983
  225MPD1    H3 3475   1.068   3.362  12.395 -0.3117  0.2926  0.7130
  225MPD1     N 3476   0.904   3.056  12.100 -0.4008 -0.1773  0.0961
  225MPD1    H5 3477   0.913   3.133  12.034  2.1309  0.8464  1.6306
  225MPD1    N1 3478   0.903   2.989  12.584  0.2241 -0.1224  0.0735
  225MPD1    H6 3479   0.937   3.019  12.675  0.5576 -2.1571  0.6240
  225MPD1    H7 3480   0.913   2.887  12.580 -1.2007 -0.3622  2.4906
  226MPD1     C 3481   3.436   2.924   9.020  0.4633 -0.5190 -0.2831
  226MPD1    C1 3482   3.456   2.830   9.116  0.3371 -0.4834  0.4494
  226MPD1    C2 3483   3.577   2.825   9.177 -0.2771 -0.3229  0.3364
  226MPD1    C3 3484   3.676   2.916   9.147  0.1517 -0.0557 -0.6727
  226MPD1    C4 3485   3.657   3.014   9.047  0.5534 -0.0354  0.2558
  226MPD1    C5 3486   3.537   3.006   8.984  0.1365  0.5384  0.1648
  226MPD1     H 3487   3.595   2.752   9.256 -0.0642 -0.1320  0.4627
  226MPD1    H1 3488   3.741   3.077   9.023 -0.7424  1.2765 -0.8310
  226MPD1    H2 3489   3.345   2.918   8.961 -0.6434 -0.9537  1.4653
  226MPD1    H3 3490   3.523   3.086   8.913 -1.1361  0.6294  0.5140
  226MPD1     N 3491   3.793   2.918   9.226 -0.0555 -0.6433  0.3880
  226MPD1    H5 3492   3.798   2.837   9.288  1.3110 -0.4785  0.4871
  226MPD1    N1 3493   3.354   2.748   9.161 -0.2036 -0.6045  0.1903
  226MPD1    H6 3494   3.261   2.788   9.154  0.1177 -0.5195 -3.5724
  226MPD1    H7 3495   3.366   2.721   9.258 -0.3953 -0.8295  0.1513
  227MPD1     C 3496   4.465   3.642   9.384  0.6958 -0.0574  0.2048
  227MPD1    C1 3497   4.383   3.609   9.281  0.3491 -0.3676 -0.2570
  227MPD1    C2 3498   4.329   3.485   9.276  0.3120  0.0830  0.5109
  227MPD1    C3 3499   4.348   3.384   9.374  0.1303  0.2343  0.2238
  227MPD1    C4 3500   4.424   3.424   9.482  0.0833 -0.3418  0.1776
  227MPD1    C5 3501   4.489   3.543   9.481 -0.1211 -0.1966 -0.2372
  227MPD1     H 3502   4.260   3.459   9.196  0.8744  0.1018  0.0213
  227MPD1    H1 3503   4.451   3.357   9.563 -0.3244  0.7587  1.2159
  227MPD1    H2 3504   4.528   3.730   9.389 -0.9688  1.1178  0.5022
  227MPD1    H3 3505   4.554   3.560   9.566  0.3985 -0.0518 -0.6627
  227MPD1     N 3506   4.277   3.259   9.356  0.7950 -0.3191  0.5044
  227MPD1    H5 3507   4.214   3.259   9.276 -0.1022 -0.1073  1.2116
  227MPD1    N1 3508   4.382   3.693   9.170  0.0150 -0.6567  0.8595
  227MPD1    H6 3509   4.370   3.788   9.204 -0.7884 -0.5188  0.1728
  227MPD1    H7 3510   4.304   3.672   9.109  1.1731  0.5858 -1.0522
  228MPD1     C 3511   3.274   0.137  12.831 -1.1541  0.6557 -0.2536
  228MPD1    C1 3512   3.245   0.202  12.718  0.4490 -0.7246  0.2998
  228MPD1    C2 3513   3.122   0.259  12.711  0.1214 -0.1862 -0.2282
  228MPD1    C3 3514   3.031   0.229  12.809  0.2398 -0.1384  0.3980
  228MPD1    C4 3515   3.061   0.155  12.921  0.3069 -0.9199 -0.5269
  228MPD1    C5 3516   3.185   0.112  12.932  0.3048 -0.6422  0.0443
  228MPD1     H 3517   3.094   0.322  12.628  0.0703 -1.5589 -1.2554
  228MPD1    H1 3518   2.998   0.134  13.007 -1.0572 -1.5455 -1.6807
  228MPD1    H2 3519   3.377   0.107  12.846 -1.3524 -0.2598 -0.7320
  228MPD1    H3 3520   3.219   0.058  13.019 -2.2585 -1.2504  0.6713
  228MPD1     N 3521   2.893   0.273  12.790 -0.3599 -0.6554 -1.0181
  228MPD1    H5 3522   2.875   0.319  12.702  1.3328 -1.8293 -1.9761
  228MPD1    N1 3523   3.344   0.230  12.616 -0.4485  0.4991 -0.2785
  228MPD1    H6 3524   3.414   0.157  12.607 -0.8106  0.3037 -1.5257
  228MPD1    H7 3525   3.304   0.228  12.522 -0.4018  2.7284 -0.3647
  229MPD1     C 3526   1.804   3.524  14.457  0.4581 -0.0137  0.0756
  229MPD1    C1 3527   1.789   3.659  14.473 -0.4643  0.5690  0.1028
  229MPD1    C2 3528   1.881   3.729  14.548  0.3969  0.1023  0.3360
  229MPD1    C3 3529   1.993   3.663  14.600 -0.2942  0.8414  0.5091
  229MPD1    C4 3530   2.013   3.524  14.578  1.2333 -0.2783  0.5421
  229MPD1    C5 3531   1.917   3.462  14.505  0.0325  0.0427 -0.0070
  229MPD1     H 3532   1.878   3.837  14.559 -0.8394  0.0221  0.7675
  229MPD1    H1 3533   2.103   3.475  14.615  0.6936 -1.2908  0.5255
  229MPD1    H2 3534   1.743   3.454  14.401  0.4616 -0.5862  0.7797
  229MPD1    H3 3535   1.924   3.354  14.498  1.1501 -0.1556  4.3501
  229MPD1     N 3536   2.095   3.731  14.661 -0.3313  0.0982  0.0082
  229MPD1    H5 3537   2.179   3.677  14.681 -2.0164 -2.1506  0.9829
  229MPD1    N1 3538   1.674   3.717  14.432 -0.4215 -0.8970  0.2541
  229MPD1    H6 3539   1.677   3.816  14.412 -1.6194 -0.4579  2.2642
  229MPD1    H7 3540   1.644   3.672  14.345  1.0849  0.4514 -0.9464
  230MPD1     C 3541   2.320   4.541  15.373 -0.1084 -0.1218  0.1673
  230MPD1    C1 3542   2.374   4.423  15.420  1.0885 -0.3818 -0.6846
  230MPD1    C2 3543   2.388   4.313  15.339  0.0581 -0.3891 -1.2031
  230MPD1    C3 3544   2.334   4.317  15.209 -0.0622  0.2737 -0.0025
  230MPD1    C4 3545   2.275   4.437  15.160 -0.6098 -0.4001 -0.5999
  230MPD1    C5 3546   2.272   4.548  15.245 -0.5699 -0.1359  0.3084
  230MPD1     H 3547   2.426   4.220  15.378  0.7427  0.3207 -0.2011
  230MPD1    H1 3548   2.229   4.451  15.063 -0.1998 -0.4678 -0.8028
  230MPD1    H2 3549   2.326   4.626  15.440  0.4447  0.7228 -0.9364
  230MPD1    H3 3550   2.233   4.641  15.204 -3.4422 -1.6057 -0.3282
  230MPD1     N 3551   2.339   4.198  15.132 -0.0854  0.3442  0.2960
  230MPD1    H5 3552   2.391   4.121  15.174 -0.9415 -0.5244 -0.2305
  230MPD1    N1 3553   2.410   4.416  15.555  0.2525 -0.2369  0.3580
  230MPD1    H6 3554   2.440   4.508  15.585 -2.5959 -0.4800  4.0616
  230MPD1    H7 3555   2.476   4.342  15.577  0.8950  0.1260 -0.3429
  231MPD1     C 3556   0.107   1.041  15.475  0.8180 -0.1069 -0.8442
  231MPD1    C1 3557   0.092   0.978  15.350 -0.2098  0.2145 -0.2312
  231MPD1    C2 3558   0.195   0.995  15.256 -0.2826 -0.1276  0.0205
  231MPD1    C3 3559   0.310   1.070  15.279  0.7685 -0.1413 -0.6582
  231MPD1    C4 3560   0.319   1.126  15.401 -0.4963 -0.1890  0.4083
  231MPD1    C5 3561   0.221   1.108  15.494  0.1375  0.5309  0.1536
  231MPD1     H 3562   0.182   0.953  15.157  0.8626 -0.4999  0.0257
  231MPD1    H1 3563   0.404   1.186  15.431 -1.7445  1.3035  0.9304
  231MPD1    H2 3564   0.019   1.039  15.538  1.0454  1.0085 -0.4967
  231MPD1    H3 3565   0.233   1.158  15.589  0.4205  0.8613 -0.0576
  231MPD1     N 3566   0.401   1.093  15.178 -0.4158  0.2564 -0.0131
  231MPD1    H5 3567   0.388   1.040  15.093 -0.2037 -2.9629  1.9610
  231MPD1    N1 3568   4.703   0.920  15.320 -0.9063  0.2364  0.2694
  231MPD1    H6 3569   4.684   0.861  15.240  1.0948  1.3853 -1.0545
  231MPD1    H7 3570   4.647   0.890  15.400  0.6409 -1.0332  0.8768
  232MPD1     C 3571   2.437   3.622   0.038 -0.1320 -0.1357  0.6211
  232MPD1    C1 3572   2.370   3.595   0.156  0.3634  0.0171 -0.0860
  232MPD1    C2 3573   2.236   3.633   0.155  0.3051  0.2422 -0.3994
  232MPD1    C3 3574   2.167   3.673   0.043  0.0700  0.0341 -0.1236
  232MPD1    C4 3575   2.240   3.702  17.667  0.1888 -0.0529 -0.0433
  232MPD1    C5 3576   2.373   3.679  17.673  0.1937 -0.7835 -0.1766
  232MPD1     H 3577   2.176   3.621   0.245  0.9878  1.7121  0.2373
  232MPD1    H1 3578   2.199   3.733  17.571  2.6112 -0.2194 -1.1222
  232MPD1    H2 3579   2.541   3.592   0.032  0.4104  2.0894 -1.2378
  232MPD1    H3 3580   2.428   3.679  17.580 -0.6663 -0.0058 -0.6952
  232MPD1     N 3581   2.026   3.701   0.048 -0.2063  0.5915  0.3759
  232MPD1    H5 3582   1.982   3.696   0.140 -1.9343  2.2222 -0.3515
  232MPD1    N1 3583   2.450   3.583   0.268 -0.0031 -0.1709 -0.3803
  232MPD1    H6 3584   2.539   3.537   0.251  0.1986 -0.4154  1.3946
  232MPD1    H7 3585   2.412   3.550   0.356 -1.4412 -0.3655 -1.0714
  233MPD1     C 3586   4.507   3.231   1.068 -0.1293  0.2787 -0.2653
  233MPD1    C1 3587   4.388   3.183   1.022  1.2483  0.6463  0.3977
  233MPD1    C2 3588   4.341   3.056   1.049 -0.1173  1.2201 -0.6156
  233MPD1    C3 3589   4.411   2.975   1.136 -0.0956 -0.0682 -0.5178
  233MPD1    C4 3590   4.530   3.023   1.186  0.6577 -0.0190 -0.9398
  233MPD1    C5 3591   4.577   3.150   1.157  0.5607  0.1432 -0.6183
  233MPD1     H 3592   4.252   3.012   1.006  0.4207  0.4818 -0.9625
  233MPD1    H1 3593   4.585   2.971   1.264  0.1211  1.5686  0.4919
  233MPD1    H2 3594   4.557   3.324   1.041 -0.4179  0.2670 -0.8222
  233MPD1    H3 3595   4.668   3.188   1.201 -1.1179 -0.4881  3.3756
  233MPD1     N 3596   4.383   2.843   1.172  0.6807 -0.4686  0.1453
  233MPD1    H5 3597   4.435   2.803   1.249 -0.8795 -1.2040  0.8366
  233MPD1    N1 3598   4.316   3.260   0.928  0.7329 -0.4378  0.2877
  233MPD1    H6 3599   4.214   3.253   0.936  0.6908 -0.4625 -0.3007
  233MPD1    H7 3600   4.351   3.352   0.905  1.7518 -1.4559 -2.1883
  234MPD1     C 3601   0.037   0.706  10.398  0.1006  0.1081 -0.0180
  234MPD1    C1 3602   4.705   0.820  10.429  0.6141 -0.3360  0.5115
  234MPD1    C2 3603   0.001   0.935  10.356 -0.8581 -1.0505  0.1400
  234MPD1    C3 3604   0.101   0.931  10.258  0.5173  0.8263  0.8442
  234MPD1    C4 3605   0.178   0.816  10.245  0.7899  0.8347  0.4611
  234MPD1    C5 3606   0.136   0.711  10.312 -0.0864 -0.6935 -0.4538
  234MPD1     H 3607   4.685   1.028  10.378  0.2598 -0.4630  0.2463
  234MPD1    H1 3608   0.257   0.814  10.171 -0.1514 -2.1572 -0.4281
  234MPD1    H2 3609   4.733   0.612  10.435 -0.3264  1.2740  2.5268
  234MPD1    H3 3610   0.190   0.619  10.291 -0.6377 -1.5249  1.7669
  234MPD1     N 3611   0.104   1.050  10.175  0.6253  0.1228 -0.0921
  234MPD1    H5 3612   0.045   1.126  10.205  0.5604  0.4389 -1.0182
  234MPD1    N1 3613   4.599   0.815  10.521 -0.2189  0.1026 -0.5588
  234MPD1    H6 3614   4.583   0.903  10.570 -1.6171 -0.1284 -0.5798
  234MPD1    H7 3615   4.610   0.745  10.595  0.0338 -0.7059 -1.3715
  235MPD1     C 3616   1.520   4.151  11.357 -0.3130  0.4631 -0.0186
  235MPD1    C1 3617   1.643   4.212  11.336 -0.0130  0.3793  0.5271
  235MPD1    C2 3618   1.738   4.141  11.266 -0.2326 -0.5995  0.4317
  235MPD1    C3 3619   1.723   4.016  11.221 -0.4627  0.6909  0.3978
  235MPD1    C4 3620   1.602   3.957  11.251 -0.0484 -0.0371 -0.1788
  235MPD1    C5 3621   1.501   4.027  11.307  0.7455 -0.0941  0.0236
  235MPD1     H 3622   1.831   4.195  11.255 -0.3001 -0.7060 -0.6775
  235MPD1    H1 3623   1.586   3.853  11.223 -0.5512  0.2014 -0.7823
  235MPD1    H2 3624   1.442   4.194  11.419 -0.9344  2.0320 -1.8736
  235MPD1    H3 3625   1.424   3.963  11.347 -0.1055  0.8526 -0.0917
  235MPD1     N 3626   1.829   3.944  11.156  0.3480 -0.5285  0.1644
  235MPD1    H5 3627   1.913   3.999  11.146  0.1665 -0.3989 -0.6419
  235MPD1    N1 3628   1.678   4.343  11.390  0.2110  0.3214 -0.7176
  235MPD1    H6 3629   1.777   4.366  11.396 -0.2408  2.4987 -1.9644
  235MPD1    H7 3630   1.621   4.373  11.469  0.0770 -0.7513 -0.3921
  236MPD1     C 3631   0.588   3.979   9.226  0.2686  0.2766  0.2533
  236MPD1    C1 3632   0.688   4.070   9.240  0.6102 -0.1428 -0.8184
  236MPD1    C2 3633   0.745   4.076   9.366 -0.6130  0.0768  0.3131
  236MPD1    C3 3634   0.688   4.013   9.477  0.5297 -0.3495  0.1138
  236MPD1    C4 3635   0.569   3.948   9.463 -0.8292  0.3601  0.2834
  236MPD1    C5 3636   0.521   3.931   9.338 -0.7135  0.0604  0.3380
  236MPD1     H 3637   0.830   4.141   9.377 -1.0067  0.7139 -0.3910
  236MPD1    H1 3638   0.517   3.909   9.550 -0.3274 -3.6910 -1.2216
  236MPD1    H2 3639   0.540   3.968   9.129  1.6117  1.9885 -0.5919
  236MPD1    H3 3640   0.428   3.876   9.320 -0.6526  0.5004 -1.3931
  236MPD1     N 3641   0.741   4.023   9.605  0.3106 -0.0659 -0.7112
  236MPD1    H5 3642   0.700   3.963   9.676 -1.4463  1.0470 -0.7938
  236MPD1    N1 3643   0.755   4.118   9.124  0.3138 -0.6033  0.3980
  236MPD1    H6 3644   0.804   4.207   9.127  0.0458 -0.5164  2.8487
  236MPD1    H7 3645   0.696   4.125   9.042  0.3123  0.2061  0.4643
  237MPD1     C 3646   0.907   2.224  14.613 -0.5220  0.5823 -0.4711
  237MPD1    C1 3647   0.769   2.222  14.610 -0.1262 -0.6074  0.8892
  237MPD1    C2 3648   0.693   2.313  14.678 -0.1598 -0.1502  0.6815
  237MPD1    C3 3649   0.759   2.389  14.776 -1.2264  0.4902  0.2892
  237MPD1    C4 3650   0.896   2.405  14.777 -0.6142  0.2816  0.3601
  237MPD1    C5 3651   0.965   2.324  14.686 -0.7459 -0.7670 -0.3075
  237MPD1     H 3652   0.585   2.304  14.683 -0.1198 -0.4482  1.0477
  237MPD1    H1 3653   0.945   2.475  14.843  0.3386  1.5820 -1.6980
  237MPD1    H2 3654   0.972   2.149  14.570 -0.9730  0.0149 -0.1680
  237MPD1    H3 3655   1.073   2.326  14.691 -0.7941  1.1617 -0.0342
  237MPD1     N 3656   0.680   2.445  14.877 -0.0912 -0.3216  0.4838
  237MPD1    H5 3657   0.581   2.462  14.861 -0.5356 -2.2969  1.1404
  237MPD1    N1 3658   0.716   2.128  14.529  0.0895 -0.2478  0.0071
  237MPD1    H6 3659   0.643   2.074  14.577  0.8956 -0.8120  0.6032
  237MPD1    H7 3660   0.790   2.063  14.503 -0.0403  0.3793 -1.9275
  238MPD1     C 3661   2.703   1.288  14.909  0.0160 -0.3616 -0.2999
  238MPD1    C1 3662   2.772   1.168  14.879 -0.1989  0.1408  0.0430
  238MPD1    C2 3663   2.730   1.093  14.772  0.3167  0.1549  0.3002
  238MPD1    C3 3664   2.603   1.118  14.716 -0.8136  0.5964  0.6640
  238MPD1    C4 3665   2.537   1.237  14.758  1.2297 -0.3724  0.8295
  238MPD1    C5 3666   2.587   1.316  14.856  0.1348  0.6089  0.2381
  238MPD1     H 3667   2.774   0.998  14.745  0.1250  0.2492 -0.3493
  238MPD1    H1 3668   2.447   1.277  14.712  1.5123 -1.2658 -0.4781
  238MPD1    H2 3669   2.742   1.349  14.991 -0.3803 -0.9112  0.2959
  238MPD1    H3 3670   2.542   1.414  14.870 -2.5072 -0.3459 -1.3769
  238MPD1     N 3671   2.532   1.031  14.630 -0.7488 -0.1788  0.2130
  238MPD1    H5 3672   2.439   1.062  14.603 -1.6181 -2.2258  0.9035
  238MPD1    N1 3673   2.892   1.114  14.939  0.1784  0.9505 -0.0626
  238MPD1    H6 3674   2.910   1.015  14.926  0.8320  1.1115 -0.3980
  238MPD1    H7 3675   2.894   1.134  15.039  0.5822 -0.8390  0.2952
  239MPD1     C 3676   2.281   2.636  14.816 -0.0869  0.5484  0.0098
  239MPD1    C1 3677   2.233   2.671  14.698  0.2573  0.0624  0.2199
  239MPD1    C2 3678   2.189   2.576  14.607 -0.1001 -0.2092 -0.2327
  239MPD1    C3 3679   2.215   2.440  14.630 -0.2691  0.1971  0.2885
  239MPD1    C4 3680   2.292   2.410  14.744  0.8570  0.2322 -0.3431
  239MPD1    C5 3681   2.313   2.506  14.835 -0.0526  0.6748 -1.0879
  239MPD1     H 3682   2.141   2.599  14.512  0.0735  1.1447 -0.0027
  239MPD1    H1 3683   2.327   2.309  14.760  0.6752 -0.3444 -3.6545
  239MPD1    H2 3684   2.317   2.703  14.893 -1.6218  0.8938  0.4422
  239MPD1    H3 3685   2.377   2.478  14.918 -1.4571 -2.0297 -0.9314
  239MPD1     N 3686   2.181   2.332  14.541 -0.1459  0.2477 -0.0590
  239MPD1    H5 3687   2.209   2.236  14.558  0.5459  0.3223 -0.7544
  239MPD1    N1 3688   2.201   2.803  14.677 -0.6146  0.2780 -0.4500
  239MPD1    H6 3689   2.243   2.873  14.738  1.0149 -0.6334 -0.5410
  239MPD1    H7 3690   2.211   2.835  14.581 -3.1487 -0.3235 -0.9191
  240MPD1     C 3691   2.407   1.591  14.357 -0.0324 -1.1022 -0.5587
  240MPD1    C1 3692   2.276   1.603  14.340 -0.1053 -0.3789 -0.6358
  240MPD1    C2 3693   2.199   1.486  14.363 -0.0898  0.4717  0.1540
  240MPD1    C3 3694   2.242   1.375  14.431 -0.2605  0.6283  0.0646
  240MPD1    C4 3695   2.377   1.375  14.460  0.4969  0.7483 -0.6325
  240MPD1    C5 3696   2.457   1.474  14.417  0.1454  0.0986 -0.6537
  240MPD1     H 3697   2.092   1.475  14.347 -0.0750  0.8919 -0.2469
  240MPD1    H1 3698   2.424   1.293  14.513  0.2653  0.1451 -1.3597
  240MPD1    H2 3699   2.472   1.675  14.332 -0.7229 -0.3059  0.3072
  240MPD1    H3 3700   2.564   1.469  14.435  0.0645  1.2491  0.1312
  240MPD1     N 3701   2.153   1.272  14.461 -0.2428  0.3548 -0.4873
  240MPD1    H5 3702   2.056   1.283  14.433  0.1057 -1.6139 -2.4756
  240MPD1    N1 3703   2.216   1.720  14.284  0.3928 -0.0346 -0.6578
  240MPD1    H6 3704   2.116   1.701  14.274  0.4245  0.7108 -2.4205
  240MPD1    H7 3705   2.228   1.798  14.348 -0.6368 -0.1987 -0.2538
  241MPD1     C 3706   1.925   0.985  15.338  0.0378  0.5347  0.1517
  241MPD1    C1 3707   1.871   0.882  15.270 -0.0813  0.1604 -0.3431
  241MPD1    C2 3708   1.868   0.894  15.135 -0.7476 -0.3489 -0.3571
  241MPD1    C3 3709   1.957   0.975  15.061  1.0568 -0.4048  0.1613
  241MPD1    C4 3710   2.018   1.069  15.137  0.2589 -0.1207 -0.5252
  241MPD1    C5 3711   1.993   1.084  15.268 -0.6593  0.2113  0.0268
  241MPD1     H 3712   1.811   0.821  15.079 -1.5442  0.7080 -0.9200
  241MPD1    H1 3713   2.088   1.140  15.095 -0.5778  1.3235  0.5178
  241MPD1    H2 3714   1.916   0.990  15.446  2.7039  1.0282  0.3474
  241MPD1    H3 3715   2.049   1.159  15.324  1.4648 -0.8232 -0.7144
  241MPD1     N 3716   1.983   0.973  14.924 -0.3990  0.1764  0.0506
  241MPD1    H5 3717   2.050   1.046  14.903  0.1687  0.1061  1.6446
  241MPD1    N1 3718   1.789   0.786  15.341 -0.6032 -0.3707  0.0028
  241MPD1    H6 3719   1.795   0.693  15.301 -1.7515 -0.1896 -0.5780
  241MPD1    H7 3720   1.818   0.768  15.437 -1.1132 -1.2756 -0.0197
  242MPD1     C 3721   1.795   4.414  15.436 -0.2842 -0.1047 -0.0870
  242MPD1    C1 3722   1.699   4.503  15.396 -0.3343  0.0394 -0.4036
  242MPD1    C2 3723   1.700   4.553  15.266  0.3288 -0.1698  1.0060
  242MPD1    C3 3724   1.784   4.497  15.173 -0.1344 -0.1070 -0.1004
  242MPD1    C4 3725   1.888   4.409  15.212  0.2317 -0.5517 -0.2875
  242MPD1    C5 3726   1.890   4.374  15.341 -0.2025 -0.1261  0.1883
  242MPD1     H 3727   1.620   4.617  15.231 -0.4116 -0.4656  2.1902
  242MPD1    H1 3728   1.960   4.367  15.144  0.6657 -1.3551  0.6583
  242MPD1    H2 3729   1.806   4.373  15.535 -0.0571  2.6431  1.0124
  242MPD1    H3 3730   1.962   4.297  15.370  2.0184  2.4014  1.3400
  242MPD1     N 3731   1.780   4.542  15.042 -0.0934  0.0961 -0.1457
  242MPD1    H5 3732   1.855   4.525  14.976  0.4554 -0.3887  0.6002
  242MPD1    N1 3733   1.625   4.561  15.497 -0.2074  0.6376 -0.3633
  242MPD1    H6 3734   1.620   4.502  15.581  1.4241 -0.9471 -1.3786
  242MPD1    H7 3735   1.530   4.581  15.466  0.0154  0.2682 -1.2722
  243MPD1     C 3736   2.576   4.143   0.094 -0.2931 -0.8855  0.3741
  243MPD1    C1 3737   2.580   4.002   0.114 -0.6336 -0.3612  0.2682
  243MPD1    C2 3738   2.701   3.939   0.116 -0.5622 -0.6675 -0.1620
  243MPD1    C3 3739   2.824   4.007   0.106  0.1508 -0.1014  0.3039
  243MPD1    C4 3740   2.824   4.139   0.123 -0.5808  0.2604  0.6422
  243MPD1    C5 3741   2.703   4.205   0.115  0.0807 -0.3284 -0.7973
  243MPD1     H 3742   2.705   3.830   0.111  4.1566 -0.4456 -1.5769
  243MPD1    H1 3743   2.909   4.205   0.117 -1.1565  0.8427 -1.0547
  243MPD1    H2 3744   2.496   4.216   0.090 -2.1952 -2.8542  2.4845
  243MPD1    H3 3745   2.722   4.310   0.098  1.9909 -0.6150 -0.4131
  243MPD1     N 3746   2.939   3.929   0.090 -0.4422  0.4112 -0.3375
  243MPD1    H5 3747   2.933   3.828   0.081 -0.5831  0.3338  0.6158
  243MPD1    N1 3748   2.460   3.932   0.106  0.3948 -0.7192 -0.0720
  243MPD1    H6 3749   2.460   3.842   0.153  3.0219 -0.9113 -0.4322
  243MPD1    H7 3750   2.379   3.984   0.139  1.8180  1.2631  0.3019
  244MPD1     C 3751   3.278   3.107  17.410  0.4937  0.8525  0.5923
  244MPD1    C1 3752   3.280   3.206  17.319  0.1790 -0.3264  0.2233
  244MPD1    C2 3753   3.249   3.333  17.366  0.1079 -0.2138 -0.2895
  244MPD1    C3 3754   3.220   3.361  17.498  0.4330  0.1124 -0.6745
  244MPD1    C4 3755   3.205   3.259  17.586 -0.2418  0.2032 -0.7659
  244MPD1    C5 3756   3.231   3.136  17.539  0.4626  0.2029  0.1443
  244MPD1     H 3757   3.254   3.414  17.294 -0.7471 -0.5835 -0.7726
  244MPD1    H1 3758   3.173   3.272  17.689  2.6599  2.2788 -0.1143
  244MPD1    H2 3759   3.307   3.004  17.388 -0.2490  0.6687  0.4787
  244MPD1    H3 3760   3.240   3.059  17.615  0.5043  0.9919  0.9317
  244MPD1     N 3761   3.204   3.499  17.526  0.8426 -0.3932 -0.0443
  244MPD1    H5 3762   3.213   3.562  17.447  0.9113 -1.6756 -1.0650
  244MPD1    N1 3763   3.342   3.194  17.191 -0.2821 -0.1770  0.1816
  244MPD1    H6 3764   3.294   3.118  17.144  0.0423  0.4107 -1.1196
  244MPD1    H7 3765   3.319   3.279  17.139 -3.8601 -0.1029  1.9024
  245MPD1     C 3766   0.751   3.202  13.075  0.1167  0.5218 -0.7131
  245MPD1    C1 3767   0.785   3.307  12.992 -0.2608 -0.1351 -0.2955
  245MPD1    C2 3768   0.833   3.424  13.047  0.1430  0.0308  0.4633
  245MPD1    C3 3769   0.840   3.441  13.185  0.2960  0.2085 -0.7729
  245MPD1    C4 3770   0.804   3.338  13.260  0.3606 -0.0486 -0.2598
  245MPD1    C5 3771   0.753   3.223  13.208 -0.4069  0.0341  0.2007
  245MPD1     H 3772   0.856   3.510  12.986  0.7952 -1.5980 -1.5757
  245MPD1    H1 3773   0.797   3.347  13.368 -1.4641 -0.1437 -0.3659
  245MPD1    H2 3774   0.707   3.113  13.032 -0.5649 -0.4561  2.0198
  245MPD1    H3 3775   0.721   3.148  13.280  1.5302 -0.9297  0.0561
  245MPD1     N 3776   0.896   3.556  13.236  0.0621  0.2764 -0.1736
  245MPD1    H5 3777   0.925   3.630  13.173 -0.3877  1.4734  1.0443
  245MPD1    N1 3778   0.790   3.287  12.855 -0.2212 -0.2765  0.5837
  245MPD1    H6 3779   0.816   3.371  12.804 -1.1807  1.0471  2.2776
  245MPD1    H7 3780   0.699   3.264  12.816  0.7207 -1.4175 -0.9327
  246MPD1     C 3781   4.624   2.846   9.587  0.4030  0.4873  0.1189
  246MPD1    C1 3782   4.632   2.904   9.713 -0.1642 -0.0994 -0.0633
  246MPD1    C2 3783   0.020   2.939   9.760 -0.2937 -0.5234  0.8526
  246MPD1    C3 3784   0.137   2.934   9.680  0.6904  0.7771  0.1068
  246MPD1    C4 3785   0.126   2.894   9.549  0.3508  0.7266 -0.1918
  246MPD1    C5 3786   0.001   2.840   9.510  0.3087 -0.3014  0.4352
  246MPD1     H 3787   0.035   2.977   9.861 -4.0166 -0.7394  1.5043
  246MPD1    H1 3788   0.215   2.874   9.491 -0.3354 -0.5062 -0.8179
  246MPD1    H2 3789   4.533   2.801   9.550  0.4670  1.3099 -1.0194
  246MPD1    H3 3790   4.718   2.794   9.414  0.2382  0.4464  0.0889
  246MPD1     N 3791   0.254   2.992   9.734 -0.5764 -0.7992 -0.5036
  246MPD1    H5 3792   0.255   3.015   9.833  2.3396 -1.5116 -0.3485
  246MPD1    N1 3793   4.515   2.940   9.783 -0.1983 -0.2987  0.0609
  246MPD1    H6 3794   4.528   2.949   9.884  1.5607 -0.6703 -0.1321
  246MPD1    H7 3795   4.434   2.884   9.758 -0.0664 -0.8590  0.8769
  247MPD1     C 3796   0.168   3.936  16.805  0.2757  0.3213 -0.1199
  247MPD1    C1 3797   0.231   3.993  16.695  0.4132 -0.3414  0.5736
  247MPD1    C2 3798   0.198   3.942  16.571 -0.2883  0.0972  0.3276
  247MPD1    C3 3799   0.110   3.833  16.554 -0.6205  0.1263 -0.0637
  247MPD1    C4 3800   0.042   3.783  16.666  0.6964 -0.1352  0.1312
  247MPD1    C5 3801   0.063   3.843  16.786 -0.3653 -0.3580 -0.0903
  247MPD1     H 3802   0.243   3.993  16.487 -0.2490  0.1689  0.3926
  247MPD1    H1 3803   4.712   3.698  16.650  2.5529 -0.9397 -3.3208
  247MPD1    H2 3804   0.173   3.982  16.903  0.3081  0.1172 -0.0254
  247MPD1    H3 3805   0.001   3.814  16.870 -1.2542  1.8041 -0.0157
  247MPD1     N 3806   0.082   3.770  16.431 -0.4768 -0.2705 -0.0110
  247MPD1    H5 3807   0.024   3.687  16.431  1.2996 -1.5237  1.4465
  247MPD1    N1 3808   0.300   4.114  16.696  0.4898  0.3197  0.1232
  247MPD1    H6 3809   0.356   4.129  16.779  1.9571 -1.7718 -0.5064
  247MPD1    H7 3810   0.368   4.126  16.621  1.3054 -1.1318  0.6332
  248MPD1     C 3811   4.672   3.280   0.170 -0.2838  0.2809  0.0447
  248MPD1    C1 3812   0.074   3.294   0.178 -0.1474 -0.0358  0.3021
  248MPD1    C2 3813   0.122   3.419   0.208  0.9598 -0.7626 -0.0999
  248MPD1    C3 3814   0.040   3.531   0.218 -0.6365 -0.3728 -0.1647
  248MPD1    C4 3815   4.635   3.516   0.202  0.1781  0.5453  0.0621
  248MPD1    C5 3816   4.596   3.388   0.184  0.4790  0.1867  0.1272
  248MPD1     H 3817   0.228   3.435   0.223  1.2133 -1.5546 -1.0390
  248MPD1    H1 3818   4.562   3.595   0.218 -0.6955 -0.1914 -0.2679
  248MPD1    H2 3819   4.620   3.185   0.165 -0.0191  0.0433  1.7958
  248MPD1    H3 3820   4.489   3.377   0.174  0.4256  0.1938  0.6568
  248MPD1     N 3821   0.102   3.647   0.274 -0.1684 -0.3149  0.1926
  248MPD1    H5 3822   0.202   3.660   0.276 -0.1141 -1.1241  2.8469
  248MPD1    N1 3823   0.159   3.187   0.201  0.0725 -0.5921  0.6152
  248MPD1    H6 3824   0.255   3.205   0.172  0.5039 -0.8006  1.8969
  248MPD1    H7 3825   0.136   3.092   0.171  0.4244 -0.0085 -1.4750
  249MPD1     C 3826   2.943   1.214  10.869  0.7812  0.3269 -0.0806
  249MPD1    C1 3827   2.859   1.315  10.918 -0.4434  0.5921 -0.1129
  249MPD1    C2 3828   2.736   1.331  10.850 -0.0152  0.5036  0.3855
  249MPD1    C3 3829   2.693   1.247  10.752  0.4342 -0.8598 -0.4463
  249MPD1    C4 3830   2.776   1.138  10.712 -0.5693 -0.4737  0.6273
  249MPD1    C5 3831   2.900   1.133  10.768  0.5222  0.5034 -0.1097
  249MPD1     H 3832   2.668   1.413  10.872 -1.1050 -0.2506 -0.1950
  249MPD1    H1 3833   2.750   1.068  10.633 -2.1988 -0.3753  1.0778
  249MPD1    H2 3834   3.047   1.221  10.898  1.3480  0.2758 -2.1021
  249MPD1    H3 3835   2.966   1.062  10.720 -0.0832 -0.5605  0.6428
  249MPD1     N 3836   2.577   1.283  10.681  0.4891 -0.5692 -0.2993
  249MPD1    H5 3837   2.538   1.370  10.716  0.8419 -0.3346 -0.4953
  249MPD1    N1 3838   2.900   1.419  10.995  0.1088 -0.0894  0.0534
  249MPD1    H6 3839   2.829   1.474  11.043  0.6611  0.2172  0.5146
  249MPD1    H7 3840   2.969   1.387  11.063 -0.2185  0.9958  0.9083
  250MPD2     C 3841   3.442   2.539  12.323  0.2688  0.7563 -0.4679
  250MPD2    C1 3842   3.577   2.506  12.329 -0.3104  0.1061 -0.5911
  250MPD2    C2 3843   3.631   2.413  12.244  0.9583 -0.2362 -0.2861
  250MPD2    C3 3844   3.553   2.361  12.144 -0.0019  0.3545 -0.1399
  250MPD2    C4 3845   3.421   2.397  12.133  0.4974  0.8352  0.5323
  250MPD2    C5 3846   3.366   2.490  12.214 -0.9836 -0.3228 -0.3779
  250MPD2     H 3847   3.731   2.374  12.259  1.9517  2.7420  0.9255
  250MPD2    H1 3848   3.362   2.351  12.055 -1.2196  2.2753  0.9775
  250MPD2    H2 3849   3.390   2.600  12.396  1.5363  1.5972 -0.2724
  250MPD2    H3 3850   3.264   2.523  12.195 -2.0934 -2.4797  1.7935
  250MPD2     N 3851   3.621   2.261  12.068  0.0873 -0.3522 -0.6713
  250MPD2    H5 3852   3.703   2.222  12.112  0.3942  1.9114  0.7723
  250MPD2    N1 3853   3.647   2.568  12.429  0.1715  0.2174  0.2724
  250MPD2    H7 3854   3.601   2.621  12.502 -0.2348  0.5021 -0.1897
  251TMC3    C1 3855   3.862   2.628  12.548  0.6751  0.1599  0.7596
  251TMC3    C2 3856   3.797   2.624  12.669 -1.0075  0.5250  0.6363
  251TMC3    C3 3857   3.866   2.658  12.779  0.2786 -0.3161 -0.1429
  251TMC3    C4 3858   4.001   2.660  12.540  0.0633  0.1695 -0.6663
  251TMC3    C5 3859   4.067   2.687  12.655  0.3599 -0.4733  0.5748
  251TMC3    C6 3860   3.998   2.691  12.779  0.1931 -0.4867 -0.1288
  251TMC3     C 3861   3.793   2.577  12.428  0.3526 -0.1725  0.0239
  251TMC3     O 3862   3.866   2.548  12.330  0.6245 -0.5370  0.2625
  251TMC3     H 3863   3.702   2.572  12.676 -1.0251  0.5496  0.5781
  251TMC3    H1 3864   4.055   2.648  12.447 -0.2423  1.3726 -1.0020
  251TMC3    H2 3865   4.041   2.741  12.865 -0.4087 -3.6643  1.9755
  251TMC3    C7 3866   4.201   2.727  12.654 -0.1465  0.6070 -0.9796
  251TMC3    C8 3867   3.784   2.687  12.900 -1.0042  0.0510 -0.5427
  251TMC3    O1 3868   4.241   2.761  12.543  0.1399  0.1756  0.2217
  251TMC3    O2 3869   3.663   2.688  12.887  0.0774  0.6370  0.1960
  252TMC3    C1 3870   3.357   3.329   9.284  0.1546 -0.2950 -0.7457
  252TMC3    C2 3871   3.429   3.214   9.321  0.2888 -0.7196  1.1185
  252TMC3    C3 3872   3.366   3.123   9.402  0.4646  0.5174 -0.0401
  252TMC3    C4 3873   3.227   3.354   9.323  0.2767 -0.0339 -0.1881
  252TMC3    C5 3874   3.181   3.274   9.420 -0.0317  0.2769 -0.4581
  252TMC3    C6 3875   3.245   3.156   9.462 -0.3887 -0.3746  0.1646
  252TMC3     C 3876   3.401   3.411   9.169 -0.1112 -0.6903  0.5970
  252TMC3     O 3877   3.323   3.496   9.122  0.0387 -0.6365  0.5796
  252TMC3     H 3878   3.523   3.193   9.273 -0.5477 -1.5675 -0.1462
  252TMC3    H1 3879   3.188   3.453   9.308  0.1228 -0.3416 -1.8424
  252TMC3    H2 3880   3.191   3.083   9.520  0.5646 -1.8710 -0.8547
  252TMC3    C7 3881   3.065   3.314   9.505 -0.3136  0.6855 -0.6407
  252TMC3    C8 3882   3.447   3.020   9.469  0.8851 -0.5432  0.0199
  252TMC3    O1 3883   2.982   3.379   9.442 -0.4289  0.4720  0.5539
  252TMC3    O2 3884   3.385   2.926   9.521  0.0364 -0.4343  0.7454
  253MPD2     C 3885   0.305   2.855  15.281  0.2218 -0.9083 -0.8335
  253MPD2    C1 3886   0.181   2.805  15.283 -0.9395  0.5521 -0.0934
  253MPD2    C2 3887   0.132   2.745  15.394  0.6416 -0.3400  0.0398
  253MPD2    C3 3888   0.209   2.729  15.505 -0.1632  0.0354  0.0219
  253MPD2    C4 3889   0.334   2.779  15.505  0.4069  0.0491  0.6560
  253MPD2    C5 3890   0.379   2.848  15.399  0.1005 -0.1422  1.1780
  253MPD2     H 3891   0.033   2.699  15.396  1.3315 -1.7154  2.7458
  253MPD2    H1 3892   0.386   2.771  15.600  1.0656  0.4206  0.3254
  253MPD2    H2 3893   0.340   2.903  15.190 -0.9044 -0.3732 -0.9820
  253MPD2    H3 3894   0.474   2.898  15.406 -0.2781  0.6810  0.4209
  253MPD2     N 3895   0.172   2.660  15.621  0.2516  0.5821 -0.1663
  253MPD2    H5 3896   0.238   2.643  15.696  0.0177 -0.0846 -0.1114
  253MPD2    N1 3897   0.088   2.823  15.178  0.1703 -0.1974 -0.2766
  253MPD2    H7 3898   4.732   2.783  15.196 -0.2269  0.1776 -1.4624
  254TMC3    C1 3899   0.006   2.617  15.803 -0.1788  0.7414 -0.3297
  254TMC3    C2 3900   4.622   2.667  15.851 -0.1103 -0.1181  0.3630
  254TMC3    C3 3901   4.607   2.684  15.988 -0.1591 -0.2696 -0.2155
  254TMC3    C4 3902   0.099   2.570  15.895 -0.9426 -0.0980  0.1416
  254TMC3    C5 3903   0.076   2.600  16.030  0.8922 -0.1857 -0.5604
  254TMC3    C6 3904   4.696   2.652  16.079  0.1454  0.4864 -0.0955
  254TMC3     C 3905   0.037   2.643  15.666 -0.0262 -0.3931 -0.6828
  254TMC3     O 3906   4.674   2.684  15.600 -0.2691  0.5700 -0.9719
  254TMC3     H 3907   4.553   2.705  15.778  0.5057 -0.1852 -0.2522
  254TMC3    H1 3908   0.182   2.506  15.864 -2.1380 -1.1875 -0.8007
  254TMC3    H2 3909   4.678   2.682  16.181  1.5553 -0.2276  0.3569
  254TMC3    C7 3910   0.169   2.561  16.131 -0.2501  0.2816  0.0687
  254TMC3    C8 3911   4.474   2.721  16.028  0.0361  0.4664 -0.4957
  254TMC3    O1 3912   0.123   2.541  16.241 -0.4406  0.7210  0.4981
  254TMC3    O2 3913   4.441   2.697  16.143 -0.6815 -0.4135 -0.1156
  255MPD2     C 3914   4.023   0.483   9.734 -0.3948  0.5702  0.1015
  255MPD2    C1 3915   3.921   0.442   9.646 -0.0650  0.2183 -0.1294
  255MPD2    C2 3916   3.955   0.377   9.527 -0.2059 -0.1351  0.0436
  255MPD2    C3 3917   4.094   0.366   9.494  0.0437  0.4206 -0.0963
  255MPD2    C4 3918   4.190   0.422   9.582 -0.6647  0.2899 -0.1295
  255MPD2    C5 3919   4.157   0.475   9.703 -0.1881 -0.1558 -0.8287
  255MPD2     H 3920   3.887   0.341   9.450  0.2325 -1.5732  0.3405
  255MPD2    H1 3921   4.298   0.412   9.572 -0.6091  1.1834 -0.4523
  255MPD2    H2 3922   3.991   0.515   9.832 -0.4402 -0.2543  0.3552
  255MPD2    H3 3923   4.227   0.515   9.775  1.0393  2.4956 -3.4878
  255MPD2     N 3924   4.124   0.303   9.369 -0.8679  0.0691  0.2398
  255MPD2    H5 3925   4.051   0.261   9.312 -1.0514 -1.7377  1.8010
  255MPD2    N1 3926   3.786   0.460   9.683 -0.6087  0.1367  0.6137
  255MPD2    H7 3927   3.775   0.503   9.775 -3.4370  0.3643  0.1899
  256TMC3    C1 3928   3.565   0.488   9.675  0.6850 -0.0038 -0.0521
  256TMC3    C2 3929   3.568   0.624   9.680  0.4875  0.1539 -0.2361
  256TMC3    C3 3930   3.454   0.693   9.720 -0.1173 -0.4972  0.2865
  256TMC3    C4 3931   3.448   0.420   9.683 -0.4423  0.5900  0.3890
  256TMC3    C5 3932   3.339   0.485   9.737 -0.1039 -0.5054 -0.9535
  256TMC3    C6 3933   3.341   0.624   9.751 -0.2587 -1.1416  0.7144
  256TMC3     C 3934   3.675   0.420   9.618  0.5474 -0.5517 -0.4254
  256TMC3     O 3935   3.647   0.367   9.512  0.2819 -1.1892  0.0184
  256TMC3     H 3936   3.660   0.679   9.694  1.9059 -2.6518  1.4256
  256TMC3    H1 3937   3.445   0.312   9.681  0.5336  0.5432  1.1364
  256TMC3    H2 3938   3.246   0.673   9.770  0.8811  0.2338  2.9032
  256TMC3    C7 3939   3.213   0.424   9.712 -0.5075  0.2189 -0.3997
  256TMC3    C8 3940   3.439   0.838   9.702 -0.1477  0.0384 -0.3818
  256TMC3    O1 3941   3.224   0.363   9.606  0.0260 -0.7580  0.5873
  256TMC3    O2 3942   3.330   0.890   9.715 -0.4810  0.1582 -0.6710
  257MPD2     C 3943   2.314   2.380  13.011 -0.2032 -0.2709 -1.1687
  257MPD2    C1 3944   2.285   2.279  12.920 -0.1292  0.9438 -0.0285
  257MPD2    C2 3945   2.273   2.150  12.957 -0.1523 -0.5035  0.5098
  257MPD2    C3 3946   2.303   2.116  13.092 -0.2206 -0.6209  0.0027
  257MPD2    C4 3947   2.337   2.220  13.183  0.1577  0.7435  0.3022
  257MPD2    C5 3948   2.347   2.347  13.140 -0.3095  0.2495 -0.3645
  257MPD2     H 3949   2.257   2.071  12.884  1.0347  0.2880 -0.6044
  257MPD2    H1 3950   2.367   2.199  13.285  0.3060  0.2963  0.1676
  257MPD2    H2 3951   2.315   2.485  12.984 -0.6560 -0.0792 -0.4464
  257MPD2    H3 3952   2.370   2.426  13.210 -0.6928 -0.8712  1.0335
  257MPD2     N 3953   2.301   1.977  13.126 -0.0368 -0.2665 -0.5038
  257MPD2    H5 3954   2.280   1.906  13.056  0.9543 -0.0327 -1.0343
  257MPD2    N1 3955   2.250   2.323  12.790  0.7058  0.0675  0.0359
  257MPD2    H7 3956   2.265   2.423  12.780 -0.0750 -0.0637 -2.5047
  258TMC3    C1 3957   2.312   1.785  13.252  0.1134  0.3244 -0.1921
  258TMC3    C2 3958   2.201   1.732  13.193  0.0074 -0.1892  0.2743
  258TMC3    C3 3959   2.172   1.606  13.230 -0.7140  0.2710  0.6740
  258TMC3    C4 3960   2.395   1.716  13.326  0.5446  0.2196 -0.6392
  258TMC3    C5 3961   2.352   1.590  13.376 -0.0328  0.5525 -0.8134
  258TMC3    C6 3962   2.239   1.536  13.326 -1.1740  0.5549  0.2502
  258TMC3     C 3963   2.342   1.924  13.243  0.2809  0.4261 -0.2936
  258TMC3     O 3964   2.372   1.986  13.345 -0.4769  0.2598  0.3658
  258TMC3     H 3965   2.134   1.787  13.128  1.5067  1.0992 -0.1637
  258TMC3    H1 3966   2.475   1.768  13.377 -1.0612 -0.0525  2.1832
  258TMC3    H2 3967   2.196   1.445  13.365 -1.3328  0.6801  0.3648
  258TMC3    C7 3968   2.382   1.555  13.516  0.0290 -0.4676 -0.6606
  258TMC3    C8 3969   2.081   1.519  13.157  0.2449 -0.3967 -0.1155
  258TMC3    O1 3970   2.289   1.513  13.586  0.0301  0.1947  0.0459
  258TMC3    O2 3971   2.051   1.412  13.195 -0.3854  0.2709  0.1112
  259MPD2     C 3972   1.340   4.600   0.535 -0.5058  0.0340  0.3989
  259MPD2    C1 3973   1.319   4.481   0.477 -0.4819 -0.4677  1.0675
  259MPD2    C2 3974   1.242   4.468   0.363  0.1330  0.0917 -0.1335
  259MPD2    C3 3975   1.187   4.573   0.302  0.6529 -0.2837 -0.0188
  259MPD2    C4 3976   1.203   4.695   0.366  0.1539 -0.0458  0.0350
  259MPD2    C5 3977   1.277   4.705   0.480 -0.0991 -0.2531  0.2219
  259MPD2     H 3978   1.223   4.370   0.322 -2.6483  0.1944  0.9078
  259MPD2    H1 3979   1.166   0.055   0.332 -0.1822  0.6008  2.1835
  259MPD2    H2 3980   1.394   4.609   0.629 -1.2708 -0.6114  0.9011
  259MPD2    H3 3981   1.300   0.070   0.514  1.5009 -0.6173  0.2100
  259MPD2     N 3982   1.118   4.549   0.181  0.7035 -0.0626  0.3737
  259MPD2    H5 3983   1.108   4.452   0.151 -3.8293  0.4869  0.1597
  259MPD2    N1 3984   1.373   4.371   0.546 -0.5969  0.8577  0.3578
  259MPD2    H7 3985   1.409   4.399   0.637  0.1016  0.2048  0.2838
  260TMC3    C1 3986   0.981   4.590  17.733  0.1966  0.8853 -0.2947
  260TMC3    C2 3987   1.031   4.639  17.618  0.0271 -0.0068  0.0885
  260TMC3    C3 3988   1.051   4.558  17.510 -0.8412  0.1197 -0.3954
  260TMC3    C4 3989   0.942   4.459  17.736  0.2303 -0.5662 -0.0526
  260TMC3    C5 3990   0.953   4.377  17.626  0.4988  0.4706 -0.5723
  260TMC3    C6 3991   1.004   4.427  17.507  0.4079 -0.3012  0.8227
  260TMC3     C 3992   1.057   4.640   0.104  0.4197  0.2721 -0.4414
  260TMC3     O 3993   1.069   0.027   0.121 -0.4531  0.7194 -0.7764
  260TMC3     H 3994   1.060   0.009  17.614 -0.2512  0.1293  1.6351
  260TMC3    H1 3995   0.896   4.422   0.086 -0.1402 -3.7280 -1.5237
  260TMC3    H2 3996   1.025   4.361  17.423  0.7885  1.1406 -0.2072
  260TMC3    C7 3997   1.006   4.243  17.657 -0.0743 -0.2638  0.6411
  260TMC3    C8 3998   1.188   4.565  17.476  0.3191  0.1729  0.3084
  260TMC3    O1 3999   1.067   4.197  17.563  0.3339  0.1130 -0.3982
  260TMC3    O2 4000   1.230   4.676  17.443 -0.4764 -0.2343 -0.1901
  261MPD2     C 4001   3.329   1.727  11.447 -0.1331  0.0493 -0.5941
  261MPD2    C1 4002   3.359   1.856  11.487 -0.2387  0.0094 -0.0739
  261MPD2    C2 4003   3.326   1.967  11.410 -0.3334  0.2728 -0.2026
  261MPD2    C3 4004   3.274   1.948  11.277  0.5756 -0.5632  0.4397
  261MPD2    C4 4005   3.264   1.813  11.235 -0.3870 -0.5431 -0.8169
  261MPD2    C5 4006   3.290   1.708  11.320 -0.3350  0.4134  0.5106
  261MPD2     H 4007   3.338   2.067  11.449  1.3807  0.1881 -0.5034
  261MPD2    H1 4008   3.239   1.791  11.132 -0.5668  0.0302 -0.8996
  261MPD2    H2 4009   3.339   1.643  11.516 -0.1923  0.2988 -0.2849
  261MPD2    H3 4010   3.271   1.606  11.286 -3.4920  0.9912  0.5106
  261MPD2     N 4011   3.256   2.053  11.191 -0.0707  0.3445 -0.4972
  261MPD2    H5 4012   3.289   2.140  11.232 -0.3054 -0.2266  0.8854
  261MPD2    N1 4013   3.420   1.881  11.611 -0.3463 -0.4996  0.2280
  261MPD2    H7 4014   3.436   1.981  11.623 -1.2603 -0.2665 -0.4917
  262TMC3    C1 4015   3.220   2.180  11.007  0.0316 -0.0872 -1.6639
  262TMC3    C2 4016   3.123   2.266  11.032  0.1227 -0.7911 -0.0913
  262TMC3    C3 4017   3.148   2.395  11.041  0.5089 -0.2940  0.0399
  262TMC3    C4 4018   3.345   2.226  11.042 -0.8271 -0.0252 -0.3119
  262TMC3    C5 4019   3.368   2.356  11.040 -0.6811  0.1797 -0.8062
  262TMC3    C6 4020   3.270   2.446  11.034  0.3150  0.5118  0.2804
  262TMC3     C 4021   3.193   2.053  11.064 -0.2754  0.7198  0.0010
  262TMC3     O 4022   3.138   1.964  11.000 -0.2495 -0.0740  0.4805
  262TMC3     H 4023   3.020   2.233  11.038 -0.1745  0.8019  3.2434
  262TMC3    H1 4024   3.433   2.163  11.042 -0.9572 -0.2014 -1.7810
  262TMC3    H2 4025   3.288   2.552  11.025  2.2484  0.2778  1.4374
  262TMC3    C7 4026   3.508   2.402  11.087 -0.5706  0.6777 -0.6683
  262TMC3    C8 4027   3.035   2.485  11.031 -0.2604  0.4044 -0.8125
  262TMC3    O1 4028   3.571   2.313  11.139  0.3187 -0.7313  0.0802
  262TMC3    O2 4029   2.924   2.450  10.992 -0.5164 -0.2155 -0.1360
  263MPD2     C 4030   3.926   1.307  11.190  0.5580  0.1219 -0.6860
  263MPD2    C1 4031   4.001   1.403  11.253  0.2895 -0.4908  0.6058
  263MPD2    C2 4032   3.984   1.536  11.208 -1.0102  0.3305  0.6374
  263MPD2    C3 4033   3.916   1.569  11.094  0.4621  0.5166  0.1338
  263MPD2    C4 4034   3.842   1.462  11.038 -0.1908  0.1314  0.0729
  263MPD2    C5 4035   3.848   1.338  11.092 -0.0011 -0.1057  0.1651
  263MPD2     H 4036   4.048   1.616  11.241 -1.3015  0.4708  0.8663
  263MPD2    H1 4037   3.779   1.489  10.954 -1.9291 -0.7563  1.0961
  263MPD2    H2 4038   3.945   1.201  11.207 -0.5605  0.2043  1.0372
  263MPD2    H3 4039   3.786   1.263  11.044 -0.8284  0.6807  0.0110
  263MPD2     N 4040   3.927   1.697  11.034  0.0968 -0.3260 -0.2425
  263MPD2    H5 4041   3.971   1.770  11.089 -1.8026 -0.7800  1.9065
  263MPD2    N1 4042   4.098   1.361  11.351  0.0798  0.7379 -0.3791
  263MPD2    H7 4043   4.117   1.262  11.361  0.0692  0.7835  0.0721
  264TMC3    C1 4044   3.938   1.859  10.860  0.1940 -0.1348 -0.0202
  264TMC3    C2 4045   3.888   1.969  10.926 -0.1525 -0.6610  0.7124
  264TMC3    C3 4046   3.865   2.085  10.857  0.6384 -0.6752  0.2389
  264TMC3    C4 4047   3.982   1.861  10.732 -0.1113  0.7085  0.1848
  264TMC3    C5 4048   3.960   1.978  10.664 -0.8863  0.0458  0.3843
  264TMC3    C6 4049   3.903   2.091  10.727 -0.1178 -0.2183 -0.2051
  264TMC3     C 4050   3.899   1.726  10.903  0.3398  0.3903  0.1664
  264TMC3     O 4051   3.876   1.652  10.807 -0.0936 -0.4226 -0.2868
  264TMC3     H 4052   3.849   1.954  11.027  0.3666 -1.7907  0.7460
  264TMC3    H1 4053   4.018   1.776  10.675 -0.8421  0.9800 -0.6960
  264TMC3    H2 4054   3.887   2.171  10.657 -1.8592 -1.4450 -1.2126
  264TMC3    C7 4055   4.072   2.023  10.585  0.2107  0.5613 -0.0429
  264TMC3    C8 4056   3.910   2.206  10.925 -0.0502 -0.1516 -0.1847
  264TMC3    O1 4057   4.124   1.935  10.515 -0.2200 -0.3313 -0.1181
  264TMC3    O2 4058   3.947   2.294  10.850  0.1899 -0.8674 -0.1773
  265MPD2     C 4059   1.077   1.870  15.519 -0.6426 -0.4713 -0.7921
  265MPD2    C1 4060   1.149   1.966  15.458 -0.3079  0.7805  0.6138
  265MPD2    C2 4061   1.195   1.950  15.331 -0.6830 -0.2928  0.0992
  265MPD2    C3 4062   1.172   1.830  15.267  0.9006 -0.5438 -0.3902
  265MPD2    C4 4063   1.100   1.731  15.339  0.3643  0.3383 -0.4811
  265MPD2    C5 4064   1.044   1.752  15.463 -0.0955 -0.0333 -0.0461
  265MPD2     H 4065   1.250   2.031  15.285 -0.7347  0.8821  2.1112
  265MPD2    H1 4066   1.076   1.643  15.280 -0.6087  0.2949 -0.0184
  265MPD2    H2 4067   1.039   1.887  15.619 -0.7755  0.0024 -0.9215
  265MPD2    H3 4068   0.983   1.683  15.521  1.5469 -0.5003  1.1117
  265MPD2     N 4069   1.225   1.797  15.145 -0.6040 -0.3162  0.5312
  265MPD2    H5 4070   1.204   1.701  15.118 -0.6325  0.0187 -0.6115
  265MPD2    N1 4071   1.142   2.099  15.503  0.3269  0.0385  0.4792
  265MPD2    H7 4072   1.179   2.162  15.432 -0.5703 -0.4116 -0.3868
  266TMC3    C1 4073   1.124   2.289  15.621 -0.6540  0.3692  0.9814
  266TMC3    C2 4074   1.053   2.375  15.704 -0.7519  0.6972  0.7277
  266TMC3    C3 4075   1.084   2.505  15.685  0.1727 -0.8851 -0.7625
  266TMC3    C4 4076   1.220   2.334  15.531  0.5435 -0.1138  0.7521
  266TMC3    C5 4077   1.227   2.465  15.508 -1.0825 -0.3525 -0.0875
  266TMC3    C6 4078   1.164   2.550  15.581  0.7736  0.0191 -0.1548
  266TMC3     C 4079   1.091   2.148  15.623 -1.0307 -0.1371 -0.2534
  266TMC3     O 4080   1.029   2.095  15.712  0.6665 -0.5016  0.4228
  266TMC3     H 4081   0.979   2.342  15.775 -0.7255 -2.0727 -0.5082
  266TMC3    H1 4082   1.291   2.268  15.483 -0.1367 -1.6152  1.8232
  266TMC3    H2 4083   1.180   2.653  15.550 -0.6736  0.2318 -0.1962
  266TMC3    C7 4084   1.310   2.516  15.399  0.4496 -0.2564  0.2918
  266TMC3    C8 4085   1.039   2.603  15.781 -0.4595 -0.6305  0.8039
  266TMC3    O1 4086   1.429   2.511  15.424 -0.3515  0.5629  0.2780
  266TMC3    O2 4087   0.987   2.559  15.886 -0.7193  1.0911 -0.0850
  267MPD2     C 4088   3.562   4.413   0.232 -0.2908 -0.2300 -0.4613
  267MPD2    C1 4089   3.539   4.508   0.131  0.0947  0.0037  0.2095
  267MPD2    C2 4090   3.423   4.489   0.054 -0.2335 -0.9172 -0.6223
  267MPD2    C3 4091   3.342   4.376   0.070 -0.5896  0.2112  1.5077
  267MPD2    C4 4092   3.391   4.278   0.153  0.0908  0.4966  0.1447
  267MPD2    C5 4093   3.494   4.296   0.239 -0.1849 -0.2004 -0.1846
  267MPD2     H 4094   3.397   4.560  17.718  2.1403  0.6702  0.0632
  267MPD2    H1 4095   3.341   4.183   0.171  1.0044 -0.0349 -0.1578
  267MPD2    H2 4096   3.651   4.417   0.294  0.9772 -0.4184 -2.2759
  267MPD2    H3 4097   3.534   4.225   0.310  1.5473  1.3280  0.3745
  267MPD2     N 4098   3.224   4.348   0.007  0.2814 -0.2095  0.0822
  267MPD2    H5 4099   3.175   4.260   0.016  1.7033 -0.8104  2.1442
  267MPD2    N1 4100   3.634   4.612   0.122 -0.0590 -0.1725 -0.3607
  267MPD2    H7 4101   3.718   4.615   0.178 -0.5376 -1.6211  0.4386
  268TMC3    C1 4102   3.723   0.080   0.062 -0.7487 -0.1048  0.2993
  268TMC3    C2 4103   3.786   0.132  17.692  0.6087 -0.0901  0.7637
  268TMC3    C3 4104   3.906   0.196  17.704 -0.9349 -0.4697 -0.3526
  268TMC3    C4 4105   3.777   0.086   0.187  0.1088  0.0607 -0.4956
  268TMC3    C5 4106   3.902   0.144   0.194  0.3791  0.2076  0.6147
  268TMC3    C6 4107   3.968   0.200   0.091  1.2272 -0.0541 -0.9157
  268TMC3     C 4108   3.627   4.711   0.032  0.1134  0.1718  0.1343
  268TMC3     O 4109   3.553   4.733  17.681  0.2920  0.0562 -0.8469
  268TMC3     H 4110   3.750   0.110  17.592 -1.2741 -0.2929  1.4958
  268TMC3    H1 4111   3.735   0.034   0.272  1.8782  0.8157  0.8364
  268TMC3    H2 4112   4.070   0.236   0.096  1.0051  0.8176 -2.8121
  268TMC3    C7 4113   3.964   0.137   0.325 -0.1318  0.1029  0.1776
  268TMC3    C8 4114   3.987   0.241  17.594 -0.1903  0.2323  0.4133
  268TMC3    O1 4115   3.938   0.053   0.410 -0.4363 -0.0838  0.6358
  268TMC3    O2 4116   4.093   0.294  17.615 -0.3801  0.0066 -0.0232
  269MPD2     C 4117   3.981   2.964  15.412  0.1020 -0.0876 -0.5259
  269MPD2    C1 4118   3.852   2.939  15.454  1.1932 -0.2681 -0.4305
  269MPD2    C2 4119   3.758   3.034  15.414 -0.7287  0.0496  0.5012
  269MPD2    C3 4120   3.798   3.152  15.355 -0.2188 -0.3929 -0.1699
  269MPD2    C4 4121   3.930   3.179  15.333 -1.2636  0.2320  0.6363
  269MPD2    C5 4122   4.017   3.074  15.355 -0.3297  0.3732 -0.1944
  269MPD2     H 4123   3.654   3.008  15.431 -0.7321  0.3607  0.9675
  269MPD2    H1 4124   3.968   3.271  15.291 -2.7318  0.2667 -0.6189
  269MPD2    H2 4125   4.054   2.884  15.416  0.0558  0.0226  2.9363
  269MPD2    H3 4126   4.122   3.088  15.331  0.3829 -0.6846  2.2940
  269MPD2     N 4127   3.692   3.243  15.317 -0.4450 -0.7672 -0.5532
  269MPD2    H5 4128   3.598   3.212  15.339 -0.4633 -1.1226 -1.1120
  269MPD2    N1 4129   3.828   2.809  15.505 -0.5808  0.1436 -0.5749
  269MPD2    H7 4130   3.911   2.753  15.522 -1.1471 -0.6352 -0.3689
  270TMC3    C1 4131   3.710   2.626  15.587 -0.9940  0.6670  0.1415
  270TMC3    C2 4132   3.593   2.552  15.578  0.1567 -0.4043  0.5185
  270TMC3    C3 4133   3.597   2.416  15.606  0.4216 -0.0834  0.0151
  270TMC3    C4 4134   3.833   2.570  15.607 -0.6003  0.1645 -0.5114
  270TMC3    C5 4135   3.822   2.434  15.620 -0.8377 -0.0985  0.7573
  270TMC3    C6 4136   3.712   2.351  15.617 -0.2684 -0.2371 -0.2865
  270TMC3     C 4137   3.703   2.759  15.537  0.3146 -0.1059 -0.5754
  270TMC3     O 4138   3.593   2.803  15.517 -0.4855 -0.5491 -0.4223
  270TMC3     H 4139   3.506   2.605  15.541  0.9507 -0.3488 -1.2641
  270TMC3    H1 4140   3.926   2.622  15.626 -1.2417  0.1645  2.6699
  270TMC3    H2 4141   3.716   2.249  15.653 -0.1489 -0.1840 -0.1507
  270TMC3    C7 4142   3.943   2.359  15.604  0.1770  0.2494 -0.6392
  270TMC3    C8 4143   3.483   2.342  15.541  0.2885  0.9416  0.7172
  270TMC3    O1 4144   4.051   2.404  15.633 -0.2485 -0.0118  0.0116
  270TMC3    O2 4145   3.380   2.319  15.606 -1.0644  0.6148 -0.1343
  271MPD2     C 4146   3.132   1.998  13.721  0.4230 -0.2153  0.0847
  271MPD2    C1 4147   3.085   2.053  13.838  0.0175  0.0892 -0.4747
  271MPD2    C2 4148   2.994   2.155  13.833  0.0537  0.5667  0.6951
  271MPD2    C3 4149   2.930   2.187  13.715  0.1481 -0.0229  0.0354
  271MPD2    C4 4150   2.967   2.126  13.598  0.1000  0.0057  0.0963
  271MPD2    C5 4151   3.081   2.048  13.602  0.1541 -0.2741  0.0571
  271MPD2     H 4152   2.956   2.201  13.923  1.6038 -2.0145  2.6785
  271MPD2    H1 4153   2.921   2.164  13.508  0.9593  1.4284  0.2546
  271MPD2    H2 4154   3.211   1.923  13.721  0.7990  0.1790 -1.1305
  271MPD2    H3 4155   3.134   2.003  13.519 -1.2978 -1.7295 -0.0660
  271MPD2     N 4156   2.819   2.277  13.706  0.3573  0.5102 -0.0670
  271MPD2    H5 4157   2.776   2.279  13.614  1.1392  3.6155 -0.3630
  271MPD2    N1 4158   3.140   2.024  13.963  0.3447  0.3949 -0.1457
  271MPD2    H7 4159   3.110   2.086  14.037 -0.8718 -0.6208  0.2248
  272TMC3    C1 4160   3.267   1.918  14.131  0.4693 -0.8988  0.8098
  272TMC3    C2 4161   3.391   1.866  14.161  0.2925 -0.5584 -0.3528
  272TMC3    C3 4162   3.429   1.877  14.293 -0.6204  0.2196  0.5811
  272TMC3    C4 4163   3.196   1.997  14.217  0.1144 -0.0099 -0.4370
  272TMC3    C5 4164   3.235   1.988  14.347  0.0656 -0.1705  0.2632
  272TMC3    C6 4165   3.355   1.932  14.389  0.1389 -0.0921 -0.1306
  272TMC3     C 4166   3.233   1.921  13.988  0.4650 -0.4113 -0.0092
  272TMC3     O 4167   3.300   1.857  13.909  0.2424 -0.4651 -0.0325
  272TMC3     H 4168   3.446   1.795  14.102  0.8214 -2.0758  1.9519
  272TMC3    H1 4169   3.124   2.072  14.187 -1.8569 -0.9301  1.9031
  272TMC3    H2 4170   3.388   1.919  14.491 -0.1278 -1.4628 -0.2212
  272TMC3    C7 4171   3.150   2.054  14.445 -0.0443  0.1922 -0.7095
  272TMC3    C8 4172   3.574   1.854  14.300 -0.5307  1.1472 -0.3564
  272TMC3    O1 4173   3.031   2.049  14.414 -0.2959 -0.1015  0.2040
  272TMC3    O2 4174   3.633   1.894  14.203  0.0933  0.6362  0.1983
  273MPD2     C 4175   0.085   0.175  11.612  0.1463 -0.0871  0.4982
  273MPD2    C1 4176   0.145   0.300  11.615  0.3478  0.2872 -0.0730
  273MPD2    C2 4177   0.167   0.362  11.495 -0.3720  0.7053 -0.0748
  273MPD2    C3 4178   0.122   0.307  11.374 -0.5714  0.3566 -1.0217
  273MPD2    C4 4179   0.060   0.187  11.380  0.3965 -0.0896 -0.0521
  273MPD2    C5 4180   0.039   0.121  11.496  0.6999  0.0889 -0.0225
  273MPD2     H 4181   0.217   0.458  11.480 -1.0142  0.9899 -0.3645
  273MPD2    H1 4182   0.024   0.140  11.289  1.4417 -1.8815  0.4744
  273MPD2    H2 4183   0.074   0.118  11.704  1.0018 -2.6610 -0.9914
  273MPD2    H3 4184   4.726   0.025  11.498  1.6654 -0.5274 -4.5923
  273MPD2     N 4185   0.126   0.382  11.253  0.2277  1.0366  0.7193
  273MPD2    H5 4186   0.057   0.356  11.183 -0.1822 -0.6827  1.7405
  273MPD2    N1 4187   0.178   0.359  11.739 -0.0694  0.4871  0.5434
  273MPD2    H7 4188   0.145   0.315  11.824 -1.0793 -0.0371 -0.1073
  274TMC3    C1 4189   0.184   0.549  11.092 -0.1064 -0.9298 -0.6786
  274TMC3    C2 4190   0.107   0.489  10.995  0.1546 -0.2169  0.3549
  274TMC3    C3 4191   0.050   0.574  10.903 -0.0937  0.2552 -0.1695
  274TMC3    C4 4192   0.207   0.686  11.082  1.3478 -0.8154 -0.8268
  274TMC3    C5 4193   0.151   0.767  10.982 -0.2652 -0.6354 -0.6972
  274TMC3    C6 4194   0.075   0.706  10.889 -0.4940  0.3554  0.2664
  274TMC3     C 4195   0.204   0.486  11.222 -0.3369 -0.5203 -0.2011
  274TMC3     O 4196   0.292   0.541  11.284 -0.6225 -0.2139 -0.0989
  274TMC3     H 4197   0.070   0.388  11.013 -0.7901  0.4593  2.2943
  274TMC3    H1 4198   0.268   0.736  11.157  0.7197 -0.4285 -0.5771
  274TMC3    H2 4199   0.012   0.770  10.829  1.0067  1.8531  0.2809
  274TMC3    C7 4200   0.102   0.887  11.035 -0.5948 -0.0390  0.5308
  274TMC3    C8 4201   4.673   0.530  10.817 -0.4502 -0.1413 -0.2337
  274TMC3    O1 4202   4.716   0.903  11.040  0.4359  0.0919  0.7894
  274TMC3    O2 4203   4.614   0.607  10.738  0.1098  0.4696  0.4076
  275MPD2     C 4204   4.462   3.297  14.325 -0.7782  0.0643  0.4708
  275MPD2    C1 4205   4.356   3.357  14.398 -0.2739 -0.3488 -0.0413
  275MPD2    C2 4206   4.231   3.304  14.383  0.1479 -0.2898 -0.6077
  275MPD2    C3 4207   4.206   3.194  14.295 -0.3466  0.8829  0.2956
  275MPD2    C4 4208   4.313   3.134  14.233 -0.5972 -0.0903 -0.3018
  275MPD2    C5 4209   4.436   3.189  14.243 -0.2074  0.2522  0.2594
  275MPD2     H 4210   4.150   3.351  14.438 -0.2617 -0.9188 -0.6760
  275MPD2    H1 4211   4.300   3.052  14.163  0.2237 -0.3333 -0.1696
  275MPD2    H2 4212   4.566   3.329  14.320 -0.8750  0.5484  1.5759
  275MPD2    H3 4213   4.517   3.140  14.191 -0.3624  0.4421 -0.1637
  275MPD2     N 4214   4.084   3.147  14.264  0.2027  0.0443 -0.4618
  275MPD2    H5 4215   4.073   3.070  14.199  2.8778 -0.2960 -0.4804
  275MPD2    N1 4216   4.368   3.473  14.473  0.0696  0.1371 -0.5321
  275MPD2    H7 4217   4.282   3.504  14.517  0.0612  0.6657 -0.9157
  276TMC3    C1 4218   4.455   3.687  14.548 -0.2042 -0.4578 -0.7587
  276TMC3    C2 4219   4.343   3.707  14.620  0.4434 -0.5247 -0.3284
  276TMC3    C3 4220   4.339   3.817  14.703  0.3267 -0.4692 -0.2934
  276TMC3    C4 4221   4.555   3.779  14.534 -0.4850 -0.6348  0.7292
  276TMC3    C5 4222   4.547   3.891  14.615 -0.7811 -0.2673  0.0275
  276TMC3    C6 4223   4.445   3.904  14.701  0.2814 -0.0380  0.4966
  276TMC3     C 4224   4.481   3.546  14.501  0.0426  1.0128  0.9033
  276TMC3     O 4225   4.595   3.521  14.473  0.2913  0.2933  0.0975
  276TMC3     H 4226   4.259   3.640  14.622 -0.6722  0.9022  0.6309
  276TMC3    H1 4227   4.653   3.753  14.497 -0.7841  0.9083 -1.1294
  276TMC3    H2 4228   4.429   3.991  14.764  3.7285  0.7027  0.3026
  276TMC3    C7 4229   4.663   3.955  14.666  0.7159  0.2110  0.2255
  276TMC3    C8 4230   4.274   3.789  14.829 -0.4740 -0.6702 -0.3579
  276TMC3    O1 4231   4.664   3.990  14.783  0.7340  0.1051  0.3367
  276TMC3    O2 4232   4.164   3.844  14.843  0.2985 -0.1995  0.6847
  277MPD2     C 4233   1.102   2.335  13.330 -0.0806  0.0123 -0.4748
  277MPD2    C1 4234   0.969   2.340  13.294  0.6627  0.4958  1.0983
  277MPD2    C2 4235   0.878   2.287  13.384  0.6553 -0.0926 -1.2264
  277MPD2    C3 4236   0.917   2.236  13.512  0.3739  0.1122 -0.7128
  277MPD2    C4 4237   1.053   2.223  13.536  0.0031  0.5376  0.1215
  277MPD2    C5 4238   1.144   2.273  13.443  0.1985  0.2624  0.0364
  277MPD2     H 4239   0.772   2.286  13.361  0.3215  2.9777  0.1590
  277MPD2    H1 4240   1.098   2.185  13.627  0.5208 -1.8178 -1.0978
  277MPD2    H2 4241   1.182   2.366  13.263  0.3984 -1.8676 -0.7681
  277MPD2    H3 4242   1.248   2.252  13.461 -0.0114  0.7394  1.8313
  277MPD2     N 4243   0.819   2.203  13.610 -0.0215 -0.5392  0.6101
  277MPD2    H5 4244   0.722   2.198  13.581  0.5595 -0.7617 -1.2980
  277MPD2    N1 4245   0.935   2.420  13.185 -0.5764  0.8808  0.3014
  277MPD2    H7 4246   1.007   2.470  13.133 -0.6318 -1.1235 -1.7226
  278TMC3    C1 4247   0.731   2.081  13.793 -0.8914  0.7882 -0.8388
  278TMC3    C2 4248   0.663   1.996  13.717 -0.4030  0.2446 -0.4663
  278TMC3    C3 4249   0.546   1.952  13.772 -0.0359  0.5530 -0.1099
  278TMC3    C4 4250   0.690   2.132  13.912 -0.0433 -0.0864 -0.4063
  278TMC3    C5 4251   0.570   2.089  13.957 -0.1280  0.4475  0.9571
  278TMC3    C6 4252   0.489   2.013  13.878 -0.4872  0.2015 -0.2738
  278TMC3     C 4253   0.844   2.156  13.734  0.7138 -0.0726  0.2970
  278TMC3     O 4254   0.942   2.167  13.804 -0.1647 -0.3593 -0.1583
  278TMC3     H 4255   0.709   1.955  13.628  2.7417  1.6757  0.4916
  278TMC3    H1 4256   0.759   2.195  13.967  0.8342  1.3899 -3.2239
  278TMC3    H2 4257   0.398   1.972  13.920 -0.3503  0.9322  0.7540
  278TMC3    C7 4258   0.524   2.141  14.085 -0.1498  0.5426  0.7493
  278TMC3    C8 4259   0.447   1.925  13.665 -0.0368 -0.5293 -0.0682
  278TMC3    O1 4260   0.603   2.209  14.149  0.1794 -0.0011 -0.5052
  278TMC3    O2 4261   0.333   1.971  13.669  0.4451  0.1655  0.1807
  279MPD2     C 4262   0.964   2.603   0.466 -0.1243 -1.3069  0.6825
  279MPD2    C1 4263   0.878   2.637   0.370  0.2731 -0.2802  1.7150
  279MPD2    C2 4264   0.915   2.632   0.236 -0.0027 -0.1440  0.4374
  279MPD2    C3 4265   1.047   2.590   0.204 -0.3634  0.0651 -0.3071
  279MPD2    C4 4266   1.129   2.545   0.296 -1.7573  0.3031 -0.3783
  279MPD2    C5 4267   1.090   2.563   0.428 -0.7031  0.3232  1.0954
  279MPD2     H 4268   0.839   2.650   0.161 -1.4913 -0.6368  1.8193
  279MPD2    H1 4269   1.223   2.498   0.270 -0.6535  1.1633  2.0424
  279MPD2    H2 4270   0.935   2.607   0.571  0.8010 -1.8574  0.9630
  279MPD2    H3 4271   1.170   2.548   0.501 -0.4462 -3.4814  0.0114
  279MPD2     N 4272   1.083   2.577   0.066 -0.3768 -0.0026 -0.2287
  279MPD2    H5 4273   1.159   2.515   0.039 -1.4540 -1.7445  0.7624
  279MPD2    N1 4274   0.748   2.672   0.410 -0.3260  0.0962  0.4351
  279MPD2    H7 4275   0.726   2.663   0.509  1.0209  1.5790  0.8666
  280TMC3    C1 4276   0.525   2.747   0.391 -0.4008  0.2385 -0.4170
  280TMC3    C2 4277   0.459   2.632   0.429  0.7864 -0.1006 -0.2121
  280TMC3    C3 4278   0.324   2.614   0.400  0.5881  0.2652  0.3466
  280TMC3    C4 4279   0.449   2.838   0.322  0.3990  0.1272  0.3839
  280TMC3    C5 4280   0.318   2.820   0.290  0.0516  0.1521 -0.2193
  280TMC3    C6 4281   0.249   2.707   0.332  0.1723  0.2569 -0.4150
  280TMC3     C 4282   0.657   2.731   0.326  0.3260 -0.1123  0.5471
  280TMC3     O 4283   0.665   2.778   0.214  0.1998 -0.3064 -0.0522
  280TMC3     H 4284   0.505   2.539   0.459 -1.5576 -1.2690 -0.2690
  280TMC3    H1 4285   0.500   2.927   0.287 -1.0524  0.9814  0.4351
  280TMC3    H2 4286   0.149   2.679   0.300  0.4793 -0.2801 -0.9002
  280TMC3    C7 4287   0.271   2.888   0.164 -0.3253 -0.2527 -0.4022
  280TMC3    C8 4288   0.260   2.486   0.427 -0.2656  0.7260 -0.0830
  280TMC3    O1 4289   0.149   2.908   0.150 -0.5449 -0.2464 -0.0210
  280TMC3    O2 4290   0.161   2.450   0.360  0.0136  0.4094  0.2932
  281TMC3    C1 4291   4.698   2.493  13.397 -0.3652 -0.0243  0.2964
  281TMC3    C2 4292   4.717   2.548  13.278 -0.5133  0.0313 -0.4571
  281TMC3    C3 4293   0.059   2.489  13.186  0.4658  0.4574  0.3954
  281TMC3    C4 4294   4.731   2.358  13.418  0.1707 -0.4410 -0.0151
  281TMC3    C5 4295   0.068   2.293  13.323  0.2534 -0.1076  0.1969
  281TMC3    C6 4296   0.106   2.360  13.212  0.1856 -0.3132  0.1425
  281TMC3     C 4297   4.609   2.555  13.499  0.0168 -0.0891  0.2146
  281TMC3     O 4298   4.557   2.473  13.577  0.0522 -0.2452  0.1233
  281TMC3     H 4299   4.679   2.648  13.263 -0.1603  0.3819  0.9417
  281TMC3    H1 4300   4.711   2.303  13.509  0.2470 -1.9411 -0.9025
  281TMC3    H2 4301   0.173   2.311  13.142 -2.0709 -2.2490 -0.6672
  281TMC3    C7 4302   0.059   2.148  13.320  0.0499  0.2226  0.1612
  281TMC3    C8 4303   0.025   2.512  13.049  0.0908  0.3807 -0.3846
  281TMC3    O1 4304   0.150   2.081  13.274  0.1374 -0.2121 -0.2204
  281TMC3    O2 4305   0.103   2.470  12.960 -0.1211  0.5386  0.2128
  282MPD2     C 4306   1.220   3.835  14.573 -0.0573 -0.1223 -0.1463
  282MPD2    C1 4307   1.099   3.848  14.635 -0.2802 -0.1141  0.3041
  282MPD2    C2 4308   0.989   3.831  14.560 -0.4520 -0.1833  0.0927
  282MPD2    C3 4309   0.995   3.778  14.430 -0.1336  0.0856 -0.4938
  282MPD2    C4 4310   1.118   3.757  14.375  0.4860 -0.1156 -0.0799
  282MPD2    C5 4311   1.232   3.787  14.447  0.2212 -0.5674  0.0063
  282MPD2     H 4312   0.898   3.853  14.614  0.3942  0.4777  1.2493
  282MPD2    H1 4313   1.133   3.705  14.281 -1.1567  1.0312 -0.9882
  282MPD2    H2 4314   1.310   3.868  14.623  0.0947  3.8867 -3.0973
  282MPD2    H3 4315   1.330   3.787  14.400 -1.0366  2.7909 -2.6182
  282MPD2     N 4316   0.876   3.742  14.365 -1.0399  0.3906 -0.3343
  282MPD2    H5 4317   0.787   3.760  14.411 -1.0318 -3.1455  1.0551
  282MPD2    N1 4318   1.089   3.902  14.764 -0.4732  0.8485  0.1675
  282MPD2    H7 4319   0.997   3.921  14.801 -0.9981 -1.6881  0.1883
  283TMC3    C1 4320   1.138   4.028  14.956 -0.8557 -0.5293 -0.0137
  283TMC3    C2 4321   1.201   4.138  14.993  0.1730 -0.2491  0.5370
  283TMC3    C3 4322   1.161   4.193  15.107  0.2590  0.2295  0.3440
  283TMC3    C4 4323   1.028   3.983  15.026  0.2225 -0.0412 -0.1615
  283TMC3    C5 4324   0.989   4.045  15.143  0.0005  0.5979  0.0418
  283TMC3    C6 4325   1.056   4.159  15.181  0.0938 -0.1552  1.0174
  283TMC3     C 4326   1.191   3.952  14.839  0.3825  0.8385  0.4382
  283TMC3     O 4327   1.312   3.938  14.840  0.1272  0.6067  0.2676
  283TMC3     H 4328   1.296   4.159  14.945 -1.7474  0.9240 -2.7853
  283TMC3    H1 4329   0.985   3.886  15.005  1.1652 -0.7191  1.1049
  283TMC3    H2 4330   1.011   4.225  15.255 -1.2249 -0.9742  0.9344
  283TMC3    C7 4331   0.889   3.984  15.230  0.1371 -0.3247  0.8170
  283TMC3    C8 4332   1.248   4.300  15.143  0.2494 -1.6898 -0.1390
  283TMC3    O1 4333   0.873   4.047  15.331 -0.4410 -0.0164  0.1608
  283TMC3    O2 4334   1.307   4.350  15.052 -0.2245  0.0657  0.1838
  284MPD2     C 4335   4.319   3.309  12.021  0.1128  0.2572  0.1152
  284MPD2    C1 4336   4.311   3.270  11.889  0.2513 -0.3970 -0.2029
  284MPD2    C2 4337   4.277   3.141  11.866 -0.0720  0.3176 -0.5110
  284MPD2    C3 4338   4.228   3.060  11.964 -0.0400 -0.0348 -0.4864
  284MPD2    C4 4339   4.243   3.092  12.097  0.2699  0.0874 -0.1677
  284MPD2    C5 4340   4.304   3.214  12.120 -0.1331 -0.2819  0.0708
  284MPD2     H 4341   4.267   3.103  11.765  1.1519 -1.7218  0.1272
  284MPD2    H1 4342   4.201   3.031  12.176 -1.5298  0.0345 -1.1626
  284MPD2    H2 4343   4.338   3.411  12.053  0.2815  0.1418  0.3841
  284MPD2    H3 4344   4.309   3.251  12.222 -1.2915  0.5800 -0.1800
  284MPD2     N 4345   4.168   2.935  11.924 -0.4536 -0.5138  0.1863
  284MPD2    H5 4346   4.165   2.916  11.825 -0.7989  3.2568 -0.5577
  284MPD2    N1 4347   4.350   3.353  11.780 -0.2777 -0.2012  0.1998
  284MPD2    H7 4348   4.350   3.307  11.690 -0.2731 -2.6807  1.4364
  285TMC3    C1 4349   4.446   3.530  11.660  0.1816  0.5114 -0.2036
  285TMC3    C2 4350   4.433   3.454  11.549  0.1404  0.1085 -0.3187
  285TMC3    C3 4351   4.519   3.470  11.448 -0.1618  0.0993  0.8238
  285TMC3    C4 4352   4.549   3.625  11.667 -0.1179 -0.8211 -0.2072
  285TMC3    C5 4353   4.644   3.622  11.573  0.4097 -0.1003  0.8469
  285TMC3    C6 4354   4.627   3.550  11.458  0.2545  0.1373 -0.3259
  285TMC3     C 4355   4.392   3.482  11.788 -0.5545  0.0499 -0.1387
  285TMC3     O 4356   4.415   3.553  11.887 -0.5311  0.1327  0.5405
  285TMC3     H 4357   4.352   3.386  11.525  1.5390 -2.1921  1.4885
  285TMC3    H1 4358   4.560   3.687  11.754 -1.1875  1.5247 -1.7481
  285TMC3    H2 4359   4.712   3.554  11.390  1.8687 -0.8174  1.6125
  285TMC3    C7 4360   0.025   3.715  11.585 -0.5088  0.5879  0.3445
  285TMC3    C8 4361   4.496   3.400  11.318 -0.4360  0.0861  0.7713
  285TMC3    O1 4362   0.111   3.713  11.499  0.2146  0.1776 -0.7105
  285TMC3    O2 4363   4.399   3.327  11.306 -0.5391 -0.0869  0.3514
  286MPD2     C 4364   4.364   2.606   0.782 -0.2289  0.4507  0.3269
  286MPD2    C1 4365   4.474   2.632   0.852 -0.1357  0.3412 -0.1239
  286MPD2    C2 4366   4.539   2.531   0.918  0.0254  0.4833  0.5224
  286MPD2    C3 4367   4.485   2.400   0.919  0.4620  0.0135 -0.0566
  286MPD2    C4 4368   4.374   2.371   0.850 -0.4309 -0.2815 -0.1174
  286MPD2    C5 4369   4.310   2.481   0.782  0.6587 -0.5963 -0.3402
  286MPD2     H 4370   4.621   2.559   0.982 -1.4084  1.2542  2.0159
  286MPD2    H1 4371   4.333   2.271   0.841  0.1231 -0.7781  2.6557
  286MPD2    H2 4372   4.302   2.682   0.734  1.3355  0.7921 -1.1354
  286MPD2    H3 4373   4.230   2.456   0.714 -1.2683  3.8504  0.2557
  286MPD2     N 4374   4.546   2.286   0.983 -0.5957  0.0801 -0.1813
  286MPD2    H5 4375   4.491   2.202   0.971 -0.3359  0.3592 -3.3940
  286MPD2    N1 4376   4.545   2.758   0.846 -0.2824  0.2881 -0.0000
  286MPD2    H7 4377   4.639   2.763   0.884 -0.1847 -0.5168 -0.1190
  287TMC3    C1 4378   4.700   2.142   1.061 -0.1499  0.1057  1.2274
  287TMC3    C2 4379   4.673   2.061   0.947  0.3138  0.1374  0.0323
  287TMC3    C3 4380   0.029   1.959   0.916  0.6197 -0.2784  0.3809
  287TMC3    C4 4381   0.073   2.113   1.138 -0.3209 -0.8806 -0.0861
  287TMC3    C5 4382   0.156   2.008   1.106 -0.0516  0.2672  0.1147
  287TMC3    C6 4383   0.132   1.925   0.996 -0.5018 -0.3005  0.3436
  287TMC3     C 4384   4.666   2.282   1.046  0.0707  0.2729  0.1076
  287TMC3     O 4385   0.006   2.373   1.068 -0.2401 -0.3666 -0.1554
  287TMC3     H 4386   4.591   2.082   0.880  0.6209  2.3302  0.3409
  287TMC3    H1 4387   0.090   2.184   1.218  1.9268  1.1349 -2.3723
  287TMC3    H2 4388   0.203   1.853   0.957  0.2810  1.1652 -0.9327
  287TMC3    C7 4389   0.273   1.982   1.195 -0.2528  0.2678 -0.1570
  287TMC3    C8 4390   0.005   1.880   0.796 -0.4168  0.9382  0.3861
  287TMC3    O1 4391   0.280   2.048   1.296  0.3341 -0.4448  0.2805
  287TMC3    O2 4392   0.062   1.771   0.791  0.1769 -0.0321 -0.2319
  288TMC3    C1 4393   1.678   1.377  14.410  0.5647  0.1794  0.2329
  288TMC3    C2 4394   1.542   1.358  14.428 -0.0678  1.4288 -0.0098
  288TMC3    C3 4395   1.457   1.381  14.324 -0.4528 -0.0528 -0.1230
  288TMC3    C4 4396   1.721   1.450  14.301  0.7109  0.2662 -0.7561
  288TMC3    C5 4397   1.633   1.463  14.195  0.2815 -0.6058  0.5129
  288TMC3    C6 4398   1.501   1.438  14.202 -0.1737 -0.0176  0.5537
  288TMC3     C 4399   1.768   1.364  14.515 -0.3372 -0.1277  0.0324
  288TMC3     O 4400   1.879   1.347  14.470 -0.7558 -0.5675  0.4408
  288TMC3     H 4401   1.505   1.319  14.521  0.6155  2.0230  0.5130
  288TMC3    H1 4402   1.827   1.457  14.279  1.2514 -0.1190  1.8269
  288TMC3    H2 4403   1.433   1.464  14.122 -1.2759 -0.2622  1.4188
  288TMC3    C7 4404   1.689   1.511  14.069  0.6242 -0.3261  0.2195
  288TMC3    C8 4405   1.318   1.406  14.344  0.9665 -0.2297 -0.5823
  288TMC3    O1 4406   1.618   1.500  13.971 -0.0431  0.0064  0.0118
  288TMC3    O2 4407   1.242   1.446  14.253  0.2674 -0.0643  0.1548
  289MPD2     C 4408   1.738   1.106  14.021  0.3076  0.2804  0.3728
  289MPD2    C1 4409   1.683   1.085  14.152 -0.5181 -0.2517  0.4876
  289MPD2    C2 4410   1.546   1.104  14.165  0.5042  1.2745  0.2413
  289MPD2    C3 4411   1.468   1.132  14.059  0.2504  0.3658 -0.3649
  289MPD2    C4 4412   1.518   1.134  13.935 -0.3115 -0.1689  0.1434
  289MPD2    C5 4413   1.652   1.128  13.911 -0.1917  0.7495 -0.5639
  289MPD2     H 4414   1.507   1.101  14.266  0.5867  0.7829  0.2589
  289MPD2    H1 4415   1.448   1.141  13.853  1.0152  0.8606 -0.8703
  289MPD2    H2 4416   1.845   1.103  14.006 -0.2480  1.9772 -3.9352
  289MPD2    H3 4417   1.701   1.143  13.815 -0.5244 -0.9112 -0.9893
  289MPD2     N 4418   1.328   1.145  14.064  0.0623  0.8771 -0.1103
  289MPD2    H5 4419   1.278   1.178  13.982  1.1483  0.8252 -0.7913
  289MPD2    N1 4420   1.775   1.064  14.263  0.4316  0.3372  0.0629
  289MPD2    H7 4421   1.873   1.074  14.239  0.5215  0.0050  0.2950
  290TMC3    C1 4422   1.107   1.120  14.138 -0.2679  0.2548  0.3609
  290TMC3    C2 4423   1.087   1.239  14.077  0.2184 -0.4283 -0.2342
  290TMC3    C3 4424   0.960   1.250  14.037 -0.7237 -0.3091  0.3746
  290TMC3    C4 4425   1.023   1.007  14.132  0.3051  0.1386  0.5974
  290TMC3    C5 4426   0.904   1.028  14.077  0.7100 -0.1589  0.6460
  290TMC3    C6 4427   0.866   1.149  14.033 -0.3802 -0.0640  1.0289
  290TMC3     C 4428   1.251   1.080  14.162  0.1499 -0.2169 -0.0394
  290TMC3     O 4429   1.283   0.991  14.239  0.2029  0.5129 -0.2752
  290TMC3     H 4430   1.150   1.327  14.084 -0.9011  0.5058 -2.0145
  290TMC3    H1 4431   1.051   0.915  14.183  0.4980 -0.1772 -0.0837
  290TMC3    H2 4432   0.770   1.154  13.982 -1.1163 -2.9754  2.1278
  290TMC3    C7 4433   0.806   0.918  14.076 -0.2106  0.4550 -0.4499
  290TMC3    C8 4434   0.899   1.379  14.028 -0.5647  0.2146 -0.0795
  290TMC3    O1 4435   0.691   0.950  14.058 -0.0383  0.5895 -0.0512
  290TMC3    O2 4436   0.788   1.379  13.975  0.0341 -0.0718  0.0760
  291MPD2     C 4437   1.277   1.298   0.239 -0.7252 -0.8028 -0.4320
  291MPD2    C1 4438   1.415   1.299   0.236  0.8698  0.5433 -0.2272
  291MPD2    C2 4439   1.478   1.413   0.272 -0.1964 -1.1484 -0.0018
  291MPD2    C3 4440   1.401   1.530   0.305  0.2500 -0.0645 -0.0732
  291MPD2    C4 4441   1.270   1.520   0.332 -0.2381 -0.3111 -0.0882
  291MPD2    C5 4442   1.208   1.405   0.295 -0.6152 -0.0288  0.5437
  291MPD2     H 4443   1.587   1.419   0.268 -0.4426  2.7394 -0.8690
  291MPD2    H1 4444   1.208   1.599   0.372 -2.8286 -1.4015 -2.0007
  291MPD2    H2 4445   1.236   1.201   0.214 -0.4059 -0.9171 -0.5065
  291MPD2    H3 4446   1.104   1.384   0.317 -0.8272  0.3352 -0.1110
  291MPD2     N 4447   1.467   1.662   0.308 -0.4566 -0.5165  0.6319
  291MPD2    H5 4448   1.560   1.667   0.269 -1.4125  2.4825 -1.3236
  291MPD2    N1 4449   1.492   1.194   0.195  0.8180  0.2905 -0.3435
  291MPD2    H7 4450   1.592   1.190   0.207  0.6814  1.0676  1.1203
  292TMC3    C1 4451   1.535   0.971   0.120 -1.2210  0.5479  0.6098
  292TMC3    C2 4452   1.594   0.937   0.235 -0.3759 -0.0887 -0.3398
  292TMC3    C3 4453   1.624   0.814   0.260  0.9404 -0.1277 -0.2844
  292TMC3    C4 4454   1.499   0.873   0.034  0.0092  0.6041  0.5535
  292TMC3    C5 4455   1.533   0.747   0.066  0.7385  1.1858  0.3324
  292TMC3    C6 4456   1.595   0.711   0.176 -0.2130  0.0095  0.0698
  292TMC3     C 4457   1.439   1.080   0.134  0.3441  0.5537 -0.3518
  292TMC3     O 4458   1.327   1.045   0.099 -0.6033 -0.1859  0.0720
  292TMC3     H 4459   1.604   1.011   0.313  0.3434  0.8903 -1.3518
  292TMC3    H1 4460   1.443   0.897  17.684  0.2480 -1.0399 -0.0218
  292TMC3    H2 4461   1.628   0.609   0.192  0.9928  0.1631 -1.4333
  292TMC3    C7 4462   1.463   0.640  17.728 -0.5339 -0.1519 -0.5829
  292TMC3    C8 4463   1.631   0.772   0.394 -0.4594  0.4182  0.5371
  292TMC3    O1 4464   1.525   0.570  17.647  0.2646 -0.2933  0.0761
  292TMC3    O2 4465   1.725   0.712   0.448  1.1016  0.2743  0.5017
  293MPD2     C 4466   3.009   1.983  12.585 -0.2826 -0.4558  0.0991
  293MPD2    C1 4467   2.891   2.064  12.592  0.1030  0.1570  0.3002
  293MPD2    C2 4468   2.850   2.111  12.718 -0.3533 -0.0913 -0.5407
  293MPD2    C3 4469   2.901   2.048  12.834 -0.8303 -0.2138  0.6927
  293MPD2    C4 4470   3.020   1.976  12.824 -0.0967 -0.8557 -0.1046
  293MPD2    C5 4471   3.070   1.949  12.703 -0.4772 -0.0924 -0.6174
  293MPD2     H 4472   2.768   2.182  12.730  0.9889  1.0264  1.8511
  293MPD2    H1 4473   3.062   1.939  12.916 -0.5607 -2.1708 -0.4210
  293MPD2    H2 4474   3.048   1.946  12.491  0.8240 -0.4716  0.5737
  293MPD2    H3 4475   3.154   1.881  12.705 -0.5923 -0.1753  1.1858
  293MPD2     N 4476   2.837   2.074  12.956 -0.1046  0.1523 -0.1265
  293MPD2    H5 4477   2.751   2.128  12.954 -0.2321  0.0107  1.3610
  293MPD2    N1 4478   2.820   2.091  12.470 -0.3946  0.5241 -0.3278
  293MPD2    H7 4479   2.858   2.051  12.385  0.0781 -0.9096  0.5587
  294TMC3    C1 4480   2.632   2.147  12.335  0.4035  0.4931  0.3143
  294TMC3    C2 4481   2.502   2.112  12.340 -0.7056  0.5201 -0.1646
  294TMC3    C3 4482   2.440   2.050  12.235 -0.1718  0.0171 -0.2215
  294TMC3    C4 4483   2.708   2.136  12.221 -1.3833  0.5359  0.1146
  294TMC3    C5 4484   2.646   2.067  12.122 -1.0274  0.1385  0.2652
  294TMC3    C6 4485   2.514   2.018  12.127 -0.1869 -0.0336 -0.5920
  294TMC3     C 4486   2.689   2.145  12.464  0.3545 -1.1953  0.0270
  294TMC3     O 4487   2.624   2.188  12.556 -0.2311  0.1203  0.3074
  294TMC3     H 4488   2.454   2.137  12.434  1.0492  1.5948  0.4469
  294TMC3    H1 4489   2.809   2.173  12.209 -1.5392  1.9079  3.2095
  294TMC3    H2 4490   2.482   1.972  12.035  0.0237 -0.9573 -0.1976
  294TMC3    C7 4491   2.709   2.062  11.993  0.0674 -0.1872  0.6060
  294TMC3    C8 4492   2.312   1.988  12.261  0.2200 -1.1387  0.0155
  294TMC3    O1 4493   2.640   2.087  11.898  0.3806  0.0882 -0.4553
  294TMC3    O2 4494   2.276   1.991  12.375  0.6784 -0.0527 -0.2462
  295MPD2     C 4495   4.055   1.704   0.926 -0.0882  0.7940 -0.0689
  295MPD2    C1 4496   4.008   1.589   0.854  0.1826  0.0954 -0.6972
  295MPD2    C2 4497   4.039   1.465   0.911 -0.7037 -0.4651 -0.6321
  295MPD2    C3 4498   4.137   1.447   1.004  0.1891  0.5375  0.2310
  295MPD2    C4 4499   4.183   1.558   1.063  0.2380 -0.0657 -0.3467
  295MPD2    C5 4500   4.147   1.682   1.027 -0.2075  0.0785  0.1966
  295MPD2     H 4501   3.992   1.378   0.867 -1.5893 -0.4069  0.2020
  295MPD2    H1 4502   4.257   1.556   1.142 -0.2776  3.0498  0.2378
  295MPD2    H2 4503   4.035   1.808   0.906 -0.0998  1.1105  1.5341
  295MPD2    H3 4504   4.193   1.765   1.078  2.9997 -2.0442  0.7149
  295MPD2     N 4505   4.169   1.323   1.048  0.0547 -0.2185  0.4152
  295MPD2    H5 4506   4.241   1.325   1.120  1.8937  1.6076 -1.4816
  295MPD2    N1 4507   3.914   1.590   0.743  0.0707 -0.0087 -0.5311
  295MPD2    H7 4508   3.881   1.498   0.716  2.1609 -0.7867 -0.3636
  296TMC3    C1 4509   4.183   1.100   1.094  0.3762 -0.7354 -0.4583
  296TMC3    C2 4510   4.248   1.128   1.210  0.5015 -0.1903 -0.0319
  296TMC3    C3 4511   4.290   1.026   1.285 -0.2864 -0.0704  0.1011
  296TMC3    C4 4512   4.170   0.972   1.046  0.9076 -0.3026 -0.6519
  296TMC3    C5 4513   4.235   0.868   1.117 -0.3805 -0.7191 -0.3845
  296TMC3    C6 4514   4.288   0.897   1.239  0.3381 -0.6376 -0.1008
  296TMC3     C 4515   4.119   1.204   1.018 -0.1229  0.0610  0.3501
  296TMC3     O 4516   4.047   1.170   0.925  0.1642  0.0517 -0.8127
  296TMC3     H 4517   4.262   1.230   1.246 -2.7046 -0.4514  1.9751
  296TMC3    H1 4518   4.150   0.963   0.940  0.1467 -0.2633 -0.5103
  296TMC3    H2 4519   4.319   0.812   1.299 -0.8421 -0.2026  1.1335
  296TMC3    C7 4520   4.241   0.741   1.055 -0.1368 -0.3002  0.2288
  296TMC3    C8 4521   4.371   1.053   1.407 -0.0181  0.0024 -0.2152
  296TMC3    O1 4522   4.339   0.667   1.080 -0.1549 -0.2271 -0.5516
  296TMC3    O2 4523   4.458   0.971   1.437  0.3076 -0.2109  0.6485
  297MPD2     C 4524   0.072   2.929  16.252  0.3656  0.0489 -0.6244
  297MPD2    C1 4525   0.045   3.001  16.135  0.1214 -0.7140 -0.0983
  297MPD2    C2 4526   0.154   3.032  16.053 -0.0806  0.7553 -0.1960
  297MPD2    C3 4527   0.281   3.020  16.099  0.2263 -0.4115 -0.1398
  297MPD2    C4 4528   0.307   2.938  16.201  0.3896 -0.2440  0.9528
  297MPD2    C5 4529   0.200   2.887  16.271 -0.1610 -0.6161  0.4489
  297MPD2     H 4530   0.139   3.091  15.963 -1.4159 -1.4907 -1.4224
  297MPD2    H1 4531   0.406   2.911  16.237  1.2673  2.5773  0.6948
  297MPD2    H2 4532   4.735   2.906  16.329  0.0555  0.1646 -0.8790
  297MPD2    H3 4533   0.216   2.822  16.357 -0.5751  1.2938  1.9712
  297MPD2     N 4534   0.386   3.077  16.030 -0.6574 -0.3834  0.5497
  297MPD2    H5 4535   0.358   3.106  15.937  1.8521 -0.6306 -0.2766
  297MPD2    N1 4536   4.659   3.059  16.091  0.0786 -0.3276 -0.7382
  297MPD2    H7 4537   4.666   3.110  16.004  0.4698  0.2387 -0.3749
  298TMC3    C1 4538   4.433   3.126  16.090  0.6104  0.1429 -0.5183
  298TMC3    C2 4539   4.425   3.103  15.955 -0.6231 -0.0005  0.7076
  298TMC3    C3 4540   4.307   3.144  15.894  0.0708 -0.0787  0.6111
  298TMC3    C4 4541   4.325   3.153  16.158  0.2445  0.1259  0.3356
  298TMC3    C5 4542   4.213   3.202  16.096  0.2046  0.0040 -0.8199
  298TMC3    C6 4543   4.202   3.195  15.965 -0.4666 -0.5156 -0.2535
  298TMC3     C 4544   4.539   3.054  16.165 -0.2482  0.2022 -1.1212
  298TMC3     O 4545   4.518   3.005  16.274 -0.0921 -0.1200 -0.8314
  298TMC3     H 4546   4.497   3.052  15.891 -0.7167  0.3756  0.3040
  298TMC3    H1 4547   4.349   3.155  16.264  0.4563  0.4529  0.2794
  298TMC3    H2 4548   4.103   3.210  15.923 -0.2822  0.0469 -0.4872
  298TMC3    C7 4549   4.113   3.262  16.184  0.6558  0.0470 -0.7738
  298TMC3    C8 4550   4.313   3.163  15.754  0.1435 -0.7110 -0.1746
  298TMC3    O1 4551   4.141   3.280  16.302  0.7028  0.1226  0.4897
  298TMC3    O2 4552   4.200   3.140  15.699 -0.0843  0.5091 -0.3838
  299MPD2     C 4553   1.200   2.749  10.078 -0.1249  0.1387 -0.4313
  299MPD2    C1 4554   1.146   2.688  10.188 -0.2513  0.1499  0.2959
  299MPD2    C2 4555   1.011   2.651  10.192  0.2155  0.9876  0.1801
  299MPD2    C3 4556   0.931   2.685  10.084  0.4905  0.2414  0.9427
  299MPD2    C4 4557   0.981   2.751   9.973 -0.1229  0.6005 -0.3134
  299MPD2    C5 4558   1.115   2.778   9.972 -0.4691 -0.1517  0.5307
  299MPD2     H 4559   0.975   2.586  10.272 -1.2262  0.8456 -0.5893
  299MPD2    H1 4560   0.927   2.784   9.885 -0.1462 -0.5819 -0.7376
  299MPD2    H2 4561   1.304   2.780  10.080  0.0775 -0.6843  2.4570
  299MPD2    H3 4562   1.156   2.825   9.883 -1.2589 -1.1305 -0.3453
  299MPD2     N 4563   0.794   2.652  10.083 -0.4860 -0.2059 -0.2583
  299MPD2    H5 4564   0.731   2.699  10.019 -0.1641  1.4865  0.6695
  299MPD2    N1 4565   1.226   2.659  10.307 -0.3864  0.3345  0.6257
  299MPD2    H7 4566   1.326   2.679  10.306 -0.5428  1.1748  1.4426
  300TMC3    C1 4567   0.593   2.537  10.130 -0.4217  0.0050 -0.3615
  300TMC3    C2 4568   0.513   2.627  10.060 -0.8881  0.3905  0.2728
  300TMC3    C3 4569   0.377   2.642  10.072 -0.4088  0.1353 -0.1036
  300TMC3    C4 4570   0.524   2.437  10.197 -0.1849  0.5071  0.3354
  300TMC3    C5 4571   0.388   2.447  10.197  0.3125  0.4519 -0.2069
  300TMC3    C6 4572   0.313   2.545  10.138 -1.0093  0.0974 -0.8570
  300TMC3     C 4573   0.735   2.553  10.151 -0.1652  0.2384 -1.0161
  300TMC3     O 4574   0.791   2.475  10.223  0.0054  0.4227 -0.6151
  300TMC3     H 4575   0.561   2.711  10.011  0.3472  0.3218  1.3786
  300TMC3    H1 4576   0.578   2.364  10.256 -0.6838 -0.0256  0.1301
  300TMC3    H2 4577   0.208   2.559  10.161 -0.2406 -0.8093  3.0231
  300TMC3    C7 4578   0.324   2.364  10.295 -0.4411 -0.1397 -0.1063
  300TMC3    C8 4579   0.316   2.765  10.025  0.0458 -0.2827  0.0920
  300TMC3    O1 4580   0.361   2.247  10.309 -0.2013  0.1130 -0.0484
  300TMC3    O2 4581   0.387   2.861   9.998 -0.0846  0.2494 -0.2495
  301MPD2     C 4582   3.645   4.547   0.601 -0.5503 -0.2691 -0.1238
  301MPD2    C1 4583   3.525   4.487   0.566 -0.4505  0.9225 -0.1962
  301MPD2    C2 4584   3.491   4.366   0.616 -0.6140 -0.3065 -0.3847
  301MPD2    C3 4585   3.571   4.296   0.702 -0.3022  0.2011 -0.0719
  301MPD2    C4 4586   3.691   4.361   0.736 -0.5132  0.3365 -0.1206
  301MPD2    C5 4587   3.734   4.479   0.680 -0.2450 -0.3165  0.3042
  301MPD2     H 4588   3.395   4.329   0.582 -0.8345  0.3369 -0.4570
  301MPD2    H1 4589   3.759   4.306   0.800 -0.8481 -0.0103 -0.0608
  301MPD2    H2 4590   3.679   4.647   0.578 -0.3977 -0.3330 -0.1758
  301MPD2    H3 4591   3.834   4.515   0.697 -0.9624  0.6218  2.5722
  301MPD2     N 4592   3.540   4.166   0.756 -0.1916 -0.2267  0.5012
  301MPD2    H5 4593   3.621   4.123   0.798  1.7875  0.4974 -2.5374
  301MPD2    N1 4594   3.425   4.555   0.493 -0.0975 -0.1764  0.5266
  301MPD2    H7 4595   3.337   4.504   0.488 -0.9260  1.5630 -2.3708
  302TMC3    C1 4596   3.427   3.958   0.791  0.6821 -0.3753  0.1262
  302TMC3    C2 4597   3.489   3.924   0.907  0.8088  0.5421  0.1961
  302TMC3    C3 4598   3.481   3.799   0.957 -0.9606  0.9124  0.1088
  302TMC3    C4 4599   3.338   3.875   0.733 -0.2387 -0.5457 -0.1975
  302TMC3    C5 4600   3.319   3.751   0.799  0.1309  0.0538 -0.9788
  302TMC3    C6 4601   3.394   3.706   0.905 -0.1401  0.4438 -0.0338
  302TMC3     C 4602   3.421   4.098   0.743 -0.3978  0.6161  0.3517
  302TMC3     O 4603   3.321   4.134   0.687  0.3032  0.2478 -0.6093
  302TMC3     H 4604   3.567   3.990   0.943 -0.4622  2.0906  0.1158
  302TMC3    H1 4605   3.287   3.911   0.644 -0.4662 -0.4887 -0.0439
  302TMC3    H2 4606   3.391   3.603   0.939  1.3141  0.2255 -0.5485
  302TMC3    C7 4607   3.208   3.670   0.758  0.0490 -0.0136  0.3578
  302TMC3    C8 4608   3.573   3.763   1.060 -0.1645 -0.3261  1.2253
  302TMC3    O1 4609   3.221   3.549   0.771 -0.1477  0.5263  0.5915
  302TMC3    O2 4610   3.683   3.811   1.046  0.2351 -0.4264 -0.3163
  303MPD2     C 4611   3.359   1.959  10.329 -0.5950 -0.3958 -0.1130
  303MPD2    C1 4612   3.316   1.841  10.261 -0.1075 -0.7042 -1.0736
  303MPD2    C2 4613   3.183   1.835  10.227  0.5492 -0.4252 -0.0329
  303MPD2    C3 4614   3.095   1.930  10.264  0.4419 -0.2622  0.0308
  303MPD2    C4 4615   3.137   2.054  10.316  1.0654  0.0339  0.4187
  303MPD2    C5 4616   3.265   2.058  10.362  0.1477 -0.5201 -0.0676
  303MPD2     H 4617   3.146   1.743  10.185 -0.4106  0.3141 -0.8068
  303MPD2    H1 4618   3.076   2.137  10.348  0.4025 -0.4085  0.3174
  303MPD2    H2 4619   3.458   1.962  10.373 -1.0248 -0.7373  0.8859
  303MPD2    H3 4620   3.295   2.144  10.421  1.0863 -0.3741 -0.7653
  303MPD2     N 4621   2.959   1.918  10.257 -0.4719  0.2057 -0.1605
  303MPD2    H5 4622   2.909   2.007  10.263  0.6802  1.0225 -2.9284
  303MPD2    N1 4623   3.405   1.731  10.245 -0.2086  0.5159 -0.1408
  303MPD2    H7 4624   3.500   1.738  10.280 -0.7626  0.0104  1.4837
  304TMC3    C1 4625   3.479   1.518  10.186 -0.2776  0.1681  0.2002
  304TMC3    C2 4626   3.483   1.471  10.309 -0.5016 -0.0494  0.1202
  304TMC3    C3 4627   3.554   1.359  10.337  0.4435 -0.0859 -0.2305
  304TMC3    C4 4628   3.512   1.440  10.082  0.5350 -0.0599 -0.3991
  304TMC3    C5 4629   3.575   1.322  10.104 -0.5619  1.3218  0.0839
  304TMC3    C6 4630   3.615   1.288  10.231 -0.6551 -0.6870  0.3013
  304TMC3     C 4631   3.390   1.625  10.157 -0.6439  0.1542  0.2637
  304TMC3     O 4632   3.310   1.603  10.070  0.2494  0.8480 -0.0301
  304TMC3     H 4633   3.436   1.526  10.390  1.8522 -1.0813  2.1859
  304TMC3    H1 4634   3.478   1.468   9.983  0.8074  0.9420 -0.2118
  304TMC3    H2 4635   3.678   1.203  10.253  1.0845  0.7491  0.8766
  304TMC3    C7 4636   3.505   1.209  10.041 -0.5761 -0.2478  0.1540
  304TMC3    C8 4637   3.486   1.278  10.436 -1.5147  0.3385  0.9148
  304TMC3    O1 4638   3.392   1.235   9.999  0.3964  0.1553  0.7075
  304TMC3    O2 4639   3.369   1.309  10.451 -0.0255  0.3502  0.0606
  305MPD2     C 4640   1.191   4.395  13.695 -0.6492 -0.0284  0.8510
  305MPD2    C1 4641   1.237   4.267  13.657 -0.5996 -0.4460 -0.0943
  305MPD2    C2 4642   1.186   4.209  13.540  0.0178 -0.1045 -0.1243
  305MPD2    C3 4643   1.100   4.284  13.459 -0.6611 -0.0627 -0.4729
  305MPD2    C4 4644   1.060   4.414  13.501 -0.8252  0.0544 -1.2260
  305MPD2    C5 4645   1.100   4.463  13.619 -0.1342  0.4362 -0.1982
  305MPD2     H 4646   1.217   4.113  13.501 -2.7202 -1.7400  1.7217
  305MPD2    H1 4647   0.994   4.477  13.442 -0.3883  0.5134 -1.2298
  305MPD2    H2 4648   1.237   4.436  13.784 -0.8565  0.8577  0.5460
  305MPD2    H3 4649   1.066   4.561  13.649  0.3963  1.1129 -1.8056
  305MPD2     N 4650   1.062   4.235  13.330  0.0742  0.1139  0.1952
  305MPD2    H5 4651   0.996   4.291  13.277 -1.7197 -1.3368  0.8787
  305MPD2    N1 4652   1.349   4.225  13.731 -0.5772  0.1400 -0.2287
  305MPD2    H7 4653   1.376   4.286  13.807 -2.5332  0.2579  0.3755
  306TMC3    C1 4654   1.497   4.079  13.815  0.4054 -0.8476 -0.8306
  306TMC3    C2 4655   1.604   3.993  13.793  0.1880 -0.0957  0.2171
  306TMC3    C3 4656   1.661   3.932  13.899  0.3904 -0.3094 -0.8108
  306TMC3    C4 4657   1.448   4.097  13.946 -0.4959 -0.4677 -0.0804
  306TMC3    C5 4658   1.498   4.014  14.046 -0.3769 -0.0102 -0.0211
  306TMC3    C6 4659   1.602   3.933  14.027 -1.0494 -0.0601  0.1438
  306TMC3     C 4660   1.427   4.121  13.700 -0.3456 -0.8501 -0.3654
  306TMC3     O 4661   1.457   4.075  13.589 -0.4856  0.2927 -0.2660
  306TMC3     H 4662   1.649   3.982  13.695  1.7119  1.4839  0.7351
  306TMC3    H1 4663   1.362   4.157  13.973  2.0919  2.8161  0.7673
  306TMC3    H2 4664   1.629   3.857  14.099 -0.1614 -0.7565 -0.9269
  306TMC3    C7 4665   1.460   4.031  14.187  0.1936  0.1474  0.8298
  306TMC3    C8 4666   1.767   3.836  13.879  0.1836  0.0326  0.6544
  306TMC3    O1 4667   1.447   3.933  14.255 -0.4139 -0.1756  0.3366
  306TMC3    O2 4668   1.785   3.794  13.763  0.4704 -0.3892 -0.4562
  307MPD2     C 4669   4.167   2.739  17.650  0.1685 -0.1353  0.2335
  307MPD2    C1 4670   4.100   2.853  17.690  0.7570 -0.2562 -0.5315
  307MPD2    C2 4671   4.038   2.842   0.063 -0.3405  0.5942  0.7924
  307MPD2    C3 4672   4.046   2.734   0.145  1.5744  0.3294  0.2335
  307MPD2    C4 4673   4.108   2.622   0.106 -0.2676 -0.2026  0.0643
  307MPD2    C5 4674   4.177   2.626  17.729 -0.3491 -0.0132 -0.1827
  307MPD2     H 4675   3.971   2.918   0.101 -0.7720  0.2396  0.7498
  307MPD2    H1 4676   4.121   2.531   0.163  0.4801  1.8713  3.2017
  307MPD2    H2 4677   4.215   2.735  17.553  0.7734  1.1515  0.4739
  307MPD2    H3 4678   4.236   2.539  17.702  0.0609  0.4205 -0.6904
  307MPD2     N 4679   3.986   2.746   0.273  0.2054 -0.2437  0.1599
  307MPD2    H5 4680   3.948   2.839   0.291 -3.7298 -1.7892 -0.1257
  307MPD2    N1 4681   4.080   2.969  17.617 -0.3321 -0.2401 -0.3912
  307MPD2    H7 4682   4.040   3.045  17.671  0.3886  0.7285 -1.2303
  308TMC3    C1 4683   3.720   2.641   0.636  0.3148  0.7727 -0.5757
  308TMC3    C2 4684   3.704   2.778   0.664  0.1068  0.6005  0.0558
  308TMC3    C3 4685   3.789   2.864   0.598  0.1828 -0.1117  0.1736
  308TMC3    C4 4686   3.820   2.594   0.552 -0.4881  0.0476 -0.0713
  308TMC3    C5 4687   3.897   2.691   0.485 -0.7637  0.5068  0.0004
  308TMC3    C6 4688   3.887   2.826   0.512 -0.1849 -0.9922 -0.6855
  308TMC3     C 4689   3.614   2.557   0.684 -0.2637 -0.4283  0.1664
  308TMC3     O 4690   3.629   2.434   0.687  0.0143 -0.5960 -0.4939
  308TMC3     H 4691   3.636   2.827   0.733  0.3639 -0.7391  1.2510
  308TMC3    H1 4692   3.818   2.490   0.521  2.9224  0.2744 -1.1661
  308TMC3    H2 4693   3.937   2.902   0.453  2.5506 -1.1761  1.3974
  308TMC3    C7 4694   3.980   2.647   0.368  0.3714  0.4520 -0.2325
  308TMC3    C8 4695   3.788   3.002   0.633 -0.5717 -0.1969  0.1800
  308TMC3    O1 4696   4.034   2.536   0.376  0.0787  0.2029  0.0891
  308TMC3    O2 4697   3.684   3.048   0.672 -0.2582  0.0719  0.7133
  309MPD2     C 4698   2.988   3.419  17.183 -0.2538  0.3474  0.4250
  309MPD2    C1 4699   2.935   3.322  17.091 -0.2007  0.0002  0.2176
  309MPD2    C2 4700   2.824   3.253  17.131 -0.7347  0.6526 -0.7963
  309MPD2    C3 4701   2.765   3.281  17.258  0.0078 -0.3721 -0.0787
  309MPD2    C4 4702   2.822   3.366  17.348 -0.4517  0.4731  0.4751
  309MPD2    C5 4703   2.931   3.439  17.304  0.4107 -0.0005  0.1067
  309MPD2     H 4704   2.781   3.174  17.070  0.6407  0.5760 -1.6583
  309MPD2    H1 4705   2.780   3.378  17.448 -0.4125 -0.5593  0.6172
  309MPD2    H2 4706   3.057   3.496  17.150 -2.0387  1.8458  0.1829
  309MPD2    H3 4707   2.963   3.511  17.379  3.2949 -0.7754 -0.3859
  309MPD2     N 4708   2.648   3.210  17.305 -0.2641  0.3871 -0.1193
  309MPD2    H5 4709   2.600   3.232  17.391 -1.7792  1.0932 -1.1464
  309MPD2    N1 4710   2.990   3.281  16.965  0.4513 -0.4625 -0.2545
  309MPD2    H7 4711   2.930   3.231  16.900 -0.5837  1.7384 -1.0368
  310TMC3    C1 4712   3.128   3.286  16.779  0.6144 -0.2905  0.6398
  310TMC3    C2 4713   3.016   3.279  16.701  0.9327  0.9893  0.1918
  310TMC3    C3 4714   3.018   3.196  16.591 -0.5276  0.1805  0.2429
  310TMC3    C4 4715   3.251   3.232  16.743  0.7876 -0.4982  0.3023
  310TMC3    C5 4716   3.250   3.152  16.626 -0.2956  0.0104  0.5272
  310TMC3    C6 4717   3.137   3.128  16.553 -0.2200 -0.4552  0.3413
  310TMC3     C 4718   3.114   3.316  16.923 -0.0007  0.1571 -0.1236
  310TMC3     O 4719   3.204   3.363  16.988  0.4666  0.1551 -0.4463
  310TMC3     H 4720   2.931   3.342  16.728 -0.2954 -0.8343  0.5748
  310TMC3    H1 4721   3.342   3.253  16.798  0.6729  0.3342  0.1758
  310TMC3    H2 4722   3.142   3.064  16.466 -1.6083  1.7258 -1.3318
  310TMC3    C7 4723   3.368   3.079  16.590 -0.0109  0.3793 -0.5998
  310TMC3    C8 4724   2.911   3.176  16.502  0.4665  0.2888  0.5041
  310TMC3    O1 4725   3.380   3.029  16.480  0.0312 -0.0136 -0.4028
  310TMC3    O2 4726   2.946   3.135  16.391 -0.8065  0.1247 -0.1654
  311MPD2     C 4727   0.347   3.597  12.471 -0.3255 -0.7600 -0.9563
  311MPD2    C1 4728   0.337   3.727  12.525 -0.7200  0.9560  0.5308
  311MPD2    C2 4729   0.225   3.761  12.596  0.2683 -0.4411 -0.3970
  311MPD2    C3 4730   0.118   3.667  12.605 -0.4650  0.5245 -0.0248
  311MPD2    C4 4731   0.141   3.536  12.564  0.3927  0.0146 -0.0425
  311MPD2    C5 4732   0.251   3.505  12.488  0.2583  0.5664 -0.4711
  311MPD2     H 4733   0.208   3.854  12.649 -0.0547  0.8674 -2.8262
  311MPD2    H1 4734   0.068   3.456  12.573 -0.4539  0.7047 -0.8147
  311MPD2    H2 4735   0.432   3.560  12.416  0.6114 -0.9897  0.6446
  311MPD2    H3 4736   0.246   3.406  12.445 -0.1568  0.5873 -0.4717
  311MPD2     N 4737   0.004   3.701  12.671  0.1943  0.3773 -0.1494
  311MPD2    H5 4738   4.728   3.801  12.680  0.0869  0.2386  1.3794
  311MPD2    N1 4739   0.443   3.822  12.514  0.1613 -0.2430 -0.0336
  311MPD2    H7 4740   0.432   3.912  12.560 -2.7641 -1.2199  1.1784
  312TMC3    C1 4741   4.505   3.707  12.726 -0.5408  0.2769 -0.7144
  312TMC3    C2 4742   4.383   3.647  12.707  0.4626 -0.1385  0.4337
  312TMC3    C3 4743   4.271   3.721  12.722 -0.5822 -0.4990 -0.4180
  312TMC3    C4 4744   4.517   3.838  12.766  0.0667  0.0342  0.8424
  312TMC3    C5 4745   4.401   3.906  12.786 -0.6774  0.2599  0.0386
  312TMC3    C6 4746   4.277   3.848  12.767 -0.6768  0.0299  0.8655
  312TMC3     C 4747   4.628   3.630  12.690  0.1761  0.5280 -0.9515
  312TMC3     O 4748   4.608   3.511  12.676 -0.1069  0.4793  0.6331
  312TMC3     H 4749   4.376   3.542  12.681  0.1112 -0.7226  2.9209
  312TMC3    H1 4750   4.619   3.873  12.780  0.0553  1.2674 -2.1754
  312TMC3    H2 4751   4.186   3.905  12.782 -0.5570  0.6739 -0.8625
  312TMC3    C7 4752   4.397   4.041  12.847 -0.6245 -0.1410 -0.3832
  312TMC3    C8 4753   4.139   3.658  12.713  0.3958 -0.2315  0.2097
  312TMC3    O1 4754   4.286   4.060  12.895  0.0888 -0.2635 -0.1409
  312TMC3    O2 4755   4.136   3.540  12.730  0.5848 -0.4896 -0.2752
  313MPD2     C 4756   4.048   3.047  10.917  0.2351  0.6928  0.1069
  313MPD2    C1 4757   4.117   3.153  10.858 -0.0856 -0.1971 -0.2245
  313MPD2    C2 4758   4.203   3.133  10.748 -0.6156  0.5338 -0.9067
  313MPD2    C3 4759   4.242   3.004  10.711  0.2875 -0.0660 -0.0442
  313MPD2    C4 4760   4.181   2.897  10.777  0.2823  0.0371 -0.6132
  313MPD2    C5 4761   4.096   2.916  10.884 -0.1760  0.4428  0.8072
  313MPD2     H 4762   4.232   3.218  10.688 -2.1606  1.7984  0.1630
  313MPD2    H1 4763   4.213   2.794  10.762 -0.2333 -0.0911 -0.8320
  313MPD2    H2 4764   3.969   3.065  10.989 -0.0633 -1.1740  0.2420
  313MPD2    H3 4765   4.056   2.828  10.934 -0.3180 -0.2057 -0.4632
  313MPD2     N 4766   4.338   2.989  10.609 -0.0516 -0.0046 -0.0470
  313MPD2    H5 4767   4.374   3.072  10.564 -0.8334  1.0635  1.2812
  313MPD2    N1 4768   4.090   3.285  10.894 -0.1786  0.0360 -0.4869
  313MPD2    H7 4769   4.133   3.359  10.840  1.1207  0.9113  1.7481
  314TMC3    C1 4770   4.017   3.469  11.003 -0.0530  0.4132  0.6337
  314TMC3    C2 4771   4.126   3.539  11.056 -0.5286  0.2757  0.4788
  314TMC3    C3 4772   4.146   3.665  11.010  0.6349 -0.0334  0.2509
  314TMC3    C4 4773   3.929   3.519  10.910  0.6080  0.0565  0.6286
  314TMC3    C5 4774   3.958   3.646  10.862  0.4710 -0.2564  0.3505
  314TMC3    C6 4775   4.071   3.720  10.907  0.1818 -0.2769 -0.7914
  314TMC3     C 4776   4.027   3.322  11.004 -0.0936  0.4961 -0.0393
  314TMC3     O 4777   3.940   3.265  11.067  0.1648 -0.2474  0.0901
  314TMC3     H 4778   4.193   3.487  11.125 -2.3981 -2.8792 -0.0845
  314TMC3    H1 4779   3.847   3.463  10.867 -0.2902  2.5707 -0.9371
  314TMC3    H2 4780   4.090   3.816  10.861 -2.4335  0.7319  0.2226
  314TMC3    C7 4781   3.891   3.691  10.740  0.6068 -0.1476  0.3464
  314TMC3    C8 4782   4.275   3.720  11.028  0.5050 -0.4898 -0.2410
  314TMC3    O1 4783   3.777   3.733  10.756  0.3918  0.4544  0.1693
  314TMC3    O2 4784   4.320   3.784  10.930  0.3011 -0.4572  0.3853
  315MPD2     C 4785   4.219   3.098   0.222  0.1799  0.2042 -0.6789
  315MPD2    C1 4786   4.311   3.033   0.146  0.6425 -0.4855  0.1865
  315MPD2    C2 4787   4.361   3.079   0.031  0.0777 -0.1090 -0.5015
  315MPD2    C3 4788   4.325   3.207  17.725  0.5152  0.1512  0.0975
  315MPD2    C4 4789   4.241   3.278   0.063  0.6487 -0.9890  0.0194
  315MPD2    C5 4790   4.185   3.224   0.180 -0.0137 -0.2432  0.0503
  315MPD2     H 4791   4.430   3.011  17.722 -0.1394 -1.5386  1.2050
  315MPD2    H1 4792   4.221   3.382   0.039 -0.0570 -1.4940 -1.5224
  315MPD2    H2 4793   4.179   3.047   0.309  1.3049  0.6669  0.0974
  315MPD2    H3 4794   4.106   3.284   0.225  0.3170  0.8058 -0.7822
  315MPD2     N 4795   4.390   3.260  17.609  0.1993  0.4827 -0.7705
  315MPD2    H5 4796   4.439   3.191  17.553 -1.6058 -1.0258 -0.4981
  315MPD2    N1 4797   4.358   2.904   0.186  1.1607  0.1802  0.7393
  315MPD2    H7 4798   4.431   2.861   0.131  1.0608  1.7660 -0.6411
  316TMC3    C1 4799   4.505   3.404  17.463 -0.6773  0.0005 -0.4355
  316TMC3    C2 4800   4.625   3.332  17.475 -0.0839 -0.0990  0.5706
  316TMC3    C3 4801   4.724   3.339  17.378 -0.1510 -0.4123 -0.3408
  316TMC3    C4 4802   4.475   3.482  17.359 -0.2817  0.0866  0.3797
  316TMC3    C5 4803   4.565   3.488  17.263 -1.0148 -0.3902  0.5854
  316TMC3    C6 4804   4.688   3.426  17.277  0.4113  0.2564 -0.0757
  316TMC3     C 4805   4.401   3.390  17.563 -0.7892  0.4806 -0.5173
  316TMC3     O 4806   4.333   3.492  17.586  0.7545  0.1014 -0.7377
  316TMC3     H 4807   4.642   3.279  17.567  0.8612 -2.3240 -0.8889
  316TMC3    H1 4808   4.389   3.547  17.357  0.2068  0.7380  0.6980
  316TMC3    H2 4809   0.029   3.450  17.204  0.3989 -0.6919 -0.3935
  316TMC3    C7 4810   4.557   3.595  17.159 -0.0457  0.8855 -0.8914
  316TMC3    C8 4811   0.120   3.275  17.382 -0.1507  0.5106 -0.2585
  316TMC3    O1 4812   4.666   3.645  17.124  0.2551  0.5575 -0.2194
  316TMC3    O2 4813   0.206   3.292  17.295  0.5674 -0.4751  0.1311
  317MPD2     C 4814   1.851   0.850  12.177  1.5203 -0.6466  0.6202
  317MPD2    C1 4815   1.927   0.734  12.182 -0.8587  0.7642 -0.2770
  317MPD2    C2 4816   1.935   0.660  12.305  0.0622  0.2995 -0.5548
  317MPD2    C3 4817   1.890   0.723  12.420 -0.5013  0.8336 -0.0673
  317MPD2    C4 4818   1.820   0.843  12.414 -0.0089 -0.1474  0.0624
  317MPD2    C5 4819   1.801   0.900  12.296  0.1091  0.2430 -0.0095
  317MPD2     H 4820   1.995   0.570  12.310  0.9666  0.9747  1.0035
  317MPD2    H1 4821   1.778   0.895  12.499 -1.4828  0.3812 -0.9875
  317MPD2    H2 4822   1.841   0.914  12.090  0.1831  0.7950  1.8327
  317MPD2    H3 4823   1.754   0.998  12.291  0.4995  0.3971 -0.6407
  317MPD2     N 4824   1.914   0.659  12.547  0.0100  0.2033 -0.6822
  317MPD2    H5 4825   1.977   0.579  12.548  1.4802  1.3740 -0.1793
  317MPD2    N1 4826   2.011   0.683  12.076 -0.1386 -0.0921  0.1990
  317MPD2    H7 4827   2.071   0.605  12.100 -1.2469 -0.7125  0.9493
  318TMC3    C1 4828   1.939   0.617  12.774  0.5221  0.5691  0.3408
  318TMC3    C2 4829   1.908   0.485  12.748  0.4897  0.2655 -0.1625
  318TMC3    C3 4830   1.916   0.398  12.856  0.6887  0.5156 -0.6381
  318TMC3    C4 4831   1.974   0.664  12.900 -0.4190 -0.0794  0.7539
  318TMC3    C5 4832   1.991   0.562  12.996  0.8557 -0.4869  0.2200
  318TMC3    C6 4833   1.956   0.435  12.979 -0.0203 -0.3751  0.0968
  318TMC3     C 4834   1.890   0.710  12.674 -0.1542 -0.8027  0.2898
  318TMC3     O 4835   1.858   0.820  12.716  0.1264 -0.2584  0.0130
  318TMC3     H 4836   1.881   0.448  12.650  0.1460 -0.2974  0.1443
  318TMC3    H1 4837   1.997   0.767  12.925  0.7393 -0.5373  1.5768
  318TMC3    H2 4838   1.937   0.369  13.063  2.0383 -0.0191  0.8213
  318TMC3    C7 4839   2.038   0.600  13.129  0.5878 -0.0743  0.7158
  318TMC3    C8 4840   1.837   0.280  12.851  0.0302  0.3343 -0.1173
  318TMC3    O1 4841   2.036   0.718  13.166 -0.0782 -0.3760  0.7736
  318TMC3    O2 4842   1.858   0.191  12.935  0.3667  0.2833  0.2242
  319MPD2     C 4843   2.140   2.699  16.674 -0.0093 -0.5047 -0.6099
  319MPD2    C1 4844   2.189   2.569  16.658  0.6757 -0.5502 -0.0900
  319MPD2    C2 4845   2.135   2.489  16.562  0.8759 -0.2154 -0.0695
  319MPD2    C3 4846   2.034   2.535  16.481  0.4382  0.0077 -0.0408
  319MPD2    C4 4847   1.999   2.673  16.486 -0.0785  0.0806  0.9567
  319MPD2    C5 4848   2.047   2.752  16.592 -0.0833 -0.5326  0.1435
  319MPD2     H 4849   2.172   2.387  16.558 -1.2657 -1.0115  0.3651
  319MPD2    H1 4850   1.930   2.713  16.412 -0.0163 -1.7628 -0.0887
  319MPD2    H2 4851   2.176   2.773  16.745 -0.9166  0.1408 -0.8188
  319MPD2    H3 4852   2.017   2.856  16.600  1.6726  0.0741 -1.1410
  319MPD2     N 4853   1.980   2.458  16.370 -0.2986 -0.0243 -0.5502
  319MPD2    H5 4854   1.910   2.501  16.310 -1.8252 -2.1302 -0.3023
  319MPD2    N1 4855   2.304   2.528  16.725  0.2517  0.5612 -0.4091
  319MPD2    H7 4856   2.342   2.440  16.692  1.0380  0.6726  0.1893
  320TMC3    C1 4857   1.941   2.273  16.234 -0.1657  0.1178 -0.2408
  320TMC3    C2 4858   1.933   2.341  16.117 -0.0750  1.1890  0.1104
  320TMC3    C3 4859   1.933   2.274  15.995 -0.9648 -0.5110  0.5519
  320TMC3    C4 4860   1.945   2.137  16.233 -0.2020 -0.3284 -0.2902
  320TMC3    C5 4861   1.952   2.072  16.115  0.0797  0.2029  0.0133
  320TMC3    C6 4862   1.938   2.135  15.995 -0.4391  0.2747  0.0840
  320TMC3     C 4863   2.007   2.324  16.349 -0.2317 -0.6874  0.5110
  320TMC3     O 4864   2.082   2.247  16.410 -0.5909  0.2880 -0.7048
  320TMC3     H 4865   1.928   2.450  16.118  1.9549  1.3063 -1.4032
  320TMC3    H1 4866   1.945   2.087  16.329 -1.5232  0.6024  0.1880
  320TMC3    H2 4867   1.944   2.085  15.899  1.1207  0.0537  0.2863
  320TMC3    C7 4868   2.001   1.939  16.102  0.2423 -0.5932  0.2711
  320TMC3    C8 4869   1.864   2.332  15.881  0.3849 -0.3528 -0.3480
  320TMC3    O1 4870   2.000   1.877  15.996  0.0269  0.6916  0.3435
  320TMC3    O2 4871   1.818   2.444  15.898  0.4327 -0.0568 -0.1370
  321TMC3    C1 4872   2.497   2.518  16.848  0.5298 -0.6381 -0.9328
  321TMC3    C2 4873   2.489   2.384  16.868 -0.0991 -0.5842 -0.1463
  321TMC3    C3 4874   2.599   2.306  16.865  0.3864 -0.6528 -0.0588
  321TMC3    C4 4875   2.621   2.578  16.846  0.1894 -0.6102 -0.1323
  321TMC3    C5 4876   2.735   2.504  16.849  0.0169 -0.1277  0.2981
  321TMC3    C6 4877   2.723   2.364  16.845  0.3681 -0.0097 -0.6457
  321TMC3     C 4878   2.383   2.601  16.811 -0.3821 -0.3638  0.2236
  321TMC3     O 4879   2.374   2.714  16.853 -0.6449  0.2797  0.0227
  321TMC3     H 4880   2.395   2.330  16.866  1.8059 -3.8550 -1.0653
  321TMC3    H1 4881   2.619   2.684  16.823 -0.0770 -0.8702 -1.3421
  321TMC3    H2 4882   2.816   2.309  16.845  0.2212 -0.2489  2.0216
  321TMC3    C7 4883   2.853   2.552  16.910 -0.3495  0.0251 -0.3300
  321TMC3    C8 4884   2.601   2.216  16.974 -0.3119 -0.9865 -0.0832
  321TMC3    O1 4885   2.911   2.460  16.966 -0.2606  0.2293  0.5635
  321TMC3    O2 4886   2.496   2.165  17.006  0.1489 -0.4480 -0.2894
  322MPD2     C 4887   1.447   3.161  13.257 -0.0634  0.4617 -0.0386
  322MPD2    C1 4888   1.469   3.121  13.389  0.0723  0.2481 -0.0030
  322MPD2    C2 4889   1.429   2.998  13.438  0.6962 -0.2965 -0.0170
  322MPD2    C3 4890   1.377   2.907  13.357 -0.1539 -0.7283  0.2105
  322MPD2    C4 4891   1.380   2.939  13.219 -0.4661  0.2933  0.2632
  322MPD2    C5 4892   1.403   3.069  13.174 -0.3319  0.0487  0.0285
  322MPD2     H 4893   1.445   2.964  13.540  0.9620  1.1884  0.4424
  322MPD2    H1 4894   1.366   2.868  13.139  0.6388  0.2043  0.1520
  322MPD2    H2 4895   1.474   3.256  13.214  3.7393 -0.7862 -0.4347
  322MPD2    H3 4896   1.398   3.092  13.068  3.1412 -2.4349 -0.7014
  322MPD2     N 4897   1.348   2.780  13.415 -0.8767  0.2115 -0.0561
  322MPD2    H5 4898   1.345   2.779  13.516  1.0844 -1.1641 -0.0035
  322MPD2    N1 4899   1.534   3.217  13.479 -0.6502  0.4176 -0.0800
  322MPD2    H7 4900   1.567   3.299  13.428 -1.9691 -0.2693 -2.0350
  323TMC3    C1 4901   1.623   3.319  13.682 -1.1719  0.3775  0.0972
  323TMC3    C2 4902   1.705   3.407  13.615 -0.6130 -0.1361  0.4661
  323TMC3    C3 4903   1.820   3.448  13.673 -0.1857  0.3681 -0.2878
  323TMC3    C4 4904   1.649   3.285  13.811 -0.1405 -0.2035 -0.4190
  323TMC3    C5 4905   1.764   3.320  13.871  0.2233  0.3449  0.1201
  323TMC3    C6 4906   1.858   3.398  13.801  0.4341 -0.1449  0.4371
  323TMC3     C 4907   1.534   3.218  13.615 -0.1677  0.1031 -0.3100
  323TMC3     O 4908   1.466   3.142  13.684  0.2812  0.4242  0.2499
  323TMC3     H 4909   1.659   3.471  13.540  0.4944  1.1893  0.9061
  323TMC3    H1 4910   1.578   3.222  13.863 -0.0169 -2.0020 -2.4289
  323TMC3    H2 4911   1.955   3.422  13.844  1.2140 -2.1401 -0.2358
  323TMC3    C7 4912   1.815   3.226  13.963  0.1568  0.1624  0.7021
  323TMC3    C8 4913   1.933   3.489  13.591  0.2042  0.8509 -0.1537
  323TMC3    O1 4914   1.804   3.109  13.930  0.3467  0.0877 -0.1683
  323TMC3    O2 4915   2.049   3.456  13.619 -0.1395 -0.5143  0.6227
  324MPD2     C 4916   3.032   4.203  14.074  0.4651  0.0911  0.2261
  324MPD2    C1 4917   3.039   4.340  14.073  0.3287  0.6706 -0.5288
  324MPD2    C2 4918   2.926   4.418  14.042  0.6679  0.6082  0.3413
  324MPD2    C3 4919   2.802   4.357  14.047  0.7620  0.3561  0.4120
  324MPD2    C4 4920   2.790   4.217  14.051  0.1956 -0.5990  0.2969
  324MPD2    C5 4921   2.911   4.146  14.061 -0.1163  0.3740 -0.3848
  324MPD2     H 4922   2.942   4.525  14.034  3.6969  0.2091  0.8810
  324MPD2    H1 4923   2.694   4.170  14.068 -1.2184  1.2137 -2.6903
  324MPD2    H2 4924   3.118   4.139  14.085  0.1253  0.2008  3.3484
  324MPD2    H3 4925   2.910   4.038  14.066  1.1678  0.4243  0.8196
  324MPD2     N 4926   2.678   4.422  14.036 -0.0159 -0.5763  0.9646
  324MPD2    H5 4927   2.593   4.367  14.030 -1.1467  1.5419 -2.6321
  324MPD2    N1 4928   3.161   4.413  14.103  0.2828  1.2746 -0.4018
  324MPD2    H7 4929   3.160   4.513  14.084  0.1254  1.2518 -0.5125
  325TMC3    C1 4930   2.519   4.594  14.047  0.5414  0.2113  0.3339
  325TMC3    C2 4931   2.421   4.498  14.019  0.1682 -0.0611  0.7424
  325TMC3    C3 4932   2.294   4.537  13.981  0.0899  0.0185 -0.1347
  325TMC3    C4 4933   2.483   4.727  14.043 -0.0397  0.0618  0.2484
  325TMC3    C5 4934   2.361   0.022  14.019 -0.1064 -0.0215 -0.2188
  325TMC3    C6 4935   2.266   4.670  13.981  0.3155 -0.7308  0.3945
  325TMC3     C 4936   2.659   4.555  14.048 -0.1294 -0.0511  0.1048
  325TMC3     O 4937   2.744   4.643  14.054 -0.6027  0.7159  0.2540
  325TMC3     H 4938   2.446   4.394  14.035 -0.2710  0.0098  1.9135
  325TMC3    H1 4939   2.552   0.071  14.070  0.9533 -0.6519 -0.2078
  325TMC3    H2 4940   2.169   4.707  13.946  0.0274 -0.7570  1.1798
  325TMC3    C7 4941   2.325   0.165  14.006  0.5221 -0.1916 -0.5808
  325TMC3    C8 4942   2.226   4.442  13.902  0.2760  0.7859  0.0935
  325TMC3    O1 4943   2.416   0.241  13.989  0.0448 -0.2147  0.0773
  325TMC3    O2 4944   2.290   4.377  13.821 -0.2181 -0.6339  0.3610
  326MPD2     C 4945   4.082   0.918  11.005 -0.0416 -0.6117 -0.5899
  326MPD2    C1 4946   4.159   0.865  10.906  0.6308 -0.1415  0.6114
  326MPD2    C2 4947   4.292   0.910  10.892 -0.6337 -0.1567 -0.1363
  326MPD2    C3 4948   4.350   1.008  10.981 -0.6160 -0.0239 -0.2356
  326MPD2    C4 4949   4.272   1.048  11.082  0.4821 -0.2068  0.3865
  326MPD2    C5 4950   4.142   0.997  11.098  0.4808 -0.4310 -0.3188
  326MPD2     H 4951   4.355   0.879  10.810 -3.5316  0.4369 -2.5920
  326MPD2    H1 4952   4.305   1.127  11.148 -1.2045  0.6164  0.2577
  326MPD2    H2 4953   3.983   0.886  11.035 -0.3380  1.0129  0.1735
  326MPD2    H3 4954   4.082   1.038  11.178  0.0767 -0.0420 -0.8208
  326MPD2     N 4955   4.471   1.071  10.957 -0.3347  0.7548  0.0678
  326MPD2    H5 4956   4.495   1.144  11.023  0.7922  2.1938 -1.9323
  326MPD2    N1 4957   4.107   0.776  10.817  0.4327 -0.5270 -0.3545
  326MPD2    H7 4958   4.175   0.738  10.751 -0.3083 -0.5307 -1.1207
  327TMC3    C1 4959   3.944   0.665  10.686  0.9070 -0.2353  0.0616
  327TMC3    C2 4960   3.907   0.718  10.569  0.4357 -0.3445 -0.9234
  327TMC3    C3 4961   3.914   0.653  10.449  0.5588 -0.4552  0.2374
  327TMC3    C4 4962   4.009   0.542  10.688 -0.5420  0.4904  0.0984
  327TMC3    C5 4963   4.003   0.477  10.569  0.3009  0.7358  1.1806
  327TMC3    C6 4964   3.960   0.522  10.451  0.4329 -0.9119  0.0802
  327TMC3     C 4965   3.973   0.758  10.787 -0.3557 -0.1559  0.0711
  327TMC3     O 4966   3.883   0.828  10.825  0.6044  0.7473  0.4887
  327TMC3     H 4967   3.856   0.814  10.570  1.1936  0.0536 -0.8211
  327TMC3    H1 4968   4.027   0.494  10.783 -0.1357 -1.1319 -0.8083
  327TMC3    H2 4969   3.972   0.455  10.367  1.4249 -2.3063  1.3427
  327TMC3    C7 4970   4.112   0.382  10.559 -0.2987 -0.7351 -0.0427
  327TMC3    C8 4971   3.934   0.747  10.340 -0.3095  0.1946  0.0854
  327TMC3    O1 4972   4.100   0.289  10.482  0.2926  0.2046 -0.1445
  327TMC3    O2 4973   3.859   0.844  10.343 -0.7905  0.0507 -0.7124
  328MPD2     C 4974   2.388   1.525  16.886 -0.7252 -0.1870 -0.2300
  328MPD2    C1 4975   2.308   1.433  16.944  0.1566  0.1608 -0.8096
  328MPD2    C2 4976   2.185   1.407  16.890  0.2846 -0.6636  0.2357
  328MPD2    C3 4977   2.140   1.478  16.784 -0.2856 -0.7622 -0.1264
  328MPD2    C4 4978   2.226   1.568  16.722  0.1784  0.7424 -0.2091
  328MPD2    C5 4979   2.350   1.589  16.777 -0.3161  0.3383  0.3174
  328MPD2     H 4980   2.121   1.330  16.931  0.4663  0.0449  1.8551
  328MPD2    H1 4981   2.191   1.640  16.649  0.9408  1.5902  0.2682
  328MPD2    H2 4982   2.490   1.549  16.913 -0.6238  0.6118 -1.3105
  328MPD2    H3 4983   2.405   1.672  16.735 -0.1776  0.3555  0.5334
  328MPD2     N 4984   2.008   1.466  16.724  0.4282  0.5044  0.2225
  328MPD2    H5 4985   1.980   1.540  16.661 -0.9993  0.7686  1.1634
  328MPD2    N1 4986   2.358   1.375  17.071  0.1497 -0.1592  0.0266
  328MPD2    H7 4987   2.425   1.424  17.129 -0.1157 -0.2719  0.4259
  329TMC3    C1 4988   2.279   1.275  17.267  0.3968  0.6158  0.1238
  329TMC3    C2 4989   2.262   1.405  17.314 -0.4165  0.3325 -0.1259
  329TMC3    C3 4990   2.175   1.431  17.412  0.0909  0.8809  0.1371
  329TMC3    C4 4991   2.211   1.172  17.325  0.3277  0.1725 -0.1423
  329TMC3    C5 4992   2.133   1.206  17.431  0.1530 -0.6011  0.1594
  329TMC3    C6 4993   2.112   1.331  17.479 -0.4127  0.2498 -0.4536
  329TMC3     C 4994   2.303   1.258  17.122  0.3649 -0.4658 -0.5770
  329TMC3     O 4995   2.245   1.176  17.056  0.3328 -0.0106  0.6406
  329TMC3     H 4996   2.301   1.493  17.263 -0.3449  0.4149  0.0699
  329TMC3    H1 4997   2.228   1.067  17.301 -0.7768 -0.0684  0.1406
  329TMC3    H2 4998   2.046   1.344  17.564 -0.6340  0.7401 -0.7036
  329TMC3    C7 4999   2.072   1.089  17.503  0.0388  0.1687 -0.1286
  329TMC3    C8 5000   2.089   1.544  17.383  0.2220 -0.5066  0.8635
  329TMC3    O1 5001   2.057   0.988  17.435  0.2178  0.0553  0.2565
  329TMC3    O2 5002   2.086   1.586  17.271  1.2701  0.1869 -0.3966
  330TMC3    C1 5003   4.682   4.601   9.149  0.2266  0.2994  0.0632
  330TMC3    C2 5004   4.590   4.526   9.081 -0.2827  0.6069  0.3566
  330TMC3    C3 5005   4.556   4.407   9.143  0.0293 -0.3066 -0.6252
  330TMC3    C4 5006   4.724   4.569   9.277  0.0319 -0.0771 -0.6595
  330TMC3    C5 5007   4.685   4.451   9.334  0.2777  0.0193 -0.4741
  330TMC3    C6 5008   4.593   4.368   9.268  0.3821 -0.1604 -0.6490
  330TMC3     C 5009   4.728   4.724   9.081  0.2291  0.1050 -0.0788
  330TMC3     O 5010   0.098   0.039   9.119 -0.0464  0.0053 -0.0604
  330TMC3     H 5011   4.567   4.535   8.975 -1.1620 -1.6123  0.3547
  330TMC3    H1 5012   0.057   4.637   9.327 -0.0216 -0.9644  0.6286
  330TMC3    H2 5013   4.568   4.271   9.309 -1.4467  0.3897 -0.4436
  330TMC3    C7 5014   4.730   4.414   9.465 -0.5871  0.0956 -0.1904
  330TMC3    C8 5015   4.452   4.336   9.076  1.0689  0.4283 -0.1450
  330TMC3    O1 5016   4.673   4.315   9.517  0.0019  0.2341 -0.5596
  330TMC3    O2 5017   4.407   4.381   8.972  0.5036  0.5354  1.0579
  331MPD2     C 5018   3.175   4.205  12.652  0.1474  0.0209  0.2401
  331MPD2    C1 5019   3.163   4.229  12.516  0.5541 -0.5065 -0.0056
  331MPD2    C2 5020   3.084   4.139  12.443  0.1797  0.6456  0.3850
  331MPD2    C3 5021   3.005   4.043  12.500 -0.7943 -0.5683  0.3040
  331MPD2    C4 5022   3.018   4.029  12.637  0.1864 -0.2485 -0.2536
  331MPD2    C5 5023   3.095   4.114  12.719  0.1491 -0.5247  0.5317
  331MPD2     H 5024   3.097   4.140  12.335 -1.0720 -1.0923  0.2162
  331MPD2    H1 5025   2.969   3.947  12.688 -1.2421 -1.1224 -3.0382
  331MPD2    H2 5026   3.242   4.264  12.713  2.0118 -0.3504 -1.4360
  331MPD2    H3 5027   3.099   4.105  12.827  0.3903  0.0532  0.5699
  331MPD2     N 5028   2.915   3.964  12.419 -0.3856 -0.2400 -0.2636
  331MPD2    H5 5029   2.892   3.998  12.327  1.0503 -1.3511 -1.0333
  331MPD2    N1 5030   3.258   4.319  12.461 -0.0003 -0.2554 -0.3408
  331MPD2    H7 5031   3.332   4.338  12.527  1.9125 -1.7215 -2.0797
  332TMC3    C1 5032   2.779   3.769  12.362 -0.2389  0.0004  0.0845
  332TMC3    C2 5033   2.769   3.808  12.229  0.5995 -0.6914 -0.7016
  332TMC3    C3 5034   2.713   3.718  12.142 -0.2686 -0.6013 -0.4746
  332TMC3    C4 5035   2.724   3.657  12.409 -0.2227 -0.9610  0.3273
  332TMC3    C5 5036   2.670   3.575  12.314  0.3214 -0.4828  0.4412
  332TMC3    C6 5037   2.664   3.595  12.177  0.2626  0.8444 -0.1163
  332TMC3     C 5038   2.864   3.837  12.454 -0.6805 -0.2202 -0.0860
  332TMC3     O 5039   2.881   3.776  12.559 -0.4081  0.3620 -0.0356
  332TMC3     H 5040   2.805   3.902  12.187 -0.2375  0.1793  0.5517
  332TMC3    H1 5041   2.716   3.634  12.514 -0.0705 -0.7549  0.3836
  332TMC3    H2 5042   2.646   3.516  12.105 -0.3565  1.3259 -0.4900
  332TMC3    C7 5043   2.686   3.431  12.339  0.5774  0.3016 -0.1216
  332TMC3    C8 5044   2.728   3.736  12.004  0.6940  0.0973  0.6539
  332TMC3    O1 5045   2.596   3.353  12.308 -0.2153  0.4556 -0.0656
  332TMC3    O2 5046   2.815   3.808  11.963  0.1069 -0.3469 -0.3518
  333MPD2     C 5047   2.618   4.211  10.590 -0.7265  0.4759 -0.6231
  333MPD2    C1 5048   2.700   4.133  10.519  0.3747  1.1467 -0.0034
  333MPD2    C2 5049   2.738   4.012  10.560  0.2327 -0.4870  0.6363
  333MPD2    C3 5050   2.670   3.952  10.662  0.2044 -0.4591 -0.3139
  333MPD2    C4 5051   2.569   4.023  10.733  0.1371 -0.4193  0.5590
  333MPD2    C5 5052   2.547   4.155  10.697  0.6738  0.1455  0.2275
  333MPD2     H 5053   2.818   3.957  10.513  1.7828  0.8760  1.7045
  333MPD2    H1 5054   2.511   3.984  10.816 -0.4501 -1.5730 -0.4018
  333MPD2    H2 5055   2.587   4.309  10.553  0.5021  0.3306 -2.0307
  333MPD2    H3 5056   2.489   4.225  10.755 -2.2088 -1.0253 -1.2799
  333MPD2     N 5057   2.699   3.826  10.697 -0.8680 -0.3302 -0.0055
  333MPD2    H5 5058   2.766   3.780  10.636 -0.0822 -0.1217  0.6972
  333MPD2    N1 5059   2.778   4.200  10.427 -0.1201 -0.3545  1.5577
  333MPD2    H7 5060   2.764   4.301  10.419 -3.8114 -1.0318 -0.5235
  334TMC3    C1 5061   2.980   4.219  10.292  0.0135  0.5266  0.4731
  334TMC3    C2 5062   3.064   4.167  10.193  0.7581  0.4737  0.0629
  334TMC3    C3 5063   3.184   4.231  10.169 -0.3177 -0.5329  0.5012
  334TMC3    C4 5064   3.008   4.336  10.359  1.0280 -0.2356 -0.5537
  334TMC3    C5 5065   3.127   4.390  10.336  0.1922  0.3698 -0.1326
  334TMC3    C6 5066   3.212   4.341  10.244 -0.5483  0.6039  0.4321
  334TMC3     C 5067   2.868   4.138  10.337  0.0864 -0.3953  0.1261
  334TMC3     O 5068   2.879   4.020  10.309  0.5459  0.1890 -0.4869
  334TMC3     H 5069   3.040   4.075  10.140  2.2810  1.0449 -1.6108
  334TMC3    H1 5070   2.946   4.368  10.442  1.6440  2.0054 -0.9651
  334TMC3    H2 5071   3.311   4.386  10.238 -0.4222  0.4296  1.1293
  334TMC3    C7 5072   3.153   4.521  10.390  0.2762 -0.0205 -0.0553
  334TMC3    C8 5073   3.292   4.139  10.130  0.0134 -0.4832  0.2872
  334TMC3    O1 5074   3.261   4.576  10.369 -0.6842  0.1462  0.5917
  334TMC3    O2 5075   3.269   4.020  10.135 -0.9244  0.5052  0.2034
  335TMC3    C1 5076   2.748   0.931  16.785  0.3099  0.5478 -0.2050
  335TMC3    C2 5077   2.656   0.854  16.717 -0.7371 -0.0971  0.1345
  335TMC3    C3 5078   2.695   0.788  16.601  0.2970 -0.5231  0.8418
  335TMC3    C4 5079   2.878   0.925  16.752  0.1351 -0.5096 -0.1652
  335TMC3    C5 5080   2.918   0.842  16.645  0.2626 -0.2858 -0.8596
  335TMC3    C6 5081   2.827   0.782  16.562  0.0691  0.1546 -0.0554
  335TMC3     C 5082   2.710   0.992  16.912 -0.7819  0.3006 -0.2129
  335TMC3     O 5083   2.588   0.992  16.938 -0.1920 -0.1779 -0.0790
  335TMC3     H 5084   2.549   0.857  16.736 -0.7938  2.2286 -0.4648
  335TMC3    H1 5085   2.946   1.004  16.782 -1.9528  1.5913 -0.9288
  335TMC3    H2 5086   2.855   0.725  16.475 -1.2457  0.1755 -0.4892
  335TMC3    C7 5087   3.056   0.807  16.637  0.2650  0.4742  0.4404
  335TMC3    C8 5088   2.598   0.741  16.507  0.6329  0.7029 -0.4374
  335TMC3    O1 5089   3.129   0.881  16.698  0.8452 -0.4572 -0.6086
  335TMC3    O2 5090   2.620   0.763  16.388 -0.3438 -0.0803  0.0424
  336MPD2     C 5091   1.995   3.778  15.728 -0.2619  0.4425  0.0422
  336MPD2    C1 5092   1.881   3.714  15.680  0.8045 -0.0233  0.0607
  336MPD2    C2 5093   1.866   3.575  15.698  0.1607 -0.3188  0.4878
  336MPD2    C3 5094   1.964   3.506  15.772  0.0992 -0.2282  0.3702
  336MPD2    C4 5095   2.069   3.570  15.826 -0.0002  0.0281  0.6096
  336MPD2    C5 5096   2.079   3.706  15.808 -0.0581  0.0633 -1.1627
  336MPD2     H 5097   1.779   3.522  15.661 -1.4264  2.4598  0.2375
  336MPD2    H1 5098   2.144   3.513  15.879  0.6715  1.4956  1.2379
  336MPD2    H2 5099   2.013   3.885  15.718 -0.8809  0.7765  2.5056
  336MPD2    H3 5100   2.171   3.749  15.847 -1.7000  1.0123  1.6707
  336MPD2     N 5101   1.958   3.366  15.794 -0.7477 -0.3222 -0.2434
  336MPD2    H5 5102   2.043   3.324  15.831 -0.9282 -0.4878 -0.0158
  336MPD2    N1 5103   1.789   3.795  15.610  0.4755 -0.1066 -0.8016
  336MPD2    H7 5104   1.702   3.755  15.577  0.2862  1.3967 -2.1459
  337TMC3    C1 5105   1.708   3.974  15.466  0.6558  0.3327  0.1044
  337TMC3    C2 5106   1.580   3.944  15.496 -0.2147 -0.1771  0.0703
  337TMC3    C3 5107   1.493   3.963  15.397 -0.0364  0.1072  0.1753
  337TMC3    C4 5108   1.748   4.016  15.348  0.0523 -0.1906  1.3228
  337TMC3    C5 5109   1.659   4.030  15.246  0.6067 -0.2579 -0.1775
  337TMC3    C6 5110   1.524   4.013  15.271 -0.3105 -0.4284  0.4140
  337TMC3     C 5111   1.820   3.916  15.544  0.1583  0.1878 -0.3401
  337TMC3     O 5112   1.928   3.968  15.515 -0.2274 -0.0631  0.3325
  337TMC3     H 5113   1.547   3.914  15.594  1.1675 -1.2590  0.2067
  337TMC3    H1 5114   1.851   4.049  15.334 -0.4708  1.2945  0.9605
  337TMC3    H2 5115   1.451   4.029  15.193  1.8322  0.3066 -1.4611
  337TMC3    C7 5116   1.685   3.949  15.133  0.7232  0.3269  0.1447
  337TMC3    C8 5117   1.369   3.889  15.401 -0.3968  0.0172  0.0990
  337TMC3    O1 5118   1.595   3.919  15.062  0.2616 -0.0125 -0.2909
  337TMC3    O2 5119   1.296   3.887  15.500  0.3048  0.7458  0.0669
  338MPD2     C 5120   2.825   3.339   0.949  0.3277 -0.0139  0.3771
  338MPD2    C1 5121   2.729   3.280   0.872  0.2762  1.0576 -0.7096
  338MPD2    C2 5122   2.596   3.321   0.895  0.0542 -0.2126  0.3515
  338MPD2    C3 5123   2.562   3.421   0.984  0.1561  0.2516 -0.2334
  338MPD2    C4 5124   2.660   3.478   1.071  1.1599  0.0205  0.2944
  338MPD2    C5 5125   2.788   3.435   1.043  0.1569  0.4298 -0.0508
  338MPD2     H 5126   2.520   3.251   0.863 -1.0543  0.9854  0.3430
  338MPD2    H1 5127   2.641   3.551   1.149  0.9644 -0.1853  0.4434
  338MPD2    H2 5128   2.928   3.317   0.922  0.2893  0.5183 -0.1896
  338MPD2    H3 5129   2.868   3.492   1.090  0.5545  1.7461 -2.2663
  338MPD2     N 5130   2.427   3.458   1.005 -0.2413 -0.6813 -0.1556
  338MPD2    H5 5131   2.400   3.518   1.082  0.8492  0.0558 -0.3546
  338MPD2    N1 5132   2.747   3.169   0.787  0.2285  0.0098 -0.3384
  338MPD2    H7 5133   2.665   3.133   0.740 -1.4427  0.9441  1.8675
  339TMC3    C1 5134   2.202   3.476   0.952 -0.1490  0.4173  0.6719
  339TMC3    C2 5135   2.163   3.407   1.059  0.5429 -0.4297  0.5463
  339TMC3    C3 5136   2.033   3.364   1.069 -0.5903  0.6218  0.6902
  339TMC3    C4 5137   2.114   3.512   0.856 -0.9300  0.1725  0.4360
  339TMC3    C5 5138   1.981   3.471   0.864  0.5280  0.1106 -0.4636
  339TMC3    C6 5139   1.936   3.394   0.968 -0.2519  0.5211 -0.1649
  339TMC3     C 5140   2.329   3.436   0.908 -0.2291  0.8166  0.0295
  339TMC3     O 5141   2.341   3.407   0.788 -0.0577 -0.2460 -0.1021
  339TMC3     H 5142   2.236   3.366   1.129 -0.0289  1.2953  2.1619
  339TMC3    H1 5143   2.152   3.559   0.766  1.5044 -1.3180  0.6969
  339TMC3    H2 5144   1.835   3.355   0.978  0.3640 -0.9347  0.4961
  339TMC3    C7 5145   1.900   3.497   0.747  0.3507  0.4133 -0.2403
  339TMC3    C8 5146   1.994   3.333   1.210 -0.0604 -0.4009 -0.4149
  339TMC3    O1 5147   1.961   3.550   0.654 -0.0941  0.0284  0.0001
  339TMC3    O2 5148   2.083   3.340   1.295 -0.3099  0.2278 -0.2906
  340MPD2     C 5149   2.775   0.191   9.839  0.2179 -0.8395  0.2981
  340MPD2    C1 5150   2.848   0.185   9.721  0.0917 -0.1109 -0.4588
  340MPD2    C2 5151   2.965   0.259   9.708 -0.4834  0.5120  0.3220
  340MPD2    C3 5152   3.010   0.337   9.813 -0.6023 -0.6656  0.6093
  340MPD2    C4 5153   2.939   0.337   9.931 -0.4489  0.3902  0.2830
  340MPD2    C5 5154   2.824   0.264   9.942  0.0909  0.2414 -0.0968
  340MPD2     H 5155   3.022   0.267   9.616 -2.7029  0.9494 -1.0170
  340MPD2    H1 5156   2.988   0.386  10.013  2.1211 -1.6029 -0.0374
  340MPD2    H2 5157   2.690   0.125   9.848 -0.3628 -0.3023 -1.2287
  340MPD2    H3 5158   2.758   0.282  10.026  0.4058  0.4858  0.1011
  340MPD2     N 5159   3.123   0.412   9.810 -0.0961 -0.1984 -0.2478
  340MPD2    H5 5160   3.132   0.477   9.888  1.9455  0.2671 -0.8746
  340MPD2    N1 5161   2.783   0.108   9.627  0.3254 -0.0421 -0.2292
  340MPD2    H7 5162   2.697   0.065   9.661 -0.4470  1.3087 -0.4820
  341TMC3    C1 5163   2.742   4.715   9.434 -0.2296  0.0311 -0.1199
  341TMC3    C2 5164   2.664   4.629   9.505 -0.0799  0.0729 -0.1493
  341TMC3    C3 5165   2.616   4.514   9.440 -0.4107 -0.2421  0.1182
  341TMC3    C4 5166   2.757   4.698   9.299 -0.7026  0.7749 -0.5447
  341TMC3    C5 5167   2.708   4.587   9.243  0.6587  0.2680 -0.0506
  341TMC3    C6 5168   2.631   4.494   9.308  0.4430 -0.0740  0.5382
  341TMC3     C 5169   2.836   0.077   9.502 -0.1046 -0.6889 -0.3284
  341TMC3     O 5170   2.945   0.107   9.454 -0.2048 -0.0313 -0.5470
  341TMC3     H 5171   2.652   4.631   9.613 -2.1673  1.9345 -0.4001
  341TMC3    H1 5172   2.827   0.030   9.251  0.5498 -2.0487 -2.6594
  341TMC3    H2 5173   2.588   4.424   9.237 -0.5951  1.0242  0.0761
  341TMC3    C7 5174   2.744   4.575   9.099 -0.2115 -0.4462  0.3212
  341TMC3    C8 5175   2.506   4.451   9.503  0.0741  0.6875  0.4224
  341TMC3    O1 5176   2.791   4.676   9.044  0.0156 -0.3591 -0.1998
  341TMC3    O2 5177   2.446   4.522   9.581 -0.8691 -0.1905  0.3158
  342MPD2     C 5178   0.645   4.211  17.359  0.1853 -0.3399  0.1542
  342MPD2    C1 5179   0.749   4.206  17.266  0.2890 -0.6248  0.1992
  342MPD2    C2 5180   0.826   4.315  17.239  0.6539 -0.4166 -0.9008
  342MPD2    C3 5181   0.786   4.442  17.288  0.5044 -0.3094 -0.3596
  342MPD2    C4 5182   0.676   4.449  17.372 -0.4892  0.3242 -0.6593
  342MPD2    C5 5183   0.606   4.334  17.414 -0.3672  0.3124  0.0001
  342MPD2     H 5184   0.912   4.299  17.174 -0.9315 -0.5209 -2.9559
  342MPD2    H1 5185   0.646   4.541  17.421  0.0565  0.5319 -0.7205
  342MPD2    H2 5186   0.569   4.138  17.385  1.1635 -1.6412 -0.5974
  342MPD2    H3 5187   0.518   4.341  17.477  0.0732  1.1833  0.5166
  342MPD2     N 5188   0.851   4.559  17.248 -0.6620 -0.3330 -0.1889
  342MPD2    H5 5189   0.804   4.648  17.253  2.5064  1.3361 -0.0595
  342MPD2    N1 5190   0.783   4.087  17.201  0.1003  0.1486  0.2134
  342MPD2    H7 5191   0.866   4.087  17.142 -0.3106 -1.5554 -0.3637
  343TMC3    C1 5192   0.783   3.866  17.141  0.1487  0.2894 -0.3029
  343TMC3    C2 5193   0.842   3.894  17.020  0.8630  0.4955  0.1131
  343TMC3    C3 5194   0.884   3.785  16.951 -0.5898 -0.1096 -0.2630
  343TMC3    C4 5195   0.766   3.741  17.194  0.6570 -0.7055 -0.0548
  343TMC3    C5 5196   0.808   3.635  17.122  0.1106  0.0618  0.4557
  343TMC3    C6 5197   0.872   3.655  17.000 -0.5601 -0.1423  0.7510
  343TMC3     C 5198   0.719   3.965  17.223 -0.3617  0.0493 -0.3839
  343TMC3     O 5199   0.632   3.936  17.303  0.1028  0.3288  0.6075
  343TMC3     H 5200   0.853   3.994  16.979 -0.7027  0.8216  0.4640
  343TMC3    H1 5201   0.712   3.732  17.287  1.1781  2.8088  0.5832
  343TMC3    H2 5202   0.898   3.563  16.949  0.3554 -0.0209  0.9937
  343TMC3    C7 5203   0.793   3.502  17.185  0.0070 -0.2186  0.2546
  343TMC3    C8 5204   0.922   3.810  16.815 -0.3272 -0.1330  0.2289
  343TMC3    O1 5205   0.712   3.503  17.274 -0.5581  0.3947  0.0708
  343TMC3    O2 5206   0.961   3.920  16.781  0.3917  0.0783 -0.0777
  344MPD2     C 5207   1.793   2.955  10.653  0.0197 -0.2444  0.6043
  344MPD2    C1 5208   1.668   2.972  10.619 -0.1835  0.0320 -0.2888
  344MPD2    C2 5209   1.629   3.102  10.595  0.0649  0.0403  0.0988
  344MPD2    C3 5210   1.726   3.208  10.614  0.2532  0.2665 -0.7217
  344MPD2    C4 5211   1.859   3.184  10.647 -0.1465  0.2297  0.1298
  344MPD2    C5 5212   1.885   3.054  10.673  0.3706 -0.1542  0.0202
  344MPD2     H 5213   1.524   3.122  10.577 -0.0884 -0.7940  0.0787
  344MPD2    H1 5214   1.940   3.254  10.664 -2.6079  2.3425  3.0563
  344MPD2    H2 5215   1.826   2.852  10.666 -0.3249 -0.5881 -1.4061
  344MPD2    H3 5216   1.988   3.043  10.707 -0.0358 -0.7892  1.0524
  344MPD2     N 5217   1.689   3.343  10.590 -0.0759  0.7212  0.4278
  344MPD2    H5 5218   1.754   3.415  10.620  1.1722 -0.1292 -0.2278
  344MPD2    N1 5219   1.580   2.860  10.600  0.0512  0.1433  0.1301
  344MPD2    H7 5220   1.483   2.880  10.576  1.2386  2.8014 -2.3428
  345TMC3    C1 5221   1.580   3.530  10.514  0.1331  0.3097  0.0343
  345TMC3    C2 5222   1.653   3.601  10.603  0.3646 -0.2391 -0.0249
  345TMC3    C3 5223   1.690   3.730  10.564 -0.2487  0.1961  0.6939
  345TMC3    C4 5224   1.551   3.581  10.393  0.0467  0.2587 -0.8113
  345TMC3    C5 5225   1.596   3.709  10.352 -0.0967  0.1609  0.1660
  345TMC3    C6 5226   1.675   3.781  10.445  0.4274  0.1384 -0.9112
  345TMC3     C 5227   1.578   3.389  10.525 -0.2058  0.6185 -0.4241
  345TMC3     O 5228   1.477   3.333  10.479  0.0302 -0.4004 -0.4401
  345TMC3     H 5229   1.680   3.576  10.704  0.5584  1.0687  0.2541
  345TMC3    H1 5230   1.492   3.522  10.324  1.5757  0.0775 -1.9617
  345TMC3    H2 5231   1.716   3.879  10.420  1.4122 -0.2919 -0.9973
  345TMC3    C7 5232   1.519   3.799  10.275 -0.1010  0.2350 -0.3041
  345TMC3    C8 5233   1.708   3.823  10.672  0.1661  0.1076  0.4954
  345TMC3    O1 5234   1.549   3.918  10.289 -0.1529 -0.3570  0.6001
  345TMC3    O2 5235   1.657   3.784  10.781  0.4864  0.4091  0.6300
  346MPD2     C 5236   1.073   0.108  13.534  0.2210  0.3042 -0.5141
  346MPD2    C1 5237   1.207   0.072  13.552 -0.3722 -0.0002 -0.2562
  346MPD2    C2 5238   1.285   0.119  13.662  0.2062 -0.2597 -1.1994
  346MPD2    C3 5239   1.219   0.203  13.751  0.0197  0.2649  0.2625
  346MPD2    C4 5240   1.085   0.233  13.736 -0.9649 -0.0260 -0.2133
  346MPD2    C5 5241   1.010   0.181  13.629 -0.8849 -0.3715  0.2794
  346MPD2     H 5242   1.385   0.085  13.687  0.1603 -0.1735 -0.8976
  346MPD2    H1 5243   1.039   0.296  13.811  0.3944 -0.3322  0.8728
  346MPD2    H2 5244   1.018   0.065  13.451  0.5895 -1.1571 -0.0007
  346MPD2    H3 5245   0.904   0.199  13.614 -0.7412 -0.1753 -0.5002
  346MPD2     N 5246   1.302   0.264  13.855 -0.7609 -0.1051 -0.0928
  346MPD2    H5 5247   1.399   0.234  13.858 -0.4547  0.6725 -2.3230
  346MPD2    N1 5248   1.256   4.730  13.440 -0.5960  0.1847  0.1272
  346MPD2    H7 5249   1.186   4.723  13.366 -2.1633  0.5804  1.5748
  347TMC3    C1 5250   1.367   0.409  14.039  0.6187  0.0734 -0.1722
  347TMC3    C2 5251   1.495   0.377  14.013  0.4821  0.3887 -0.9433
  347TMC3    C3 5252   1.589   0.422  14.108 -0.2803  0.0798 -0.4743
  347TMC3    C4 5253   1.327   0.466  14.157  0.2283  0.5860 -0.1980
  347TMC3    C5 5254   1.423   0.509  14.243 -0.0814 -0.2356 -0.6748
  347TMC3    C6 5255   1.552   0.492  14.219 -0.2825  0.2138 -0.1202
  347TMC3     C 5256   1.262   0.346  13.954  0.1270 -0.8413  0.3177
  347TMC3     O 5257   1.145   0.361  13.995  0.0253 -0.1486 -0.5272
  347TMC3     H 5258   1.524   0.324  13.923  2.1953 -1.3464  0.6364
  347TMC3    H1 5259   1.221   0.478  14.179  0.3555 -1.9657  1.7367
  347TMC3    H2 5260   1.615   0.491  14.307 -0.8258  0.4368  0.2729
  347TMC3    C7 5261   1.374   0.498  14.385 -0.4906 -0.0339 -0.1034
  347TMC3    C8 5262   1.725   0.377  14.083  0.6415  0.0752 -0.0052
  347TMC3    O1 5263   1.271   0.440  14.406  0.3423  0.1325  0.3034
  347TMC3    O2 5264   1.736   0.261  14.048 -0.4589  0.4299 -0.0499
  348MPD2     C 5265   0.289   4.466  11.881  0.3435  0.3622  0.9254
  348MPD2    C1 5266   0.396   4.548  11.858 -0.3099 -0.1366  0.0446
  348MPD2    C2 5267   0.405   4.615  11.741 -0.4338 -0.5742 -0.1569
  348MPD2    C3 5268   0.303   4.614  11.650  0.4972 -0.6149 -0.0230
  348MPD2    C4 5269   0.203   4.530  11.678 -0.1206 -0.2688  0.2833
  348MPD2    C5 5270   0.193   4.456  11.788 -0.6957  0.6982 -0.2136
  348MPD2     H 5271   0.502   4.659  11.719 -0.3664  0.4015  2.0632
  348MPD2    H1 5272   0.119   4.524  11.608 -1.3014 -1.3893  1.7974
  348MPD2    H2 5273   0.280   4.403  11.968 -1.2671  0.6206  0.9421
  348MPD2    H3 5274   0.113   4.389  11.818  0.2604 -0.2335  0.2495
  348MPD2     N 5275   0.310   4.673  11.522 -0.1082  0.2178  0.5118
  348MPD2    H5 5276   0.243   4.646  11.452  0.5752  0.3557 -0.1971
  348MPD2    N1 5277   0.504   4.550  11.951  0.3254 -0.0630  0.2082
  348MPD2    H7 5278   0.586   4.600  11.919  0.0395 -0.1729 -0.6991
  349TMC3    C1 5279   0.635   4.466  12.124 -0.2934 -0.2491  0.2598
  349TMC3    C2 5280   0.636   4.343  12.185 -0.3974  0.3505  0.0615
  349TMC3    C3 5281   0.747   4.272  12.162 -0.0033  0.1243 -0.0546
  349TMC3    C4 5282   0.743   4.533  12.066 -0.1619 -0.9855 -0.4556
  349TMC3    C5 5283   0.856   4.456  12.051  0.1732  0.4575 -0.6476
  349TMC3    C6 5284   0.852   4.323  12.089  0.3912 -1.0966  0.0165
  349TMC3     C 5285   0.503   4.489  12.074  1.2134  0.2033 -0.2704
  349TMC3     O 5286   0.404   4.433  12.130  0.4522  0.1323 -0.5814
  349TMC3     H 5287   0.544   4.304  12.228 -0.1204 -1.4241 -0.9528
  349TMC3    H1 5288   0.733   4.635  12.028 -3.9301 -1.3273 -0.3471
  349TMC3    H2 5289   0.948   4.273  12.087  1.9963  2.0585 -2.2048
  349TMC3    C7 5290   0.865   4.451  11.906 -0.9893 -0.5280  0.6868
  349TMC3    C8 5291   0.739   4.126  12.139 -0.1493  0.1918 -0.4533
  349TMC3    O1 5292   0.827   4.341  11.861  0.3232  0.3720 -0.2241
  349TMC3    O2 5293   0.644   4.068  12.189 -0.6343  0.2630  0.5077
  350MPD2     C 5294   3.675   3.093  10.079 -0.2597 -0.6290  0.9915
  350MPD2    C1 5295   3.715   2.971  10.041 -0.3558  0.4956  0.6732
  350MPD2    C2 5296   3.845   2.935  10.065  0.4505 -0.1608 -0.2345
  350MPD2    C3 5297   3.932   3.009  10.148 -0.2951  0.1025  0.0046
  350MPD2    C4 5298   3.880   3.123  10.203 -0.1340  0.0522  0.2490
  350MPD2    C5 5299   3.757   3.164  10.166  0.3873 -0.1256  0.5444
  350MPD2     H 5300   3.884   2.854  10.004  0.3337  0.6311 -1.3584
  350MPD2    H1 5301   3.921   3.192  10.276  0.4121 -0.5971  0.5591
  350MPD2    H2 5302   3.571   3.117  10.059 -0.0324 -1.5103 -1.2772
  350MPD2    H3 5303   3.715   3.258  10.199  0.8338  0.1820  0.2465
  350MPD2     N 5304   4.065   2.965  10.165 -0.0450  0.5606  0.1818
  350MPD2    H5 5305   4.100   2.884  10.115 -0.1929  1.7136 -1.7642
  350MPD2    N1 5306   3.626   2.879   9.970 -1.2041 -0.3774 -0.3500
  350MPD2    H7 5307   3.663   2.784   9.965 -1.3486 -0.4681  0.3504
  351TMC3    C1 5308   3.425   2.769   9.918 -0.3657 -0.4903  0.3551
  351TMC3    C2 5309   3.491   2.650   9.909  0.0601  1.0525  0.1756
  351TMC3    C3 5310   3.413   2.535   9.913  0.2008  0.7180 -0.3005
  351TMC3    C4 5311   3.285   2.775   9.893 -0.1122  1.0145 -0.1752
  351TMC3    C5 5312   3.225   2.653   9.879 -0.0974 -0.0750  0.6920
  351TMC3    C6 5313   3.278   2.535   9.896  0.0828  0.3755  0.7660
  351TMC3     C 5314   3.497   2.892   9.940  0.1747 -0.3274 -0.3300
  351TMC3     O 5315   3.431   2.991   9.919  0.3074 -0.0399 -0.2343
  351TMC3     H 5316   3.595   2.626   9.928 -0.1025  0.4702  0.3389
  351TMC3    H1 5317   3.228   2.867   9.886 -2.0819 -0.4333 -3.2717
  351TMC3    H2 5318   3.216   2.447   9.896  1.6354 -0.7161 -0.6460
  351TMC3    C7 5319   3.085   2.652   9.914 -0.4313  0.4742  0.2504
  351TMC3    C8 5320   3.493   2.429   9.865  0.0691 -0.1873  0.1508
  351TMC3    O1 5321   3.047   2.571   9.994 -0.4219  0.0516  0.0608
  351TMC3    O2 5322   3.584   2.443   9.784 -0.0162  0.1340  0.5214
  352MPD2     C 5323   3.071   0.768   0.438 -0.2308 -0.3169 -0.5848
  352MPD2    C1 5324   2.979   0.673   0.410 -0.7595  0.5500  0.3165
  352MPD2    C2 5325   3.015   0.543   0.377  0.0490  0.4772 -0.1550
  352MPD2    C3 5326   3.146   0.507   0.369  0.3828 -0.2619  0.1068
  352MPD2    C4 5327   3.242   0.598   0.405 -0.6014 -0.6275  0.0275
  352MPD2    C5 5328   3.203   0.728   0.437  0.3422 -0.1149  0.1272
  352MPD2     H 5329   2.942   0.466   0.355 -0.3255  1.8157 -3.7373
  352MPD2    H1 5330   3.348   0.582   0.388 -0.3524  0.4932  0.5436
  352MPD2    H2 5331   3.044   0.866   0.474 -1.4662 -1.7597  2.3994
  352MPD2    H3 5332   3.279   0.801   0.464 -0.2314  1.2111 -1.8585
  352MPD2     N 5333   3.183   0.371   0.335  0.6850  0.2388 -0.5808
  352MPD2    H5 5334   3.283   0.360   0.320  1.1496  0.7350  2.1017
  352MPD2    N1 5335   2.843   0.716   0.414 -0.4623 -0.3926  1.3014
  352MPD2    H7 5336   2.835   0.816   0.426 -0.4241 -0.2378  0.0702
  353TMC3    C1 5337   3.173   0.147   0.274  0.1812 -0.0209 -0.0177
  353TMC3    C2 5338   3.283   0.109   0.349 -0.2205  0.5191 -0.4456
  353TMC3    C3 5339   3.312   4.707   0.351 -0.2254  0.0855  0.1124
  353TMC3    C4 5340   3.100   0.054   0.209 -0.2208 -0.7612 -0.0676
  353TMC3    C5 5341   3.134   4.656   0.222  0.0415 -0.2640  1.0480
  353TMC3    C6 5342   3.243   4.607   0.282  0.5826 -0.0904  0.5306
  353TMC3     C 5343   3.095   0.265   0.305  0.7623  0.2210 -0.3884
  353TMC3     O 5344   2.972   0.249   0.306 -0.3345  0.2194  0.2274
  353TMC3     H 5345   3.341   0.179   0.407  0.9018  0.0543 -0.9987
  353TMC3    H1 5346   3.026   0.083   0.136 -1.1910  0.3495  1.3571
  353TMC3    H2 5347   3.262   4.501   0.293  0.3320 -0.4078 -1.9958
  353TMC3    C7 5348   3.015   4.574   0.239 -0.1310 -0.0925 -0.4384
  353TMC3    C8 5349   3.424   4.675   0.435  0.6894  0.1932 -0.2848
  353TMC3    O1 5350   3.033   4.456   0.245 -0.1227 -0.0866 -0.0049
  353TMC3    O2 5351   3.510   0.026   0.437 -0.9115 -0.1614  0.0134
  354TMC3    C1 5352   4.218   1.011  13.386  0.0230 -0.0492 -0.2093
  354TMC3    C2 5353   4.270   1.137  13.365 -0.9029  0.0784 -0.0649
  354TMC3    C3 5354   4.226   1.204  13.260 -0.3141  0.0400 -0.2622
  354TMC3    C4 5355   4.136   0.951  13.293  0.5707  0.3173 -0.5213
  354TMC3    C5 5356   4.093   1.023  13.184  0.1419 -0.1437 -0.4386
  354TMC3    C6 5357   4.131   1.150  13.177 -0.3517  0.0180 -0.0759
  354TMC3     C 5358   4.188   0.963  13.521 -0.8019 -0.7875 -0.2278
  354TMC3     O 5359   4.124   0.858  13.535  0.2756  0.0035  0.4657
  354TMC3     H 5360   4.328   1.188  13.441 -0.0645 -0.8480 -0.0907
  354TMC3    H1 5361   4.079   0.859  13.304 -1.5887  1.3769 -2.7023
  354TMC3    H2 5362   4.086   1.219  13.106  1.7466  0.0383 -1.3863
  354TMC3    C7 5363   4.094   0.953  13.060  0.2344 -0.4770  0.5830
  354TMC3    C8 5364   4.339   1.263  13.177 -0.5663  0.0711  0.1531
  354TMC3    O1 5365   4.049   0.840  13.041  0.2669 -0.6837 -0.0850
  354TMC3    O2 5366   4.319   1.273  13.055  0.1496 -0.7089 -0.0698
  355MPD2     C 5367   4.313   1.776  11.569  0.1644  0.2420  0.6540
  355MPD2    C1 5368   4.308   1.837  11.451  0.1598 -0.1565  0.2467
  355MPD2    C2 5369   4.431   1.888  11.405  0.5483  0.0210 -0.1842
  355MPD2    C3 5370   4.545   1.874  11.482 -0.3432 -0.2468  0.0595
  355MPD2    C4 5371   4.538   1.808  11.601  0.0917 -0.3083  0.1514
  355MPD2    C5 5372   4.419   1.759  11.649 -0.4630  0.4612  0.0928
  355MPD2     H 5373   4.426   1.933  11.307 -0.3479 -1.4096 -0.8071
  355MPD2    H1 5374   4.625   1.794  11.664 -0.0147  0.0332  0.3684
  355MPD2    H2 5375   4.229   1.717  11.604 -0.8034  1.0329 -0.3576
  355MPD2    H3 5376   4.409   1.704  11.742  2.1169  0.8517  0.6250
  355MPD2     N 5377   4.669   1.924  11.444  0.6904  0.3251 -0.4097
  355MPD2    H5 5378   0.010   1.914  11.509  0.3295  0.3480  0.0170
  355MPD2    N1 5379   4.179   1.832  11.377  0.1294 -0.0291 -0.2892
  355MPD2    H7 5380   4.112   1.760  11.401  1.9938 -1.2370  1.2445
  356TMC3    C1 5381   0.073   2.081  11.331 -0.2982  0.1178  0.4030
  356TMC3    C2 5382   0.091   2.162  11.228 -0.4579 -0.1131  0.8396
  356TMC3    C3 5383   0.204   2.246  11.221 -0.5870  0.0804  0.2931
  356TMC3    C4 5384   0.141   2.094  11.442 -0.0313 -0.2717 -0.3564
  356TMC3    C5 5385   0.249   2.183  11.446  0.1783  0.1437 -0.1127
  356TMC3    C6 5386   0.279   2.264  11.340  0.2034 -0.3931  0.0998
  356TMC3     C 5387   4.694   1.992  11.324  0.5582  0.3284  0.0795
  356TMC3     O 5388   4.626   1.990  11.226  0.3132  1.1241  0.1296
  356TMC3     H 5389   0.021   2.158  11.145  1.6972 -1.5197 -0.9353
  356TMC3    H1 5390   0.142   2.020  11.522 -0.8720  1.0903  0.9049
  356TMC3    H2 5391   0.360   2.335  11.350  1.3404 -1.6956 -0.0251
  356TMC3    C7 5392   0.326   2.178  11.569 -0.0226  0.4098  0.1900
  356TMC3    C8 5393   0.216   2.339  11.112  0.2468  0.2423  0.0204
  356TMC3    O1 5394   0.297   2.097  11.656  0.2612  0.0378  0.1973
  356TMC3    O2 5395   0.127   2.344  11.026  0.2446 -0.0767  1.2046
  357MPD2     C 5396   4.022   2.161   0.639 -0.1147 -0.5052 -0.9173
  357MPD2    C1 5397   4.083   2.102   0.742  0.5446  0.1433  0.8722
  357MPD2    C2 5398   4.083   2.174   0.864 -0.0671 -0.2575  0.9971
  357MPD2    C3 5399   4.021   2.295   0.873  0.7245  0.2630 -0.5734
  357MPD2    C4 5400   3.957   2.348   0.764 -0.5613 -0.7959 -0.3716
  357MPD2    C5 5401   3.962   2.285   0.648  0.6412  0.1733 -0.5261
  357MPD2     H 5402   4.124   2.122   0.950  1.1954  0.4717  0.8333
  357MPD2    H1 5403   3.914   2.447   0.778 -0.8104 -0.6963 -1.8488
  357MPD2    H2 5404   4.006   2.112   0.544  1.7130  1.2374 -2.1224
  357MPD2    H3 5405   3.928   2.335   0.558 -1.5345  0.5650  0.5142
  357MPD2     N 5406   4.042   2.380   0.976 -0.1108 -0.1190  0.0865
  357MPD2    H5 5407   4.024   2.478   0.955  0.0132 -0.2434 -0.6160
  357MPD2    N1 5408   4.155   1.983   0.719  0.6104 -0.3630  0.5956
  357MPD2    H7 5409   4.145   1.927   0.634  0.6039  1.1291 -0.3789
  358TMC3    C1 5410   4.323   1.820   0.766 -1.0592  0.3654 -0.0102
  358TMC3    C2 5411   4.260   1.744   0.670  0.2811 -0.6295  0.3395
  358TMC3    C3 5412   4.273   1.608   0.676 -0.0358 -0.1308  0.4122
  358TMC3    C4 5413   4.399   1.767   0.865 -0.2257 -0.7731  0.3480
  358TMC3    C5 5414   4.410   1.626   0.862 -0.3988  0.4364 -0.3813
  358TMC3    C6 5415   4.340   1.546   0.776 -0.4424 -0.3523 -0.1570
  358TMC3     C 5416   4.268   1.954   0.794  0.4044  0.9405 -0.5231
  358TMC3     O 5417   4.308   2.018   0.888 -0.5279  0.6314  0.3725
  358TMC3     H 5418   4.206   1.787   0.587  3.0149 -2.0973 -2.2051
  358TMC3    H1 5419   4.469   1.821   0.926 -0.0187 -0.1014 -0.4796
  358TMC3    H2 5420   4.363   1.440   0.777  0.4759 -0.1604 -1.4289
  358TMC3    C7 5421   4.538   1.571   0.895  0.7658 -0.4947  0.0720
  358TMC3    C8 5422   4.198   1.531   0.571 -0.2118  0.4346 -0.0173
  358TMC3    O1 5423   4.579   1.496   0.805  0.0376  0.1303  0.2915
  358TMC3    O2 5424   4.157   1.587   0.466 -0.2158 -0.4463  0.1905
  359MPD2     C 5425   4.703   0.384  12.422  0.6104 -0.8262  0.0403
  359MPD2    C1 5426   4.704   0.358  12.286 -0.2564 -0.0507  0.1088
  359MPD2    C2 5427   4.586   0.293  12.240  0.0875 -0.7216  0.2021
  359MPD2    C3 5428   4.474   0.264  12.316 -0.4193  0.2683 -0.3531
  359MPD2    C4 5429   4.476   0.306  12.444 -0.6473 -0.1551  0.2245
  359MPD2    C5 5430   4.587   0.364  12.491 -0.3789 -0.0260  0.3982
  359MPD2     H 5431   4.588   0.264  12.135 -1.0073  2.3657 -0.6716
  359MPD2    H1 5432   4.384   0.286  12.497 -0.7655 -0.3399 -0.0451
  359MPD2    H2 5433   0.053   0.424  12.475  0.3895  1.1328 -1.0961
  359MPD2    H3 5434   4.583   0.402  12.593  1.8492  2.1189 -0.3031
  359MPD2     N 5435   4.357   0.201  12.258 -0.0247  0.1435 -0.5381
  359MPD2    H5 5436   4.274   0.198  12.316 -1.4169  1.4039 -2.4600
  359MPD2    N1 5437   0.072   0.393  12.195  0.1572  0.1253  0.1571
  359MPD2    H7 5438   0.055   0.370  12.097  0.6606  2.3939 -0.4605
  360TMC3    C1 5439   0.273   0.496  12.128  0.3736  0.1369  0.7836
  360TMC3    C2 5440   0.404   0.528  12.158  0.0921 -0.2008 -1.0775
  360TMC3    C3 5441   0.486   0.522  12.047 -0.6267  0.6583 -0.5558
  360TMC3    C4 5442   0.220   0.482  12.000  0.0714  0.3331  0.5426
  360TMC3    C5 5443   0.308   0.496  11.895 -0.0336 -0.0054  0.1886
  360TMC3    C6 5444   0.444   0.518  11.917  0.2919 -0.4038  1.1817
  360TMC3     C 5445   0.192   0.440  12.239  0.1471 -0.2465 -0.1834
  360TMC3     O 5446   0.236   0.437  12.350 -0.2628 -0.0889 -0.2012
  360TMC3     H 5447   0.440   0.522  12.260 -2.0796  1.0819 -0.2370
  360TMC3    H1 5448   0.115   0.465  11.977  0.5752 -0.6552 -1.0408
  360TMC3    H2 5449   0.504   0.504  11.828  0.8579  1.7954  1.2076
  360TMC3    C7 5450   0.267   0.458  11.757 -0.1440 -0.6933  0.4242
  360TMC3    C8 5451   0.624   0.512  12.085 -0.0387 -0.1889 -0.0824
  360TMC3    O1 5452   0.327   0.526  11.675  0.0282  0.9286  0.1061
  360TMC3    O2 5453   0.655   0.527  12.201 -0.1231  0.1749  0.2365
  361MPD2     C 5454   1.522   4.184  16.247 -0.2962  0.6973 -0.0941
  361MPD2    C1 5455   1.508   4.242  16.366 -0.1309 -0.0005  0.7949
  361MPD2    C2 5456   1.569   4.181  16.472  0.5135  0.1208  0.4706
  361MPD2    C3 5457   1.635   4.056  16.465 -0.3571 -0.1476  0.4662
  361MPD2    C4 5458   1.638   3.995  16.341  0.3785  0.2834  0.1405
  361MPD2    C5 5459   1.582   4.063  16.239 -0.0268 -0.0485 -0.0137
  361MPD2     H 5460   1.560   4.228  16.569 -1.9840 -1.6324  1.1022
  361MPD2    H1 5461   1.679   3.897  16.319 -1.0404  0.6310 -4.0920
  361MPD2    H2 5462   1.475   4.223  16.157  1.9866  1.8368 -0.8062
  361MPD2    H3 5463   1.584   4.015  16.142  2.9847 -0.7813  0.4362
  361MPD2     N 5464   1.680   3.977  16.576 -0.1712  0.3257 -0.4776
  361MPD2    H5 5465   1.726   3.891  16.546 -0.5635 -0.4049  1.0031
  361MPD2    N1 5466   1.428   4.352  16.398  0.3928 -0.0323  0.1620
  361MPD2    H7 5467   1.392   4.356  16.493 -2.6063 -0.5215 -0.9551
  362TMC3    C1 5468   1.323   4.562  16.369 -0.3426  0.6328  0.3805
  362TMC3    C2 5469   1.286   4.556  16.497 -0.1877 -0.5204 -0.4377
  362TMC3    C3 5470   1.215   4.664  16.551 -0.1397  0.0099 -0.2176
  362TMC3    C4 5471   1.287   4.666  16.281  0.0593 -0.0935  0.4547
  362TMC3    C5 5472   1.227   0.039  16.335 -0.5404 -0.5562  0.2401
  362TMC3    C6 5473   1.183   0.040  16.467 -0.3945 -0.2206 -0.4212
  362TMC3     C 5474   1.390   4.448  16.309 -0.1710 -0.3275  0.0943
  362TMC3     O 5475   1.435   4.459  16.197  0.1133  0.0375 -0.6709
  362TMC3     H 5476   1.326   4.481  16.563  2.2827  1.0642 -0.1075
  362TMC3    H1 5477   1.332   4.668  16.182  2.1720 -1.2893  1.3827
  362TMC3    H2 5478   1.136   0.131  16.502 -0.0652  0.1139 -0.8538
  362TMC3    C7 5479   1.154   0.138  16.252  0.3986  0.4541 -0.9964
  362TMC3    C8 5480   1.149   4.648  16.674 -0.2340  0.2805  0.4047
  362TMC3    O1 5481   1.086   0.219  16.310 -0.3971  0.4838 -0.3151
  362TMC3    O2 5482   1.134   4.534  16.708  0.4505 -0.1348  0.6261
  363TMC3    C1 5483   0.346   2.258   9.445 -0.2217  0.3000  0.1054
  363TMC3    C2 5484   0.346   2.129   9.486  0.2371 -0.2902  0.3285
  363TMC3    C3 5485   0.226   2.077   9.528  0.0308 -0.2341 -0.0011
  363TMC3    C4 5486   0.228   2.325   9.419  0.0148  0.1642 -0.1209
  363TMC3    C5 5487   0.106   2.264   9.452  0.0747  0.3646 -0.7893
  363TMC3    C6 5488   0.107   2.151   9.517  0.5730 -0.3348  0.7503
  363TMC3     C 5489   0.476   2.320   9.420  0.6832  0.2566  0.2478
  363TMC3     O 5490   0.474   2.431   9.364 -0.2123 -0.7082 -0.4417
  363TMC3     H 5491   0.435   2.067   9.479  0.5209  0.3874 -2.0586
  363TMC3    H1 5492   0.229   2.416   9.359  1.3021  0.0965 -0.1987
  363TMC3    H2 5493   0.010   2.113   9.547  0.3692  0.3586  0.9719
  363TMC3    C7 5494   4.715   2.347   9.447 -0.2976 -0.3305  0.0638
  363TMC3    C8 5495   0.211   1.969   9.627  0.2278  0.0740  0.2486
  363TMC3    O1 5496   4.716   2.460   9.403  0.2079 -0.3610  0.1236
  363TMC3    O2 5497   0.114   1.974   9.703 -0.5788  0.5825 -0.7889
  364MPD2     C 5498   4.141   0.889   9.889  0.1390 -0.3178  0.4106
  364MPD2    C1 5499   4.051   0.958   9.963  0.0249  0.0237  0.2547
  364MPD2    C2 5500   4.001   0.895  10.079 -0.6005 -0.1016  0.3438
  364MPD2    C3 5501   4.045   0.770  10.124  0.4467  0.4541  0.2181
  364MPD2    C4 5502   4.131   0.704  10.036 -0.1878 -1.1096 -0.0666
  364MPD2    C5 5503   4.185   0.769   9.931 -0.1701  0.1376  0.6602
  364MPD2     H 5504   3.919   0.933  10.140 -0.2077 -0.4969  1.1259
  364MPD2    H1 5505   4.162   0.602  10.051  1.8565 -0.2612  1.4695
  364MPD2    H2 5506   4.187   0.940   9.805  1.2788  0.3992  1.4811
  364MPD2    H3 5507   4.264   0.715   9.881 -0.8843  0.7783 -1.1895
  364MPD2     N 5508   4.019   0.705  10.243 -0.1113  0.2921 -0.3927
  364MPD2    H5 5509   4.073   0.621  10.260 -0.3963  0.6068  2.1948
  364MPD2    N1 5510   4.009   1.080   9.911 -0.3861  0.8430  0.0904
  364MPD2    H7 5511   4.057   1.102   9.824  0.1581 -0.7633 -0.0175
  365TMC3    C1 5512   3.898   1.290   9.902 -0.6471 -0.1523  0.7450
  365TMC3    C2 5513   3.925   1.294   9.772  0.6879 -0.0704 -1.0239
  365TMC3    C3 5514   3.944   1.421   9.723  0.2423 -0.0361  0.1747
  365TMC3    C4 5515   3.865   1.400   9.976  0.3275 -0.6437  0.1294
  365TMC3    C5 5516   3.884   1.526   9.926 -0.3392 -0.3876 -0.7317
  365TMC3    C6 5517   3.926   1.539   9.798  0.2658 -0.1109  0.0044
  365TMC3     C 5518   3.917   1.169   9.971  0.0829 -0.5580  0.6000
  365TMC3     O 5519   3.843   1.150  10.065 -0.2257  0.2324  0.0285
  365TMC3     H 5520   3.926   1.202   9.713  1.6879 -0.0658 -1.0048
  365TMC3    H1 5521   3.836   1.379  10.079  1.7441 -1.6345  0.3228
  365TMC3    H2 5522   3.959   1.639   9.772 -0.5612  0.0571 -0.4046
  365TMC3    C7 5523   3.855   1.641  10.001  0.1972  0.1311  0.1317
  365TMC3    C8 5524   4.030   1.429   9.606  0.5933  0.7921  0.4850
  365TMC3    O1 5525   3.852   1.744   9.936 -0.2480  0.2404 -0.0597
  365TMC3    O2 5526   4.091   1.324   9.575 -0.3391 -0.9564 -0.3152
  366MPD2     C 5527   1.886   2.376  14.844  0.0889  0.0931  0.2907
  366MPD2    C1 5528   1.936   2.464  14.941  0.1712 -0.7060 -0.2213
  366MPD2    C2 5529   2.032   2.414  15.030 -0.2102 -0.1612  0.0771
  366MPD2    C3 5530   2.080   2.288  15.013 -0.5180 -0.0997  1.0511
  366MPD2    C4 5531   2.028   2.193  14.930 -0.4137 -0.3124  0.2382
  366MPD2    C5 5532   1.923   2.236  14.849 -0.0847  0.2842 -0.2672
  366MPD2     H 5533   2.079   2.478  15.103 -1.2965  1.1918 -0.4104
  366MPD2    H1 5534   2.063   2.091  14.937  0.4874  0.1016  1.6684
  366MPD2    H2 5535   1.821   2.410  14.765 -0.9458 -3.0595 -0.2025
  366MPD2    H3 5536   1.871   2.169  14.782  2.7302 -0.1792 -2.0127
  366MPD2     N 5537   2.198   2.267  15.081 -0.1298  0.2484 -0.6465
  366MPD2    H5 5538   2.227   2.338  15.147 -1.0114 -0.3591  0.3945
  366MPD2    N1 5539   1.921   2.607  14.942  0.5346  0.6474  0.0671
  366MPD2    H7 5540   1.977   2.650  15.015 -1.9590  1.3258  1.5922
  367TMC3    C1 5541   1.890   2.831  14.861  0.8631  0.0998  0.2003
  367TMC3    C2 5542   1.996   2.869  14.941 -0.5661  0.1127  0.3376
  367TMC3    C3 5543   2.011   2.998  14.960 -0.0565 -0.0933 -0.2041
  367TMC3    C4 5544   1.819   2.912  14.773 -0.4863 -0.7627 -0.0857
  367TMC3    C5 5545   1.864   3.047  14.782 -0.7062 -0.5128  0.2843
  367TMC3    C6 5546   1.953   3.093  14.882  0.2100 -0.4794  0.1598
  367TMC3     C 5547   1.852   2.684  14.856 -0.2966  0.7423 -0.4629
  367TMC3     O 5548   1.757   2.649  14.784 -0.2168 -0.2567 -0.4182
  367TMC3     H 5549   2.054   2.792  14.992 -0.4284  0.1080  0.1724
  367TMC3    H1 5550   1.754   2.887  14.691  0.0784 -1.4748 -0.3158
  367TMC3    H2 5551   1.985   3.196  14.874  1.7154 -0.7608  2.5275
  367TMC3    C7 5552   1.801   3.150  14.703 -0.3089 -0.3802  0.8349
  367TMC3    C8 5553   2.075   3.043  15.081  0.0756  0.5707  0.0562
  367TMC3    O1 5554   1.779   3.263  14.747  0.1711  0.0463  0.3319
  367TMC3    O2 5555   2.141   2.964  15.142  0.3050  0.6012  0.0598
  368MPD2     C 5556   3.268   3.989  13.079  0.0886  0.1663 -0.5601
  368MPD2    C1 5557   3.288   4.125  13.046  0.3580  0.5190  0.4549
  368MPD2    C2 5558   3.412   4.156  12.994  0.1081  0.4257  0.2136
  368MPD2    C3 5559   3.517   4.064  12.991 -0.1432  0.5462 -0.0950
  368MPD2    C4 5560   3.499   3.944  13.050 -0.2424 -0.1080 -0.5514
  368MPD2    C5 5561   3.378   3.905  13.089  0.8221 -0.5451 -0.6447
  368MPD2     H 5562   3.435   4.254  12.953 -1.8314  0.2295 -1.3286
  368MPD2    H1 5563   3.586   3.880  13.042  1.1313  1.6941 -0.0077
  368MPD2    H2 5564   3.172   3.954  13.115  1.0146 -0.2745  1.4649
  368MPD2    H3 5565   3.364   3.799  13.106  4.6598 -0.9036  0.1135
  368MPD2     N 5566   3.645   4.092  12.947 -0.4718 -0.1649 -0.3715
  368MPD2    H5 5567   3.709   4.014  12.952 -3.0965 -2.2313  0.8975
  368MPD2    N1 5568   3.178   4.213  13.050 -0.1579 -0.1526 -0.4189
  368MPD2    H7 5569   3.091   4.177  13.088 -0.1463  0.6427  0.3444
  369TMC3    C1 5570   3.046   4.406  13.004 -0.1854 -0.7070 -0.2310
  369TMC3    C2 5571   3.063   4.510  12.919  0.4073 -0.2934  0.0651
  369TMC3    C3 5572   2.990   4.508  12.803 -0.0157 -0.0620 -0.2133
  369TMC3    C4 5573   2.942   4.312  12.989  0.1135 -0.3991 -0.6196
  369TMC3    C5 5574   2.866   4.321  12.865 -0.0009  0.0751  0.0634
  369TMC3    C6 5575   2.897   4.418  12.772  0.3513  0.6187 -0.2502
  369TMC3     C 5576   3.175   4.346  13.006  0.2920 -0.6803  0.0094
  369TMC3     O 5577   3.259   4.404  12.941 -0.5244  0.7766 -0.5146
  369TMC3     H 5578   3.130   4.590  12.948  0.2252 -0.5497  1.1947
  369TMC3    H1 5579   2.911   4.247  13.070  0.9895 -2.8422 -2.2746
  369TMC3    H2 5580   2.844   4.412  12.677 -0.9121 -1.1211  0.5527
  369TMC3    C7 5581   2.736   4.248  12.867  0.0404  0.0622  0.0520
  369TMC3    C8 5582   3.062   4.569  12.695 -0.1845 -0.6207  0.2800
  369TMC3    O1 5583   2.728   4.157  12.947  0.5585  0.2700 -0.6169
  369TMC3    O2 5584   2.997   4.618  12.605 -0.7331 -0.2641  0.1248
  370TMC3    C1 5585   2.913   0.716  16.046 -0.2357  0.0428 -0.0918
  370TMC3    C2 5586   2.819   0.676  16.136 -0.1135 -0.2385  0.6159
  370TMC3    C3 5587   2.721   0.589  16.097 -0.3400  0.5854 -0.2332
  370TMC3    C4 5588   2.939   0.650  15.927  0.0975  0.2916  0.4530
  370TMC3    C5 5589   2.849   0.550  15.907 -0.0407 -0.1954 -0.4298
  370TMC3    C6 5590   2.739   0.524  15.985  0.2591 -0.0688  0.1748
  370TMC3     C 5591   3.012   0.796  16.105 -0.6405  0.5061  0.5026
  370TMC3     O 5592   3.018   0.814  16.224 -0.4343  0.5676  0.3242
  370TMC3     H 5593   2.805   0.732  16.228 -0.0201  0.9802 -0.1184
  370TMC3    H1 5594   3.033   0.651  15.873 -0.9145 -1.1436 -1.3375
  370TMC3    H2 5595   2.664   0.460  15.942 -0.4338 -0.6159  2.2223
  370TMC3    C7 5596   2.881   0.461  15.803  0.4415  0.9824  0.2210
  370TMC3    C8 5597   2.690   0.496  16.205 -0.2844  0.1726 -0.1004
  370TMC3    O1 5598   2.916   0.511  15.698 -0.7748 -0.0815  0.3088
  370TMC3    O2 5599   2.773   0.466  16.290  0.0192  0.4906 -0.5163
  371TMC3    C1 5600   3.586   3.447  15.246 -0.1488  0.0244 -0.1451
  371TMC3    C2 5601   3.522   3.467  15.373 -0.2717  0.1327 -0.5282
  371TMC3    C3 5602   3.471   3.588  15.413 -0.2196 -0.3543  0.2703
  371TMC3    C4 5603   3.595   3.555  15.165 -0.2965  0.2155 -0.1114
  371TMC3    C5 5604   3.532   3.680  15.200  0.0887 -0.3066  0.7353
  371TMC3    C6 5605   3.482   3.695  15.325 -0.1923 -0.2036  0.3415
  371TMC3     C 5606   3.701   3.358  15.244  0.4282  0.0274  0.4248
  371TMC3     O 5607   3.792   3.389  15.168  0.3120  0.2340  0.4690
  371TMC3     H 5608   3.505   3.379  15.434  1.1137 -0.7773 -1.4715
  371TMC3    H1 5609   3.648   3.541  15.071 -0.1647 -1.4650  0.2082
  371TMC3    H2 5610   3.459   3.799  15.349  1.5671  0.7907 -2.3660
  371TMC3    C7 5611   3.620   3.784  15.164  0.3446 -0.4561  0.1015
  371TMC3    C8 5612   3.504   3.621  15.552 -0.0388 -0.2771 -1.6590
  371TMC3    O1 5613   3.575   3.900  15.157  0.2920 -0.2490 -1.4967
  371TMC3    O2 5614   3.589   3.545  15.599  0.0386  0.0036  0.6689
  372MPD2     C 5615   3.723   4.661  13.097 -0.4873 -0.1366  0.3998
  372MPD2    C1 5616   3.809   4.588  13.180  0.1726  0.1652 -0.1692
  372MPD2    C2 5617   3.771   4.462  13.232 -0.5379  0.0446  0.0969
  372MPD2    C3 5618   3.639   4.415  13.211 -0.0379 -0.1617  0.1480
  372MPD2    C4 5619   3.555   4.492  13.133 -0.5975  0.1924  0.0125
  372MPD2    C5 5620   3.598   4.609  13.081 -0.1018 -0.4966 -0.4103
  372MPD2     H 5621   3.846   4.409  13.289 -1.7454 -0.8374  0.8675
  372MPD2    H1 5622   3.449   4.470  13.124 -0.6132 -0.5277  1.8580
  372MPD2    H2 5623   3.744   0.022  13.052 -0.3651 -0.6372 -0.6122
  372MPD2    H3 5624   3.518   4.674  13.046  0.9257  1.0927  0.1994
  372MPD2     N 5625   3.601   4.302  13.287  0.1470  0.2754 -0.3229
  372MPD2    H5 5626   3.683   4.258  13.327 -0.0076  0.5073  0.2597
  372MPD2    N1 5627   3.946   4.620  13.199  0.2150 -0.0124  0.8945
  372MPD2    H7 5628   3.991   4.575  13.279 -1.0990  0.3861  1.8565
  373TMC3    C1 5629   3.466   4.133  13.387 -0.2353  0.1483 -0.7462
  373TMC3    C2 5630   3.353   4.120  13.463  0.3921 -0.5300  0.3170
  373TMC3    C3 5631   3.327   3.997  13.518  0.0744 -0.0943 -0.1638
  373TMC3    C4 5632   3.546   4.029  13.359  0.6185  0.1812 -0.9584
  373TMC3    C5 5633   3.513   3.902  13.412  0.2045 -0.4442 -0.1172
  373TMC3    C6 5634   3.407   3.889  13.493  0.1566  0.0320 -0.3248
  373TMC3     C 5635   3.476   4.259  13.315  0.3052  0.2427  0.0434
  373TMC3     O 5636   3.375   4.328  13.310  0.3934 -0.0483  0.7826
  373TMC3     H 5637   3.281   4.200  13.476  0.5628 -0.5558  1.3963
  373TMC3    H1 5638   3.631   4.041  13.292  2.4704 -0.2278  1.3416
  373TMC3    H2 5639   3.388   3.795  13.543  0.7904 -0.0905 -0.3091
  373TMC3    C7 5640   3.602   3.782  13.389 -0.8461 -0.1482 -0.3439
  373TMC3    C8 5641   3.263   3.987  13.644 -0.0785 -0.4645  0.0942
  373TMC3    O1 5642   3.718   3.819  13.369  0.4935  0.2022  0.0030
  373TMC3    O2 5643   3.216   3.879  13.681 -0.9373 -0.7395 -0.3305
  374TMC3    C1 5644   4.067   4.300   9.494  0.8456  0.5684 -0.0138
  374TMC3    C2 5645   4.163   4.396   9.498  0.5360  0.3291  0.2818
  374TMC3    C3 5646   4.179   4.470   9.383 -0.8275  0.1427 -0.7781
  374TMC3    C4 5647   4.002   4.262   9.382 -0.3591 -0.3513  0.3956
  374TMC3    C5 5648   4.002   4.349   9.279 -0.0753  0.1716  0.0400
  374TMC3    C6 5649   4.096   4.445   9.278 -0.1866 -0.1557  0.6604
  374TMC3     C 5650   4.074   4.196   9.598  0.4847  0.3832 -0.3843
  374TMC3     O 5651   4.180   4.171   9.653  0.1635  0.2260 -0.0801
  374TMC3     H 5652   4.230   4.407   9.582  2.1247  1.5520 -1.1345
  374TMC3    H1 5653   3.928   4.183   9.384 -1.8311  1.0187  1.0812
  374TMC3    H2 5654   4.091   4.510   9.191 -0.0567 -3.4858 -1.8665
  374TMC3    C7 5655   3.934   4.313   9.163 -0.1600 -0.0020 -0.5284
  374TMC3    C8 5656   4.276   4.574   9.371  1.0012 -0.0174  0.0891
  374TMC3    O1 5657   3.990   4.361   9.064 -0.7344 -0.0690 -0.0063
  374TMC3    O2 5658   4.264   4.658   9.281 -0.5411 -0.2550  0.1667
  375MPD2     C 5659   4.396   0.541  16.978 -0.0609  0.2262 -0.0732
  375MPD2    C1 5660   4.358   0.579  16.844 -0.9156 -0.3386  0.2312
  375MPD2    C2 5661   4.456   0.563  16.745 -0.0749 -0.0032 -0.1677
  375MPD2    C3 5662   4.584   0.507  16.765 -0.0349  0.2775 -0.6522
  375MPD2    C4 5663   4.609   0.471  16.890 -1.0826 -0.6584  0.7103
  375MPD2    C5 5664   4.524   0.494  16.998  0.0513  0.2805 -0.6725
  375MPD2     H 5665   4.427   0.594  16.645  0.9177 -1.7725 -1.0104
  375MPD2    H1 5666   4.698   0.412  16.912 -0.7474 -0.6959 -0.7699
  375MPD2    H2 5667   4.335   0.540  17.067 -1.0802  0.0308 -0.7816
  375MPD2    H3 5668   4.567   0.463  17.092 -0.8126 -0.7583 -0.6243
  375MPD2     N 5669   4.666   0.470  16.656 -0.7375  0.0774  0.8556
  375MPD2    H5 5670   4.627   0.483  16.563  0.8603 -0.5854  0.0901
  375MPD2    N1 5671   4.236   0.634  16.809  0.3482 -0.2941  0.2813
  375MPD2    H7 5672   4.213   0.645  16.711  1.4212 -1.0171 -0.0505
  376TMC3    C1 5673   0.114   0.366  16.549 -0.2112 -0.3596  0.2589
  376TMC3    C2 5674   0.242   0.380  16.526  0.5575 -0.4113  0.1732
  376TMC3    C3 5675   0.278   0.368  16.400 -0.8216  0.3632 -0.0584
  376TMC3    C4 5676   0.027   0.307  16.461 -0.2372 -0.5150 -0.0392
  376TMC3    C5 5677   0.076   0.269  16.336 -0.0026 -0.1777  0.2742
  376TMC3    C6 5678   0.206   0.301  16.306  0.2638 -0.2930 -0.2169
  376TMC3     C 5679   0.055   0.416  16.675 -0.7045 -0.0304 -0.2795
  376TMC3     O 5680   0.126   0.395  16.771 -0.1894 -0.3865 -0.3918
  376TMC3     H 5681   0.306   0.426  16.601  0.2169  1.1807 -0.5020
  376TMC3    H1 5682   4.655   0.295  16.474 -0.0626 -0.9363  1.0230
  376TMC3    H2 5683   0.246   0.296  16.206 -0.4836  1.9255 -0.6167
  376TMC3    C7 5684   4.713   0.279  16.233 -0.6032  0.0811  0.1561
  376TMC3    C8 5685   0.340   0.488  16.347 -0.3141  0.1025  0.2542
  376TMC3    O1 5686   4.616   0.353  16.253  0.5544 -0.0599  0.2385
  376TMC3    O2 5687   0.326   0.509  16.230  0.3697 -0.0625  0.2208
  377MPD2     C 5688   2.686   4.704  12.774 -0.8329  0.2507 -0.3488
  377MPD2    C1 5689   2.571   4.678  12.705  0.0214 -0.3180  1.5257
  377MPD2    C2 5690   2.467   4.623  12.775 -0.0401  0.0820 -0.3071
  377MPD2    C3 5691   2.473   4.599  12.910  0.7189  0.2103  0.1816
  377MPD2    C4 5692   2.593   4.617  12.974  0.0349  0.6185  0.8310
  377MPD2    C5 5693   2.704   4.665  12.909  0.1809 -0.6841  0.2880
  377MPD2     H 5694   2.372   4.603  12.727 -0.7386  1.6464  0.4180
  377MPD2    H1 5695   2.600   4.592  13.080  1.6655 -0.4222  0.4813
  377MPD2    H2 5696   2.774   0.012  12.730 -0.9933  1.3710  0.4307
  377MPD2    H3 5697   2.798   4.688  12.958  1.2794  0.4053 -2.3331
  377MPD2     N 5698   2.370   4.554  13.002 -0.2148 -0.7161 -0.0424
  377MPD2    H5 5699   2.392   4.543  13.100 -0.2441  1.0272  0.1483
  377MPD2    N1 5700   2.566   4.702  12.567 -0.0270  0.7492 -0.1753
  377MPD2    H7 5701   2.649   4.734  12.518 -0.7329 -0.0732 -1.8924
  378TMC3    C1 5702   2.428   0.029  12.127  0.1555 -0.6922  0.2942
  378TMC3    C2 5703   2.397   4.720  12.255  0.4639  0.0273 -0.5343
  378TMC3    C3 5704   2.494   4.696  12.342 -0.5940 -0.4297 -0.3693
  378TMC3    C4 5705   2.556   0.042  12.080 -0.5467  0.7142 -0.3410
  378TMC3    C5 5706   2.647   0.006  12.169  0.1831  1.1663  0.0535
  378TMC3    C6 5707   2.624   4.698  12.297  0.2131  0.3381  0.3006
  378TMC3     C 5708   2.345   0.142  12.079  0.3547  0.2715 -0.2298
  378TMC3     O 5709   2.265   0.191  12.156 -0.3107 -0.3349  0.0448
  378TMC3     H 5710   2.297   4.718  12.296 -0.1243 -0.3395 -1.9801
  378TMC3    H1 5711   2.579   0.093  11.988 -1.1631  3.9816  1.3257
  378TMC3    H2 5712   2.706   4.662  12.359  0.8635  1.7741  0.2781
  378TMC3    C7 5713   2.787   0.005  12.131  0.6709  0.3864 -0.5637
  378TMC3    C8 5714   2.456   4.682  12.481 -0.5471 -0.2667  0.1020
  378TMC3    O1 5715   2.873   0.021  12.214  0.4841  0.1066  0.0556
  378TMC3    O2 5716   2.339   4.653  12.497 -0.0789  0.3836 -0.1273
  379MPD2     C 5717   2.422   3.177  16.356 -0.1526 -0.3377  0.3041
  379MPD2    C1 5718   2.536   3.166  16.280  0.0148  0.6993 -0.1757
  379MPD2    C2 5719   2.657   3.170  16.344  0.0695 -0.0394  0.4729
  379MPD2    C3 5720   2.664   3.188  16.483  0.2610 -0.1705 -0.3798
  379MPD2    C4 5721   2.550   3.195  16.553 -0.3249 -0.0842  0.0706
  379MPD2    C5 5722   2.427   3.195  16.490 -0.0190 -0.2177 -0.5861
  379MPD2     H 5723   2.749   3.173  16.287  0.3125  0.9168  0.9032
  379MPD2    H1 5724   2.554   3.202  16.661 -2.4135 -0.7345  0.2087
  379MPD2    H2 5725   2.325   3.183  16.307  0.6793  0.0559 -1.3186
  379MPD2    H3 5726   2.341   3.214  16.553 -0.0643 -3.6615  0.3861
  379MPD2     N 5727   2.785   3.200  16.554 -0.1750 -0.3059  0.4119
  379MPD2    H5 5728   2.779   3.220  16.653 -0.2792  2.4765 -0.1587
  379MPD2    N1 5729   2.525   3.164  16.140 -0.0483 -0.0732 -0.0047
  379MPD2    H7 5730   2.429   3.175  16.108 -0.1096 -1.1707 -0.1753
  380TMC3    C1 5731   2.592   3.144  15.907  0.3665  0.5987 -0.2865
  380TMC3    C2 5732   2.695   3.114  15.825 -0.2942  0.3768 -0.2332
  380TMC3    C3 5733   2.669   3.110  15.692 -1.3846  0.0330 -0.4437
  380TMC3    C4 5734   2.465   3.172  15.859  0.3541 -0.5475  0.6379
  380TMC3    C5 5735   2.446   3.175  15.723  0.2306  0.1385  0.0661
  380TMC3    C6 5736   2.548   3.149  15.639 -0.1183  0.3614  0.0623
  380TMC3     C 5737   2.629   3.147  16.051  0.1822 -0.3185  0.1475
  380TMC3     O 5738   2.738   3.109  16.085 -0.0986  0.3275 -0.1785
  380TMC3     H 5739   2.791   3.083  15.864 -2.3906 -1.2501  3.5858
  380TMC3    H1 5740   2.386   3.202  15.926  0.6924 -2.6085  1.9571
  380TMC3    H2 5741   2.529   3.138  15.533  0.9736  0.2394 -0.1296
  380TMC3    C7 5742   2.323   3.228  15.671  0.3058 -0.2307 -0.0270
  380TMC3    C8 5743   2.771   3.090  15.590  0.1724 -0.1891 -0.9774
  380TMC3    O1 5744   2.254   3.286  15.755  0.0806  0.4000 -0.2507
  380TMC3    O2 5745   2.750   3.134  15.479  0.5007  0.1558 -0.2152
  381TMC3    C1 5746   2.631   0.094  16.048  0.0090  0.0327  0.5476
  381TMC3    C2 5747   2.739   0.154  16.107 -0.2325 -0.7060 -0.2865
  381TMC3    C3 5748   2.802   0.091  16.210  0.3839 -0.0549 -0.5582
  381TMC3    C4 5749   2.588   4.706  16.088 -0.8651  0.3112  0.9004
  381TMC3    C5 5750   2.654   4.651  16.197  0.4768  0.7843  0.6313
  381TMC3    C6 5751   2.768   4.697  16.245  0.3411  0.6789 -0.0870
  381TMC3     C 5752   2.614   0.127  15.912  0.2547 -0.1194  0.8521
  381TMC3     O 5753   2.579   0.242  15.886 -0.1341  0.1998  0.0508
  381TMC3     H 5754   2.777   0.251  16.077 -0.7286  0.6295  3.3852
  381TMC3    H1 5755   2.498   4.669  16.042  0.0109 -0.7819  0.0586
  381TMC3    H2 5756   2.835   4.653  16.317 -0.1959 -0.2195 -0.1424
  381TMC3    C7 5757   2.571   4.581  16.294  0.5093 -0.4555  0.3105
  381TMC3    C8 5758   2.939   0.123  16.248  0.5802 -0.3766 -0.7631
  381TMC3    O1 5759   2.631   4.520  16.383 -0.5445 -0.2554 -0.1781
  381TMC3    O2 5760   3.023   0.034  16.223 -0.3716 -0.4559  0.4806
  382MPD2     C 5761   1.702   2.501  16.636 -0.5868 -0.3184 -0.6745
  382MPD2    C1 5762   1.790   2.511  16.742  0.0993 -0.0414 -0.1712
  382MPD2    C2 5763   1.858   2.400  16.786  0.0921 -0.3147 -0.3039
  382MPD2    C3 5764   1.843   2.279  16.726 -0.7515 -0.5610 -0.4036
  382MPD2    C4 5765   1.748   2.264  16.623 -1.0098  0.3752  0.5973
  382MPD2    C5 5766   1.683   2.377  16.575 -1.0994  0.2276 -0.2190
  382MPD2     H 5767   1.940   2.408  16.856 -0.4932  2.5629  0.0325
  382MPD2    H1 5768   1.737   2.166  16.578 -3.8772 -0.7660  3.7298
  382MPD2    H2 5769   1.636   2.581  16.603  2.6409  2.7153  0.1444
  382MPD2    H3 5770   1.597   2.380  16.510 -0.7528  3.1971 -0.5244
  382MPD2     N 5771   1.917   2.159  16.764  0.2669 -0.2764 -0.0779
  382MPD2    H5 5772   1.894   2.072  16.718  0.4584 -0.2338 -0.2536
  382MPD2    N1 5773   1.831   2.626  16.814  0.2890 -0.4366 -0.2520
  382MPD2    H7 5774   1.903   2.612  16.884 -0.7764  1.0711  1.1284
  383TMC3    C1 5775   2.068   2.008  16.865 -0.1673 -1.0116  0.5256
  383TMC3    C2 5776   1.968   1.917  16.881 -0.3671  0.0286  0.6830
  383TMC3    C3 5777   1.988   1.804  16.958 -0.2995  0.0740 -0.1571
  383TMC3    C4 5778   2.201   1.982  16.909  0.3629 -0.4291 -0.7834
  383TMC3    C5 5779   2.215   1.861  16.975  0.5323  0.2550 -1.2139
  383TMC3    C6 5780   2.114   1.773  16.997 -0.0291 -0.0114 -0.4426
  383TMC3     C 5781   2.028   2.148  16.844 -0.5993 -0.3146  0.2184
  383TMC3     O 5782   2.106   2.232  16.888 -0.2158 -0.2451  0.0491
  383TMC3     H 5783   1.864   1.924  16.850 -0.6144  0.4119  1.5995
  383TMC3    H1 5784   2.280   2.055  16.902  0.0354  0.0562  0.4336
  383TMC3    H2 5785   2.136   1.686  17.058  0.1167  0.5364  0.2847
  383TMC3    C7 5786   2.341   1.834  17.037  0.1609  0.2159 -0.0192
  383TMC3    C8 5787   1.890   1.698  16.942 -0.4542  0.6103 -0.1118
  383TMC3    O1 5788   2.344   1.772  17.145  0.1179 -0.1820 -0.0650
  383TMC3    O2 5789   1.804   1.715  16.858  0.1168 -0.4513  0.5477
  384MPD2     C 5790   2.889   2.821  11.557 -0.0108 -0.6217  0.2848
  384MPD2    C1 5791   2.985   2.874  11.643 -0.0058 -0.3711  0.2127
  384MPD2    C2 5792   3.118   2.846  11.606 -0.2296 -0.9902  0.2251
  384MPD2    C3 5793   3.144   2.759  11.501 -0.5916  0.1775  0.3670
  384MPD2    C4 5794   3.040   2.700  11.439 -0.2646 -0.3221 -0.1783
  384MPD2    C5 5795   2.916   2.738  11.457  0.5902 -0.1790 -0.5630
  384MPD2     H 5796   3.207   2.871  11.664  0.8504 -1.0750 -1.3986
  384MPD2    H1 5797   3.063   2.623  11.367  2.5479  1.6103 -1.3621
  384MPD2    H2 5798   2.786   2.856  11.563  1.0799  2.1645  2.4655
  384MPD2    H3 5799   2.834   2.697  11.398 -1.0754  1.1328  0.8205
  384MPD2     N 5800   3.277   2.738  11.475 -0.1395  0.1894  0.3917
  384MPD2    H5 5801   3.349   2.773  11.537  0.2245 -0.2539  0.2247
  384MPD2    N1 5802   2.946   2.953  11.751 -0.0611 -0.0903  0.0523
  384MPD2    H7 5803   2.849   2.964  11.779 -0.1575 -2.8993  0.7946
  385TMC3    C1 5804   3.472   2.645  11.390 -0.1881  0.1582  0.0478
  385TMC3    C2 5805   3.519   2.521  11.398 -0.1346 -0.0692  0.3850
  385TMC3    C3 5806   3.613   2.492  11.490 -0.2357  0.1543 -0.8570
  385TMC3    C4 5807   3.533   2.743  11.459 -0.3614 -0.0147 -0.5500
  385TMC3    C5 5808   3.608   2.707  11.574  0.0601  0.3423 -0.5382
  385TMC3    C6 5809   3.647   2.579  11.586 -0.3063  0.2049  0.2735
  385TMC3     C 5810   3.326   2.670  11.366 -0.2678 -0.2325  1.0698
  385TMC3     O 5811   3.273   2.577  11.306  0.9899 -0.3253  0.3680
  385TMC3     H 5812   3.466   2.449  11.336  3.2458 -2.1003 -0.1562
  385TMC3    H1 5813   3.515   2.848  11.443  0.1579  0.3727  1.4949
  385TMC3    H2 5814   3.694   2.550  11.680  0.2602 -0.1540 -0.1246
  385TMC3    C7 5815   3.552   2.781  11.691 -0.4322  0.1689  0.5517
  385TMC3    C8 5816   3.649   2.359  11.512 -0.4367  0.1514 -0.1482
  385TMC3    O1 5817   3.460   2.856  11.663 -0.1950  0.3310 -0.0935
  385TMC3    O2 5818   3.712   2.343  11.615  0.2436 -0.3421  0.0812
  386TMC3    C1 5819   4.384   4.715  11.431 -0.1753 -0.0674 -0.3566
  386TMC3    C2 5820   4.380   0.063  11.322 -0.7815  0.5508 -0.1245
  386TMC3    C3 5821   4.296   0.168  11.333 -0.3059  0.7848  0.3321
  386TMC3    C4 5822   4.289   4.719  11.533 -0.0025  0.4056 -0.0766
  386TMC3    C5 5823   4.202   0.083  11.530  0.0631 -0.2057 -0.0120
  386TMC3    C6 5824   4.210   0.177  11.437  0.0696  0.8595 -0.2262
  386TMC3     C 5825   4.492   4.618  11.438 -0.6276  0.8543  0.2762
  386TMC3     O 5826   4.544   4.575  11.332 -0.5834  0.4234  0.4783
  386TMC3     H 5827   4.466   0.054  11.257 -0.1689 -1.0499  0.9227
  386TMC3    H1 5828   4.287   4.652  11.618  0.5150 -0.7881 -0.9980
  386TMC3    H2 5829   4.135   0.255  11.434 -1.8411 -0.9319  0.2323
  386TMC3    C7 5830   4.071   0.057  11.585  0.0727 -0.0737 -0.6789
  386TMC3    C8 5831   4.255   0.241  11.212 -0.4976 -0.6820 -0.1664
  386TMC3    O1 5832   3.979   0.134  11.561  0.0743  0.0644 -0.1652
  386TMC3    O2 5833   4.186   0.345  11.226 -0.0678 -0.4799 -0.0712
  387MPD2     C 5834   1.924   0.062   9.279 -0.1276  0.3529 -0.1981
  387MPD2    C1 5835   1.873   0.126   9.384  0.2444  0.0836 -0.3047
  387MPD2    C2 5836   1.758   0.075   9.438 -0.3601  0.4573 -0.6136
  387MPD2    C3 5837   1.708   4.684   9.407 -0.5381  0.4336  0.3320
  387MPD2    C4 5838   1.746   4.625   9.293 -0.2634 -0.0366 -0.0098
  387MPD2    C5 5839   1.857   4.681   9.239 -0.7084 -0.5986 -0.5922
  387MPD2     H 5840   1.718   0.133   9.521  1.1309 -0.2488  0.5935
  387MPD2    H1 5841   1.704   4.534   9.253 -0.3840 -0.0506  0.1465
  387MPD2    H2 5842   2.013   0.092   9.225  0.8752 -1.1162  0.6369
  387MPD2    H3 5843   1.902   4.637   9.150  1.6299  0.0079  0.2851
  387MPD2     N 5844   1.604   4.643   9.496  0.2266 -0.3868 -0.6799
  387MPD2    H5 5845   1.580   4.703   9.574 -0.1234 -1.0751 -0.2530
  387MPD2    N1 5846   1.925   0.248   9.437 -0.3334  0.0822  0.6021
  387MPD2    H7 5847   1.875   0.288   9.516  2.0220 -0.5326  2.4283
  388TMC3    C1 5848   2.079   0.400   9.521 -0.7708  0.5273 -0.7022
  388TMC3    C2 5849   2.184   0.488   9.495  0.7541  0.1482 -0.2803
  388TMC3    C3 5850   2.245   0.554   9.603 -0.0416  0.5686  0.6024
  388TMC3    C4 5851   2.035   0.376   9.645  0.0440 -0.1277  0.2557
  388TMC3    C5 5852   2.090   0.442   9.749 -0.2114  0.8454  0.2220
  388TMC3    C6 5853   2.191   0.538   9.727  0.2363 -0.6199 -0.4969
  388TMC3     C 5854   2.044   0.309   9.413  0.0098 -0.6109  0.1492
  388TMC3     O 5855   2.131   0.262   9.341 -0.2494 -0.2232 -1.0152
  388TMC3     H 5856   2.205   0.504   9.389 -0.0771  0.2487 -0.4265
  388TMC3    H1 5857   1.968   0.292   9.661 -0.1510  0.5589  2.9825
  388TMC3    H2 5858   2.225   0.589   9.816  1.1889 -2.2249  0.0562
  388TMC3    C7 5859   2.047   0.402   9.887 -0.3358 -0.3053 -0.2618
  388TMC3    C8 5860   2.320   0.673   9.569 -0.1741 -0.7546  0.1041
  388TMC3    O1 5861   2.140   0.406   9.966 -0.0788 -1.2848  0.2828
  388TMC3    O2 5862   2.343   0.682   9.451 -0.0264  0.0130 -0.8930
  389MPD2     C 5863   0.701   3.362  10.959  0.0906 -0.5178  0.1104
  389MPD2    C1 5864   0.582   3.305  10.926 -0.5900  0.6534  0.3998
  389MPD2    C2 5865   0.514   3.231  11.019  0.1003 -0.4061  0.0769
  389MPD2    C3 5866   0.564   3.221  11.149 -0.0357  1.1991  0.5480
  389MPD2    C4 5867   0.683   3.282  11.182 -0.1918 -0.0259 -0.1435
  389MPD2    C5 5868   0.740   3.362  11.090 -0.9006  0.1620  0.2199
  389MPD2     H 5869   0.423   3.182  10.989  0.1383 -0.0795 -0.5864
  389MPD2    H1 5870   0.724   3.258  11.279  2.4215 -0.6185 -1.3983
  389MPD2    H2 5871   0.755   3.423  10.888 -2.6905 -0.3388 -1.8440
  389MPD2    H3 5872   0.831   3.416  11.116  0.4778 -2.2818  0.5042
  389MPD2     N 5873   0.508   3.141  11.252 -0.4876  0.8586  1.0729
  389MPD2    H5 5874   0.548   3.136  11.345  1.5570  2.8550  0.3151
  389MPD2    N1 5875   0.542   3.329  10.793  0.3112 -0.0786  0.7903
  389MPD2    H7 5876   0.620   3.351  10.733 -0.1179 -2.0882 -0.5147
  390TMC3    C1 5877   0.385   2.973  11.351 -0.1348 -0.0728  0.1597
  390TMC3    C2 5878   0.323   2.847  11.341 -0.5765  0.3232  0.2058
  390TMC3    C3 5879   0.298   2.777  11.462 -0.7502  0.2078  0.6818
  390TMC3    C4 5880   0.369   3.042  11.471 -0.0661 -0.0877  0.0369
  390TMC3    C5 5881   0.311   2.981  11.574 -0.0222  0.1770 -0.6401
  390TMC3    C6 5882   0.305   2.842  11.580 -0.1659  0.4578  0.4887
  390TMC3     C 5883   0.407   3.059  11.231 -0.7847 -0.0863 -0.3830
  390TMC3     O 5884   0.325   3.043  11.141 -0.4949  0.3784  0.2351
  390TMC3     H 5885   0.302   2.800  11.246  1.0448 -0.7128  0.3606
  390TMC3    H1 5886   0.376   3.150  11.461  2.1158 -0.5212 -2.9734
  390TMC3    H2 5887   0.279   2.789  11.671 -2.1288  1.2002  0.3580
  390TMC3    C7 5888   0.174   3.033  11.585  0.6322  0.6345  0.0504
  390TMC3    C8 5889   0.212   2.661  11.450 -0.3712  1.5632 -0.1447
  390TMC3    O1 5890   0.162   3.153  11.552  0.3762 -0.3665 -0.4364
  390TMC3    O2 5891   0.148   2.668  11.345  0.2784  0.0361  0.7939
  391MPD2     C 5892   4.700   4.601  10.865 -0.2133  0.2983  0.0749
  391MPD2    C1 5893   0.095   4.655  10.829  0.2299  0.1529  0.1577
  391MPD2    C2 5894   0.117   4.663  10.691  0.4734  0.0856 -0.5505
  391MPD2    C3 5895   0.023   4.627  10.592  0.1029  0.0657  0.2124
  391MPD2    C4 5896   4.646   4.556  10.632  0.2512  0.3847 -0.6542
  391MPD2    C5 5897   4.618   4.553  10.764 -0.0403 -1.0061  0.8964
  391MPD2     H 5898   0.214   4.703  10.665  0.0485  1.3629 -0.1716
  391MPD2    H1 5899   4.583   4.494  10.570 -0.0021 -3.2150  3.2254
  391MPD2    H2 5900   4.665   4.591  10.967 -0.9357  3.5554  0.1270
  391MPD2    H3 5901   4.538   4.488  10.797 -0.9827 -0.5036 -0.3906
  391MPD2     N 5902   0.049   4.661  10.454 -0.1330 -0.2352 -0.1560
  391MPD2    H5 5903   0.129   4.720  10.433  2.2707 -4.7340 -3.6344
  391MPD2    N1 5904   0.184   4.711  10.922 -0.3369  0.0403  0.3719
  391MPD2    H7 5905   0.267   0.017  10.881  0.3814 -2.4990 -0.7070
  392TMC3    C1 5906   0.029   4.708  10.230  0.2143  0.8088  0.0444
  392TMC3    C2 5907   4.704   4.698  10.115  0.0194  0.3980 -0.2064
  392TMC3    C3 5908   0.020   0.005  10.001 -0.3456 -0.6570 -0.2021
  392TMC3    C4 5909   0.146   0.047  10.238 -0.3032  0.2262 -0.1770
  392TMC3    C5 5910   0.199   0.104  10.124  0.0549  0.5094 -0.0996
  392TMC3    C6 5911   0.141   0.070   9.997  0.3006  0.7290 -0.2844
  392TMC3     C 5912   4.700   4.645  10.347 -0.0344  0.0441  0.5530
  392TMC3     O 5913   4.587   4.587  10.346 -0.3720  0.4982 -0.7322
  392TMC3     H 5914   4.611   4.643  10.111 -0.3398  0.8454  1.6110
  392TMC3    H1 5915   0.187   0.079  10.333 -1.4749  3.3195 -0.7018
  392TMC3    H2 5916   0.186   0.093   9.901  1.6830  1.2046  0.4700
  392TMC3    C7 5917   0.280   0.224  10.131 -0.9894 -0.0233 -0.1908
  392TMC3    C8 5918   4.683   4.698   9.884  0.3244 -0.8525  0.2489
  392TMC3    O1 5919   0.339   0.232  10.238 -0.2710  0.3831 -0.1831
  392TMC3    O2 5920   4.594   4.612   9.894  0.0968  0.0822 -0.8661
  393TMC3    C1 5921   3.511   2.639  10.660 -0.3111 -0.6344 -0.1447
  393TMC3    C2 5922   3.408   2.560  10.698  0.2167  0.3657  0.2745
  393TMC3    C3 5923   3.434   2.428  10.715 -0.5112  1.0251  0.2365
  393TMC3    C4 5924   3.635   2.593  10.636  0.3146 -0.1792 -0.5741
  393TMC3    C5 5925   3.658   2.456  10.636 -0.8140 -0.5333 -0.3576
  393TMC3    C6 5926   3.553   2.375  10.669 -0.2227  0.6947 -0.3134
  393TMC3     C 5927   3.485   2.783  10.636  0.2008  0.0175 -0.1592
  393TMC3     O 5928   3.366   2.820  10.634  0.0070 -0.5304 -0.2464
  393TMC3     H 5929   3.311   2.603  10.721 -0.7271 -1.4704 -0.3156
  393TMC3    H1 5930   3.710   2.653  10.587  2.0761 -1.6964  0.2494
  393TMC3    H2 5931   3.583   2.272  10.684 -1.6085  0.2659 -0.5641
  393TMC3    C7 5932   3.760   2.384  10.562 -0.2387 -0.2605 -0.0677
  393TMC3    C8 5933   3.327   2.339  10.703 -0.1459  0.3856  0.6214
  393TMC3    O1 5934   3.726   2.277  10.509 -0.3253  0.0276 -0.0416
  393TMC3    O2 5935   3.362   2.220  10.712 -0.2728  0.1577  0.0890
  394TMC3    C1 5936   0.402   3.338  10.606  0.2455  0.2639 -0.0409
  394TMC3    C2 5937   0.278   3.317  10.552  0.0602 -0.3268  1.0863
  394TMC3    C3 5938   0.260   3.344  10.420 -0.6048 -0.5141  0.0772
  394TMC3    C4 5939   0.505   3.398  10.534  0.3484  0.1055  0.4729
  394TMC3    C5 5940   0.484   3.425  10.402 -0.8108  0.4819  0.5175
  394TMC3    C6 5941   0.364   3.395  10.345 -0.0055  0.5218 -0.4210
  394TMC3     C 5942   0.415   3.314  10.745 -0.6199  0.5781 -0.2696
  394TMC3     O 5943   0.314   3.288  10.813  0.6656  0.4352  0.2651
  394TMC3     H 5944   0.207   3.249  10.598  1.8644 -1.4287  2.2454
  394TMC3    H1 5945   0.593   3.439  10.582  0.4579 -0.0277  0.3853
  394TMC3    H2 5946   0.342   3.428  10.244 -0.3360 -2.3456 -1.2584
  394TMC3    C7 5947   0.573   3.507  10.326  0.0967 -0.5747  0.5979
  394TMC3    C8 5948   0.145   3.281  10.359 -0.0860  0.0039  0.2828
  394TMC3    O1 5949   0.524   3.573  10.235 -0.3229 -0.1718 -0.1514
  394TMC3    O2 5950   0.048   3.259  10.431  0.3055 -0.3600  0.4439
  395TMC3    C1 5951   4.705   0.577  15.352  0.0459  0.6081 -0.6450
  395TMC3    C2 5952   4.595   0.598  15.274  0.1088 -0.2888 -0.0707
  395TMC3    C3 5953   4.599   0.553  15.143 -0.2044  0.6552 -0.2338
  395TMC3    C4 5954   0.073   0.501  15.300  1.2730 -0.7087  0.0475
  395TMC3    C5 5955   0.072   0.473  15.163  0.1164 -0.2319 -0.3367
  395TMC3    C6 5956   4.705   0.495  15.082 -0.0767 -0.1533  0.0512
  395TMC3     C 5957   4.696   0.623  15.489 -0.3730 -0.9519  0.0435
  395TMC3     O 5958   4.632   0.730  15.512  0.0861  0.1125 -0.0003
  395TMC3     H 5959   4.499   0.635  15.309 -1.0877 -2.5118 -1.0160
  395TMC3    H1 5960   0.166   0.503  15.356 -0.6920 -0.7456  3.3713
  395TMC3    H2 5961   4.710   0.466  14.978  0.2690  0.5438 -0.1207
  395TMC3    C7 5962   0.208   0.460  15.108  0.4342  0.4906  0.4076
  395TMC3    C8 5963   4.485   0.595  15.067  0.6090  0.6066 -0.2684
  395TMC3    O1 5964   0.300   0.468  15.186  0.8313 -0.2446  0.0186
  395TMC3    O2 5965   4.456   0.716  15.084  0.6707  0.0611  0.5335
  396MPD2     C 5966   0.198   1.496  17.090  0.5124  0.1177 -0.4251
  396MPD2    C1 5967   0.304   1.553  17.154  0.1381 -0.4131  0.0813
  396MPD2    C2 5968   0.365   1.659  17.096 -0.1361 -0.7485  0.4399
  396MPD2    C3 5969   0.314   1.710  16.974 -0.0900  0.4703  0.2236
  396MPD2    C4 5970   0.200   1.654  16.919 -0.3511  1.4348 -0.1853
  396MPD2    C5 5971   0.142   1.544  16.976  0.3015 -0.1447  0.4290
  396MPD2     H 5972   0.445   1.711  17.148  1.7472  0.1522 -3.3770
  396MPD2    H1 5973   0.155   1.694  16.829 -0.2556 -1.1813 -1.3907
  396MPD2    H2 5974   0.142   1.409  17.123 -1.3980  1.4204 -0.2189
  396MPD2    H3 5975   0.055   1.496  16.933 -0.5875  0.8951  1.0829
  396MPD2     N 5976   0.383   1.818  16.911  0.3199  0.5412 -0.0197
  396MPD2    H5 5977   0.457   1.862  16.965  2.2654 -1.0576 -1.4085
  396MPD2    N1 5978   0.355   1.487  17.264  0.6924  0.5701  0.4500
  396MPD2    H7 5979   0.311   1.397  17.276  0.1356  0.8171  0.2711
  397TMC3    C1 5980   0.523   1.420  17.429  0.1663 -0.3285 -0.2949
  397TMC3    C2 5981   0.658   1.406  17.411  0.5660 -0.3335 -1.6900
  397TMC3    C3 5982   0.683   1.279  17.370  0.4177  0.0116  0.2404
  397TMC3    C4 5983   0.438   1.314  17.452 -0.3107 -0.6815  0.2091
  397TMC3    C5 5984   0.483   1.193  17.452  0.6372  1.0723 -0.7324
  397TMC3    C6 5985   0.604   1.169  17.394 -0.0957  0.0965 -0.1724
  397TMC3     C 5986   0.467   1.525  17.339 -0.1397  0.0532  0.1908
  397TMC3     O 5987   0.513   1.637  17.350 -0.1676  0.3073  0.1805
  397TMC3     H 5988   0.725   1.489  17.388  1.5100 -0.2576  1.3175
  397TMC3    H1 5989   0.342   1.340  17.495 -0.0019  0.4858  0.2093
  397TMC3    H2 5990   0.642   1.071  17.367 -2.1079 -0.0349 -2.5777
  397TMC3    C7 5991   0.393   1.084  17.489  1.2500 -0.3229  0.2070
  397TMC3    C8 5992   0.788   1.252  17.272 -0.3435 -0.8539  0.3272
  397TMC3    O1 5993   0.416   0.977  17.439 -0.0313  0.0283  0.4107
  397TMC3    O2 5994   0.751   1.165  17.197  0.2133  0.0947 -0.3705
  398MPD2     C 5995   2.886   3.569   0.246 -0.6265  0.4776 -0.7341
  398MPD2    C1 5996   2.974   3.467   0.255  0.4180  0.2909 -0.8439
  398MPD2    C2 5997   3.095   3.503   0.321 -0.1067  0.6763  0.2531
  398MPD2    C3 5998   3.120   3.634   0.362 -0.4550 -0.1616 -0.1736
  398MPD2    C4 5999   3.025   3.728   0.346  0.0780 -0.4789 -0.2585
  398MPD2    C5 6000   2.908   3.695   0.290  0.4737  0.7967 -0.1970
  398MPD2     H 6001   3.176   3.434   0.341  0.3181  1.3022  0.6871
  398MPD2    H1 6002   3.043   3.828   0.383  1.1652 -0.4596 -0.8132
  398MPD2    H2 6003   2.787   3.542   0.209  0.8584 -3.0513 -2.1489
  398MPD2    H3 6004   2.828   3.768   0.288  1.9335  2.3964  1.5656
  398MPD2     N 6005   3.245   3.665   0.411  0.5458 -0.7965 -0.0518
  398MPD2    H5 6006   3.316   3.595   0.431  1.4588 -0.1979 -1.2237
  398MPD2    N1 6007   2.955   3.332   0.219 -0.0785 -0.2422 -0.5147
  398MPD2    H7 6008   3.024   3.259   0.224 -0.4119 -0.4902  0.4146
  399TMC3    C1 6009   2.863   3.147   0.095  0.1737 -0.3955  0.3493
  399TMC3    C2 6010   2.959   3.065   0.145 -0.1074  0.1096 -0.7209
  399TMC3    C3 6011   2.985   2.946   0.083  0.6192 -0.2838 -0.1448
  399TMC3    C4 6012   2.786   3.111  17.721  0.2493 -1.1965  0.2720
  399TMC3    C5 6013   2.820   2.994  17.662  0.5535  0.4659 -0.0948
  399TMC3    C6 6014   2.923   2.914  17.707 -0.3955  0.8397 -0.6941
  399TMC3     C 6015   2.853   3.289   0.134 -0.2550 -0.6292  0.5079
  399TMC3     O 6016   2.774   3.361   0.073  0.1094  0.3202  0.4663
  399TMC3     H 6017   3.014   3.096   0.234 -1.2600 -0.4024  0.1698
  399TMC3    H1 6018   2.705   3.171  17.683  1.1118  0.3899  0.9230
  399TMC3    H2 6019   2.953   2.825  17.653 -2.5812 -0.8922  0.9405
  399TMC3    C7 6020   2.715   2.925  17.589 -0.4560 -0.0186 -0.4561
  399TMC3    C8 6021   3.074   2.863   0.149  0.3355 -0.1895  0.1862
  399TMC3    O1 6022   2.605   2.969  17.619  0.5359 -0.4986  0.5511
  399TMC3    O2 6023   3.140   2.912   0.235  0.3085 -0.0603 -0.2235
  400TMC3    C1 6024   1.792   1.379  16.698 -0.1867 -0.3702 -0.6353
  400TMC3    C2 6025   1.712   1.269  16.692 -0.7079  0.7527 -0.4902
  400TMC3    C3 6026   1.593   1.285  16.621 -0.0751 -0.1725  0.4519
  400TMC3    C4 6027   1.754   1.495  16.650 -0.6077  0.0184  0.3380
  400TMC3    C5 6028   1.630   1.513  16.597 -0.0341  0.3683 -0.3681
  400TMC3    C6 6029   1.549   1.404  16.570  0.4517 -0.3004 -0.1210
  400TMC3     C 6030   1.916   1.367  16.759  0.0173  0.0918 -0.1344
  400TMC3     O 6031   1.938   1.269  16.830  0.7469 -0.4239  0.5052
  400TMC3     H 6032   1.737   1.167  16.717 -2.6674  0.1101 -1.1119
  400TMC3    H1 6033   1.805   1.590  16.661 -1.4026  0.6816 -1.5852
  400TMC3    H2 6034   1.450   1.425  16.531  0.2653  3.1587  2.1093
  400TMC3    C7 6035   1.571   1.644  16.570 -0.8482  0.5127  0.6198
  400TMC3    C8 6036   1.497   1.175  16.641  0.2904 -0.3243  0.2923
  400TMC3    O1 6037   1.479   1.650  16.486  0.2310  0.1035 -0.0555
  400TMC3    O2 6038   1.531   1.097  16.729  0.7024  0.2294 -0.1208
  401MPD2     C 6039   0.371   0.840   0.505 -0.1915 -0.5275 -0.0357
  401MPD2    C1 6040   0.392   0.747   0.609 -0.4101 -0.3618 -0.1571
  401MPD2    C2 6041   0.326   0.632   0.618 -0.2873  0.0861 -0.6721
  401MPD2    C3 6042   0.211   0.613   0.553 -0.0991 -0.8217 -0.7693
  401MPD2    C4 6043   0.176   0.704   0.457  0.1099  0.0678 -0.3035
  401MPD2    C5 6044   0.256   0.814   0.435 -0.4901 -0.0304  0.3998
  401MPD2     H 6045   0.351   0.558   0.694 -1.2422 -0.9272 -1.3567
  401MPD2    H1 6046   0.080   0.695   0.407 -0.2027 -2.9061  0.8113
  401MPD2    H2 6047   0.435   0.923   0.477 -0.9604  0.1396  0.1918
  401MPD2    H3 6048   0.224   0.885   0.359  0.9188 -1.5556 -1.6203
  401MPD2     N 6049   0.129   0.498   0.588 -0.2741  0.3839  0.7044
  401MPD2    H5 6050   0.163   0.431   0.655 -0.9164 -0.4305  0.2284
  401MPD2    N1 6051   0.502   0.745   0.691 -0.4227  0.3273 -0.2388
  401MPD2    H7 6052   0.517   0.660   0.744 -1.9940  0.4624  0.3944
  402TMC3    C1 6053   4.674   0.364   0.601  0.0173 -0.3240 -0.4358
  402TMC3    C2 6054   0.010   0.296   0.700 -0.3548  0.5679  0.1177
  402TMC3    C3 6055   0.006   0.163   0.707  0.3905 -0.3099 -0.6662
  402TMC3    C4 6056   4.607   0.290   0.507 -0.5413 -0.3605  0.3866
  402TMC3    C5 6057   4.602   0.153   0.517 -0.0543 -0.5588  0.3333
  402TMC3    C6 6058   4.677   0.090   0.611 -0.1309 -0.2762 -0.0871
  402TMC3     C 6059   0.002   0.477   0.546 -0.0571  0.0878 -0.3949
  402TMC3     O 6060   4.669   0.542   0.468  0.2124  0.1383 -0.6734
  402TMC3     H 6061   0.050   0.355   0.782  0.4582 -0.2050  0.2669
  402TMC3    H1 6062   4.552   0.345   0.431 -1.1547 -0.5755  0.6748
  402TMC3    H2 6063   4.671   4.719   0.632 -3.8654  0.1989  1.2083
  402TMC3    C7 6064   4.574   0.089   0.392  0.4009  0.1777 -0.5789
  402TMC3    C8 6065   0.076   0.090   0.807  0.3480  0.4063 -0.2992
  402TMC3    O1 6066   4.525   0.152   0.300  0.1277  0.5979 -0.6421
  402TMC3    O2 6067   0.135   4.723   0.769  0.4187 -0.0480 -0.3405
  403MPD2     C 6068   2.575   2.701  13.209 -0.2269  0.3829  0.2741
  403MPD2    C1 6069   2.638   2.614  13.302  0.0025 -0.8825  0.1369
  403MPD2    C2 6070   2.674   2.662  13.428  0.1576  0.2045 -0.2793
  403MPD2    C3 6071   2.655   2.803  13.450 -0.4390  0.5866 -0.1033
  403MPD2    C4 6072   2.600   2.884  13.355 -0.1977  0.4223 -0.0673
  403MPD2    C5 6073   2.560   2.831  13.236 -0.0107  0.0310 -0.7913
  403MPD2     H 6074   2.710   2.599  13.507  0.5451  1.0089  0.1887
  403MPD2    H1 6075   2.597   2.991  13.375  2.4175  0.3544  0.8118
  403MPD2    H2 6076   2.543   2.660  13.113  1.7275 -0.7166  0.0968
  403MPD2    H3 6077   2.523   2.901  13.162 -0.1820  1.5421  0.7010
  403MPD2     N 6078   2.700   2.876  13.567  0.8134 -0.6335  0.3168
  403MPD2    H5 6079   2.687   2.976  13.579 -0.0105 -0.5746 -1.0418
  403MPD2    N1 6080   2.651   2.475  13.267  0.0100  0.3415 -0.4827
  403MPD2    H7 6081   2.621   2.453  13.173 -2.2385  1.8718 -0.1269
  404TMC3    C1 6082   2.678   2.247  13.297 -0.0382 -0.4905 -1.2031
  404TMC3    C2 6083   2.646   2.163  13.397  1.3432 -0.2382  0.5244
  404TMC3    C3 6084   2.690   2.029  13.389  0.3581  0.1036 -0.6382
  404TMC3    C4 6085   2.752   2.201  13.186 -0.1269 -0.2708 -0.4153
  404TMC3    C5 6086   2.801   2.069  13.191 -0.4520  0.5738 -0.4433
  404TMC3    C6 6087   2.772   1.985  13.295 -0.5691 -0.3556  0.7228
  404TMC3     C 6088   2.694   2.377  13.350  0.1592 -0.9494 -0.1633
  404TMC3     O 6089   2.737   2.384  13.465  0.4644  0.3301  0.4237
  404TMC3     H 6090   2.617   2.205  13.492 -0.3188 -0.4062  0.1002
  404TMC3    H1 6091   2.802   2.276  13.125 -0.1028 -0.2680 -0.3922
  404TMC3    H2 6092   2.824   1.889  13.294 -1.1930 -0.6575 -2.1428
  404TMC3    C7 6093   2.859   2.007  13.073 -0.7577 -0.3735  0.6809
  404TMC3    C8 6094   2.680   1.942  13.499 -0.6333  0.1800  0.1436
  404TMC3    O1 6095   2.908   1.898  13.093 -0.0484  0.4018  0.1894
  404TMC3    O2 6096   2.757   1.847  13.503  0.6079 -0.7811 -0.1862
  405MPD2     C 6097   3.123   3.033  14.578  0.0388 -0.3201  0.1980
  405MPD2    C1 6098   2.995   2.994  14.605  0.4208  0.5673  0.6146
  405MPD2    C2 6099   2.895   3.090  14.580  0.2426 -0.2261 -0.5435
  405MPD2    C3 6100   2.922   3.219  14.531 -0.0704  0.1714  0.5642
  405MPD2    C4 6101   3.054   3.243  14.505 -0.4508 -0.2732  0.6566
  405MPD2    C5 6102   3.154   3.151  14.526  0.0166 -0.4616  0.1663
  405MPD2     H 6103   2.795   3.066  14.614  0.3397 -0.6211 -0.5380
  405MPD2    H1 6104   3.079   3.341  14.465 -0.9559  0.1530  1.3791
  405MPD2    H2 6105   3.206   2.963  14.579  0.5269  0.2719  1.7461
  405MPD2    H3 6106   3.252   3.169  14.483  0.2609  0.6594  1.1843
  405MPD2     N 6107   2.818   3.311  14.503 -0.5044  0.9050  0.1546
  405MPD2    H5 6108   2.723   3.281  14.522 -0.2323 -1.4468 -2.2769
  405MPD2    N1 6109   2.964   2.872  14.664  0.2032 -0.5150 -0.2872
  405MPD2    H7 6110   3.045   2.822  14.699 -1.4437 -0.5668  3.4231
  406TMC3    C1 6111   2.563   3.681  14.443  0.4969 -0.6112 -0.3723
  406TMC3    C2 6112   2.477   3.645  14.551  0.0222  0.3316  0.2268
  406TMC3    C3 6113   2.509   3.531  14.619  0.3755 -0.4260 -0.0194
  406TMC3    C4 6114   2.688   3.623  14.425  0.1633  0.8469 -0.3308
  406TMC3    C5 6115   2.715   3.515  14.512 -0.4237  0.3022  0.9233
  406TMC3    C6 6116   2.628   3.460  14.606  0.4412 -0.3704 -0.2475
  406TMC3     C 6117   2.508   3.774  14.344  0.4525  0.5850  0.0833
  406TMC3     O 6118   2.427   3.856  14.385 -0.4885  0.0122 -0.4595
  406TMC3     H 6119   2.376   3.684  14.554 -0.0138  0.3824 -1.6444
  406TMC3    H1 6120   2.759   3.663  14.354  1.4935  0.1496  0.6208
  406TMC3    H2 6121   2.659   3.404  14.693  0.1188  1.4499  1.0414
  406TMC3    C7 6122   2.831   3.439  14.481  0.4718 -0.0986 -0.6464
  406TMC3    C8 6123   2.411   3.466  14.701  0.7210  0.2119  0.1669
  406TMC3    O1 6124   2.913   3.501  14.417  0.3809  0.0119  0.9903
  406TMC3    O2 6125   2.312   3.527  14.733 -0.3288  0.0466  0.3614
  407MPD2     C 6126   1.114   4.466   9.286  0.8352  0.7284  0.1809
  407MPD2    C1 6127   1.101   4.406   9.406 -0.1009 -0.0732  0.0322
  407MPD2    C2 6128   1.030   4.473   9.505  0.1419  0.3832 -0.0070
  407MPD2    C3 6129   0.996   4.604   9.482 -0.5367 -0.0353  0.9508
  407MPD2    C4 6130   1.019   4.664   9.359  0.2315  0.3018 -0.1637
  407MPD2    C5 6131   1.078   4.593   9.258 -0.3828 -0.9879  0.0395
  407MPD2     H 6132   1.022   4.419   9.598  1.0964 -0.4192 -0.3916
  407MPD2    H1 6133   1.001   0.034   9.342 -1.6210  0.0447  0.1356
  407MPD2    H2 6134   1.153   4.412   9.200 -0.8054  0.0369 -0.1271
  407MPD2    H3 6135   1.105   4.637   9.163 -0.6149 -0.7429  0.0851
  407MPD2     N 6136   0.936   4.693   9.566  0.2006  0.1000 -0.0389
  407MPD2    H5 6137   0.919   0.052   9.532 -0.0236 -0.2794 -0.9714
  407MPD2    N1 6138   1.138   4.267   9.427 -0.6021  0.2490 -0.3649
  407MPD2    H7 6139   1.103   4.222   9.511  0.1551  1.6505  0.7014
  408TMC3    C1 6140   1.220   4.047   9.368  0.5494  0.0030 -0.0592
  408TMC3    C2 6141   1.341   4.007   9.408 -0.0664  0.1275 -0.0643
  408TMC3    C3 6142   1.346   3.892   9.484  0.1860 -0.0867 -0.1592
  408TMC3    C4 6143   1.104   3.986   9.397 -0.3776 -0.4202 -0.8161
  408TMC3    C5 6144   1.117   3.877   9.481  0.0076  0.1963  0.0538
  408TMC3    C6 6145   1.235   3.830   9.523  0.0070 -0.7856  0.3895
  408TMC3     C 6146   1.222   4.188   9.341  0.0193 -0.5946 -0.3372
  408TMC3     O 6147   1.294   4.225   9.248 -0.9252 -0.2533 -0.0916
  408TMC3     H 6148   1.417   4.080   9.382 -0.2905  0.6820  0.8553
  408TMC3    H1 6149   1.011   4.036   9.372  0.8627  2.2489 -0.1363
  408TMC3    H2 6150   1.233   3.746   9.591  1.4807 -1.4819 -0.4243
  408TMC3    C7 6151   1.007   3.789   9.499  1.2275  0.0853 -0.4522
  408TMC3    C8 6152   1.464   3.863   9.563 -0.1739  0.5315  0.1905
  408TMC3    O1 6153   0.999   3.728   9.604  0.3006 -0.7189  0.2889
  408TMC3    O2 6154   1.465   3.778   9.651  0.6809  0.0226 -0.3411
  409MPD2     C 6155   0.563   0.967  16.805 -0.0528  0.5930  0.0658
  409MPD2    C1 6156   0.670   0.942  16.883  0.0816 -0.0725  0.3144
  409MPD2    C2 6157   0.791   1.008  16.856  0.3612  0.4849  0.0888
  409MPD2    C3 6158   0.800   1.098  16.752  0.3628 -0.1494  0.1889
  409MPD2    C4 6159   0.695   1.111  16.663 -0.1110  0.4350 -0.7944
  409MPD2    C5 6160   0.573   1.048  16.692  0.2542  0.3556  0.2788
  409MPD2     H 6161   0.877   0.982  16.916  1.0504  1.4875 -0.4593
  409MPD2    H1 6162   0.707   1.177  16.578  3.1440  0.3859 -0.3956
  409MPD2    H2 6163   0.472   0.908  16.806 -1.7806  3.2081 -1.0359
  409MPD2    H3 6164   0.500   1.047  16.612  1.0163 -0.5454 -0.4126
  409MPD2     N 6165   0.916   1.174  16.723 -0.0845  0.5812  0.1644
  409MPD2    H5 6166   0.907   1.235  16.643 -2.3022 -0.1666 -0.1359
  409MPD2    N1 6167   0.669   0.858  16.997 -0.1311  0.0741 -0.3498
  409MPD2    H7 6168   0.756   0.858  17.049 -0.2238 -0.8657 -0.1890
  410TMC3    C1 6169   1.122   1.279  16.742  0.4049 -0.9111 -0.4266
  410TMC3    C2 6170   1.223   1.311  16.829 -0.2434 -0.6154 -0.4647
  410TMC3    C3 6171   1.295   1.430  16.808 -0.4178  0.4147 -0.5141
  410TMC3    C4 6172   1.082   1.358  16.635 -0.3518  0.4740 -0.3858
  410TMC3    C5 6173   1.157   1.471  16.622 -0.0816  0.4091  0.0095
  410TMC3    C6 6174   1.263   1.514  16.704  0.5637  0.3983 -0.5863
  410TMC3     C 6175   1.032   1.178  16.798 -0.3426  1.3980 -0.5203
  410TMC3     O 6176   1.064   1.120  16.898 -0.2854  0.0671 -0.5498
  410TMC3     H 6177   1.240   1.270  16.928  0.2078 -1.0516 -0.7205
  410TMC3    H1 6178   1.003   1.339  16.564  0.4623  1.2664 -1.5012
  410TMC3    H2 6179   1.315   1.609  16.694  0.0990  0.4343 -2.7047
  410TMC3    C7 6180   1.077   1.575  16.566  0.2947 -0.0349 -0.2418
  410TMC3    C8 6181   1.410   1.468  16.888 -0.0044  0.1199  1.0284
  410TMC3    O1 6182   0.957   1.560  16.577 -0.5324  0.2170  0.5479
  410TMC3    O2 6183   1.434   1.590  16.890 -0.1016 -0.3474  0.0056
  411MPD2     C 6184   0.925   1.144  14.414  0.3511  0.4393 -0.1231
  411MPD2    C1 6185   0.793   1.184  14.410  0.6360 -0.3564  0.6880
  411MPD2    C2 6186   0.696   1.090  14.442 -0.7735 -0.6792 -0.2380
  411MPD2    C3 6187   0.729   0.962  14.481  0.2734  0.1280 -0.0583
  411MPD2    C4 6188   0.863   0.923  14.481 -0.3719 -0.6059 -0.3800
  411MPD2    C5 6189   0.958   1.017  14.452  0.2954 -0.2974  0.4363
  411MPD2     H 6190   0.593   1.123  14.439 -0.1978  1.1825  0.1951
  411MPD2    H1 6191   0.886   0.828  14.527 -1.6844  0.3196  2.2206
  411MPD2    H2 6192   1.007   1.214  14.402  2.0419 -1.3406  1.1273
  411MPD2    H3 6193   1.054   0.980  14.486  0.2612  0.1421  1.0082
  411MPD2     N 6194   0.631   0.866  14.507  0.0269 -0.5408  0.2717
  411MPD2    H5 6195   0.668   0.772  14.515 -0.6057 -0.7913  0.2696
  411MPD2    N1 6196   0.766   1.319  14.372 -0.0482 -0.1672 -0.1219
  411MPD2    H7 6197   0.844   1.382  14.387 -1.7045  2.0522 -0.8081
  412TMC3    C1 6198   0.421   0.771  14.545  0.3543  0.4317 -0.1625
  412TMC3    C2 6199   0.296   0.789  14.606  0.2151 -0.0735  0.6855
  412TMC3    C3 6200   0.191   0.737  14.538 -0.1192 -0.2168 -0.3905
  412TMC3    C4 6201   0.437   0.689  14.437  0.1271 -0.7904 -0.4169
  412TMC3    C5 6202   0.325   0.634  14.380 -0.2574 -0.8600 -0.3851
  412TMC3    C6 6203   0.209   0.663  14.432  0.1503 -0.5089 -0.2841
  412TMC3     C 6204   0.497   0.888  14.537 -0.1667 -0.7039  0.0660
  412TMC3     O 6205   0.438   0.996  14.548 -1.3734  0.1311  0.0536
  412TMC3     H 6206   0.284   0.850  14.695  0.6090  1.1066 -0.0630
  412TMC3    H1 6207   0.528   0.685  14.378 -0.0109  2.1619 -0.8658
  412TMC3    H2 6208   0.122   0.626  14.378  0.4498  0.0252 -1.1304
  412TMC3    C7 6209   0.322   0.669  14.239 -0.1211  0.6955 -0.3896
  412TMC3    C8 6210   0.091   0.836  14.520  0.7218 -0.6428  0.1657
  412TMC3    O1 6211   0.376   0.770  14.206 -0.0802  0.2913  0.1015
  412TMC3    O2 6212   0.032   0.871  14.621 -0.1572  0.1356 -0.6543
  413MPD2     C 6213   2.321   0.032  14.945  0.6513 -0.0715  0.1704
  413MPD2    C1 6214   2.267   4.699  14.844 -1.0402  0.2212  0.2174
  413MPD2    C2 6215   2.332   4.582  14.806  0.4643 -0.3142  0.3361
  413MPD2    C3 6216   2.458   4.548  14.857  0.2417 -0.0234 -0.2378
  413MPD2    C4 6217   2.509   4.624  14.967  0.6188 -0.0997 -0.0945
  413MPD2    C5 6218   2.444   0.004  15.001 -0.1776 -0.2124  0.2867
  413MPD2     H 6219   2.273   4.510  14.750 -0.2076 -0.6069  1.4355
  413MPD2    H1 6220   2.604   4.590  15.006  0.9033  0.8419  0.0257
  413MPD2    H2 6221   2.276   0.129  14.965  0.1094 -0.5557  1.2885
  413MPD2    H3 6222   2.493   0.081  15.061  1.6469  0.1852 -1.7313
  413MPD2     N 6223   2.522   4.427  14.815  0.4647  0.2630 -0.8193
  413MPD2    H5 6224   2.472   4.385  14.738 -1.1220 -1.2095  1.0306
  413MPD2    N1 6225   2.128   4.727  14.811 -0.3411 -0.3268  0.8446
  413MPD2    H7 6226   2.086   0.053  14.881 -1.0241 -0.9490  0.9787
  414TMC3    C1 6227   2.630   4.223  14.805  0.0288 -0.0529  0.2505
  414TMC3    C2 6228   2.657   4.110  14.872 -0.0232  0.1881  0.2617
  414TMC3    C3 6229   2.679   3.994  14.804  1.1409  0.6378 -0.2136
  414TMC3    C4 6230   2.641   4.220  14.666  0.2007 -0.0320  0.2689
  414TMC3    C5 6231   2.653   4.096  14.601  0.6315 -0.0705 -0.0268
  414TMC3    C6 6232   2.689   3.983  14.670  0.4882 -0.5188  0.2348
  414TMC3     C 6233   2.612   4.343  14.885 -0.2717  0.0904  0.2298
  414TMC3     O 6234   2.644   4.346  15.002 -0.3796 -0.2380  0.8233
  414TMC3     H 6235   2.646   4.112  14.980  0.6896 -1.6152  0.3684
  414TMC3    H1 6236   2.650   4.313  14.611 -0.1778 -0.5347 -0.6273
  414TMC3    H2 6237   2.702   3.886  14.624 -1.0896 -1.1785  1.2044
  414TMC3    C7 6238   2.643   4.113  14.449 -0.0583 -0.0999  0.6009
  414TMC3    C8 6239   2.753   3.889  14.871 -0.2852 -0.6745  1.2900
  414TMC3    O1 6240   2.568   4.200  14.411 -0.1887  0.2119 -0.7491
  414TMC3    O2 6241   2.736   3.773  14.836 -0.4565 -0.1837 -0.3260
  415TMC3    C1 6242   2.749   1.832  10.219  0.1651  0.3691  0.5202
  415TMC3    C2 6243   2.687   1.948  10.249  0.0147  0.0802  0.3942
  415TMC3    C3 6244   2.548   1.953  10.236  0.9130  0.3202  0.6188
  415TMC3    C4 6245   2.669   1.714  10.200 -0.2171 -0.1277 -0.7904
  415TMC3    C5 6246   2.536   1.731  10.173  0.2689  0.7909 -0.2639
  415TMC3    C6 6247   2.476   1.851  10.186  0.5045 -0.4281  0.1153
  415TMC3     C 6248   2.887   1.807  10.236  0.5750  0.7229  0.4319
  415TMC3     O 6249   2.928   1.692  10.220 -0.3017  0.5723  0.1700
  415TMC3     H 6250   2.740   2.025  10.304  0.4837  0.5436 -0.7171
  415TMC3    H1 6251   2.721   1.626  10.165  1.3196  0.7307 -0.7028
  415TMC3    H2 6252   2.369   1.850  10.169  0.8878 -1.1064 -2.2790
  415TMC3    C7 6253   2.460   1.618  10.132  0.4424  0.6134  0.1906
  415TMC3    C8 6254   2.482   2.082  10.241 -0.0229  0.5142  0.7476
  415TMC3    O1 6255   2.360   1.635  10.064 -0.0891  0.1013 -0.0303
  415TMC3    O2 6256   2.365   2.090  10.211  0.8816  0.0926 -0.0604
  416MPD2     C 6257   0.194   1.344  11.258  0.3916 -0.0595 -1.0934
  416MPD2    C1 6258   0.074   1.276  11.239  0.4328 -0.9856  0.1285
  416MPD2    C2 6259   0.073   1.155  11.171 -0.1534  0.1827 -0.3101
  416MPD2    C3 6260   0.191   1.109  11.113  0.2558 -0.4772  0.0600
  416MPD2    C4 6261   0.300   1.188  11.116 -0.0991  0.4580 -0.2815
  416MPD2    C5 6262   0.300   1.299  11.190 -0.6281 -0.0397  0.8307
  416MPD2     H 6263   4.719   1.094  11.175  0.7790 -1.1502  0.3005
  416MPD2    H1 6264   0.395   1.164  11.070  1.1283  0.6345  2.1983
  416MPD2    H2 6265   0.205   1.433  11.320  0.4353 -1.4511  0.8703
  416MPD2    H3 6266   0.398   1.343  11.202 -1.2295  1.1712  1.2575
  416MPD2     N 6267   0.206   0.974  11.058 -0.4740  0.4534  0.3380
  416MPD2    H5 6268   0.298   0.935  11.047 -0.2558  0.3767  2.5230
  416MPD2    N1 6269   4.700   1.316  11.319  0.0225  0.2702 -0.5518
  416MPD2    H7 6270   4.718   1.387  11.389 -0.1537  1.8596 -2.1358
  417TMC3    C1 6271   4.493   1.314  11.418  0.0483  0.1841 -0.4097
  417TMC3    C2 6272   4.549   1.343  11.542  0.0458 -0.0718  0.7336
  417TMC3    C3 6273   4.469   1.403  11.631  0.0022  0.8945 -0.4338
  417TMC3    C4 6274   4.362   1.324  11.392  0.0622  0.4694  0.4404
  417TMC3    C5 6275   4.283   1.383  11.488 -0.4144  0.1710 -0.6763
  417TMC3    C6 6276   4.334   1.430  11.608 -0.2294  0.5483  0.3657
  417TMC3     C 6277   4.576   1.264  11.308  0.2065  0.8724 -0.3584
  417TMC3     O 6278   4.526   1.202  11.217  0.3835  0.2180 -0.0202
  417TMC3     H 6279   4.656   1.332  11.558  0.3677  2.7119  0.5425
  417TMC3    H1 6280   4.326   1.324  11.289  3.1106  2.5388 -0.6296
  417TMC3    H2 6281   4.271   1.475  11.685 -1.3396  1.5099 -1.1113
  417TMC3    C7 6282   4.166   1.446  11.436 -0.2197 -0.4900 -0.7857
  417TMC3    C8 6283   4.514   1.410  11.771 -0.3458 -0.2333 -0.2488
  417TMC3    O1 6284   4.142   1.559  11.469  0.3330 -0.0237 -0.7142
  417TMC3    O2 6285   4.474   1.501  11.842  0.3379 -0.4769 -0.1306
  418TMC3    C1 6286   3.670   3.842   0.378 -0.1104 -0.0124  0.6234
  418TMC3    C2 6287   3.536   3.863   0.359  0.1689 -0.4265  0.3646
  418TMC3    C3 6288   3.446   3.779   0.419 -0.5548 -0.1023  0.1175
  418TMC3    C4 6289   3.729   3.730   0.430  0.5508  0.6809  0.4155
  418TMC3    C5 6290   3.633   3.646   0.490  0.6856 -0.8468 -0.1555
  418TMC3    C6 6291   3.501   3.674   0.482  0.4519  0.2962 -0.6671
  418TMC3     C 6292   3.754   3.897   0.274  0.3803  0.6751 -0.8877
  418TMC3     O 6293   3.784   4.017   0.267 -0.3655  0.4890  0.2502
  418TMC3     H 6294   3.503   3.949   0.301  0.0101 -1.3132 -0.8714
  418TMC3    H1 6295   3.834   3.703   0.429  0.1886 -0.7761  2.6343
  418TMC3    H2 6296   3.431   3.619   0.543  0.7542 -0.0022 -0.5906
  418TMC3    C7 6297   3.680   3.521   0.542 -0.7705  0.2406 -0.8803
  418TMC3    C8 6298   3.301   3.794   0.405  0.7336  0.3388  0.1431
  418TMC3    O1 6299   3.600   3.431   0.563 -0.2784  0.2400  0.1051
  418TMC3    O2 6300   3.270   3.898   0.349  0.2301  0.1436  0.0677
  419MPD2     C 6301   1.471   1.069  12.006  0.1220 -0.5444 -0.6086
  419MPD2    C1 6302   1.571   1.159  12.051 -0.4914 -0.5226 -0.3987
  419MPD2    C2 6303   1.553   1.216  12.180  0.1427  0.4593 -0.1453
  419MPD2    C3 6304   1.430   1.205  12.246  0.5765  0.5117  0.2453
  419MPD2    C4 6305   1.323   1.134  12.189 -0.3843  0.5691  0.4368
  419MPD2    C5 6306   1.348   1.063  12.072 -0.3084 -0.0425  0.3799
  419MPD2     H 6307   1.632   1.278  12.221  1.6638 -1.2974 -0.3758
  419MPD2    H1 6308   1.227   1.116  12.236 -1.2633  0.9174 -1.2165
  419MPD2    H2 6309   1.480   1.008  11.917  0.0310 -0.9416 -0.3449
  419MPD2    H3 6310   1.279   0.992  12.027  0.7393 -1.9969  1.8276
  419MPD2     N 6311   1.409   1.296  12.349 -0.5629 -0.1424 -0.0045
  419MPD2    H5 6312   1.481   1.365  12.372 -3.2818  2.5594  0.3673
  419MPD2    N1 6313   1.688   1.210  11.976  0.3572  0.2409 -0.0636
  419MPD2    H7 6314   1.746   1.271  12.032  1.2439 -0.5361 -0.1285
  420TMC3    C1 6315   1.333   1.396  12.527  0.5498 -0.3105 -0.0426
  420TMC3    C2 6316   1.343   1.522  12.481  0.1826  0.2278 -0.6806
  420TMC3    C3 6317   1.394   1.624  12.556  0.5785 -0.0467  0.8760
  420TMC3    C4 6318   1.389   1.362  12.649  0.1153 -1.5839 -0.0954
  420TMC3    C5 6319   1.434   1.460  12.729  0.3586 -0.2336 -0.0552
  420TMC3    C6 6320   1.439   1.590  12.684 -0.3657 -0.2079 -0.2454
  420TMC3     C 6321   1.303   1.292  12.430 -0.5362 -0.1194  0.1500
  420TMC3     O 6322   1.249   1.182  12.464  0.1401 -0.3847 -0.7263
  420TMC3     H 6323   1.305   1.543  12.382  2.3786 -1.3693 -1.8706
  420TMC3    H1 6324   1.392   1.259  12.683 -0.9083 -1.3948  0.5349
  420TMC3    H2 6325   1.457   1.669  12.756  2.4047  1.2407 -2.5236
  420TMC3    C7 6326   1.471   1.418  12.866  0.2592  0.1530 -0.7711
  420TMC3    C8 6327   1.439   1.740  12.487  0.8364 -0.0845 -0.3832
  420TMC3    O1 6328   1.468   1.302  12.893 -0.1076  0.3006 -0.5532
  420TMC3    O2 6329   1.403   1.752  12.368 -0.0297  0.2842  0.0281
  421TMC3    C1 6330   2.822   2.897  13.773 -0.0762  0.2472 -0.3955
  421TMC3    C2 6331   2.894   2.999  13.733 -0.7322  0.0358 -0.5133
  421TMC3    C3 6332   3.002   3.037  13.806  0.1785  0.6584  0.0969
  421TMC3    C4 6333   2.858   2.829  13.885 -0.2933 -0.5010 -0.9457
  421TMC3    C5 6334   2.972   2.858  13.954  0.2752 -0.2148 -0.5061
  421TMC3    C6 6335   3.047   2.965  13.911 -0.6659  0.1872 -0.3817
  421TMC3     C 6336   2.761   2.810  13.672 -0.5809 -0.5189  0.0810
  421TMC3     O 6337   2.769   2.688  13.693  0.0433  0.3075  0.3009
  421TMC3     H 6338   2.885   3.041  13.633  0.7347 -0.8711 -1.0331
  421TMC3    H1 6339   2.793   2.750  13.923  0.2965  0.0751  1.2439
  421TMC3    H2 6340   3.143   2.988  13.955 -0.8161  2.4806 -1.1947
  421TMC3    C7 6341   3.057   2.745  13.968 -0.2249  0.2497  0.5627
  421TMC3    C8 6342   3.110   3.122  13.747  0.4241  0.9462  0.0001
  421TMC3    O1 6343   3.149   2.756  14.044 -0.4254 -0.3272 -0.0178
  421TMC3    O2 6344   3.218   3.070  13.758 -0.0096 -0.5261 -0.4285
  422TMC3    C1 6345   0.887   3.958  12.440 -0.5804  0.6783  0.0544
  422TMC3    C2 6346   0.876   4.079  12.502 -0.2786  0.0677 -0.2977
  422TMC3    C3 6347   0.750   4.106  12.557  0.5145  0.3152  0.5213
  422TMC3    C4 6348   0.777   3.875  12.415 -0.7398  0.1363 -0.7731
  422TMC3    C5 6349   0.656   3.913  12.461  0.8106 -0.2990 -0.1967
  422TMC3    C6 6350   0.639   4.025  12.541  0.0674  0.4419 -0.1919
  422TMC3     C 6351   1.011   3.941  12.361  0.4848  0.3454 -0.6067
  422TMC3     O 6352   1.073   4.042  12.337  0.3636  0.2842  1.0086
  422TMC3     H 6353   0.963   4.134  12.536 -0.0168 -1.2547  1.1771
  422TMC3    H1 6354   0.782   3.806  12.332  1.0864  0.6865 -1.1154
  422TMC3    H2 6355   0.552   4.051  12.600 -0.5017  3.0070 -2.1439
  422TMC3    C7 6356   0.557   3.804  12.436  0.2771  0.1435 -0.0471
  422TMC3    C8 6357   0.730   4.245  12.591  0.5159 -0.9437 -0.7204
  422TMC3    O1 6358   0.585   3.714  12.359 -0.1091 -0.9619  0.1542
  422TMC3    O2 6359   0.819   4.308  12.643 -0.1022 -0.2943  0.0098
  423MPD2     C 6360   2.002   0.502   0.261 -0.6571 -0.0839 -0.5798
  423MPD2    C1 6361   2.132   0.502   0.208  0.5293  0.2898 -0.1655
  423MPD2    C2 6362   2.161   0.412   0.107  0.7105  0.5575  0.2360
  423MPD2    C3 6363   2.064   0.331   0.058  0.3647  0.3508  0.9669
  423MPD2    C4 6364   1.933   0.328   0.114 -0.5581 -0.4472 -0.4107
  423MPD2    C5 6365   1.906   0.415   0.219  0.0301  0.4956  0.2801
  423MPD2     H 6366   2.260   0.417   0.064  0.6514 -3.7591 -0.4381
  423MPD2    H1 6367   1.851   0.267   0.077 -0.7485  0.9525 -2.3272
  423MPD2    H2 6368   1.988   0.556   0.355 -0.3679 -4.0293  1.7233
  423MPD2    H3 6369   1.807   0.415   0.264  0.0366  2.0472  0.2804
  423MPD2     N 6370   2.089   0.247  17.689  0.1318  0.0037  0.0278
  423MPD2    H5 6371   2.009   0.189  17.665 -0.1579 -0.6934  2.6719
  423MPD2    N1 6372   2.237   0.579   0.260 -0.3388 -0.0231 -0.3866
  423MPD2    H7 6373   2.328   0.573   0.215  0.0840  0.3718  0.4215
  424TMC3    C1 6374   2.364   0.694   0.440 -0.1536  0.4262  0.3529
  424TMC3    C2 6375   2.491   0.642   0.404 -0.1978  0.3599 -0.4004
  424TMC3    C3 6376   2.608   0.706   0.455 -0.2911 -0.4278  0.9157
  424TMC3    C4 6377   2.359   0.788   0.535 -0.5332  0.7968 -0.2734
  424TMC3    C5 6378   2.477   0.847   0.577 -0.0957 -0.3782  0.2053
  424TMC3    C6 6379   2.603   0.810   0.541  0.3337 -0.1918 -0.1376
  424TMC3     C 6380   2.231   0.646   0.382  0.1857  0.4989 -0.0393
  424TMC3     O 6381   2.142   0.681   0.459 -0.1852 -0.1842  0.3577
  424TMC3     H 6382   2.501   0.560   0.334  1.9728 -0.3054  0.6986
  424TMC3    H1 6383   2.264   0.833   0.563 -0.4709  1.3885 -1.0122
  424TMC3    H2 6384   2.691   0.871   0.557 -0.4659  0.6642  1.0052
  424TMC3    C7 6385   2.477   0.979   0.636  0.0350 -0.4288 -0.2164
  424TMC3    C8 6386   2.734   0.631   0.425  0.0176  0.1738 -0.2379
  424TMC3    O1 6387   2.578   1.048   0.645 -0.5118  0.0822  0.4760
  424TMC3    O2 6388   2.719   0.511   0.406 -0.2630  0.4345 -0.3325
  425MPD2     C 6389   1.573   4.434  16.768  0.4446  0.4804 -0.1075
  425MPD2    C1 6390   1.474   4.381  16.846  0.2871 -0.2070  0.5716
  425MPD2    C2 6391   1.422   4.449  16.951 -0.1873  0.9524 -0.0750
  425MPD2    C3 6392   1.445   4.581  16.968 -0.2027 -0.1474 -0.7313
  425MPD2    C4 6393   1.532   4.645  16.881  0.5351  0.3699  0.4833
  425MPD2    C5 6394   1.599   4.574  16.785  0.7682  0.1335 -1.1128
  425MPD2     H 6395   1.341   4.416  17.015  0.4888  2.2582  1.4457
  425MPD2    H1 6396   1.550   0.017  16.875  0.6549  0.4023  1.3284
  425MPD2    H2 6397   1.629   4.376  16.696  2.6920 -0.2995  2.2756
  425MPD2    H3 6398   1.663   4.625  16.714  0.4326  0.8661 -0.8894
  425MPD2     N 6399   1.357   4.647  17.060 -0.4413  0.9764  0.1607
  425MPD2    H5 6400   1.293   4.584  17.109 -0.0580  0.7312  0.3404
  425MPD2    N1 6401   1.435   4.245  16.829 -0.4976 -0.0618  0.6849
  425MPD2    H7 6402   1.498   4.191  16.770  0.4199  0.2708  1.3616
  426TMC3    C1 6403   1.345   4.041  16.852  0.5506  0.1237 -0.4035
  426TMC3    C2 6404   1.365   4.004  16.719  0.2474  0.2733 -0.6961
  426TMC3    C3 6405   1.336   3.877  16.681 -0.0457  0.3705  0.0565
  426TMC3    C4 6406   1.302   3.942  16.944  0.3421 -0.2003  0.0645
  426TMC3    C5 6407   1.272   3.820  16.900 -0.0841  0.1135  0.5160
  426TMC3    C6 6408   1.284   3.780  16.772  0.4065 -0.4408  0.2260
  426TMC3     C 6409   1.338   4.170  16.898 -0.0857  0.0338  0.1419
  426TMC3     O 6410   1.278   4.194  17.004 -0.1988 -0.0588  1.0155
  426TMC3     H 6411   1.382   4.084  16.648 -2.2472  2.0226  0.6880
  426TMC3    H1 6412   1.297   3.951  17.052  0.3041  0.8368 -0.0216
  426TMC3    H2 6413   1.262   3.680  16.737 -0.9533 -0.1717  0.3036
  426TMC3    C7 6414   1.241   3.718  16.998  0.3062 -0.2809  0.5836
  426TMC3    C8 6415   1.312   3.845  16.534  0.8630  0.1477 -0.3214
  426TMC3    O1 6416   1.280   3.606  16.963 -0.0841 -0.1828 -0.3232
  426TMC3    O2 6417   1.326   3.738  16.485  0.0718  0.1199  0.4588
  427MPD2     C 6418   0.106   1.622  14.733 -1.0857  0.5570  0.1244
  427MPD2    C1 6419   0.076   1.607  14.866 -0.2543 -0.0195  0.6170
  427MPD2    C2 6420   4.684   1.635  14.908 -0.8396 -1.3031 -0.6314
  427MPD2    C3 6421   4.585   1.668  14.820  0.2305  0.4420  0.8149
  427MPD2    C4 6422   4.612   1.672  14.686 -0.2002  0.7838 -0.3375
  427MPD2    C5 6423   4.733   1.651  14.643 -0.0973 -0.4566 -0.0375
  427MPD2     H 6424   4.657   1.639  15.012 -3.6649  2.4096 -1.5167
  427MPD2    H1 6425   4.538   1.685  14.608 -0.4609  0.2775 -0.1783
  427MPD2    H2 6426   0.205   1.601  14.697 -0.8847  1.2746  0.2524
  427MPD2    H3 6427   0.016   1.656  14.536 -1.2422  0.5448 -0.1850
  427MPD2     N 6428   4.453   1.703  14.858 -0.5546 -0.2069  0.1039
  427MPD2    H5 6429   4.391   1.728  14.781  0.7118 -2.3619 -1.6032
  427MPD2    N1 6430   0.185   1.597  14.952 -0.5766  0.0328 -0.2934
  427MPD2    H7 6431   0.169   1.614  15.050 -0.7274 -0.2788 -0.2650
  428TMC3    C1 6432   0.398   1.552  15.037 -0.4092 -0.2649 -0.5178
  428TMC3    C2 6433   0.352   1.513  15.160  0.0700  1.3274  0.0584
  428TMC3    C3 6434   0.423   1.544  15.271  1.3619 -1.0573 -0.6426
  428TMC3    C4 6435   0.521   1.606  15.028  0.8533 -0.3444 -0.5925
  428TMC3    C5 6436   0.596   1.635  15.137 -0.1884 -0.2414  0.8298
  428TMC3    C6 6437   0.543   1.604  15.263  0.8818 -0.0653 -0.1257
  428TMC3     C 6438   0.317   1.570  14.921 -0.0227 -0.2845 -0.1930
  428TMC3     O 6439   0.366   1.525  14.814 -0.3051 -0.1725 -0.4207
  428TMC3     H 6440   0.255   1.463  15.156  2.4165 -3.1906 -0.8087
  428TMC3    H1 6441   0.552   1.638  14.929 -1.1701 -2.4162 -1.8900
  428TMC3    H2 6442   0.592   1.630  15.356  2.1812  0.4205 -0.9340
  428TMC3    C7 6443   0.718   1.711  15.128  0.0418  0.4079  0.3482
  428TMC3    C8 6444   0.352   1.534  15.392 -0.7823  0.6858  0.3220
  428TMC3    O1 6445   0.770   1.739  15.236  0.4126  0.7525 -0.7208
  428TMC3    O2 6446   0.275   1.440  15.410 -0.5522 -0.0966 -0.1268
  429MPD2     C 6447   1.312   1.868   0.006 -0.6015  0.0298  0.0877
  429MPD2    C1 6448   1.406   1.812  17.662  0.5153  1.0509 -0.3788
  429MPD2    C2 6449   1.467   1.890  17.573  0.3648  0.5997  0.0033
  429MPD2    C3 6450   1.425   2.023  17.562 -0.1778  0.1452 -0.3852
  429MPD2    C4 6451   1.338   2.086  17.652 -0.9988  0.0643  0.3303
  429MPD2    C5 6452   1.280   2.003   0.003  0.6970  0.2249  0.0464
  429MPD2     H 6453   1.530   1.855  17.492 -0.5533  0.9247 -0.8551
  429MPD2    H1 6454   1.309   2.190  17.658 -0.8074  0.2989 -2.5641
  429MPD2    H2 6455   1.260   1.812   0.083 -0.1613 -0.2937  0.1453
  429MPD2    H3 6456   1.214   2.045   0.078  0.9369  0.7865 -0.0604
  429MPD2     N 6457   1.473   2.097  17.450 -0.0155 -0.3557  0.0376
  429MPD2    H5 6458   1.515   2.044  17.375 -0.8018  1.1661 -1.4602
  429MPD2    N1 6459   1.430   1.677  17.655  0.4651  0.7327 -0.0885
  429MPD2    H7 6460   1.500   1.640  17.591  0.2731  0.5658 -0.2020
  430TMC3    C1 6461   1.526   2.265  17.302  0.0178  0.2586  0.0543
  430TMC3    C2 6462   1.487   2.382  17.245  0.8909 -0.0870  0.2443
  430TMC3    C3 6463   1.552   2.417  17.130  0.0993 -0.0559 -0.4958
  430TMC3    C4 6464   1.616   2.179  17.247 -0.5073  0.0248  0.0989
  430TMC3    C5 6465   1.676   2.221  17.131 -0.2384 -0.4307  0.6077
  430TMC3    C6 6466   1.645   2.347  17.075  0.0516 -0.1708 -0.3678
  430TMC3     C 6467   1.455   2.229  17.426  0.4186  0.0012 -0.6833
  430TMC3     O 6468   1.403   2.319  17.489 -0.0791  0.1482 -0.9774
  430TMC3     H 6469   1.409   2.439  17.295  1.0001  0.4157 -0.1618
  430TMC3    H1 6470   1.655   2.094  17.301 -0.3415 -0.6515 -1.0869
  430TMC3    H2 6471   1.667   2.364  16.970 -0.9733 -1.5453 -0.8048
  430TMC3    C7 6472   1.662   2.112  17.045 -0.2606 -0.4166 -0.0091
  430TMC3    C8 6473   1.451   2.453  17.033 -0.5287 -0.7285  0.2604
  430TMC3    O1 6474   1.738   2.024  17.060 -0.5851 -0.3926  0.5145
  430TMC3    O2 6475   1.406   2.360  16.971 -0.2342  0.6429 -0.0195
  431MPD2     C 6476   2.066   1.817  12.263 -0.5257  0.1813  0.0628
  431MPD2    C1 6477   2.166   1.810  12.163  0.1341 -0.0479  0.7188
  431MPD2    C2 6478   2.155   1.711  12.072 -0.5693  0.6578 -0.1376
  431MPD2    C3 6479   2.038   1.636  12.078 -0.7121 -0.3120 -0.5116
  431MPD2    C4 6480   1.931   1.657  12.164 -0.7754 -1.2684 -0.4252
  431MPD2    C5 6481   1.950   1.743  12.267 -0.2123  0.4869  0.1093
  431MPD2     H 6482   2.232   1.695  11.998 -1.3276 -4.0400  0.0696
  431MPD2    H1 6483   1.830   1.618  12.153 -2.2238  2.4027 -0.0286
  431MPD2    H2 6484   2.076   1.896  12.336  1.2581 -0.9432  1.0364
  431MPD2    H3 6485   1.870   1.752  12.339 -0.5891  0.1197 -0.2596
  431MPD2     N 6486   2.011   1.521  11.993  0.0228 -0.5029  0.0181
  431MPD2    H5 6487   1.930   1.464  12.015 -0.3793 -0.1826 -0.6103
  431MPD2    N1 6488   2.283   1.895  12.165 -0.0761 -0.0279  0.9428
  431MPD2    H7 6489   2.345   1.879  12.086  0.7648 -1.6016  1.9103
  432TMC3    C1 6490   2.038   1.349  11.827  0.2204 -0.3137  0.8593
  432TMC3    C2 6491   2.124   1.266  11.761 -0.2044 -0.0708  0.1983
  432TMC3    C3 6492   2.076   1.148  11.723  0.0185  1.1143  0.5875
  432TMC3    C4 6493   1.906   1.320  11.849 -0.0954  0.0203  0.0372
  432TMC3    C5 6494   1.863   1.195  11.812 -0.0552  0.3600  0.6381
  432TMC3    C6 6495   1.947   1.105  11.755 -0.2961 -0.0544 -0.1018
  432TMC3     C 6496   2.095   1.453  11.912  0.0781 -0.6192 -0.2513
  432TMC3     O 6497   2.216   1.485  11.909  0.2090  0.0576 -0.0100
  432TMC3     H 6498   2.222   1.309  11.743 -0.7900 -0.1269 -3.0004
  432TMC3    H1 6499   1.833   1.385  11.894  0.2986  0.3247  0.2372
  432TMC3    H2 6500   1.903   1.008  11.735  2.7025 -1.2900 -0.7658
  432TMC3    C7 6501   1.736   1.147  11.861  0.4245  0.4023 -0.2058
  432TMC3    C8 6502   2.164   1.053  11.659  0.1895 -0.2509  0.2335
  432TMC3    O1 6503   1.686   1.051  11.798 -0.2314 -0.1284 -0.3453
  432TMC3    O2 6504   2.110   0.967  11.589  0.4423 -0.0586  0.6386
  433MPD2     C 6505   0.902   0.257  10.649  0.0578  1.2100 -0.8644
  433MPD2    C1 6506   0.873   0.146  10.723  0.0008  0.1449  0.0726
  433MPD2    C2 6507   0.889   0.143  10.858 -0.3174 -0.0576 -0.0389
  433MPD2    C3 6508   0.941   0.259  10.922 -0.2875  0.0025  0.3018
  433MPD2    C4 6509   0.962   0.374  10.852 -0.1512 -1.1827  0.2738
  433MPD2    C5 6510   0.934   0.374  10.718  0.2853  0.5658 -1.1130
  433MPD2     H 6511   0.883   0.049  10.912 -1.3617 -0.0756 -0.1842
  433MPD2    H1 6512   1.011   0.456  10.902 -0.8910  0.1469 -1.1696
  433MPD2    H2 6513   0.887   0.267  10.542 -1.1392 -0.5563 -0.8616
  433MPD2    H3 6514   0.952   0.463  10.659  1.0591  1.4452  0.4425
  433MPD2     N 6515   0.975   0.238  11.058  0.2935  0.7032  0.2787
  433MPD2    H5 6516   0.961   0.143  11.093 -2.7663  1.2893  0.6769
  433MPD2    N1 6517   0.834   0.033  10.646 -0.2918  0.3024 -0.3360
  433MPD2    H7 6518   0.811   0.062  10.552 -0.1215 -3.2221 -1.4820
  434TMC3    C1 6519   0.752   4.557  10.573  0.4502  0.1478 -0.2126
  434TMC3    C2 6520   0.723   4.429  10.621 -0.1387  0.0764  0.2686
  434TMC3    C3 6521   0.798   4.336  10.547 -0.2816 -0.1509  0.5286
  434TMC3    C4 6522   0.786   4.584  10.444 -0.3750  0.2125  0.5102
  434TMC3    C5 6523   0.841   4.479  10.371 -0.6314  0.3376  0.8574
  434TMC3    C6 6524   0.859   4.355  10.426  0.3562  0.0017 -0.2754
  434TMC3     C 6525   0.794   4.644  10.683 -1.2724  0.7105 -0.0642
  434TMC3     O 6526   0.803   4.591  10.790 -0.0612 -0.1445 -0.3882
  434TMC3     H 6527   0.682   4.420  10.720 -1.1636 -0.1642 -0.1788
  434TMC3    H1 6528   0.774   4.681  10.395 -0.1202 -1.6508 -3.2531
  434TMC3    H2 6529   0.903   4.267  10.380  0.2195 -0.2091 -0.0041
  434TMC3    C7 6530   0.803   4.482  10.235 -0.0526 -0.6386 -0.4917
  434TMC3    C8 6531   0.853   4.231  10.629  0.5944  0.2576  0.0357
  434TMC3    O1 6532   0.800   4.592  10.182 -0.1689 -0.6996 -0.1357
  434TMC3    O2 6533   0.783   4.168  10.707 -0.0258 -0.2412  0.3247
  435MPD2     C 6534   3.079   0.395  15.229  0.8444 -0.0939 -0.5709
  435MPD2    C1 6535   3.047   0.420  15.365 -0.5045  0.2331  0.3928
  435MPD2    C2 6536   3.130   0.368  15.464 -0.1238  0.6498 -0.2715
  435MPD2    C3 6537   3.245   0.296  15.426 -0.3265 -0.3955  0.1381
  435MPD2    C4 6538   3.279   0.282  15.296 -0.2196 -0.1529 -0.3428
  435MPD2    C5 6539   3.196   0.335  15.204 -0.2440 -1.0318  0.0895
  435MPD2     H 6540   3.113   0.389  15.569  1.2959  0.1542  0.0487
  435MPD2    H1 6541   3.364   0.226  15.259  0.1238 -0.2080  0.5387
  435MPD2    H2 6542   3.034   0.445  15.144  2.2842 -0.1281 -1.3574
  435MPD2    H3 6543   3.230   0.339  15.102 -0.1727  1.0960  0.1903
  435MPD2     N 6544   3.325   0.245  15.530  0.4915 -0.2465 -0.0212
  435MPD2    H5 6545   3.293   0.274  15.622  0.6577  3.8018 -1.2638
  435MPD2    N1 6546   2.931   0.496  15.401 -0.0722  0.2954 -0.3325
  435MPD2    H7 6547   2.907   0.500  15.499  0.7279 -0.6275 -0.0989
  436TMC3    C1 6548   2.664   0.737  15.558 -0.0077 -0.3722 -0.2095
  436TMC3    C2 6549   2.758   0.683  15.479  0.6109  0.8572 -0.3554
  436TMC3    C3 6550   2.730   0.621  15.365 -0.3901  1.1770 -0.5804
  436TMC3    C4 6551   2.531   0.711  15.540 -0.4486  0.4752 -0.2771
  436TMC3    C5 6552   2.503   0.633  15.435 -0.1805  0.4176  0.6002
  436TMC3    C6 6553   2.601   0.599  15.342 -0.2486 -0.1737 -0.7497
  436TMC3     C 6554   2.701   0.844  15.653 -0.4529  0.2235 -0.4026
  436TMC3     O 6555   2.812   0.890  15.633 -0.0039 -0.2165 -0.1668
  436TMC3     H 6556   2.861   0.699  15.511 -0.7217  0.3388  4.2601
  436TMC3    H1 6557   2.464   0.748  15.616 -0.0899 -2.0904  1.3102
  436TMC3    H2 6558   2.572   0.544  15.253 -0.8372 -0.3460 -0.4549
  436TMC3    C7 6559   2.372   0.568  15.422 -0.0243  0.7146  0.1280
  436TMC3    C8 6560   2.833   0.538  15.304  0.2109 -0.1378 -0.1215
  436TMC3    O1 6561   2.371   0.464  15.356  0.3749  0.3538  0.8573
  436TMC3    O2 6562   2.819   0.510  15.186 -0.5320  0.5830 -0.1152
  437TMC3    C1 6563   1.445   2.649  11.788  0.3404  0.4877 -0.0142
  437TMC3    C2 6564   1.415   2.732  11.681 -0.6425  0.2291  0.0400
  437TMC3    C3 6565   1.474   2.691  11.559  0.1722 -0.6449  0.4991
  437TMC3    C4 6566   1.542   2.553  11.786  0.3811 -0.0629 -0.5282
  437TMC3    C5 6567   1.608   2.531  11.666  0.0084 -0.0587 -1.1282
  437TMC3    C6 6568   1.570   2.595  11.550 -0.3873  0.3159 -0.4131
  437TMC3     C 6569   1.373   2.687  11.911  0.1233 -0.5470  0.0948
  437TMC3     O 6570   1.278   2.770  11.903 -0.7261 -0.3383 -0.4629
  437TMC3     H 6571   1.341   2.811  11.683 -0.9548 -0.0505 -0.5179
  437TMC3    H1 6572   1.559   2.474  11.858 -2.2006  0.3340  0.5479
  437TMC3    H2 6573   1.617   2.570  11.455 -1.9383 -1.3864 -0.7363
  437TMC3    C7 6574   1.742   2.469  11.664  0.1733  1.4737  0.4971
  437TMC3    C8 6575   1.421   2.735  11.436 -0.3034 -0.6255  0.1975
  437TMC3    O1 6576   1.802   2.459  11.552  0.3353 -0.0517  0.1039
  437TMC3    O2 6577   1.306   2.769  11.444 -0.1008  0.4357 -0.4282
  438MPD2     C 6578   3.594   3.419  16.658  1.1542 -0.4621  0.9557
  438MPD2    C1 6579   3.689   3.355  16.738  0.2338 -0.3492 -0.3490
  438MPD2    C2 6580   3.665   3.367  16.871  0.4730  0.2831 -0.3840
  438MPD2    C3 6581   3.567   3.448  16.919  0.5285  0.2121  0.6010
  438MPD2    C4 6582   3.485   3.523  16.842 -0.6816  1.0763 -0.2663
  438MPD2    C5 6583   3.501   3.505  16.708 -0.1858 -0.1963 -0.3107
  438MPD2     H 6584   3.720   3.302  16.938 -1.4976 -1.1824 -0.1951
  438MPD2    H1 6585   3.400   3.579  16.879 -0.1744  0.1332  2.3205
  438MPD2    H2 6586   3.613   3.415  16.551  1.9027  0.0411  1.0701
  438MPD2    H3 6587   3.430   3.538  16.632 -0.4455  0.4610  0.2174
  438MPD2     N 6588   3.572   3.450  17.062 -0.5374 -0.6120 -0.0551
  438MPD2    H5 6589   3.644   3.393  17.105  0.5692 -0.5414 -1.7929
  438MPD2    N1 6590   3.806   3.289  16.699 -0.2768 -0.4885  0.1280
  438MPD2    H7 6591   3.862   3.247  16.772 -0.7031  0.2419  0.8793
  439TMC3    C1 6592   3.957   3.171  16.566  0.2426 -0.3718 -0.3922
  439TMC3    C2 6593   3.967   3.074  16.467 -1.3766 -0.5620  0.1163
  439TMC3    C3 6594   4.079   2.995  16.462 -0.3162 -0.6890 -0.4054
  439TMC3    C4 6595   4.060   3.188  16.660  0.8990  0.1979  0.8229
  439TMC3    C5 6596   4.154   3.092  16.664 -0.0645 -0.6266  0.1634
  439TMC3    C6 6597   4.169   2.996  16.569 -0.2011 -0.2358 -0.5481
  439TMC3     C 6598   3.846   3.264  16.567 -0.3099  0.8324 -0.2785
  439TMC3     O 6599   3.789   3.287  16.462  0.0428 -0.0424 -0.5043
  439TMC3     H 6600   3.898   3.079  16.383 -1.5028 -2.5573  0.0840
  439TMC3    H1 6601   4.062   3.267  16.734  2.2725  0.2340  0.7466
  439TMC3    H2 6602   4.256   2.933  16.576  0.3457  0.3785 -1.6617
  439TMC3    C7 6603   4.272   3.116  16.744  0.0498 -0.1434  0.1953
  439TMC3    C8 6604   4.112   2.900  16.354  0.1925 -0.5112 -0.2202
  439TMC3    O1 6605   4.334   3.013  16.772  0.7177 -0.6395  0.2576
  439TMC3    O2 6606   4.201   2.820  16.372  0.0774 -0.0228 -0.4515
  440MPD2     C 6607   2.530   3.493  15.204 -0.3839  0.0125 -0.7274
  440MPD2    C1 6608   2.558   3.525  15.073  0.1808  0.5337  0.3432
  440MPD2    C2 6609   2.634   3.447  14.992  0.8679 -0.5066 -0.4037
  440MPD2    C3 6610   2.685   3.328  15.041 -0.7330 -0.2705 -0.2699
  440MPD2    C4 6611   2.647   3.287  15.166  0.5909  0.0647 -1.1071
  440MPD2    C5 6612   2.563   3.364  15.250 -0.4968 -0.1285 -0.1884
  440MPD2     H 6613   2.668   3.493  14.899  0.0548 -0.3259 -0.6052
  440MPD2    H1 6614   2.659   3.182  15.192 -0.1811  0.8633  2.4881
  440MPD2    H2 6615   2.472   3.550  15.275 -1.5470  0.0607 -1.7317
  440MPD2    H3 6616   2.525   3.331  15.346  0.3148  1.5404  0.6954
  440MPD2     N 6617   2.779   3.255  14.971  0.3453  0.3843 -0.1705
  440MPD2    H5 6618   2.814   3.173  15.020  0.6372  0.1290 -0.7958
  440MPD2    N1 6619   2.489   3.633  15.016 -0.1676 -0.3981  0.3433
  440MPD2    H7 6620   2.516   3.657  14.921 -0.9840  1.0157  0.4673
  441TMC3    C1 6621   2.987   3.234  14.858  0.2167 -0.4388 -0.2571
  441TMC3    C2 6622   3.082   3.329  14.854 -0.2800 -0.2643 -1.6085
  441TMC3    C3 6623   3.172   3.321  14.958  0.8599  0.0762  0.2147
  441TMC3    C4 6624   2.992   3.127  14.940  0.2699  0.2354 -0.5434
  441TMC3    C5 6625   3.095   3.114  15.030 -0.5114 -0.5743 -0.2884
  441TMC3    C6 6626   3.190   3.213  15.045 -0.0053  0.1577 -0.1998
  441TMC3     C 6627   2.860   3.302  14.874  0.1309 -0.3201 -0.9545
  441TMC3     O 6628   2.858   3.407  14.810  0.7508 -1.0741  0.1941
  441TMC3     H 6629   3.077   3.412  14.784  0.9365  1.3360  0.2127
  441TMC3    H1 6630   2.930   3.039  14.925  0.1659  0.3168 -0.5860
  441TMC3    H2 6631   3.274   3.216  15.113 -1.0595 -1.6209  1.1635
  441TMC3    C7 6632   3.047   3.058  15.151  0.6199 -0.0483  0.3881
  441TMC3    C8 6633   3.209   3.449  15.008 -0.3519 -0.3278 -0.3381
  441TMC3    O1 6634   2.926   3.043  15.156 -0.5011  0.4059  0.6258
  441TMC3    O2 6635   3.309   3.464  15.079 -0.3976 -0.3236  0.2493
  442MPD2     C 6636   0.956   3.912  15.763 -0.0433  0.1463  0.9979
  442MPD2    C1 6637   0.899   3.868  15.879  0.0943 -0.2344  0.2633
  442MPD2    C2 6638   0.872   3.734  15.905  0.9041 -0.0756  0.3158
  442MPD2    C3 6639   0.899   3.637  15.807 -0.2515  1.3024  0.2332
  442MPD2    C4 6640   0.954   3.686  15.689  0.0467  0.4869 -0.3198
  442MPD2    C5 6641   0.972   3.819  15.665  0.1652  0.4510 -0.4056
  442MPD2     H 6642   0.843   3.709  16.006  0.2754  1.4455  0.5108
  442MPD2    H1 6643   0.981   3.620  15.607 -1.9257 -0.2263 -0.4073
  442MPD2    H2 6644   0.973   4.015  15.733 -0.5839  0.2152  0.9326
  442MPD2    H3 6645   1.001   3.849  15.565  0.5572 -0.0217 -0.4349
  442MPD2     N 6646   0.870   3.497  15.820  0.4207  0.5369  0.8134
  442MPD2    H5 6647   0.878   3.441  15.735 -0.5156 -0.6581  1.5114
  442MPD2    N1 6648   0.861   3.965  15.976  0.2822  0.3334  0.0287
  442MPD2    H7 6649   0.818   3.930  16.061 -1.1895 -0.5363 -1.0772
  443TMC3    C1 6650   0.796   4.177  16.055  1.1754 -0.5377  0.2695
  443TMC3    C2 6651   0.719   4.281  16.019  0.1531  0.0006 -0.4241
  443TMC3    C3 6652   0.665   4.366  16.110 -0.4924 -0.3436  0.5590
  443TMC3    C4 6653   0.808   4.137  16.191  0.0441 -0.0758  0.1551
  443TMC3    C5 6654   0.749   4.228  16.284  0.1448 -0.3593 -0.5816
  443TMC3    C6 6655   0.691   4.344  16.241  0.2129  0.2010  0.3579
  443TMC3     C 6656   0.861   4.102  15.948  0.5579 -0.1310  0.2636
  443TMC3     O 6657   0.862   4.157  15.838  0.2172 -0.0518 -0.4647
  443TMC3     H 6658   0.693   4.299  15.915 -0.8931 -2.1146 -0.5222
  443TMC3    H1 6659   0.855   4.045  16.225 -1.6951 -0.7816  0.6071
  443TMC3    H2 6660   0.641   4.402  16.318 -2.2918 -0.0191 -1.1244
  443TMC3    C7 6661   0.716   4.169  16.406 -0.2647  0.2252  0.0151
  443TMC3    C8 6662   0.603   4.487  16.077  0.2557 -0.6310 -0.0580
  443TMC3    O1 6663   0.702   4.049  16.411  0.3161  0.2870  0.2970
  443TMC3    O2 6664   0.643   4.583  16.138 -0.3574 -0.1976  0.3859
  444MPD2     C 6665   0.963   3.776  16.522  0.4444 -0.1580  0.4084
  444MPD2    C1 6666   0.949   3.671  16.610  0.5044 -0.0942  0.7343
  444MPD2    C2 6667   0.958   3.546  16.572  0.1608 -0.6057  0.3889
  444MPD2    C3 6668   0.962   3.506  16.441 -0.2077 -0.6055 -0.0097
  444MPD2    C4 6669   0.992   3.608  16.355  0.3296  0.2426 -0.1127
  444MPD2    C5 6670   0.995   3.742  16.388 -0.2316 -0.2991 -0.1205
  444MPD2     H 6671   0.944   3.471  16.649 -1.1901  1.0772  1.7865
  444MPD2    H1 6672   1.028   3.573  16.258  1.7744  0.9706  0.1630
  444MPD2    H2 6673   0.953   3.879  16.554  2.3267  0.4343 -0.9027
  444MPD2    H3 6674   1.006   3.824  16.318  1.1391  0.8477  1.4307
  444MPD2     N 6675   0.959   3.370  16.424  0.1621  0.4300  0.0760
  444MPD2    H5 6676   0.948   3.302  16.498 -3.8204  1.1619  0.1466
  444MPD2    N1 6677   0.929   3.690  16.745 -0.0021  0.2907  0.0357
  444MPD2    H7 6678   0.903   3.603  16.790 -0.6371  0.4365 -0.0466
  445TMC3    C1 6679   1.004   3.179  16.320 -0.9725 -0.8943 -0.0657
  445TMC3    C2 6680   0.886   3.111  16.345  0.4370 -0.1603 -0.4583
  445TMC3    C3 6681   0.896   2.972  16.339 -0.7878 -0.4807 -0.4209
  445TMC3    C4 6682   1.118   3.117  16.278 -0.1586 -0.0350 -0.0093
  445TMC3    C5 6683   1.115   2.982  16.266  0.9374 -0.0878 -0.2898
  445TMC3    C6 6684   1.007   2.902  16.304  0.1178 -0.1509  0.0724
  445TMC3     C 6685   0.979   3.313  16.299 -0.1915  0.3563 -0.5566
  445TMC3     O 6686   0.994   3.353  16.182 -0.5886  0.6039 -0.0113
  445TMC3     H 6687   0.801   3.173  16.371 -0.1431 -1.0421 -0.2840
  445TMC3    H1 6688   1.198   3.178  16.237 -0.7710  1.4506  1.0021
  445TMC3    H2 6689   1.010   2.795  16.290 -2.0667 -0.2441  0.3433
  445TMC3    C7 6690   1.224   2.925  16.189 -0.2991  0.5903 -0.2863
  445TMC3    C8 6691   0.785   2.888  16.382 -1.0261 -0.6874 -0.2107
  445TMC3    O1 6692   1.323   2.999  16.189 -0.6560  0.0198 -0.2774
  445TMC3    O2 6693   0.787   2.767  16.359  0.3967  0.1523 -0.1418
  446MPD2     C 6694   0.713   4.201  11.200 -0.9413 -0.4575  0.5651
  446MPD2    C1 6695   0.695   4.214  11.066 -0.1283  0.2785  1.6000
  446MPD2    C2 6696   0.783   4.295  10.992  0.1237 -0.8887 -0.4848
  446MPD2    C3 6697   0.895   4.351  11.056 -0.5079  0.8067 -0.3037
  446MPD2    C4 6698   0.916   4.333  11.189 -0.1830  0.1364 -0.2764
  446MPD2    C5 6699   0.829   4.253  11.258  0.1209  0.4972  0.5708
  446MPD2     H 6700   0.763   4.312  10.887  0.4749 -0.5004 -0.4919
  446MPD2    H1 6701   1.002   4.375  11.241  0.9134 -1.0412 -1.1332
  446MPD2    H2 6702   0.651   4.144  11.268 -0.5287 -1.2182  0.3063
  446MPD2    H3 6703   0.846   4.242  11.364  3.0587  2.9992  0.3527
  446MPD2     N 6704   0.982   4.426  10.970 -0.3539  0.4191 -0.4317
  446MPD2    H5 6705   0.940   4.455  10.882  0.4960  1.3268 -0.5466
  446MPD2    N1 6706   0.584   4.155  10.998 -0.0108 -0.5518  0.1928
  446MPD2    H7 6707   0.563   4.189  10.905  0.8321  2.7483  1.2263
  447TMC3    C1 6708   1.178   4.534  10.909  0.0848  1.0238 -0.4019
  447TMC3    C2 6709   1.143   4.515  10.773  0.8624  0.3636 -0.0509
  447TMC3    C3 6710   1.236   4.549  10.680 -0.7635 -0.3077 -0.7978
  447TMC3    C4 6711   1.307   4.569  10.941  0.2984 -0.2925  0.0865
  447TMC3    C5 6712   1.396   4.595  10.838 -0.0958 -0.0735  0.6005
  447TMC3    C6 6713   1.363   4.584  10.703 -0.0382 -0.3241 -0.6336
  447TMC3     C 6714   1.112   4.452  11.005  0.2521  0.4485  0.6495
  447TMC3     O 6715   1.186   4.416  11.100  0.3899 -0.1293 -0.3597
  447TMC3     H 6716   1.039   4.496  10.750  0.5392 -1.4478  2.9120
  447TMC3    H1 6717   1.334   4.585  11.045 -0.7972  1.5873  0.0744
  447TMC3    H2 6718   1.437   4.579  10.624  0.3059 -2.8678 -0.1540
  447TMC3    C7 6719   1.530   4.643  10.868  1.0125 -0.2595 -0.2177
  447TMC3    C8 6720   1.182   4.597  10.558  0.4107  0.0533  0.7154
  447TMC3    O1 6721   1.599   4.679  10.770  0.3164  0.4499  0.2707
  447TMC3    O2 6722   1.104   4.525  10.502  0.2776  0.2230 -0.1496
  448TMC3    C1 6723   3.861   0.258  16.508 -0.7737 -0.0235 -0.4053
  448TMC3    C2 6724   3.777   0.148  16.514 -0.6244 -0.2891  0.7781
  448TMC3    C3 6725   3.762   0.081  16.630 -0.2247  0.1573 -0.1905
  448TMC3    C4 6726   3.918   0.300  16.624 -0.1521 -1.1554 -0.6283
  448TMC3    C5 6727   3.902   0.233  16.740  0.3257  0.1717 -0.2958
  448TMC3    C6 6728   3.819   0.125  16.750 -0.5028 -0.6187  0.2931
  448TMC3     C 6729   3.792   0.366  16.438  0.3287 -0.0140 -0.5857
  448TMC3     O 6730   3.676   0.337  16.405 -0.2967  0.3578 -0.1090
  448TMC3     H 6731   3.727   0.121  16.422  1.8038 -1.1472 -0.3156
  448TMC3    H1 6732   3.981   0.388  16.619  1.1324 -1.8996  2.1248
  448TMC3    H2 6733   3.820   0.059  16.836  0.6392 -2.2906 -1.0235
  448TMC3    C7 6734   3.985   0.277  16.854 -0.3278 -0.1942 -0.0479
  448TMC3    C8 6735   3.712   4.683  16.631 -0.0953  0.0083  0.3639
  448TMC3    O1 6736   4.084   0.341  16.818 -0.1328 -0.3428 -0.3848
  448TMC3    O2 6737   3.755   4.608  16.722  0.0879 -0.0809  0.2710
  449MPD2     C 6738   0.471   2.876  13.810 -0.3974  0.4987 -0.7143
  449MPD2    C1 6739   0.368   2.960  13.780  0.6502 -0.2299 -0.4881
  449MPD2    C2 6740   0.239   2.909  13.796 -0.0456  0.0234 -0.0648
  449MPD2    C3 6741   0.215   2.783  13.850  0.3496  0.1575  0.0631
  449MPD2    C4 6742   0.318   2.705  13.892  0.6997 -0.6788  0.2776
  449MPD2    C5 6743   0.445   2.751  13.862  0.4404  0.3186  0.0518
  449MPD2     H 6744   0.150   2.968  13.777  0.0637 -0.0223 -0.7268
  449MPD2    H1 6745   0.297   2.608  13.936  0.0092 -0.2092  0.9878
  449MPD2    H2 6746   0.577   2.901  13.806 -0.7081  1.9169 -0.2504
  449MPD2    H3 6747   0.520   2.677  13.888  0.2483 -0.1364 -0.6963
  449MPD2     N 6748   0.081   2.748  13.864  0.1230 -0.4214 -0.0220
  449MPD2    H5 6749   0.015   2.808  13.816  0.2641  1.1595  1.7783
  449MPD2    N1 6750   0.390   3.096  13.740 -0.1230  0.0117 -0.5025
  449MPD2    H7 6751   0.304   3.150  13.744 -0.1985 -0.3115  2.0815
  450TMC3    C1 6752   0.475   3.288  13.641  0.2107  0.3515  0.6156
  450TMC3    C2 6753   0.478   3.298  13.507 -0.0517 -0.0960  0.1493
  450TMC3    C3 6754   0.377   3.376  13.445 -0.9806  0.1109 -0.6287
  450TMC3    C4 6755   0.384   3.355  13.711  0.2417 -0.3714 -0.1190
  450TMC3    C5 6756   0.278   3.418  13.650 -0.1884  0.3438  0.1322
  450TMC3    C6 6757   0.276   3.431  13.517 -0.7496  0.2060 -0.1705
  450TMC3     C 6758   0.503   3.155  13.686  0.6528  0.0574 -0.0218
  450TMC3     O 6759   0.611   3.108  13.647 -0.8267  0.0451  0.1125
  450TMC3     H 6760   0.534   3.227  13.448  0.4982  0.8173 -0.4467
  450TMC3    H1 6761   0.374   3.340  13.818  2.2183 -0.8215 -0.0122
  450TMC3    H2 6762   0.193   3.485  13.473 -1.1737  0.4347  0.8926
  450TMC3    C7 6763   0.154   3.368  13.705  0.5344 -0.1760 -0.2077
  450TMC3    C8 6764   0.358   3.375  13.300 -0.4439  0.0787 -0.4750
  450TMC3    O1 6765   0.175   3.264  13.765 -0.1479  0.2939 -0.1873
  450TMC3    O2 6766   0.289   3.463  13.254 -0.2068 -0.3595 -0.5692
  451MPD2     C 6767   2.262   2.472   1.273 -0.3079  0.6225  0.0695
  451MPD2    C1 6768   2.200   2.551   1.183  0.1653  0.6207 -0.6398
  451MPD2    C2 6769   2.157   2.498   1.064  0.7454  0.1487  0.8190
  451MPD2    C3 6770   2.182   2.364   1.036  0.7801 -0.6707  0.0846
  451MPD2    C4 6771   2.236   2.285   1.134 -0.5294  0.0927  0.2836
  451MPD2    C5 6772   2.278   2.340   1.251 -0.0008 -0.1035  0.0842
  451MPD2     H 6773   2.105   2.560   0.991 -1.0555 -0.3230  1.7082
  451MPD2    H1 6774   2.246   2.177   1.127  1.9913  0.3152  0.5160
  451MPD2    H2 6775   2.300   2.517   1.363 -2.0418 -0.5994  1.4179
  451MPD2    H3 6776   2.336   2.287   1.326  0.8285  0.3399 -0.2346
  451MPD2     N 6777   2.134   2.298   0.917  0.4217  1.3520  0.1014
  451MPD2    H5 6778   2.155   2.200   0.900 -1.3961  0.9980 -0.1003
  451MPD2    N1 6779   2.158   2.683   1.198 -0.7616  0.4031  0.4900
  451MPD2    H7 6780   2.120   2.734   1.119 -0.9628 -1.4953 -0.6396
  452TMC3    C1 6781   2.046   2.279   0.702 -0.3784 -0.1023  0.0223
  452TMC3    C2 6782   1.976   2.171   0.743 -0.3278 -1.4051  0.0242
  452TMC3    C3 6783   1.890   2.100   0.662  0.1703 -0.3083  0.1981
  452TMC3    C4 6784   2.021   2.332   0.580 -0.3159 -0.3690  0.5639
  452TMC3    C5 6785   1.930   2.264   0.499  0.0161  0.7039 -0.4519
  452TMC3    C6 6786   1.867   2.147   0.539 -0.0260 -0.3745 -0.2333
  452TMC3     C 6787   2.093   2.370   0.802  0.2796 -0.5682  0.4997
  452TMC3     O 6788   2.101   2.488   0.776  0.2769 -0.4806  0.3212
  452TMC3     H 6789   1.971   2.150   0.849  2.8749  1.0015  0.6673
  452TMC3    H1 6790   2.091   2.403   0.537 -0.8705 -0.7078 -0.8730
  452TMC3    H2 6791   1.788   2.106   0.477 -1.7799  0.1465  1.6636
  452TMC3    C7 6792   1.874   2.351   0.401  0.3978 -0.1839  0.2997
  452TMC3    C8 6793   1.774   2.045   0.725 -0.3305  0.3299 -0.3452
  452TMC3    O1 6794   1.852   2.312   0.287  0.0233  0.1296 -0.4315
  452TMC3    O2 6795   1.750   2.086   0.836 -0.3884 -0.0336 -0.5086
  453TMC3    C1 6796   3.107   3.347  11.525 -0.4082  0.0051 -0.0922
  453TMC3    C2 6797   3.148   3.237  11.445  0.3265 -0.2920  0.2646
  453TMC3    C3 6798   3.139   3.244  11.307 -0.1892 -0.4545  0.8164
  453TMC3    C4 6799   3.069   3.468  11.457 -0.7480 -0.2096 -0.0701
  453TMC3    C5 6800   3.059   3.471  11.319 -0.7056 -0.3207  0.5444
  453TMC3    C6 6801   3.098   3.359  11.244  0.1191  0.2051  0.4501
  453TMC3     C 6802   3.169   3.366  11.653 -0.5068 -0.2354  0.2711
  453TMC3     O 6803   3.275   3.305  11.675 -0.3783  0.0547 -0.1983
  453TMC3     H 6804   3.188   3.149  11.494 -1.0117  0.2068  2.2114
  453TMC3    H1 6805   3.038   3.558  11.509 -0.7427  0.4874 -1.2658
  453TMC3    H2 6806   3.099   3.351  11.136  0.3703  1.3893  0.3624
  453TMC3    C7 6807   3.069   3.598  11.249 -0.3421  0.3366  0.0060
  453TMC3    C8 6808   3.131   3.113  11.239 -0.0033  0.0608  0.9568
  453TMC3    O1 6809   3.042   3.599  11.129 -0.3368  0.3917  0.3606
  453TMC3    O2 6810   3.206   3.027  11.274 -0.6273  0.1467  0.3345
  454MPD2     C 6811   1.655   3.374  15.188 -0.0615  0.2893 -0.8411
  454MPD2    C1 6812   1.556   3.292  15.239  0.3887  0.0295 -0.4764
  454MPD2    C2 6813   1.468   3.343  15.332 -0.6299 -0.4146 -0.2218
  454MPD2    C3 6814   1.495   3.464  15.395 -0.2391 -0.0639 -0.2076
  454MPD2    C4 6815   1.603   3.546  15.356 -0.2405 -0.2656 -0.1771
  454MPD2    C5 6816   1.679   3.495  15.246  0.2924 -0.4951 -0.1319
  454MPD2     H 6817   1.379   3.290  15.363  1.4397 -3.6814  0.2794
  454MPD2    H1 6818   1.633   3.634  15.412 -2.4771  0.2964  0.1497
  454MPD2    H2 6819   1.717   3.341  15.106  0.3424 -0.2909 -0.3042
  454MPD2    H3 6820   1.759   3.557  15.209  1.8286 -2.6673 -0.4129
  454MPD2     N 6821   1.402   3.497  15.500  0.2402  0.0718  0.5274
  454MPD2    H5 6822   1.317   3.443  15.503 -0.4649  1.2103  1.0624
  454MPD2    N1 6823   1.536   3.157  15.211 -0.3831 -0.2481 -0.6255
  454MPD2    H7 6824   1.458   3.117  15.260  0.5511 -1.7517 -0.3618
  455TMC3    C1 6825   1.355   3.537  15.715  0.8435  0.0994 -0.0102
  455TMC3    C2 6826   1.289   3.631  15.786 -0.0856  0.4679 -0.0145
  455TMC3    C3 6827   1.234   3.587  15.905  0.4145 -0.0662 -0.0352
  455TMC3    C4 6828   1.350   3.401  15.734  0.1959 -0.3640  0.2912
  455TMC3    C5 6829   1.275   3.357  15.844  0.0740  0.6566 -0.0950
  455TMC3    C6 6830   1.220   3.452  15.933  0.3499  0.3243 -0.1742
  455TMC3     C 6831   1.439   3.585  15.599 -0.6128 -0.2149 -0.6021
  455TMC3     O 6832   1.535   3.661  15.620 -0.0994 -0.0007  0.3588
  455TMC3     H 6833   1.320   3.733  15.768 -1.3504  0.6112 -1.3379
  455TMC3    H1 6834   1.402   3.336  15.665  0.2615  0.7538 -0.6954
  455TMC3    H2 6835   1.169   3.423  16.024  0.5578 -0.8340 -0.4297
  455TMC3    C7 6836   1.230   3.221  15.842 -0.6608  0.7276  0.2706
  455TMC3    C8 6837   1.254   3.668  16.023  0.5466  0.1839 -0.1868
  455TMC3    O1 6838   1.281   3.157  15.753  0.3784 -0.0140 -0.2764
  455TMC3    O2 6839   1.268   3.608  16.133 -0.1066  0.2108 -0.3296
  456MPD2     C 6840   3.789   3.396  16.084  0.2853 -0.3121  0.7334
  456MPD2    C1 6841   3.897   3.387  16.165 -0.0855 -0.6000  0.3261
  456MPD2    C2 6842   3.903   3.478  16.267  0.4738 -0.3894  0.0763
  456MPD2    C3 6843   3.795   3.561  16.295  0.5192  0.1975  0.0448
  456MPD2    C4 6844   3.691   3.573  16.200 -0.0979  0.4823 -0.2683
  456MPD2    C5 6845   3.694   3.489  16.098 -0.0063 -0.0602 -0.2461
  456MPD2     H 6846   3.981   3.472  16.342 -0.8864  1.7877  1.6710
  456MPD2    H1 6847   3.606   3.639  16.208  1.2349  2.1935 -0.2452
  456MPD2    H2 6848   3.781   3.340  15.991  0.5347  1.0527 -0.1149
  456MPD2    H3 6849   3.607   3.483  16.033 -0.5625 -2.8217  0.7246
  456MPD2     N 6850   3.803   3.622  16.429  0.0843 -0.6614 -0.1854
  456MPD2    H5 6851   3.895   3.610  16.472 -0.3769 -1.8609  0.4835
  456MPD2    N1 6852   4.001   3.308  16.112 -0.4087 -1.0050 -0.5313
  456MPD2    H7 6853   3.994   3.285  16.014  1.2678  0.4051 -0.9792
  457TMC3    C1 6854   3.736   3.764  16.604 -0.4908 -0.6946 -0.3451
  457TMC3    C2 6855   3.688   3.893  16.601  0.7310 -0.0283 -0.4095
  457TMC3    C3 6856   3.759   3.991  16.667  0.5783 -0.3132  0.3916
  457TMC3    C4 6857   3.843   3.735  16.682  0.3447 -0.8939  0.2449
  457TMC3    C5 6858   3.901   3.833  16.755  0.5196 -0.2718 -0.7610
  457TMC3    C6 6859   3.861   3.959  16.752  0.1160  0.0878  1.4073
  457TMC3     C 6860   3.700   3.697  16.479  1.3895  0.6756 -0.1608
  457TMC3     O 6861   3.585   3.728  16.439  0.4170  0.1404 -0.3897
  457TMC3     H 6862   3.615   3.924  16.527 -0.5676 -2.4922 -0.1539
  457TMC3    H1 6863   3.888   3.637  16.672 -0.4872 -1.2976  0.4924
  457TMC3    H2 6864   3.888   4.034  16.825  0.6693  1.1058  0.1620
  457TMC3    C7 6865   4.022   3.798  16.830  0.1410  0.0678  0.1101
  457TMC3    C8 6866   3.733   4.136  16.636 -0.5469 -0.0030 -0.7152
  457TMC3    O1 6867   4.046   3.678  16.839 -0.9353 -0.2430 -0.1123
  457TMC3    O2 6868   3.735   4.206  16.738  0.4789 -1.1981  0.6063
  458MPD2     C 6869   2.157   2.257  11.865  0.5772 -0.1625 -0.9521
  458MPD2    C1 6870   2.074   2.298  11.967  0.5977  0.2398  0.0531
  458MPD2    C2 6871   1.953   2.356  11.940 -0.2664 -0.8989  0.1177
  458MPD2    C3 6872   1.911   2.378  11.811 -0.9717 -0.3633  0.4522
  458MPD2    C4 6873   1.999   2.334  11.713  0.2271 -1.1046  0.2846
  458MPD2    C5 6874   2.118   2.264  11.741  0.6937  0.4009  0.5229
  458MPD2     H 6875   1.885   2.379  12.022 -0.5558  0.9324 -0.6438
  458MPD2    H1 6876   1.962   2.327  11.611 -0.2484  1.5999  0.2837
  458MPD2    H2 6877   2.247   2.199  11.887 -0.7680 -1.9102 -0.0030
  458MPD2    H3 6878   2.167   2.227  11.651 -1.0033 -1.1574  0.2432
  458MPD2     N 6879   1.785   2.432  11.788  0.4491  0.1361  0.7881
  458MPD2    H5 6880   1.738   2.456  11.875  0.1146  0.7917  0.4239
  458MPD2    N1 6881   2.126   2.281  12.099 -0.0741  0.0530 -0.5037
  458MPD2    H7 6882   2.227   2.277  12.102 -0.1303  1.1805  3.0100
  459TMC3    C1 6883   2.152   2.328  12.328 -0.0641  0.0489 -0.2109
  459TMC3    C2 6884   2.263   2.405  12.305 -0.1508 -0.4300 -0.8457
  459TMC3    C3 6885   2.348   2.448  12.406 -0.1114  0.2412  0.1742
  459TMC3    C4 6886   2.129   2.294  12.457  0.0545 -0.5969 -0.2299
  459TMC3    C5 6887   2.214   2.326  12.558 -0.6651  1.1524  0.9035
  459TMC3    C6 6888   2.329   2.404  12.536  0.3649  0.2084  0.0298
  459TMC3     C 6889   2.059   2.305  12.215 -0.2141 -0.5931 -0.0890
  459TMC3     O 6890   1.937   2.300  12.231 -0.5797  0.3758  0.0353
  459TMC3     H 6891   2.283   2.449  12.208  1.8253 -2.7261 -1.4730
  459TMC3    H1 6892   2.038   2.237  12.475  0.0623 -0.1443  1.2463
  459TMC3    H2 6893   2.400   2.426  12.615  1.5627  0.1724 -1.0379
  459TMC3    C7 6894   2.201   2.250  12.681  0.4639  0.3218 -0.5324
  459TMC3    C8 6895   2.473   2.512  12.367  0.7329  0.5974  0.3029
  459TMC3    O1 6896   2.154   2.137  12.682 -0.0762 -0.5392 -0.1025
  459TMC3    O2 6897   2.465   2.587  12.273 -0.6577 -0.8734 -0.2221
  460MPD2     C 6898   1.221   0.217  10.450 -0.6105 -0.0830  0.7314
  460MPD2    C1 6899   1.181   0.083  10.439  0.0413  0.1192 -0.2763
  460MPD2    C2 6900   1.100   0.054  10.327 -0.1797 -0.1214 -0.2600
  460MPD2    C3 6901   1.063   0.156  10.238 -0.9127 -0.3454 -0.0703
  460MPD2    C4 6902   1.108   0.283  10.256  0.2081  0.4915  0.0655
  460MPD2    C5 6903   1.179   0.316  10.368 -0.3401  0.3625 -0.3783
  460MPD2     H 6904   1.057   4.691  10.310 -0.9802  0.3268 -0.8493
  460MPD2    H1 6905   1.086   0.374  10.202 -0.3914 -0.6404 -1.6299
  460MPD2    H2 6906   1.299   0.231  10.524 -0.4012  0.4296  0.4122
  460MPD2    H3 6907   1.210   0.419  10.377  0.4920  0.0343  0.4827
  460MPD2     N 6908   0.966   0.126  10.141  0.6925 -0.8335  0.2642
  460MPD2    H5 6909   0.914   0.039  10.141  0.7864 -0.8896  0.1481
  460MPD2    N1 6910   1.226   4.725  10.536 -0.7864  0.0933 -0.9452
  460MPD2    H7 6911   1.291   0.033  10.601  0.5433 -0.5432 -1.8436
  461TMC3    C1 6912   0.827   0.150   9.959 -0.7999 -0.1514  0.5380
  461TMC3    C2 6913   0.860   0.035   9.890 -0.7792 -0.0084  0.2417
  461TMC3    C3 6914   0.828   0.021   9.760  0.0571 -0.2805 -0.2121
  461TMC3    C4 6915   0.756   0.247   9.895 -0.0237  0.1008  0.4863
  461TMC3    C5 6916   0.731   0.233   9.761 -0.1420  0.4357  0.8401
  461TMC3    C6 6917   0.766   0.121   9.695  0.8377 -0.4312 -0.2608
  461TMC3     C 6918   0.925   0.210  10.037  0.4425  0.2593 -0.3822
  461TMC3     O 6919   0.962   0.322  10.007  0.0416  0.0786  0.2101
  461TMC3     H 6920   0.917   4.691   9.936  1.6341  2.0784  0.8495
  461TMC3    H1 6921   0.735   0.347   9.932 -4.5249 -0.9888  0.8562
  461TMC3    H2 6922   0.747   0.112   9.589 -0.5812  0.5532 -0.0866
  461TMC3    C7 6923   0.690   0.351   9.687  0.6461 -0.5298  0.7697
  461TMC3    C8 6924   0.886   4.650   9.686 -0.2623  1.0418  0.0005
  461TMC3    O1 6925   0.744   0.453   9.719 -0.1339 -0.3709 -0.4531
  461TMC3    O2 6926   0.897   4.542   9.743 -0.1052  0.2627  0.2800
  462TMC3    C1 6927   1.546   2.115   0.358 -0.3519  0.4312  0.1813
  462TMC3    C2 6928   1.632   2.118   0.251  0.3664  0.6976 -0.0577
  462TMC3    C3 6929   1.643   1.998   0.187  0.8679  0.4072  0.4074
  462TMC3    C4 6930   1.487   2.006   0.413  0.2745  0.0939  0.1978
  462TMC3    C5 6931   1.500   1.888   0.337 -0.1149 -0.3131 -0.3179
  462TMC3    C6 6932   1.588   1.880   0.225  0.3530  0.9336 -0.8285
  462TMC3     C 6933   1.515   2.231   0.434 -0.2835 -0.0063 -0.3592
  462TMC3     O 6934   1.476   2.226   0.551  1.2039 -0.3530  0.2563
  462TMC3     H 6935   1.666   2.212   0.209  0.3596  1.8282  2.5018
  462TMC3    H1 6936   1.425   2.010   0.502 -0.6495  0.2964 -0.4595
  462TMC3    H2 6937   1.560   1.807   0.150  1.0845 -0.4236  0.2245
  462TMC3    C7 6938   1.415   1.775   0.365  0.2726 -0.2234 -0.2996
  462TMC3    C8 6939   1.711   2.007   0.062  0.1995  0.0309 -0.6830
  462TMC3    O1 6940   1.313   1.799   0.428 -0.5228 -0.4194  0.3727
  462TMC3    O2 6941   1.712   2.115   0.004 -0.2970 -0.0106  0.1772
  463MPD2     C 6942   3.128   4.464   0.857  0.2636  0.6362  0.4320
  463MPD2    C1 6943   3.054   4.561   0.785 -0.5793 -1.0363  0.4104
  463MPD2    C2 6944   3.109   4.676   0.743  1.1899 -0.9121 -0.4752
  463MPD2    C3 6945   3.240   4.707   0.778  0.6932  1.4466  0.0982
  463MPD2    C4 6946   3.316   4.613   0.847 -0.0970 -0.4064  0.0434
  463MPD2    C5 6947   3.257   4.494   0.883  0.0314 -0.2491  0.6555
  463MPD2     H 6948   3.053   0.012   0.684  3.2198 -0.7195 -2.1529
  463MPD2    H1 6949   3.423   4.615   0.861 -0.1375  0.9581  0.2382
  463MPD2    H2 6950   3.082   4.372   0.891 -0.1155  1.0902  1.1620
  463MPD2    H3 6951   3.323   4.423   0.932 -0.4824 -0.7607  0.6110
  463MPD2     N 6952   3.299   0.100   0.765  0.0732  0.8080  0.0926
  463MPD2    H5 6953   3.395   0.096   0.800 -0.3311 -0.2284  1.1072
  463MPD2    N1 6954   2.914   4.534   0.751  0.0525 -0.4053 -0.0452
  463MPD2    H7 6955   2.865   4.613   0.711  0.0689 -0.4835 -0.2174
  464TMC3    C1 6956   2.698   4.432   0.786  0.4188 -0.1988  0.1773
  464TMC3    C2 6957   2.640   4.554   0.798  0.8405 -1.0537 -0.7447
  464TMC3    C3 6958   2.503   4.554   0.772 -0.2376 -0.0870  0.2572
  464TMC3    C4 6959   2.632   4.320   0.780  0.3193  0.3674 -0.1970
  464TMC3    C5 6960   2.499   4.317   0.754 -0.2057  0.0924 -0.0155
  464TMC3    C6 6961   2.433   4.437   0.743  0.4770 -0.0147  0.3965
  464TMC3     C 6962   2.849   4.418   0.791  0.0730  0.0567 -0.0345
  464TMC3     O 6963   2.894   4.304   0.795 -0.1473  0.2842 -0.2410
  464TMC3     H 6964   2.685   4.647   0.830  0.4392 -0.6272 -1.4113
  464TMC3    H1 6965   2.693   4.231   0.762  0.3772 -0.0476  2.1040
  464TMC3    H2 6966   2.327   4.447   0.721  0.4414 -1.4496 -0.0911
  464TMC3    C7 6967   2.431   4.199   0.770  0.1437  0.5200  0.0809
  464TMC3    C8 6968   2.421   4.684   0.768  0.0479 -1.0093 -0.2324
  464TMC3    O1 6969   2.492   4.102   0.802  0.1637 -0.1869  0.2229
  464TMC3    O2 6970   2.296   4.674   0.763 -0.3661  0.1674  0.5661
  465MPD2     C 6971   3.446   4.082  17.223 -0.2822 -0.0910 -0.2788
  465MPD2    C1 6972   3.349   3.979  17.229  0.4762 -0.5125 -0.1878
  465MPD2    C2 6973   3.310   3.918  17.108 -0.3324  0.7172 -0.0872
  465MPD2    C3 6974   3.363   3.958  16.985  0.3869 -0.6767 -0.7390
  465MPD2    C4 6975   3.467   4.044  16.982  0.3111 -0.2176  0.6926
  465MPD2    C5 6976   3.496   4.112  17.095  0.6879 -0.6535  0.5137
  465MPD2     H 6977   3.239   3.837  17.095 -2.2377  2.0201  2.1351
  465MPD2    H1 6978   3.525   4.076  16.896  0.7024 -0.9850  0.6749
  465MPD2    H2 6979   3.487   4.136  17.307  1.1908 -0.8829 -0.4799
  465MPD2    H3 6980   3.574   4.187  17.095  0.9050 -0.8798  0.7973
  465MPD2     N 6981   3.308   3.891  16.876 -0.1014 -0.5714  0.3224
  465MPD2    H5 6982   3.258   3.806  16.902 -0.7065 -0.0088  0.9932
  465MPD2    N1 6983   3.302   3.924  17.354  0.2474  0.3089 -0.8264
  465MPD2    H7 6984   3.248   3.838  17.346 -0.5647  0.6588  0.9433
  466TMC3    C1 6985   3.152   3.647  16.572 -0.3480 -0.3295 -0.0047
  466TMC3    C2 6986   3.171   3.684  16.440  0.0091 -0.3849 -0.1508
  466TMC3    C3 6987   3.238   3.803  16.416 -0.3578 -0.4329  0.9034
  466TMC3    C4 6988   3.219   3.715  16.676 -0.5199  0.4816  0.1176
  466TMC3    C5 6989   3.283   3.831  16.647 -0.9809  0.0925  0.1897
  466TMC3    C6 6990   3.298   3.871  16.518 -0.3956 -0.1274  0.0287
  466TMC3     C 6991   3.022   3.604  16.610 -0.7762 -0.4606 -0.5741
  466TMC3     O 6992   2.982   3.613  16.726  0.0249 -0.3087  0.4382
  466TMC3     H 6993   3.127   3.638  16.352 -0.1541  3.0675 -1.8763
  466TMC3    H1 6994   3.205   3.675  16.776 -1.3248  0.0201 -0.1759
  466TMC3    H2 6995   3.333   3.965  16.476 -2.2860 -0.1867 -1.6755
  466TMC3    C7 6996   3.335   3.914  16.746  0.3060 -0.0242 -0.6226
  466TMC3    C8 6997   3.150   3.886  16.331 -0.7111 -0.2885 -0.6439
  466TMC3    O1 6998   3.405   4.006  16.703 -0.0820 -0.0816  0.4818
  466TMC3    O2 6999   3.103   3.842  16.224 -0.1765  0.1244  0.2102
  467TMC3    C1 7000   3.919   2.005  13.530 -0.5143 -0.7006  0.0002
  467TMC3    C2 7001   4.024   1.951  13.466  0.1214 -0.0340  0.1611
  467TMC3    C3 7002   4.030   1.978  13.334 -0.3218 -0.1317 -0.5127
  467TMC3    C4 7003   3.802   2.047  13.462  0.5181  0.6860 -0.2197
  467TMC3    C5 7004   3.807   2.061  13.322  0.2308 -0.1625 -0.2936
  467TMC3    C6 7005   3.932   2.047  13.263 -0.0742 -0.0783 -0.0577
  467TMC3     C 7006   3.934   2.017  13.675 -0.4258 -0.1337 -0.1496
  467TMC3     O 7007   4.041   1.973  13.723  0.3583  0.2602 -0.0801
  467TMC3     H 7008   4.110   1.918  13.523  1.2921  2.6391 -0.0734
  467TMC3    H1 7009   3.711   2.064  13.517  1.0966  2.1888  0.2754
  467TMC3    H2 7010   3.953   2.072  13.160  1.4305  2.6657  0.9253
  467TMC3    C7 7011   3.696   2.024  13.248 -0.0623 -0.5355  0.3328
  467TMC3    C8 7012   4.166   1.987  13.280 -0.0349 -0.2910  0.2089
  467TMC3    O1 7013   3.694   2.069  13.132  0.5207 -0.0903  0.3188
  467TMC3    O2 7014   4.187   2.092  13.226 -0.3435 -0.7750 -0.2540
  468MPD2     C 7015   3.015   0.194  10.684  0.7255  0.1992 -0.3170
  468MPD2    C1 7016   3.141   0.151  10.647 -0.0005  0.7915 -0.1755
  468MPD2    C2 7017   3.155   0.038  10.563  0.0533  0.4959  0.1172
  468MPD2    C3 7018   3.042   4.707  10.515  0.2063 -0.4035  0.8902
  468MPD2    C4 7019   2.925   0.003  10.578 -0.4350 -0.2691 -0.3242
  468MPD2    C5 7020   2.910   0.108  10.662  0.3299 -0.0467  0.1179
  468MPD2     H 7021   3.254   4.732  10.545  0.4215  1.3594  0.1870
  468MPD2    H1 7022   2.838   4.681  10.551  1.0535 -3.4418  1.5978
  468MPD2    H2 7023   2.987   0.262  10.764 -0.9875  0.5722 -1.2170
  468MPD2    H3 7024   2.815   0.130  10.708  0.0984  1.6479 -1.1929
  468MPD2     N 7025   3.046   4.580  10.453 -0.2682  0.8975  0.6405
  468MPD2    H5 7026   2.958   4.530  10.440 -0.4056  1.9862 -2.8227
  468MPD2    N1 7027   3.257   0.210  10.698 -0.3825  0.1277  0.2995
  468MPD2    H7 7028   3.350   0.174  10.677 -0.0372  0.1288  1.7892
  469TMC3    C1 7029   3.391   0.359  10.836  0.2297  0.0738 -0.4184
  469TMC3    C2 7030   3.503   0.292  10.796 -0.2404  0.4340 -0.0843
  469TMC3    C3 7031   3.619   0.312  10.865 -0.2380  0.0941  0.0105
  469TMC3    C4 7032   3.389   0.444  10.944 -0.2250  0.2759  0.8615
  469TMC3    C5 7033   3.508   0.460  11.008 -0.1675  0.5210 -0.3816
  469TMC3    C6 7034   3.622   0.388  10.980 -0.2270  0.5572 -0.7294
  469TMC3     C 7035   3.258   0.316  10.787  0.6527 -0.1302 -0.6815
  469TMC3     O 7036   3.170   0.369  10.853 -0.2689  0.2137 -0.1394
  469TMC3     H 7037   3.513   0.214  10.721 -1.5924  0.4823 -0.3314
  469TMC3    H1 7038   3.302   0.499  10.977 -1.6096 -0.9021 -0.8258
  469TMC3    H2 7039   3.705   0.392  11.049 -1.4002  1.8852  0.5940
  469TMC3    C7 7040   3.497   0.553  11.123 -1.0022 -0.1278  0.1627
  469TMC3    C8 7041   3.736   0.232  10.837 -0.4590 -0.1875 -0.2722
  469TMC3    O1 7042   3.436   0.658  11.122  0.3316  0.5246  0.0290
  469TMC3    O2 7043   3.719   0.150  10.754 -0.7556 -0.7047 -0.0274
  470TMC3    C1 7044   0.625   1.661   0.839  0.3581 -0.0788  0.8750
  470TMC3    C2 7045   0.628   1.796   0.806  0.5927  0.5934 -0.2517
  470TMC3    C3 7046   0.750   1.851   0.762  0.0863  0.3602 -0.6401
  470TMC3    C4 7047   0.740   1.590   0.839  0.4644 -0.0521 -0.6476
  470TMC3    C5 7048   0.858   1.663   0.831 -0.1401 -0.1103 -0.4657
  470TMC3    C6 7049   0.867   1.789   0.795 -0.1895  0.2450  0.1583
  470TMC3     C 7050   0.492   1.591   0.823 -0.3586  0.4740 -0.2150
  470TMC3     O 7051   0.397   1.659   0.799  0.7037  0.4262 -0.0882
  470TMC3     H 7052   0.538   1.855   0.797 -0.7387 -1.5104 -0.7587
  470TMC3    H1 7053   0.739   1.482   0.842 -2.6878 -0.0519 -1.0121
  470TMC3    H2 7054   0.965   1.834   0.784  0.6606 -1.8557 -0.7252
  470TMC3    C7 7055   0.979   1.610   0.891  0.5129 -0.5563  0.1567
  470TMC3    C8 7056   0.744   1.997   0.757  0.2522  0.0400 -0.0933
  470TMC3    O1 7057   1.089   1.659   0.856 -0.0576  0.3343  0.9528
  470TMC3    O2 7058   0.669   2.053   0.836 -0.1839 -0.1785 -0.6663
  471MPD2     C 7059   1.337   2.742  16.605  0.0588 -0.3886  0.3919
  471MPD2    C1 7060   1.314   2.607  16.640 -0.0736  0.4283 -0.0262
  471MPD2    C2 7061   1.358   2.547  16.758 -0.7638  0.0310  0.2308
  471MPD2    C3 7062   1.415   2.628  16.855 -0.9290  0.2399  0.4170
  471MPD2    C4 7063   1.446   2.759  16.824 -0.4892 -0.3376  0.0859
  471MPD2    C5 7064   1.408   2.814  16.701  0.3865  0.0736 -0.6260
  471MPD2     H 7065   1.339   2.441  16.769 -2.7287  0.3175 -0.5416
  471MPD2    H1 7066   1.503   2.815  16.898 -1.3057  0.7382 -0.1133
  471MPD2    H2 7067   1.312   2.786  16.509  0.5479  0.5515  0.6971
  471MPD2    H3 7068   1.451   2.911  16.679  1.3194  0.0352  1.0588
  471MPD2     N 7069   1.459   2.582  16.985 -0.0327 -0.0105 -0.4873
  471MPD2    H5 7070   1.516   2.652  17.034 -1.3812  1.6753 -1.3420
  471MPD2    N1 7071   1.263   2.514  16.542 -0.1114 -0.3246  0.1149
  471MPD2    H7 7072   1.264   2.419  16.579  3.0023  0.3832  1.8306
  472TMC3    C1 7073   1.160   2.414  16.347 -0.4146 -0.3120 -0.2171
  472TMC3    C2 7074   1.047   2.420  16.267 -0.0365 -0.2173 -0.0592
  472TMC3    C3 7075   1.050   2.356  16.146  0.1704  0.2055  0.2390
  472TMC3    C4 7076   1.254   2.317  16.310 -0.0010 -0.3770  0.4449
  472TMC3    C5 7077   1.249   2.254  16.190  0.0966  0.0127  0.7307
  472TMC3    C6 7078   1.153   2.278  16.097  0.2954 -0.1356 -0.0251
  472TMC3     C 7079   1.198   2.536  16.422  0.5504 -0.4985 -0.7927
  472TMC3     O 7080   1.157   2.640  16.376 -0.4143 -0.3825  0.4110
  472TMC3     H 7081   0.965   2.486  16.293  1.0922 -0.2144  3.5244
  472TMC3    H1 7082   1.339   2.301  16.376 -0.7991  0.5335  1.7010
  472TMC3    H2 7083   1.151   2.217  16.008  1.3173  1.1308 -0.9056
  472TMC3    C7 7084   1.270   2.118  16.218 -0.0044 -0.0072 -0.5802
  472TMC3    C8 7085   0.927   2.304  16.096  0.3105 -0.3152 -0.8104
  472TMC3    O1 7086   1.361   2.085  16.294 -0.3407  0.0364 -0.8631
  472TMC3    O2 7087   0.910   2.287  15.978  0.1124  0.3310 -0.0575
  473MPD2     C 7088   1.084   3.980  14.002  0.3769 -0.0339  0.2603
  473MPD2    C1 7089   1.029   4.060  13.902 -0.7216  0.2043  0.2870
  473MPD2    C2 7090   1.035   4.193  13.922  0.0144 -0.2018 -0.4210
  473MPD2    C3 7091   1.076   4.248  14.046 -0.6775  0.1324  0.1784
  473MPD2    C4 7092   1.120   4.164  14.151  0.1788 -0.2409  0.0523
  473MPD2    C5 7093   1.119   4.030  14.126  0.0124 -0.3032 -0.0256
  473MPD2     H 7094   1.012   4.263  13.842  2.5978  0.9636 -0.1455
  473MPD2    H1 7095   1.153   4.203  14.247 -1.3718 -0.7409  0.7843
  473MPD2    H2 7096   1.084   3.873  13.986 -0.1682  0.0362 -0.2049
  473MPD2    H3 7097   1.163   3.960  14.197 -2.5426  0.0743  1.9577
  473MPD2     N 7098   1.080   4.385  14.074 -0.4544 -0.4515  0.1781
  473MPD2    H5 7099   1.122   4.407  14.164  1.2078 -1.9527 -0.2288
  473MPD2    N1 7100   0.984   4.013  13.773  0.1152 -0.2625 -0.4069
  473MPD2    H7 7101   0.980   4.083  13.699 -1.1913  0.4373  0.3304
  474TMC3    C1 7102   1.041   4.617  14.041  0.1056  0.4085  0.1295
  474TMC3    C2 7103   0.941   4.703  14.024 -0.3154 -0.2728  0.2153
  474TMC3    C3 7104   0.964   0.093  14.077  0.1162 -0.4780  0.2541
  474TMC3    C4 7105   1.162   4.642  14.105 -0.9422 -0.5759  0.1942
  474TMC3    C5 7106   1.183   0.035  14.150 -0.1802 -0.2452 -0.2281
  474TMC3    C6 7107   1.074   0.122  14.140 -0.2934  0.1999  0.0691
  474TMC3     C 7108   1.023   4.484  14.000  0.5211 -0.7771  0.6405
  474TMC3     O 7109   0.930   4.459  13.922 -0.1845 -0.2230 -0.1547
  474TMC3     H 7110   0.861   4.684  13.954  0.0915 -1.5259  0.0932
  474TMC3    H1 7111   1.240   4.567  14.092 -1.5847 -1.2298  0.0763
  474TMC3    H2 7112   1.089   0.219  14.185  0.2430 -0.8385  2.1585
  474TMC3    C7 7113   1.315   0.078  14.196 -0.2419 -0.3793  0.5406
  474TMC3    C8 7114   0.849   0.179  14.053  0.4682 -0.3440 -0.3062
  474TMC3    O1 7115   1.396   0.065  14.104 -0.0184  0.0860 -0.5974
  474TMC3    O2 7116   0.748   0.134  14.001  0.1628  0.0113 -0.2990
  475MPD2     C 7117   4.140   2.407  10.231 -0.6277  0.3571 -0.5136
  475MPD2    C1 7118   4.155   2.502  10.319 -0.1119 -0.0786 -0.1382
  475MPD2    C2 7119   4.076   2.513  10.433  0.7333  0.1669 -0.3532
  475MPD2    C3 7120   3.972   2.424  10.450  0.4549  0.3765 -0.6354
  475MPD2    C4 7121   3.962   2.317  10.360  0.4818  0.3965 -0.0056
  475MPD2    C5 7122   4.055   2.310  10.262  0.9236  0.0455  0.9851
  475MPD2     H 7123   4.109   2.588  10.505  1.1466 -1.5088  1.1963
  475MPD2    H1 7124   3.884   2.242  10.368  1.2930 -0.7983 -3.1516
  475MPD2    H2 7125   4.205   2.393  10.145 -0.4839 -4.1632  0.3671
  475MPD2    H3 7126   4.048   2.225  10.195 -1.6953  0.2575  0.9811
  475MPD2     N 7127   3.880   2.449  10.551 -0.2624 -0.2360  0.4938
  475MPD2    H5 7128   3.901   2.529  10.609 -2.9729 -0.4464  1.7891
  475MPD2    N1 7129   4.259   2.596  10.311 -0.8916  0.4218 -0.5344
  475MPD2    H7 7130   4.273   2.654  10.393  0.9840 -1.6372  0.5905
  476TMC3    C1 7131   4.372   2.757  10.223 -0.7948  0.6324 -0.7583
  476TMC3    C2 7132   4.292   2.853  10.167 -0.5735  0.5343  0.1874
  476TMC3    C3 7133   4.286   2.977  10.228 -0.4996  0.1111 -0.4578
  476TMC3    C4 7134   4.428   2.775  10.346 -0.3958  0.2653  0.2375
  476TMC3    C5 7135   4.412   2.896  10.407  0.2080  0.0449  0.4543
  476TMC3    C6 7136   4.351   3.002  10.346 -0.0609 -0.2581  0.8270
  476TMC3     C 7137   4.341   2.627  10.204 -0.1743 -0.7138 -0.4677
  476TMC3     O 7138   4.338   2.580  10.090  0.0896 -0.0247  0.2293
  476TMC3     H 7139   4.257   2.835  10.066  1.2777 -0.9942 -0.1948
  476TMC3    H1 7140   4.468   2.694  10.407 -2.2483 -1.6391 -1.1216
  476TMC3    H2 7141   4.332   3.099  10.392  0.4261  0.2146  0.0340
  476TMC3    C7 7142   4.367   2.869  10.543 -0.2338  0.2940  0.5369
  476TMC3    C8 7143   4.165   3.045  10.216 -0.1713  0.4668  0.1874
  476TMC3    O1 7144   4.317   2.758  10.552 -0.1352 -0.1752 -0.3875
  476TMC3    O2 7145   4.151   3.149  10.276 -0.0565 -0.2881  0.2930
  477MPD2     C 7146   1.370   3.256  11.236  0.2719  0.5165 -0.1750
  477MPD2    C1 7147   1.397   3.366  11.311  0.6071  0.0461  0.8326
  477MPD2    C2 7148   1.515   3.363  11.385 -0.4240  0.5748  0.1911
  477MPD2    C3 7149   1.599   3.255  11.382 -0.1133  0.4598 -0.7442
  477MPD2    C4 7150   1.570   3.151  11.298  0.1776  0.4496  0.8948
  477MPD2    C5 7151   1.459   3.154  11.221  0.3639  0.0749 -0.1223
  477MPD2     H 7152   1.547   3.452  11.439  0.5095 -0.1928  0.8927
  477MPD2    H1 7153   1.643   3.071  11.289  1.2498  1.1062  3.4856
  477MPD2    H2 7154   1.284   3.245  11.171  0.5542 -1.4852 -0.2260
  477MPD2    H3 7155   1.442   3.078  11.146  0.2145 -0.4825  0.4778
  477MPD2     N 7156   1.711   3.267  11.469 -0.6055  0.3603 -0.2920
  477MPD2    H5 7157   1.702   3.339  11.540  0.4049  0.5798 -0.3827
  477MPD2    N1 7158   1.320   3.483  11.295 -0.3199 -0.5108 -0.6808
  477MPD2    H7 7159   1.242   3.477  11.231 -2.7497 -0.9831  2.2861
  478TMC3    C1 7160   1.225   3.684  11.348  0.4063  1.1339 -0.0325
  478TMC3    C2 7161   1.197   3.774  11.451 -0.5419  0.3384 -0.2190
  478TMC3    C3 7162   1.142   3.894  11.413 -0.9323  0.7209 -1.3263
  478TMC3    C4 7163   1.208   3.719  11.218  0.0879  0.3357 -0.1877
  478TMC3    C5 7164   1.141   3.837  11.190 -0.2032  0.3209 -0.2796
  478TMC3    C6 7165   1.108   3.925  11.289 -1.0597 -0.6563 -0.9799
  478TMC3     C 7166   1.316   3.585  11.387 -0.4599 -0.2689 -0.4699
  478TMC3     O 7167   1.370   3.583  11.500 -0.8516  0.4598  0.1667
  478TMC3     H 7168   1.231   3.748  11.551 -0.6270 -0.1436 -0.3126
  478TMC3    H1 7169   1.245   3.661  11.134  0.9742  2.1145 -1.0495
  478TMC3    H2 7170   1.057   4.018  11.272 -0.8634  0.1005  2.6113
  478TMC3    C7 7171   1.198   3.909  11.082 -0.0697 -0.1237  0.0334
  478TMC3    C8 7172   1.155   4.001  11.512 -0.4913 -0.8006  0.2714
  478TMC3    O1 7173   1.306   3.870  11.044 -0.2502 -0.0645 -0.0410
  478TMC3    O2 7174   1.174   3.959  11.628 -0.2246 -0.3501 -0.2247
  479MPD2     C 7175   0.890   1.812  14.817  0.4824  0.7601  0.5051
  479MPD2    C1 7176   0.859   1.817  14.950 -0.5804  1.0301  0.9681
  479MPD2    C2 7177   0.910   1.915  15.026 -0.4186  0.3733 -0.5857
  479MPD2    C3 7178   0.984   2.019  14.974 -0.2944 -0.2951  0.0164
  479MPD2    C4 7179   1.024   2.014  14.841 -0.1859  0.6218  0.1531
  479MPD2    C5 7180   0.976   1.907  14.763 -0.0491 -0.1071 -0.2257
  479MPD2     H 7181   0.899   1.912  15.134 -1.2827  0.2334 -0.6814
  479MPD2    H1 7182   1.093   2.083  14.796  2.1980 -1.4361  0.6575
  479MPD2    H2 7183   0.837   1.742  14.754  1.2801  0.7046 -0.0931
  479MPD2    H3 7184   1.002   1.915  14.658 -2.7771 -0.1461 -0.9218
  479MPD2     N 7185   1.028   2.126  15.057  0.1531  0.5074 -0.5755
  479MPD2    H5 7186   1.093   2.194  15.020  0.0843  1.2645  0.7123
  479MPD2    N1 7187   0.765   1.725  14.998 -0.5882 -0.2240 -0.0432
  479MPD2    H7 7188   0.722   1.669  14.925 -1.5614  0.6394 -0.1294
  480TMC3    C1 7189   0.691   2.065  15.374  0.9337  0.3625  0.0228
  480TMC3    C2 7190   0.589   2.097  15.291  0.3177  0.0955 -0.2727
  480TMC3    C3 7191   0.620   2.130  15.161 -0.4320 -0.6370  0.1268
  480TMC3    C4 7192   0.824   2.079  15.337 -0.2919  0.2040 -0.1912
  480TMC3    C5 7193   0.845   2.132  15.206  0.7104 -0.1587 -0.4797
  480TMC3    C6 7194   0.744   2.159  15.118 -0.3549  0.2358  0.4938
  480TMC3     C 7195   0.667   1.943  15.451  0.1091 -0.1005 -0.5391
  480TMC3     O 7196   0.575   1.870  15.414 -0.2117  0.2315  0.0026
  480TMC3     H 7197   0.489   2.064  15.315  0.5550 -0.1349  0.4017
  480TMC3    H1 7198   0.904   2.056  15.406  0.6205  2.5592 -0.4708
  480TMC3    H2 7199   0.771   2.204  15.023 -0.3681 -0.5533  0.1106
  480TMC3    C7 7200   0.980   2.162  15.182 -0.4933  0.0125  0.3627
  480TMC3    C8 7201   0.512   2.108  15.070 -0.9499  0.1738 -0.5447
  480TMC3    O1 7202   1.021   2.241  15.263  0.1346 -0.4721  0.2621
  480TMC3    O2 7203   0.398   2.142  15.098  0.5995 -0.2262  0.1868
  481MPD2     C 7204   2.152   1.318  13.945 -0.7281 -0.3952  0.1578
  481MPD2    C1 7205   2.116   1.183  13.927 -0.3993  0.5465 -0.3550
  481MPD2    C2 7206   2.147   1.095  14.021  0.2802 -0.6154  0.2089
  481MPD2    C3 7207   2.237   1.128  14.121  0.1487 -0.3068  0.3850
  481MPD2    C4 7208   2.285   1.258  14.136 -0.3543 -0.0997 -0.3198
  481MPD2    C5 7209   2.232   1.360  14.049  0.2230 -0.3768  0.3294
  481MPD2     H 7210   2.115   0.992  14.006 -0.1766 -0.2035 -1.6759
  481MPD2    H1 7211   2.357   1.287  14.211 -1.7313 -0.2329  1.0320
  481MPD2    H2 7212   2.121   1.393  13.872 -0.2040  1.2549  1.6257
  481MPD2    H3 7213   2.263   1.464  14.059 -1.9633  0.1745  1.2914
  481MPD2     N 7214   2.292   1.032  14.215 -0.4930 -0.0411  0.5257
  481MPD2    H5 7215   2.376   1.053  14.269  1.7969 -0.4551 -2.8427
  481MPD2    N1 7216   2.040   1.150  13.814 -0.6180 -0.6314  0.8312
  481MPD2    H7 7217   2.031   1.223  13.744 -1.0307 -0.4158  1.1114
  482TMC3    C1 7218   1.914   1.039  13.654 -0.4897  0.0645 -0.1688
  482TMC3    C2 7219   1.882   0.923  13.590  0.2131  0.1420 -0.6572
  482TMC3    C3 7220   1.793   0.934  13.483  0.7766 -0.2655  0.8445
  482TMC3    C4 7221   1.868   1.160  13.618 -0.1782 -0.2192  0.4955
  482TMC3    C5 7222   1.779   1.166  13.517 -0.0522  0.4285 -0.1196
  482TMC3    C6 7223   1.727   1.054  13.459  0.7261  0.8478  0.8864
  482TMC3     C 7224   2.000   1.026  13.769 -0.3701  0.8923  0.4548
  482TMC3     O 7225   2.025   0.910  13.810  0.4463 -0.3444 -0.0056
  482TMC3     H 7226   1.940   0.832  13.593 -1.5505 -0.9537  0.3453
  482TMC3    H1 7227   1.882   1.252  13.673 -1.5155  0.0539  0.3724
  482TMC3    H2 7228   1.649   1.068  13.384  1.0245 -0.6869  0.3068
  482TMC3    C7 7229   1.730   1.298  13.481  0.2442  0.4629 -0.1076
  482TMC3    C8 7230   1.763   0.810  13.416 -0.6354  0.1198  0.0859
  482TMC3    O1 7231   1.725   1.384  13.570 -0.0858 -0.4270 -0.0936
  482TMC3    O2 7232   1.774   0.710  13.484 -0.4839 -0.6047 -0.2469
  483TMC3    C1 7233   0.716   0.791   0.781 -0.1956  0.3419  0.4986
  483TMC3    C2 7234   0.838   0.840   0.751 -0.1844  0.0650  0.1920
  483TMC3    C3 7235   0.951   0.797   0.810  0.1406  0.3677 -0.3698
  483TMC3    C4 7236   0.709   0.697   0.881 -1.2767  0.2337  0.5054
  483TMC3    C5 7237   0.823   0.647   0.936 -0.0178  0.5430  0.1950
  483TMC3    C6 7238   0.947   0.698   0.906  0.0500 -0.5124  0.6334
  483TMC3     C 7239   0.609   0.834   0.694 -0.1908  0.4390 -0.5533
  483TMC3     O 7240   0.621   0.931   0.618  0.4565 -0.4694  0.0221
  483TMC3     H 7241   0.853   0.913   0.672 -1.2739  0.7931  0.6697
  483TMC3    H1 7242   0.615   0.645   0.893 -1.9639  1.3931  0.0989
  483TMC3    H2 7243   1.036   0.659   0.954 -0.0929 -1.1887  0.3411
  483TMC3    C7 7244   0.831   0.510   0.987  0.4241  0.0310 -0.3168
  483TMC3    C8 7245   1.072   0.807   0.729 -0.6917 -0.0331 -0.2903
  483TMC3    O1 7246   0.930   0.439   0.972  0.1493 -0.3112 -0.4863
  483TMC3    O2 7247   1.067   0.843   0.614  0.3215  0.3427  0.0662
  484MPD2     C 7248   2.786   2.520  12.561  0.3066  0.0583  0.7181
  484MPD2    C1 7249   2.702   2.565  12.463 -0.0499 -0.1088  0.8181
  484MPD2    C2 7250   2.731   2.678  12.393 -0.2899  0.5503 -0.3334
  484MPD2    C3 7251   2.854   2.744  12.416  0.0727  0.2905  0.4122
  484MPD2    C4 7252   2.937   2.697  12.516 -0.3041  0.5332 -0.3828
  484MPD2    C5 7253   2.898   2.589  12.591  0.2649 -0.4777 -0.1746
  484MPD2     H 7254   2.666   2.706  12.311 -3.3606  0.7317  2.1448
  484MPD2    H1 7255   3.025   2.754  12.542  0.0275 -0.1931  0.0777
  484MPD2    H2 7256   2.765   2.434  12.624 -1.1458 -1.5609 -1.9921
  484MPD2    H3 7257   2.958   2.556  12.675  0.4802 -0.2660 -0.2446
  484MPD2     N 7258   2.901   2.848  12.338  0.1970 -0.1069 -0.8182
  484MPD2    H5 7259   2.997   2.874  12.358 -0.1799  0.6937 -0.0496
  484MPD2    N1 7260   2.578   2.499  12.451 -0.2410 -0.2550  0.3811
  484MPD2    H7 7261   2.556   2.430  12.523 -1.4457 -0.9387 -0.6401
  485TMC3    C1 7262   2.916   3.009  12.163  0.2433  0.3118  0.2632
  485TMC3    C2 7263   3.033   3.053  12.216  0.1377  0.0965 -0.2339
  485TMC3    C3 7264   3.122   3.127  12.146  0.0398  0.0835 -0.1825
  485TMC3    C4 7265   2.887   3.025  12.030  0.5731 -0.3810 -0.6522
  485TMC3    C5 7266   2.988   3.086  11.951 -0.1531  0.2969  0.5324
  485TMC3    C6 7267   3.099   3.145  12.015  0.1760 -1.0150 -0.3613
  485TMC3     C 7268   2.841   2.902  12.224 -0.0635 -0.3027 -0.1313
  485TMC3     O 7269   2.731   2.876  12.178  0.0512  0.2702  0.1845
  485TMC3     H 7270   3.053   3.039  12.322  1.2332 -0.6649 -0.5485
  485TMC3    H1 7271   2.803   2.980  11.978 -0.1042 -1.9270  1.7917
  485TMC3    H2 7272   3.171   3.202  11.958  0.7602  0.5526  1.9943
  485TMC3    C7 7273   3.033   3.027  11.825  0.3855 -0.2875 -0.6267
  485TMC3    C8 7274   3.266   3.112  12.176 -0.0027 -0.3110  0.6148
  485TMC3    O1 7275   3.155   3.035  11.816  0.8995 -0.6598  0.6056
  485TMC3    O2 7276   3.293   3.107  12.296 -0.0701  0.2272 -0.5458
  486MPD2     C 7277   0.551   1.467  12.662 -0.2323 -0.3215  0.0001
  486MPD2    C1 7278   0.419   1.466  12.620 -0.3024 -0.2909  0.6937
  486MPD2    C2 7279   0.364   1.596  12.580  0.2483 -0.1002 -0.3523
  486MPD2    C3 7280   0.444   1.711  12.571 -0.0847 -0.1051  0.0471
  486MPD2    C4 7281   0.572   1.703  12.622  0.6628  0.2814 -0.5061
  486MPD2    C5 7282   0.627   1.582  12.663 -0.0644 -1.3480  0.4241
  486MPD2     H 7283   0.262   1.607  12.546  0.3066 -0.0311 -0.5075
  486MPD2    H1 7284   0.630   1.794  12.614  0.3718  0.4578 -0.6181
  486MPD2    H2 7285   0.596   1.371  12.683  0.8271  0.0235 -0.6682
  486MPD2    H3 7286   0.730   1.570  12.693 -0.7151 -1.6448  2.5328
  486MPD2     N 7287   0.381   1.834  12.528 -0.4474 -0.3674  0.1414
  486MPD2    H5 7288   0.285   1.829  12.497 -0.0239  1.1186 -1.4281
  486MPD2    N1 7289   0.347   1.350  12.621 -0.4072 -0.1732 -0.0586
  486MPD2    H7 7290   0.386   1.274  12.676 -1.0082 -0.5708 -0.1838
  487TMC3    C1 7291   0.164   1.209  12.593  0.2676  0.2010  0.1554
  487TMC3    C2 7292   0.073   1.148  12.505  0.0880 -0.3282 -0.3435
  487TMC3    C3 7293   4.730   1.042  12.547 -0.0269 -0.5502 -0.2704
  487TMC3    C4 7294   0.194   1.157  12.715 -0.1535 -0.0502  0.4139
  487TMC3    C5 7295   0.125   1.044  12.746 -0.3133 -0.3031 -0.5754
  487TMC3    C6 7296   0.026   0.995  12.673 -0.9722  0.1402  0.0886
  487TMC3     C 7297   0.231   1.330  12.551 -0.5882  0.4009 -0.5662
  487TMC3     O 7298   0.198   1.383  12.448  0.0215  0.1341 -0.0826
  487TMC3     H 7299   0.050   1.185  12.406 -0.0583  0.9300  0.1658
  487TMC3    H1 7300   0.255   1.208  12.789 -0.9483  2.3216 -0.5877
  487TMC3    H2 7301   4.717   0.904  12.711  1.5824 -1.5225 -0.8457
  487TMC3    C7 7302   0.115   1.027  12.893 -0.0343 -1.3189 -0.1565
  487TMC3    C8 7303   4.587   1.047  12.534  0.4611 -0.6282  0.5247
  487TMC3    O1 7304   0.196   1.062  12.978 -0.2853 -0.8874 -0.1760
  487TMC3    O2 7305   4.543   1.082  12.424 -0.1023  0.5069 -0.0681
  488MPD2     C 7306   0.265   3.352  16.295  0.7982  0.6826 -0.7490
  488MPD2    C1 7307   0.342   3.469  16.307 -0.2008 -0.1584  0.8741
  488MPD2    C2 7308   0.362   3.533  16.424  0.9451  0.0184 -0.0101
  488MPD2    C3 7309   0.303   3.479  16.536  1.2438  0.2557 -0.1407
  488MPD2    C4 7310   0.219   3.375  16.528 -0.4265  0.5583  0.4617
  488MPD2    C5 7311   0.204   3.306  16.404  0.3349  0.7211 -0.4045
  488MPD2     H 7312   0.420   3.624  16.425 -0.1892  0.7328  0.5672
  488MPD2    H1 7313   0.163   3.337  16.612 -0.5861  1.3838  0.7332
  488MPD2    H2 7314   0.250   3.296  16.204 -0.3533 -0.8192  0.3603
  488MPD2    H3 7315   0.144   3.217  16.388 -0.1345  0.8185  0.8464
  488MPD2     N 7316   0.331   3.544  16.661  0.2251 -0.2143  0.3889
  488MPD2    H5 7317   0.376   3.635  16.661 -1.8217  0.7983  0.5924
  488MPD2    N1 7318   0.400   3.533  16.197 -0.6866 -0.5372  0.0429
  488MPD2    H7 7319   0.467   3.608  16.213 -1.2443 -0.1274  0.4596
  489TMC3    C1 7320   0.358   3.588  16.888  0.0443 -0.3681 -0.3099
  489TMC3    C2 7321   0.461   3.669  16.849 -0.9731 -0.4775 -0.5883
  489TMC3    C3 7322   0.483   3.786  16.923 -0.1480  0.8270  0.4403
  489TMC3    C4 7323   0.287   3.614  17.003  0.2423 -0.0079  0.4927
  489TMC3    C5 7324   0.329   3.717  17.083 -0.0050 -0.0828  0.4582
  489TMC3    C6 7325   0.413   3.817  17.039 -0.2200  0.5027 -0.6397
  489TMC3     C 7326   0.302   3.501  16.789  0.4039  0.2199 -0.0061
  489TMC3     O 7327   0.266   3.392  16.837 -0.0906  0.1231  0.7921
  489TMC3     H 7328   0.519   3.648  16.760  0.6051  1.2934  0.0020
  489TMC3    H1 7329   0.208   3.550  17.041 -0.2036 -1.9357 -3.7021
  489TMC3    H2 7330   0.419   3.911  17.092  3.5055  0.2415 -0.5618
  489TMC3    C7 7331   0.233   3.764  17.179  0.1779  0.5608  0.2158
  489TMC3    C8 7332   0.554   3.884  16.847  0.1717 -0.3830  1.3920
  489TMC3    O1 7333   0.176   3.864  17.151 -0.2594  0.8568  0.0738
  489TMC3    O2 7334   0.614   3.845  16.747 -0.6250 -0.4097  0.4470
  490MPD2     C 7335   1.332   2.992  17.159 -1.0685 -0.1420 -0.3964
  490MPD2    C1 7336   1.281   2.984  17.288 -0.3390 -0.0839  0.0238
  490MPD2    C2 7337   1.310   3.087  17.376 -0.3402 -0.4412  0.0103
  490MPD2    C3 7338   1.400   3.189  17.342 -0.5288 -0.9208  0.1104
  490MPD2    C4 7339   1.455   3.192  17.218  0.4593 -0.4411  0.7178
  490MPD2    C5 7340   1.411   3.098  17.130  0.2260  0.5408 -0.2448
  490MPD2     H 7341   1.267   3.069  17.474 -1.5355  0.5271 -0.3271
  490MPD2    H1 7342   1.531   3.259  17.179 -2.7958  2.4286 -0.7155
  490MPD2    H2 7343   1.322   2.911  17.088 -1.5734 -0.2999 -0.1460
  490MPD2    H3 7344   1.458   3.089  17.032  1.1645  1.8577  0.0948
  490MPD2     N 7345   1.435   3.287  17.430 -0.2971 -0.0741 -0.7436
  490MPD2    H5 7346   1.509   3.351  17.405  0.0067  0.7726  2.3286
  490MPD2    N1 7347   1.204   2.880  17.342 -0.5687 -0.3895  0.6569
  490MPD2    H7 7348   1.193   2.881  17.442 -0.8858 -0.9833  0.6284
  491TMC3    C1 7349   1.108   2.662  17.358  0.4621  0.1023 -0.0459
  491TMC3    C2 7350   1.054   2.696  17.481  0.1974  0.1047 -0.4319
  491TMC3    C3 7351   1.058   2.605  17.578  0.7159  0.0285 -0.0291
  491TMC3    C4 7352   1.149   2.533  17.333 -0.1908 -0.0223 -0.8102
  491TMC3    C5 7353   1.116   2.439  17.426  0.0302 -0.4739 -0.4365
  491TMC3    C6 7354   1.071   2.471  17.553  0.2005  0.7587 -0.5093
  491TMC3     C 7355   1.168   2.766  17.277  0.2869 -0.0029  0.0295
  491TMC3     O 7356   1.198   2.725  17.167 -0.1424  0.4087  0.0515
  491TMC3     H 7357   1.029   2.800  17.498  2.5210  0.6860 -0.5895
  491TMC3    H1 7358   1.179   2.501  17.234 -0.6237  2.9141 -1.8819
  491TMC3    H2 7359   1.043   2.401  17.631  0.3989  1.6522  0.3654
  491TMC3    C7 7360   1.122   2.295  17.393 -0.2979  0.0750 -0.0348
  491TMC3    C8 7361   1.020   2.648  17.708  0.5858  0.1557  0.0110
  491TMC3    O1 7362   1.143   2.204  17.472  0.4735  0.4337 -0.6216
  491TMC3    O2 7363   0.952   2.748  17.715 -0.0254 -0.6927  0.3644
  492MPD2     C 7364   1.534   2.412  11.152  1.3948  0.0754 -0.0365
  492MPD2    C1 7365   1.411   2.406  11.095  0.1290  0.4485  0.9616
  492MPD2    C2 7366   1.294   2.390  11.175  0.3486 -1.0660 -0.0807
  492MPD2    C3 7367   1.318   2.357  11.307 -0.6252 -0.6066 -0.7018
  492MPD2    C4 7368   1.445   2.344  11.357 -0.1726 -0.0788  0.2699
  492MPD2    C5 7369   1.550   2.389  11.285 -0.4027  0.2703  0.2501
  492MPD2     H 7370   1.195   2.410  11.135  0.3488  1.4664  1.1860
  492MPD2    H1 7371   1.457   2.302  11.456 -0.7486  0.0149  0.3802
  492MPD2    H2 7372   1.621   2.438  11.094  0.2016  1.2902 -1.2601
  492MPD2    H3 7373   1.649   2.384  11.329  0.5337 -0.4657 -1.9207
  492MPD2     N 7374   1.217   2.325  11.403 -0.3905 -0.0619 -0.7421
  492MPD2    H5 7375   1.241   2.312  11.500  0.3849 -1.7367 -1.1515
  492MPD2    N1 7376   1.406   2.438  10.955  0.6716 -0.2494  0.5169
  492MPD2    H7 7377   1.494   2.451  10.905  2.1768 -3.8136  2.2198
  493TMC3    C1 7378   1.337   2.501  10.744 -0.3273  0.0574 -0.8242
  493TMC3    C2 7379   1.464   2.549  10.727 -0.7792 -0.1199  0.4044
  493TMC3    C3 7380   1.487   2.643  10.637  0.4353  0.1802  0.2551
  493TMC3    C4 7381   1.238   2.531  10.656  0.1341 -0.7558  0.4935
  493TMC3    C5 7382   1.274   2.610  10.547 -0.1762  0.1617  0.1577
  493TMC3    C6 7383   1.393   2.673  10.542  0.5060 -0.5421 -1.0696
  493TMC3     C 7384   1.295   2.442  10.872 -0.1890 -0.3996  0.4050
  493TMC3     O 7385   1.177   2.442  10.897 -0.2914  0.3399 -0.3090
  493TMC3     H 7386   1.551   2.528  10.788 -0.5266 -2.6128 -0.8134
  493TMC3    H1 7387   1.134   2.502  10.671 -0.4801  1.2177  0.0709
  493TMC3    H2 7388   1.413   2.746  10.465  0.0513  0.1560 -0.5352
  493TMC3    C7 7389   1.182   2.603  10.433 -0.0682 -0.1658 -0.3527
  493TMC3    C8 7390   1.603   2.734  10.646 -0.2814  0.0504  0.5666
  493TMC3    O1 7391   1.069   2.583  10.471  0.4027 -0.4970 -0.0626
  493TMC3    O2 7392   1.701   2.684  10.696 -0.3622  0.2968  0.0778
  494TMC3    C1 7393   1.532   4.644   0.051 -0.2085 -0.0741 -0.2492
  494TMC3    C2 7394   1.568   4.514   0.077  0.3409  0.7335 -0.3999
  494TMC3    C3 7395   1.646   4.448  17.725  0.3166  0.3202 -0.1601
  494TMC3    C4 7396   1.584   4.718  17.693  0.3284  0.4401  0.0718
  494TMC3    C5 7397   1.678   4.655  17.611  0.2038 -0.1267 -0.0220
  494TMC3    C6 7398   1.704   4.522  17.625 -0.8169  0.2603 -0.2885
  494TMC3     C 7399   1.495   4.730   0.159  0.2762  0.8274 -0.3061
  494TMC3     O 7400   1.549   4.706   0.265 -0.0794  0.1183 -0.2956
  494TMC3     H 7401   1.535   4.454   0.161 -2.4050 -1.4516 -3.0373
  494TMC3    H1 7402   1.557   0.086  17.676 -1.2140 -0.0056 -0.1395
  494TMC3    H2 7403   1.768   4.474  17.552 -0.2830 -1.6443  1.4181
  494TMC3    C7 7404   1.743   0.003  17.513 -0.2611 -0.1974  1.0045
  494TMC3    C8 7405   1.728   4.340   0.033  0.2770 -0.7173 -0.2022
  494TMC3    O1 7406   1.784   4.674  17.417  0.4416  0.6983 -0.6413
  494TMC3    O2 7407   1.844   4.338  17.734  0.7283  0.1558 -1.1140
  495TMC3    C1 7408   0.652   1.500  14.287  0.0362  1.2975  0.6757
  495TMC3    C2 7409   0.581   1.532  14.177 -0.2958 -0.3548 -0.0082
  495TMC3    C3 7410   0.539   1.666  14.165  0.4433 -0.4797 -0.2247
  495TMC3    C4 7411   0.685   1.591  14.383 -0.1855  0.0450  0.0822
  495TMC3    C5 7412   0.643   1.719  14.373  0.5997  0.8567 -1.1258
  495TMC3    C6 7413   0.568   1.757  14.264 -0.0920 -0.2846  0.0636
  495TMC3     C 7414   0.652   1.362  14.317  0.1590 -0.3081  0.3927
  495TMC3     O 7415   0.565   1.293  14.274 -0.2546 -0.1774  0.5270
  495TMC3     H 7416   0.545   1.451  14.116  0.2597 -1.1869  0.7589
  495TMC3    H1 7417   0.729   1.537  14.466 -0.3847  1.6307  1.2172
  495TMC3    H2 7418   0.535   1.861  14.259 -2.1954 -0.9246  0.8442
  495TMC3    C7 7419   0.633   1.793  14.505 -0.0844  0.4225 -0.4513
  495TMC3    C8 7420   0.443   1.705  14.069  0.0915 -0.0325  0.2776
  495TMC3    O1 7421   0.736   1.817  14.568  0.7884  0.3317  0.0447
  495TMC3    O2 7422   0.370   1.805  14.096  0.1798  0.2324 -0.2456
  496MPD2     C 7423   2.677   1.686  14.767  0.0561  0.2246 -0.3579
  496MPD2    C1 7424   2.724   1.667  14.892 -0.2107 -0.3173  0.2659
  496MPD2    C2 7425   2.652   1.715  15.001 -0.0669 -0.2174 -0.8152
  496MPD2    C3 7426   2.534   1.781  14.984 -0.2351 -0.1143 -0.2938
  496MPD2    C4 7427   2.481   1.783  14.858  0.4413 -0.1012  0.1030
  496MPD2    C5 7428   2.555   1.736  14.754  0.2871  0.3014  0.0310
  496MPD2     H 7429   2.698   1.687  15.095 -1.2444 -0.6693 -0.3676
  496MPD2    H1 7430   2.384   1.828  14.843  0.1981 -0.0967  1.6585
  496MPD2    H2 7431   2.733   1.652  14.681  2.1996  2.9156 -0.0173
  496MPD2    H3 7432   2.512   1.750  14.655  3.1568  0.9568 -1.1344
  496MPD2     N 7433   2.459   1.852  15.085  0.0084  0.0890 -0.1367
  496MPD2    H5 7434   2.373   1.895  15.052 -0.5106 -0.6871  0.2067
  496MPD2    N1 7435   2.847   1.603  14.894 -0.3506  0.4627  0.5292
  496MPD2    H7 7436   2.888   1.575  14.806  0.0981  1.9481  0.2630
  497TMC3    C1 7437   2.372   1.932  15.292 -0.4999  0.0417 -1.1442
  497TMC3    C2 7438   2.248   1.888  15.255 -0.3209  0.1744 -0.1046
  497TMC3    C3 7439   2.155   1.859  15.350  0.1685  0.7542 -0.1586
  497TMC3    C4 7440   2.399   1.952  15.425  0.0862  0.0905  0.4070
  497TMC3    C5 7441   2.306   1.923  15.523  0.4901 -0.1476 -0.6088
  497TMC3    C6 7442   2.183   1.881  15.480 -0.0860  0.6283  0.1169
  497TMC3     C 7443   2.477   1.868  15.217  0.2598 -0.5395 -0.1866
  497TMC3     O 7444   2.580   1.845  15.276 -0.6395 -0.8113  0.0141
  497TMC3     H 7445   2.217   1.867  15.153 -2.0639 -1.8718  0.8525
  497TMC3    H1 7446   2.504   1.956  15.455 -0.4239  0.6412  2.1379
  497TMC3    H2 7447   2.104   1.862  15.552 -0.1768  0.7374  0.0452
  497TMC3    C7 7448   2.326   1.919  15.669  0.2221 -0.7650  0.2059
  497TMC3    C8 7449   2.023   1.826  15.303 -0.2867 -0.2794  0.2952
  497TMC3    O1 7450   2.232   1.870  15.729  0.5037  0.6683 -0.5858
  497TMC3    O2 7451   2.019   1.772  15.194  0.7876 -0.2260  0.0266
  498MPD2     C 7452   2.501   2.578  10.398  0.1366  0.3877 -0.2212
  498MPD2    C1 7453   2.628   2.533  10.363 -0.4256  0.1415  1.0696
  498MPD2    C2 7454   2.640   2.397  10.327 -0.0702 -0.5065 -0.0728
  498MPD2    C3 7455   2.537   2.314  10.314  0.0149 -0.4347 -0.0558
  498MPD2    C4 7456   2.413   2.360  10.344  0.1850  0.2776 -0.0028
  498MPD2    C5 7457   2.399   2.484  10.392  0.0420 -0.1656  0.5292
  498MPD2     H 7458   2.736   2.369  10.284  1.6148 -1.6386  4.4451
  498MPD2    H1 7459   2.320   2.307  10.326 -0.2052  0.0770  2.6778
  498MPD2    H2 7460   2.477   2.677  10.436 -0.6948  0.6980 -1.5630
  498MPD2    H3 7461   2.297   2.508  10.419 -0.1237  0.1740 -0.3801
  498MPD2     N 7462   2.567   2.182  10.276  0.1981  0.4961  0.3494
  498MPD2    H5 7463   2.664   2.151  10.272  0.8781  2.7235 -0.7483
  498MPD2    N1 7464   2.747   2.607  10.366  0.2831 -0.2577  0.0638
  498MPD2    H7 7465   2.832   2.557  10.346  0.0637 -0.1311 -1.1639
  499TMC3    C1 7466   2.871   2.803  10.339 -0.3879  0.3093  0.0815
  499TMC3    C2 7467   2.982   2.739  10.383 -0.1328  0.4466  0.5005
  499TMC3    C3 7468   3.102   2.788  10.341 -0.0332 -0.7157  0.1723
  499TMC3    C4 7469   2.872   2.902  10.244  0.4167 -0.2700 -0.3627
  499TMC3    C5 7470   2.995   2.944  10.204  0.0799  0.3688 -0.9926
  499TMC3    C6 7471   3.109   2.890  10.251 -0.0762  0.2218  0.5542
  499TMC3     C 7472   2.748   2.746  10.378  0.5278 -0.7519 -0.0245
  499TMC3     O 7473   2.653   2.821  10.398  0.1116  0.0375  0.3152
  499TMC3     H 7474   2.970   2.665  10.461  0.1026  0.9445  1.0130
  499TMC3    H1 7475   2.779   2.956  10.231 -0.7457 -1.9695  0.9058
  499TMC3    H2 7476   3.206   2.921  10.213 -1.1014  1.1987 -1.2797
  499TMC3    C7 7477   3.014   3.028  10.083 -0.6689  1.0932  0.4966
  499TMC3    C8 7478   3.213   2.689  10.341  0.3393 -0.5812  0.6653
  499TMC3    O1 7479   3.125   3.062  10.045  0.1035  0.6319 -0.5112
  499TMC3    O2 7480   3.172   2.571  10.352  0.0606 -0.3399  0.1057
  500MPD2     C 7481   0.154   3.360   9.714  0.1852  0.4828 -0.3872
  500MPD2    C1 7482   0.111   3.408   9.836 -0.4191  0.4333  0.1157
  500MPD2    C2 7483   4.716   3.374   9.875 -0.4140 -0.5620 -0.9059
  500MPD2    C3 7484   4.631   3.297   9.796 -0.2289  0.5959 -0.1218
  500MPD2    C4 7485   4.680   3.240   9.676  0.3797 -0.4338  0.3723
  500MPD2    C5 7486   0.073   3.282   9.636 -0.4676 -0.4254 -0.2036
  500MPD2     H 7487   4.685   3.422   9.968 -0.6718 -1.0425 -0.7420
  500MPD2    H1 7488   4.618   3.167   9.626 -0.7399  1.4912 -1.0405
  500MPD2    H2 7489   0.252   3.374   9.670  0.4395 -2.3311 -0.7524
  500MPD2    H3 7490   0.118   3.246   9.544 -2.1098 -1.7150 -0.5002
  500MPD2     N 7491   4.499   3.271   9.845  0.2992 -0.0494  0.3085
  500MPD2    H5 7492   4.440   3.218   9.782 -1.5175  2.1903  0.1285
  500MPD2    N1 7493   0.185   3.505   9.906  0.0309  0.8466  0.2062
  500MPD2    H7 7494   0.152   3.537   9.997  1.9684 -0.8972  1.5175
  501TMC3    C1 7495   0.299   3.706   9.907 -0.5917 -0.6636 -0.9775
  501TMC3    C2 7496   0.309   3.812   9.819 -0.1292 -0.3044  0.2705
  501TMC3    C3 7497   0.278   3.938   9.864  0.0760  0.0542  0.1123
  501TMC3    C4 7498   0.277   3.716  10.039 -0.4143 -0.2834 -0.3871
  501TMC3    C5 7499   0.253   3.844  10.082 -0.4917 -0.0026  0.6800
  501TMC3    C6 7500   0.236   3.951   9.998 -0.3114 -0.1933 -0.2164
  501TMC3     C 7501   0.277   3.580   9.843 -0.7571 -0.9550 -0.5752
  501TMC3     O 7502   0.321   3.577   9.729  0.2382 -0.2523 -0.7875
  501TMC3     H 7503   0.350   3.802   9.719 -0.9596 -0.0752 -0.0996
  501TMC3    H1 7504   0.292   3.633  10.107 -1.0891 -0.6448 -0.6857
  501TMC3    H2 7505   0.211   4.045  10.045  0.1192 -0.3739  0.3714
  501TMC3    C7 7506   0.331   3.871  10.200 -0.2275  0.1850 -0.2112
  501TMC3    C8 7507   0.380   4.039   9.825 -0.0675  0.4177 -0.1815
  501TMC3    O1 7508   0.413   3.962  10.200  0.2334  0.3297 -0.0991
  501TMC3    O2 7509   0.390   4.061   9.703  0.6834  0.1569 -0.2422
  502TMC3    C1 7510   4.702   2.921  15.013  0.0821  0.2007 -0.1540
  502TMC3    C2 7511   4.654   3.047  14.992  0.2304  0.4925  0.1583
  502TMC3    C3 7512   4.522   3.067  15.004  0.0276 -0.6537 -0.0560
  502TMC3    C4 7513   4.616   2.816  15.025  0.2669  0.2808  0.6521
  502TMC3    C5 7514   4.484   2.840  15.042 -0.3800 -0.5268  0.9716
  502TMC3    C6 7515   4.431   2.968  15.033 -0.3715  0.2505 -0.1040
  502TMC3     C 7516   0.098   2.916  15.077 -0.0620 -0.0467  0.1832
  502TMC3     O 7517   0.181   3.005  15.057 -0.0248 -0.5062  0.2172
  502TMC3     H 7518   4.718   3.134  14.996  0.4861  0.0929  4.8083
  502TMC3    H1 7519   4.644   2.712  15.017  0.2878  0.4548 -1.7416
  502TMC3    H2 7520   4.328   2.982  15.066  0.3435 -1.2156  2.7931
  502TMC3    C7 7521   4.424   2.737  15.126 -0.3394  0.5411 -0.4157
  502TMC3    C8 7522   4.479   3.204  14.985  0.0959  0.9075 -0.1179
  502TMC3    O1 7523   4.499   2.650  15.166 -0.2399 -0.1998  0.5799
  502TMC3    O2 7524   4.564   3.287  14.963 -0.0447 -0.4206 -0.4704
  503MPD2     C 7525   2.025   3.328  16.755 -0.6605  1.0238  0.1361
  503MPD2    C1 7526   2.008   3.389  16.877  0.2613 -0.0034  0.3322
  503MPD2    C2 7527   2.041   3.319  16.995 -0.3684 -0.0783 -0.3241
  503MPD2    C3 7528   2.093   3.199  16.998  0.3296 -0.2409 -0.2360
  503MPD2    C4 7529   2.109   3.134  16.881  0.4193 -0.6431  0.4235
  503MPD2    C5 7530   2.072   3.199  16.763  0.0940 -0.1819 -0.2112
  503MPD2     H 7531   2.025   3.372  17.088  0.1479 -1.2854  0.4551
  503MPD2    H1 7532   2.152   3.035  16.870  1.9597  0.0397  0.2742
  503MPD2    H2 7533   2.003   3.367  16.657 -0.0598 -0.7000 -0.6809
  503MPD2    H3 7534   2.088   3.150  16.668 -1.1284 -1.3394  0.1754
  503MPD2     N 7535   2.128   3.150  17.123 -0.8894 -0.1494  0.3412
  503MPD2    H5 7536   2.133   3.216  17.200 -0.6897  0.3510 -0.1016
  503MPD2    N1 7537   1.959   3.520  16.890  0.1823 -0.1753  0.3856
  503MPD2    H7 7538   1.966   3.568  16.980 -0.8428  0.8687 -0.0914
  504TMC3    C1 7539   2.249   3.014  17.274  0.4729  0.3534 -0.1435
  504TMC3    C2 7540   2.205   3.087  17.378 -0.3234 -0.9932 -0.0728
  504TMC3    C3 7541   2.305   3.124  17.464 -0.2542 -0.4353  0.5546
  504TMC3    C4 7542   2.379   3.001  17.237  0.4676  0.0525 -0.0523
  504TMC3    C5 7543   2.472   3.058  17.315  0.1281 -0.2772  1.1811
  504TMC3    C6 7544   2.438   3.119  17.433 -0.0646 -0.5893  0.0006
  504TMC3     C 7545   2.167   3.022  17.148 -0.2772 -0.3347  0.4387
  504TMC3     O 7546   2.177   2.931  17.067 -0.3138  0.2923 -0.3048
  504TMC3     H 7547   2.101   3.077  17.406 -0.7505  1.9783 -0.6013
  504TMC3    H1 7548   2.401   2.953  17.143 -4.3082  0.0298 -1.1735
  504TMC3    H2 7549   2.510   3.173  17.493 -1.4123 -0.6624  1.6965
  504TMC3    C7 7550   2.590   3.102  17.247 -0.2020 -0.7853  0.0724
  504TMC3    C8 7551   2.268   3.129  17.600 -0.5936 -0.3690  0.6378
  504TMC3    O1 7552   2.616   3.042  17.146 -0.5755 -0.0545 -0.1408
  504TMC3    O2 7553   2.151   3.152  17.627 -0.0476 -0.0995  0.2702
  505MPD2     C 7554   3.392   0.804  10.604 -0.2584 -0.0472 -0.7662
  505MPD2    C1 7555   3.313   0.898  10.541 -0.1818  0.0686  0.2382
  505MPD2    C2 7556   3.364   1.022  10.503 -1.2835  0.2923  0.4285
  505MPD2    C3 7557   3.501   1.043  10.513 -0.2439 -0.1821  0.0632
  505MPD2    C4 7558   3.577   0.950  10.574  0.2621 -0.0401 -0.0840
  505MPD2    C5 7559   3.520   0.839  10.634 -0.5010  0.1473  0.8964
  505MPD2     H 7560   3.303   1.090  10.446  0.8890  0.5687 -1.5623
  505MPD2    H1 7561   3.685   0.960  10.577  0.3500 -1.1677  0.5800
  505MPD2    H2 7562   3.347   0.714  10.645 -1.2685  0.7892 -0.0463
  505MPD2    H3 7563   3.587   0.768  10.680 -0.7724 -0.5711  0.1728
  505MPD2     N 7564   3.560   1.162  10.466 -0.2679  0.4824  0.5437
  505MPD2    H5 7565   3.659   1.162  10.446  0.1478 -1.0696  2.6700
  505MPD2    N1 7566   3.187   0.855  10.497  0.0231 -0.0358  0.6419
  505MPD2    H7 7567   3.193   0.754  10.494 -1.2395 -0.0802 -0.6450
  506TMC3    C1 7568   2.988   0.849  10.362  0.1206  0.9903  0.2725
  506TMC3    C2 7569   2.880   0.919  10.314 -0.0533  0.4286  0.1179
  506TMC3    C3 7570   2.806   0.863  10.213 -0.1318  0.3263 -0.6036
  506TMC3    C4 7571   3.037   0.740  10.296  0.2530  0.0493  0.1382
  506TMC3    C5 7572   2.979   0.698  10.179 -0.1504 -0.1891 -0.4821
  506TMC3    C6 7573   2.857   0.753  10.141  0.0386 -0.7194  0.6148
  506TMC3     C 7574   3.074   0.928  10.447 -0.0007 -0.3734 -0.1893
  506TMC3     O 7575   3.066   1.045  10.437 -0.1126  0.0342  0.2151
  506TMC3     H 7576   2.853   1.007  10.372 -2.5072  0.1880 -0.6493
  506TMC3    H1 7577   3.140   0.714  10.317  0.9103  2.1951 -0.4201
  506TMC3    H2 7578   2.813   0.709  10.052 -0.8500  2.0819 -0.3336
  506TMC3    C7 7579   3.081   0.687  10.076  0.0547  0.9703  0.5820
  506TMC3    C8 7580   2.686   0.919  10.165 -0.2385 -0.3451  0.3736
  506TMC3    O1 7581   3.122   0.576  10.036  0.3356 -0.0804 -0.5649
  506TMC3    O2 7582   2.606   0.840  10.112 -0.1368 -0.7472  0.1986
  507TMC3    C1 7583   2.871   2.720  15.012 -0.2982 -0.5397  0.3687
  507TMC3    C2 7584   2.745   2.706  15.047  0.1088 -0.3648 -0.0725
  507TMC3    C3 7585   2.651   2.713  14.951  0.2446 -0.1077  0.1877
  507TMC3    C4 7586   2.913   2.740  14.884 -0.2598 -0.1223  0.0997
  507TMC3    C5 7587   2.818   2.732  14.785  0.4165  0.8621  0.2484
  507TMC3    C6 7588   2.684   2.721  14.820  0.8002 -0.1407 -0.1722
  507TMC3     C 7589   2.981   2.687  15.096  0.5146  0.2848  0.1385
  507TMC3     O 7590   3.071   2.623  15.038 -0.5153 -0.3612 -0.2554
  507TMC3     H 7591   2.725   2.702  15.153  2.3403 -0.1322  0.3499
  507TMC3    H1 7592   3.019   2.743  14.861  0.2123  1.2569  2.4003
  507TMC3    H2 7593   2.601   2.719  14.750  0.4981 -1.1582  0.2238
  507TMC3    C7 7594   2.840   2.817  14.669 -0.0997  0.8585  0.3871
  507TMC3    C8 7595   2.550   2.811  14.996  0.1526  0.1224 -0.2726
  507TMC3    O1 7596   2.746   2.837  14.594 -0.1272  0.4347 -0.2541
  507TMC3    O2 7597   2.495   2.793  15.106  0.3226  0.2569  0.2167
  508MPD2     C 7598   4.702   0.143  15.894 -0.3060 -0.8360 -0.6736
  508MPD2    C1 7599   4.685   0.240  15.990 -1.2490 -0.3224  0.5152
  508MPD2    C2 7600   4.606   0.345  15.967  0.0169  0.1794  0.4604
  508MPD2    C3 7601   4.553   0.358  15.842 -0.4816  0.0286  0.1274
  508MPD2    C4 7602   4.547   0.254  15.753 -0.0573  0.3034  0.6374
  508MPD2    C5 7603   4.629   0.145  15.775 -0.2120  0.3329  0.0638
  508MPD2     H 7604   4.588   0.419  16.044  1.8372 -0.1767  1.2371
  508MPD2    H1 7605   4.492   0.255  15.660  1.0616 -0.2910 -0.0405
  508MPD2    H2 7606   0.021   0.051  15.910 -0.9176 -0.9763  0.5560
  508MPD2    H3 7607   4.641   0.071  15.697 -2.0579  0.5124 -0.3757
  508MPD2     N 7608   4.476   0.479  15.807  0.5701  0.3110 -0.4071
  508MPD2    H5 7609   4.471   0.556  15.873  0.1512 -0.6565  0.6961
  508MPD2    N1 7610   0.014   0.219  16.114 -0.1252  0.1130  0.5197
  508MPD2    H7 7611   0.086   0.148  16.123 -0.2142  0.0136  0.4534
  509TMC3    C1 7612   4.299   0.813  15.531 -0.1948  0.3541 -0.4200
  509TMC3    C2 7613   4.338   0.908  15.624 -0.9394 -0.5738  0.3428
  509TMC3    C3 7614   4.405   0.863  15.735 -0.5081 -0.4030 -0.1707
  509TMC3    C4 7615   4.302   0.685  15.563  0.4064 -0.3763  1.0415
  509TMC3    C5 7616   4.358   0.644  15.682  0.9153  0.7075 -0.1006
  509TMC3    C6 7617   4.424   0.732  15.759 -0.3003 -0.3172  1.2647
  509TMC3     C 7618   4.253   0.847  15.397  0.0501  0.6124 -0.2023
  509TMC3     O 7619   4.225   0.751  15.327  0.1444  0.0108 -0.3389
  509TMC3     H 7620   4.325   1.011  15.594  0.4737 -0.3185  0.6350
  509TMC3    H1 7621   4.255   0.610  15.500 -0.3078  0.6861  0.3183
  509TMC3    H2 7622   4.451   0.702  15.860  0.4812  0.5720  1.3194
  509TMC3    C7 7623   4.418   0.509  15.681  0.2548 -0.4973 -0.4035
  509TMC3    C8 7624   4.488   0.950  15.821  0.0070  0.2071  0.0520
  509TMC3    O1 7625   4.406   0.446  15.577 -0.6814 -0.5224 -0.4657
  509TMC3    O2 7626   4.555   0.890  15.903 -0.6303 -0.7073  0.0245
  510MPD2     C 7627   1.452   1.777  14.252 -0.4012 -0.6464  0.8482
  510MPD2    C1 7628   1.488   1.846  14.359 -0.3991  0.4302 -0.0713
  510MPD2    C2 7629   1.597   1.935  14.343 -0.5044  0.3731 -0.0782
  510MPD2    C3 7630   1.670   1.942  14.229  0.8843 -0.2065  0.7960
  510MPD2    C4 7631   1.626   1.872  14.119 -0.3825 -0.2697  0.0449
  510MPD2    C5 7632   1.513   1.795  14.131 -0.2224  0.6229 -0.5854
  510MPD2     H 7633   1.632   1.989  14.430 -2.7226  1.3412  0.2085
  510MPD2    H1 7634   1.664   1.876  14.018 -0.2426 -1.5139  0.0534
  510MPD2    H2 7635   1.361   1.720  14.254  0.0159 -1.2947  1.3621
  510MPD2    H3 7636   1.464   1.754  14.044  2.0801 -1.5597 -0.8697
  510MPD2     N 7637   1.794   2.012  14.224 -0.2114 -0.2062 -0.6318
  510MPD2    H5 7638   1.824   2.048  14.314 -0.7833 -0.5363 -0.3081
  510MPD2    N1 7639   1.412   1.824  14.475 -0.5633  0.9402 -0.0797
  510MPD2    H7 7640   1.343   1.750  14.463 -0.0585  0.6727 -1.3697
  511TMC3    C1 7641   1.359   1.818  14.698 -0.2129 -0.0088 -0.3071
  511TMC3    C2 7642   1.346   1.880  14.821  0.7202 -0.5573  0.9655
  511TMC3    C3 7643   1.328   1.801  14.932  0.6605 -0.1317 -0.2710
  511TMC3    C4 7644   1.352   1.685  14.686 -0.6713 -0.1843  0.1899
  511TMC3    C5 7645   1.332   1.611  14.797  0.9539 -0.3557  0.2919
  511TMC3    C6 7646   1.316   1.662  14.922  0.0862  0.1175  0.6574
  511TMC3     C 7647   1.436   1.882  14.598 -0.0804 -0.1763  0.1319
  511TMC3     O 7648   1.486   1.993  14.622 -0.4222 -0.2167 -0.3238
  511TMC3     H 7649   1.364   1.984  14.843  1.5685 -0.8037  1.4238
  511TMC3    H1 7650   1.374   1.631  14.594 -2.2151  0.4927 -0.5845
  511TMC3    H2 7651   1.315   1.600  15.011  1.0888 -1.6230 -0.5497
  511TMC3    C7 7652   1.394   1.480  14.788  0.1877 -0.1143 -0.3605
  511TMC3    C8 7653   1.303   1.873  15.058  0.0083  0.5358 -0.5628
  511TMC3    O1 7654   1.469   1.452  14.694  0.3394 -0.1929  0.5548
  511TMC3    O2 7655   1.318   1.992  15.072 -0.1058  0.2050  0.8016
  512TMC3    C1 7656   0.794   1.231  13.064 -0.1631 -0.3459  0.6950
  512TMC3    C2 7657   0.725   1.341  13.103 -0.2688  0.0572 -0.0325
  512TMC3    C3 7658   0.596   1.350  13.052 -0.8516  0.5926 -0.4609
  512TMC3    C4 7659   0.759   1.145  12.963 -0.7019 -0.4984  0.4680
  512TMC3    C5 7660   0.638   1.167  12.911  0.0347  0.2510  1.2683
  512TMC3    C6 7661   0.550   1.261  12.959 -0.4233  0.1724  0.1242
  512TMC3     C 7662   0.926   1.205  13.124  0.0363  0.4852 -0.0003
  512TMC3     O 7663   0.954   1.292  13.203  0.1131  0.2512 -0.8913
  512TMC3     H 7664   0.763   1.414  13.173  1.0366 -1.1235  0.4879
  512TMC3    H1 7665   0.833   1.079  12.919 -1.0207 -0.4711 -0.1018
  512TMC3    H2 7666   0.445   1.255  12.931 -0.1547 -0.1025 -0.8119
  512TMC3    C7 7667   0.583   1.092  12.795  0.4060  0.4035 -0.0260
  512TMC3    C8 7668   0.496   1.442  13.112  0.1930 -0.7333  0.3896
  512TMC3    O1 7669   0.485   1.139  12.740 -0.3703  0.3571 -0.0080
  512TMC3    O2 7670   0.387   1.437  13.059  0.8072 -0.1289 -0.0654
  513MPD2     C 7671   2.375   0.857  13.683 -0.2954  0.1161  0.5247
  513MPD2    C1 7672   2.387   0.914  13.554 -0.2799  0.4593  0.0155
  513MPD2    C2 7673   2.448   1.033  13.539  0.2013  0.0909  0.4976
  513MPD2    C3 7674   2.491   1.108  13.649 -0.2997  0.2766 -0.1305
  513MPD2    C4 7675   2.476   1.055  13.780  0.1248 -1.0586  0.8186
  513MPD2    C5 7676   2.409   0.930  13.791  0.6820  0.2821  0.2384
  513MPD2     H 7677   2.446   1.072  13.438  0.0073  1.9679  1.2243
  513MPD2    H1 7678   2.513   1.117  13.861  0.9850 -0.4249 -0.0617
  513MPD2    H2 7679   2.339   0.755  13.694  0.1266 -0.0160  0.6746
  513MPD2    H3 7680   2.393   0.883  13.888 -0.8576 -2.3644 -1.2990
  513MPD2     N 7681   2.579   1.215  13.632 -0.3350 -0.7525  0.4087
  513MPD2    H5 7682   2.643   1.233  13.709  0.4819 -3.6434  0.4220
  513MPD2    N1 7683   2.356   0.832  13.442  0.7302 -0.5763 -0.4760
  513MPD2    H7 7684   2.334   0.734  13.456  1.1476 -0.7547 -1.0748
  514TMC3    C1 7685   2.368   0.759  13.223 -0.1751  0.1908  0.1095
  514TMC3    C2 7686   2.339   0.786  13.090 -0.2724 -0.3816  0.5660
  514TMC3    C3 7687   2.394   0.707  12.997  0.0633 -0.2589  0.0250
  514TMC3    C4 7688   2.461   0.661  13.250 -0.4379  0.6713  0.8590
  514TMC3    C5 7689   2.530   0.603  13.152 -0.4929  0.1048  0.3629
  514TMC3    C6 7690   2.489   0.614  13.022  0.6465  0.5699 -0.2383
  514TMC3     C 7691   2.347   0.874  13.313 -0.6114  0.1508 -0.4290
  514TMC3     O 7692   2.339   0.982  13.256  0.4570  0.1989 -0.5323
  514TMC3     H 7693   2.271   0.869  13.075  0.0826 -0.3177 -0.7240
  514TMC3    H1 7694   2.496   0.630  13.348 -0.8987  0.0842  0.8390
  514TMC3    H2 7695   2.531   0.550  12.945 -0.6753  1.8688 -2.0484
  514TMC3    C7 7696   2.602   0.492  13.192 -0.8234  0.3152 -0.1836
  514TMC3    C8 7697   2.339   0.724  12.857  0.5137 -0.6736  0.1406
  514TMC3    O1 7698   2.523   0.404  13.222  0.1324  0.5488  0.0870
  514TMC3    O2 7699   2.250   0.806  12.843  0.0414 -0.5456 -0.1463
  515MPD2     C 7700   0.793   3.095  13.980  0.0956 -0.2111 -0.5143
  515MPD2    C1 7701   0.722   3.108  14.101 -0.0199 -0.0534  1.0767
  515MPD2    C2 7702   0.781   3.167  14.208 -0.5060 -0.3029 -0.3653
  515MPD2    C3 7703   0.907   3.237  14.198  0.2595  0.5087  0.5412
  515MPD2    C4 7704   0.975   3.218  14.071 -0.1144  0.7700  0.2957
  515MPD2    C5 7705   0.921   3.148  13.972  0.8120 -0.2011 -0.0554
  515MPD2     H 7706   0.738   3.166  14.307  0.2957  0.5494 -0.0032
  515MPD2    H1 7707   1.072   3.267  14.062  0.1932  0.0655 -0.2268
  515MPD2    H2 7708   0.756   3.039  13.894  0.1826 -1.4414  0.2432
  515MPD2    H3 7709   0.981   3.145  13.882 -0.3830  1.0785 -0.8971
  515MPD2     N 7710   0.970   3.312  14.303  0.5772  0.0227 -0.2029
  515MPD2    H5 7711   1.055   3.364  14.287 -0.8531  2.4389  0.0870
  515MPD2    N1 7712   0.591   3.053  14.111 -0.5431  0.4976  0.2041
  515MPD2    H7 7713   0.557   3.036  14.017 -0.4668  1.2640  0.0413
  516TMC3    C1 7714   0.390   2.962  14.169 -0.5113  0.0333  0.0967
  516TMC3    C2 7715   0.317   3.054  14.098 -0.2134  0.1115  0.0651
  516TMC3    C3 7716   0.179   3.047  14.104 -0.2888  0.2110  0.1278
  516TMC3    C4 7717   0.330   2.874  14.251  0.5954  0.2255 -0.8230
  516TMC3    C5 7718   0.194   2.868  14.253  0.5317 -0.0551 -1.0127
  516TMC3    C6 7719   0.118   2.944  14.181  0.1882  0.3723 -1.0912
  516TMC3     C 7720   0.524   3.002  14.218  0.5971  0.0886  0.7927
  516TMC3     O 7721   0.546   3.006  14.337 -0.5910 -0.2547  0.2029
  516TMC3     H 7722   0.363   3.133  14.039  1.2583  1.5073  3.0715
  516TMC3    H1 7723   0.392   2.813  14.316 -1.3002 -0.1027  0.6774
  516TMC3    H2 7724   0.011   2.939  14.198  0.7174 -1.5328  1.7029
  516TMC3    C7 7725   0.124   2.784  14.354  0.3989  0.5630  0.2205
  516TMC3    C8 7726   0.085   3.159  14.066  0.3083  0.2222 -0.4769
  516TMC3    O1 7727   0.016   2.735  14.314  0.5608 -0.1512 -0.4037
  516TMC3    O2 7728   4.703   3.131  14.064  0.5450  0.6070 -0.4128
  517MPD2     C 7729   1.004   0.454  17.589  0.3882  0.0525  0.2465
  517MPD2    C1 7730   1.131   0.427  17.533 -0.2709  0.5206  0.2778
  517MPD2    C2 7731   1.242   0.490  17.592  0.2754  0.7944 -0.5913
  517MPD2    C3 7732   1.223   0.573  17.703 -0.7946  0.0832  0.3042
  517MPD2    C4 7733   1.095   0.591   0.012 -0.2682  0.4108  0.4911
  517MPD2    C5 7734   0.985   0.538  17.693 -0.7256  0.0244 -0.0349
  517MPD2     H 7735   1.337   0.475  17.542  0.7652  2.4630 -0.1733
  517MPD2    H1 7736   1.079   0.657   0.097 -1.6013 -0.5734  1.0116
  517MPD2    H2 7737   0.908   0.414  17.557 -0.6196  2.8531 -0.2975
  517MPD2    H3 7738   0.886   0.545  17.737 -1.7530  0.1944 -2.4068
  517MPD2     N 7739   1.331   0.639   0.027 -0.6840 -0.2343  0.2675
  517MPD2    H5 7740   1.308   0.699   0.105 -2.6719 -2.4949  1.4587
  517MPD2    N1 7741   1.144   0.329  17.435 -0.0311  0.7752  0.3641
  517MPD2    H7 7742   1.234   0.318  17.389 -1.0101 -1.7524 -0.9761
  518TMC3    C1 7743   1.060   0.171  17.274 -0.0653  0.1361 -0.1943
  518TMC3    C2 7744   0.975   0.068  17.258 -0.2523 -0.5141  0.3885
  518TMC3    C3 7745   1.013   4.701  17.166  0.1995 -0.4755 -0.2307
  518TMC3    C4 7746   1.181   0.184  17.212 -0.5701  0.0084 -0.2060
  518TMC3    C5 7747   1.215   0.075  17.136  0.3213  0.7451 -0.6841
  518TMC3    C6 7748   1.130   4.715  17.106  0.4689  0.4015  0.1160
  518TMC3     C 7749   1.040   0.239  17.403 -0.2210  0.0393 -0.0883
  518TMC3     O 7750   0.937   0.205  17.457 -0.2054 -0.0674  0.6926
  518TMC3     H 7751   0.886   0.049  17.316 -0.9448 -0.2731 -0.5923
  518TMC3    H1 7752   1.240   0.274  17.230 -2.7101  1.6689 -1.4810
  518TMC3    H2 7753   1.138   4.647  17.021  0.7316 -0.4977  0.8614
  518TMC3    C7 7754   1.349   0.050  17.081  0.1720  0.0747 -0.2849
  518TMC3    C8 7755   0.976   4.564  17.182 -0.1926  0.2084  0.2256
  518TMC3    O1 7756   1.426   0.141  17.048  0.1979  0.7490  0.1372
  518TMC3    O2 7757   1.054   4.479  17.143 -0.5024 -0.3381 -0.0937
  519MPD2     C 7758   2.206   3.148  13.884 -0.2283 -0.1204 -0.2714
  519MPD2    C1 7759   2.188   3.095  13.757  0.1245  0.4291  0.1701
  519MPD2    C2 7760   2.255   2.978  13.726  0.3084  0.0207  0.2205
  519MPD2    C3 7761   2.321   2.903  13.825  0.1019 -0.0540 -0.0869
  519MPD2    C4 7762   2.336   2.963  13.945 -0.1187 -0.1101  0.0713
  519MPD2    C5 7763   2.279   3.084  13.975  0.0634  0.4015  0.1036
  519MPD2     H 7764   2.238   2.924  13.633  0.3508 -0.2055  0.3460
  519MPD2    H1 7765   2.388   2.910  14.024  1.4616  0.8638 -0.3018
  519MPD2    H2 7766   2.168   3.243  13.921  0.0782 -1.0671  2.5030
  519MPD2    H3 7767   2.301   3.123  14.074 -1.1107 -1.7847  1.2526
  519MPD2     N 7768   2.365   2.769  13.795 -0.3356 -0.2823 -0.7985
  519MPD2    H5 7769   2.327   2.732  13.709  0.5069 -1.3255 -0.7266
  519MPD2    N1 7770   2.101   3.160  13.670  0.0049 -0.5770  0.3861
  519MPD2    H7 7771   2.041   3.226  13.718  1.4309  1.5577 -0.7378
  520TMC3    C1 7772   2.482   2.567  13.826 -0.0976  0.1090 -0.0645
  520TMC3    C2 7773   2.375   2.499  13.755  0.1119  0.0832  0.1018
  520TMC3    C3 7774   2.416   2.383  13.695  0.2830 -0.1644  0.7074
  520TMC3    C4 7775   2.605   2.522  13.854  0.0865  0.4893 -0.3667
  520TMC3    C5 7776   2.632   2.408  13.781 -0.5028  0.8122 -0.3110
  520TMC3    C6 7777   2.541   2.336  13.717  0.2235  0.1193 -0.9665
  520TMC3     C 7778   2.445   2.696  13.880 -0.0539  0.2787 -0.1053
  520TMC3     O 7779   2.509   2.732  13.978  0.0387  0.2287  0.1075
  520TMC3     H 7780   2.271   2.527  13.758 -0.0419 -0.3902 -0.6249
  520TMC3    H1 7781   2.680   2.581  13.905 -0.5674  0.3680  0.7241
  520TMC3    H2 7782   2.572   2.240  13.677 -0.4746 -0.1262 -0.9140
  520TMC3    C7 7783   2.765   2.350  13.810  0.4313  0.5010 -0.3818
  520TMC3    C8 7784   2.327   2.309  13.614  0.1972 -0.7496  0.2874
  520TMC3    O1 7785   2.812   2.396  13.917  0.0279 -0.3635 -0.1932
  520TMC3    O2 7786   2.384   2.219  13.550 -0.2927  0.3529 -0.1715
  521MPD2     C 7787   3.207   0.484  16.577  0.1098 -0.1862  0.2230
  521MPD2    C1 7788   3.205   0.613  16.610 -0.2367 -0.2840 -0.0266
  521MPD2    C2 7789   3.322   0.675  16.656 -0.1815 -0.2365  0.0203
  521MPD2    C3 7790   3.440   0.607  16.657  0.1562  0.3376 -0.1266
  521MPD2    C4 7791   3.441   0.475  16.612  0.5691  0.3588 -0.3275
  521MPD2    C5 7792   3.326   0.418  16.569 -0.4962  0.4027 -0.4532
  521MPD2     H 7793   3.323   0.776  16.696 -1.1877 -0.7707  1.4040
  521MPD2    H1 7794   3.533   0.418  16.605  1.7492  2.1416  0.6952
  521MPD2    H2 7795   3.117   0.435  16.543  0.6585 -1.1686  0.1923
  521MPD2    H3 7796   3.337   0.320  16.525  0.0122  0.5429 -0.6436
  521MPD2     N 7797   3.555   0.663  16.705  0.6294  0.1638  1.0176
  521MPD2    H5 7798   3.563   0.764  16.712 -2.4991  0.4250  1.1905
  521MPD2    N1 7799   3.083   0.678  16.600 -0.0079  0.1276 -0.2543
  521MPD2    H7 7800   3.005   0.615  16.585  1.0264 -1.7117  1.9394
  522TMC3    C1 7801   3.785   0.686  16.760 -0.0899  0.6256 -0.0784
  522TMC3    C2 7802   3.889   0.629  16.837  0.4698 -0.1850 -0.4232
  522TMC3    C3 7803   4.009   0.686  16.820 -0.4729 -0.1337 -0.0748
  522TMC3    C4 7804   3.807   0.783  16.668  0.2733 -0.8764 -0.2316
  522TMC3    C5 7805   3.933   0.839  16.661 -0.8288 -0.4035 -0.8624
  522TMC3    C6 7806   4.037   0.798  16.748 -0.3497 -0.7208 -0.3895
  522TMC3     C 7807   3.669   0.595  16.744 -0.2080 -0.2319 -0.8034
  522TMC3     O 7808   3.694   0.476  16.754 -0.0759  0.1147 -0.0763
  522TMC3     H 7809   3.875   0.543  16.901 -1.1793  0.1921 -0.2654
  522TMC3    H1 7810   3.742   0.793  16.582  1.2047 -0.0912 -0.8498
  522TMC3    H2 7811   4.131   0.851  16.756  0.5309 -2.2006 -0.8585
  522TMC3    C7 7812   3.961   0.966  16.596  0.4718 -0.4558 -0.0969
  522TMC3    C8 7813   4.130   0.640  16.892 -0.2167  0.1143 -0.0899
  522TMC3    O1 7814   4.081   1.005  16.595 -0.1473  0.0707  0.1665
  522TMC3    O2 7815   4.122   0.620  17.013  0.2658  0.2832 -0.3555
  523MPD2     C 7816   0.503   0.396   9.373 -0.4477  0.7885  0.1335
  523MPD2    C1 7817   0.571   0.436   9.492 -0.5352 -0.0875  0.1202
  523MPD2    C2 7818   0.595   0.570   9.513 -0.2147  0.4566 -0.6879
  523MPD2    C3 7819   0.554   0.660   9.420 -0.0337  0.6220  0.7097
  523MPD2    C4 7820   0.488   0.625   9.305 -0.1665 -0.2275  0.2291
  523MPD2    C5 7821   0.458   0.493   9.288 -0.4356  0.1825  0.0879
  523MPD2     H 7822   0.651   0.611   9.596 -0.0042 -0.3706 -0.4248
  523MPD2    H1 7823   0.446   0.694   9.233  2.3822 -0.6115 -1.6196
  523MPD2    H2 7824   0.478   0.294   9.347  2.6075  0.0878 -0.0368
  523MPD2    H3 7825   0.393   0.469   9.204 -0.4668 -0.5255  0.3173
  523MPD2     N 7826   0.585   0.801   9.426 -0.2334  0.6922 -0.2651
  523MPD2    H5 7827   0.552   0.848   9.343  0.2173 -0.9744 -1.4038
  523MPD2    N1 7828   0.606   0.329   9.578  0.1730  0.1193  0.2669
  523MPD2    H7 7829   0.571   0.238   9.551  0.4876  1.0888 -3.3521
  524TMC3    C1 7830   0.627   1.013   9.511  0.0331  0.7134 -0.1360
  524TMC3    C2 7831   0.628   1.060   9.382  0.0173 -0.7525  0.1749
  524TMC3    C3 7832   0.615   1.196   9.358 -0.0629  0.1752 -0.0559
  524TMC3    C4 7833   0.595   1.099   9.616 -0.7410 -0.4579  0.9688
  524TMC3    C5 7834   0.574   1.231   9.582 -0.2756  0.0466 -0.1846
  524TMC3    C6 7835   0.583   1.280   9.458 -0.3020  0.2526  0.0169
  524TMC3     C 7836   0.628   0.871   9.533  0.0115 -0.0352  0.8117
  524TMC3     O 7837   0.663   0.830   9.645  0.4704 -0.8204  0.0596
  524TMC3     H 7838   0.683   1.006   9.306  0.7344 -2.3376  1.8012
  524TMC3    H1 7839   0.617   1.074   9.719 -1.6084 -3.3267  0.4591
  524TMC3    H2 7840   0.563   1.381   9.423  1.1834  0.9368  1.1410
  524TMC3    C7 7841   0.531   1.315   9.693 -0.1456 -0.2761  0.1031
  524TMC3    C8 7842   0.639   1.256   9.226  0.1107 -0.7174 -0.0447
  524TMC3    O1 7843   0.508   1.255   9.794 -0.2001  0.2570 -0.0706
  524TMC3    O2 7844   0.662   1.373   9.232 -0.1767  0.2609  0.0981
  525MPD2     C 7845   3.482   2.322  14.325 -0.3171 -0.1546  0.4564
  525MPD2    C1 7846   3.594   2.366  14.398  0.1230  0.1109  0.4760
  525MPD2    C2 7847   3.656   2.485  14.358  0.2631  0.3356  0.1702
  525MPD2    C3 7848   3.608   2.551  14.245  0.1958 -0.4067 -0.0557
  525MPD2    C4 7849   3.497   2.513  14.181 -0.1750 -0.7927  0.5962
  525MPD2    C5 7850   3.433   2.402  14.220  0.4837 -0.1807  0.3470
  525MPD2     H 7851   3.739   2.535  14.406  1.5565 -1.9718  0.3510
  525MPD2    H1 7852   3.453   2.565  14.097 -0.5260 -1.4209  0.3944
  525MPD2    H2 7853   3.432   2.228  14.344  0.0673 -0.1960  1.2799
  525MPD2    H3 7854   3.355   2.361  14.156  2.3367 -1.1617 -1.2845
  525MPD2     N 7855   3.655   2.682  14.219 -0.6457  0.0522  0.5926
  525MPD2    H5 7856   3.582   2.736  14.173 -1.6507 -1.1317  0.8016
  525MPD2    N1 7857   3.659   2.283  14.495 -0.3481 -0.4063  0.2086
  525MPD2    H7 7858   3.746   2.325  14.525  0.8914 -1.4550 -1.9033
  526TMC3    C1 7859   3.681   2.109  14.660 -0.1684 -0.2380 -0.0854
  526TMC3    C2 7860   3.608   2.064  14.764 -0.1349  0.6792  0.0596
  526TMC3    C3 7861   3.676   1.992  14.857  0.3132 -0.6375 -0.0903
  526TMC3    C4 7862   3.814   2.082  14.640  0.4267  0.3362  0.3792
  526TMC3    C5 7863   3.882   2.016  14.742  0.2555  0.5353 -0.3521
  526TMC3    C6 7864   3.807   1.969  14.844 -0.2013 -0.3117 -0.4663
  526TMC3     C 7865   3.604   2.171  14.555  0.8642  0.3481  0.5521
  526TMC3     O 7866   3.489   2.125  14.544  0.0304  0.3711  0.0206
  526TMC3     H 7867   3.502   2.087  14.775 -0.7114 -2.1898  0.6500
  526TMC3    H1 7868   3.872   2.136  14.566 -0.4062  1.2581  0.4033
  526TMC3    H2 7869   3.859   1.915  14.922 -3.3265  1.5442  2.9132
  526TMC3    C7 7870   4.024   2.006  14.732  0.0487 -0.9144 -0.3976
  526TMC3    C8 7871   3.644   2.047  14.984  0.2511  0.5231 -0.2336
  526TMC3    O1 7872   4.086   1.973  14.829  0.9055 -0.7983 -0.4049
  526TMC3    O2 7873   3.725   2.038  15.074 -0.6539 -0.4548 -0.3474
  527MPD2     C 7874   2.223   1.375   0.859  0.5898 -0.2767 -0.4552
  527MPD2    C1 7875   2.147   1.262   0.878 -0.7759  0.3319  0.5568
  527MPD2    C2 7876   2.195   1.147   0.821  0.2184 -0.2245 -0.1510
  527MPD2    C3 7877   2.316   1.142   0.748 -0.4203  0.3208 -0.2033
  527MPD2    C4 7878   2.388   1.254   0.731  0.1857  0.1692  0.1642
  527MPD2    C5 7879   2.336   1.373   0.782 -0.0638  0.1906 -0.1607
  527MPD2     H 7880   2.133   1.058   0.826  1.2904 -0.8739  1.5879
  527MPD2    H1 7881   2.479   1.260   0.671 -1.3599 -0.5936 -2.2611
  527MPD2    H2 7882   2.194   1.474   0.892  0.2232 -0.9033  1.0914
  527MPD2    H3 7883   2.387   1.468   0.769 -0.4699  0.4104 -0.1393
  527MPD2     N 7884   2.358   1.015   0.698  0.2433  0.1329  0.2311
  527MPD2    H5 7885   2.289   0.941   0.704  1.9209 -1.5491 -1.2658
  527MPD2    N1 7886   2.015   1.261   0.927 -0.5512 -0.6164 -0.3870
  527MPD2    H7 7887   1.975   1.169   0.941  0.9557 -0.7959  2.8119
  528TMC3    C1 7888   1.834   1.326   1.063  0.3131  0.0436  1.2922
  528TMC3    C2 7889   1.817   1.381   1.185 -0.1424  0.0682  0.4212
  528TMC3    C3 7890   1.719   1.345   1.265  0.0598 -0.4977 -0.5228
  528TMC3    C4 7891   1.758   1.220   1.030  0.5266 -0.5568 -0.9876
  528TMC3    C5 7892   1.671   1.167   1.122 -0.2531 -0.2234  0.0983
  528TMC3    C6 7893   1.648   1.234   1.239  0.1602 -0.0083 -0.3119
  528TMC3     C 7894   1.945   1.365   0.979 -0.4837 -0.2013 -0.8195
  528TMC3     O 7895   1.966   1.483   0.968  0.1121 -0.3057 -0.4408
  528TMC3     H 7896   1.867   1.475   1.208 -4.0729  1.7838  1.9019
  528TMC3    H1 7897   1.768   1.178   0.931 -0.1675 -0.6777 -1.0034
  528TMC3    H2 7898   1.567   1.206   1.306  0.8142 -0.7314  0.1744
  528TMC3    C7 7899   1.547   1.109   1.075  0.6170 -0.1759 -0.6377
  528TMC3    C8 7900   1.651   1.457   1.314 -0.2362 -0.4514  0.1061
  528TMC3    O1 7901   1.466   1.062   1.150 -0.4223  0.6103  0.6224
  528TMC3    O2 7902   1.673   1.562   1.255 -0.8622  0.0112 -0.2930
  529MPD2     C 7903   4.319   0.312   0.652  1.0576 -0.9598  0.6905
  529MPD2    C1 7904   4.278   0.181   0.634 -0.0886 -0.1717 -0.1603
  529MPD2    C2 7905   4.183   0.158   0.536 -0.3594  0.5268  0.0340
  529MPD2    C3 7906   4.130   0.260   0.459  0.0776 -0.6764 -1.0091
  529MPD2    C4 7907   4.176   0.388   0.480  0.4997  0.2885 -0.7843
  529MPD2    C5 7908   4.277   0.414   0.570 -0.9170 -0.0855  0.2025
  529MPD2     H 7909   4.163   0.053   0.516 -2.1290  0.6456  1.1444
  529MPD2    H1 7910   4.133   0.471   0.426  1.2798  1.3211  0.1885
  529MPD2    H2 7911   4.405   0.331   0.716  1.2531  1.0049 -0.1593
  529MPD2    H3 7912   4.314   0.513   0.595  0.1473  0.1530 -2.2664
  529MPD2     N 7913   4.042   0.244   0.351 -0.0784 -0.4949 -0.3197
  529MPD2    H5 7914   4.035   0.317   0.280  3.6486  0.4137  0.2434
  529MPD2    N1 7915   4.323   0.072   0.717 -0.3001 -0.5083 -0.2120
  529MPD2    H7 7916   4.290   4.715   0.690  0.3329 -0.9275  0.4633
  530TMC3    C1 7917   4.439   4.696   0.887 -0.5035  0.0721 -0.2735
  530TMC3    C2 7918   4.500   4.697   1.004 -0.3385  0.1125  0.3272
  530TMC3    C3 7919   4.524   4.581   1.075 -1.1415 -0.1836 -0.2067
  530TMC3    C4 7920   4.383   4.582   0.842  0.0806 -0.5641 -0.1440
  530TMC3    C5 7921   4.408   4.466   0.915 -0.0655  0.6385 -0.6533
  530TMC3    C6 7922   4.489   4.466   1.022 -0.1356 -0.3993  0.4962
  530TMC3     C 7923   4.410   0.087   0.820  0.4742 -0.9774  0.2205
  530TMC3     O 7924   4.460   0.189   0.866  0.4856 -0.4396  0.0612
  530TMC3     H 7925   4.548   0.049   1.046  1.3832 -0.2779 -0.8196
  530TMC3    H1 7926   4.330   4.555   0.751 -0.2194  0.4731 -0.2684
  530TMC3    H2 7927   4.506   4.380   1.085 -0.6602 -0.1097  1.0332
  530TMC3    C7 7928   4.358   4.344   0.863  0.6813  0.6629 -0.3402
  530TMC3    C8 7929   4.578   4.600   1.211  0.3546  0.6878  0.0921
  530TMC3    O1 7930   4.273   4.346   0.777 -0.1501 -0.0204 -0.2135
  530TMC3    O2 7931   4.539   4.701   1.272  0.5720 -0.1694 -0.0021
  531MPD2     C 7932   3.061   0.726  13.124 -0.0318 -0.1751  0.6963
  531MPD2    C1 7933   2.940   0.778  13.169 -0.3080 -0.0412 -0.1697
  531MPD2    C2 7934   2.824   0.696  13.175 -0.2053 -0.4406  0.4397
  531MPD2    C3 7935   2.829   0.567  13.127  0.8272 -0.2419  0.8243
  531MPD2    C4 7936   2.951   0.515  13.085 -0.5235 -0.2836  0.3900
  531MPD2    C5 7937   3.062   0.593  13.078  0.0002  0.7554 -0.0629
  531MPD2     H 7938   2.733   0.730  13.223  0.1068 -3.0132  2.8838
  531MPD2    H1 7939   2.968   0.413  13.055 -1.4506 -0.6932  1.2595
  531MPD2    H2 7940   3.151   0.786  13.120  0.6686 -1.2830 -0.1338
  531MPD2    H3 7941   3.157   0.553  13.045  0.2143  0.6780  0.6528
  531MPD2     N 7942   2.727   0.474  13.130  0.0577  0.2150 -0.1404
  531MPD2    H5 7943   2.762   0.379  13.120  0.3558  0.4115 -0.9655
  531MPD2    N1 7944   2.940   0.910  13.210 -0.9224 -0.9204  0.2169
  531MPD2    H7 7945   3.035   0.942  13.221 -0.6268 -1.0631 -1.8687
  532TMC3    C1 7946   2.867   1.110  13.320  0.6309 -0.0063 -0.7444
  532TMC3    C2 7947   2.754   1.187  13.346 -0.2282  0.2172  0.0824
  532TMC3    C3 7948   2.742   1.257  13.464 -0.2364 -0.1686 -0.2585
  532TMC3    C4 7949   2.969   1.109  13.408  0.1113 -0.8135  1.0795
  532TMC3    C5 7950   2.957   1.178  13.527 -0.1198 -0.4973 -0.5510
  532TMC3    C6 7951   2.844   1.253  13.556  0.6619 -0.6125  0.2266
  532TMC3     C 7952   2.833   0.991  13.246  0.4729 -0.2380 -0.3366
  532TMC3     O 7953   2.717   0.968  13.227  0.0694  0.5594 -0.0226
  532TMC3     H 7954   2.672   1.192  13.276  1.6196  0.6225 -2.0624
  532TMC3    H1 7955   3.057   1.051  13.380 -1.0694 -2.7824  1.4492
  532TMC3    H2 7956   2.826   1.306  13.648  3.0748  1.7077 -0.6335
  532TMC3    C7 7957   3.067   1.182  13.619  0.3475 -0.7705  0.1905
  532TMC3    C8 7958   2.604   1.263  13.507 -0.2705  0.0874  0.0798
  532TMC3    O1 7959   3.079   1.276  13.693 -0.7785 -0.0692 -0.2428
  532TMC3    O2 7960   2.533   1.290  13.412  0.1757  0.2048  0.1296
  533TMC3    C1 7961   3.739   2.904  14.257  0.0428 -0.6603 -0.6513
  533TMC3    C2 7962   3.859   2.971  14.267  0.5773 -0.0958 -0.4083
  533TMC3    C3 7963   3.849   3.101  14.304 -0.2573 -0.6236 -0.5369
  533TMC3    C4 7964   3.621   2.967  14.276 -0.2948  0.9747 -0.4618
  533TMC3    C5 7965   3.620   3.089  14.330  0.0657  1.0663  0.5351
  533TMC3    C6 7966   3.730   3.157  14.350 -0.7865 -0.1051  0.3308
  533TMC3     C 7967   3.758   2.760  14.273  0.3982  0.3874 -0.3634
  533TMC3     O 7968   3.868   2.717  14.313  0.1529  0.0340  0.4157
  533TMC3     H 7969   3.959   2.933  14.247  0.2669 -1.2830  0.2379
  533TMC3    H1 7970   3.534   2.906  14.256  0.9264 -1.4789  1.6341
  533TMC3    H2 7971   3.726   3.261  14.380 -1.7271  0.3475 -1.3330
  533TMC3    C7 7972   3.534   3.083  14.446 -0.0516  0.3950 -0.7125
  533TMC3    C8 7973   3.968   3.181  14.328 -0.3206  0.3405 -0.2504
  533TMC3    O1 7974   3.480   2.976  14.465  0.0051 -0.2029  0.0495
  533TMC3    O2 7975   3.932   3.270  14.407  0.6717 -0.7067 -0.1739
  534MPD2     C 7976   2.236   3.971   0.766 -0.0252  0.2409  0.3150
  534MPD2    C1 7977   2.200   4.101   0.748  0.2872  0.0018  0.7371
  534MPD2    C2 7978   2.064   4.130   0.736  0.4816  0.2211  0.5400
  534MPD2    C3 7979   1.971   4.033   0.739  0.0726  0.1781  0.1061
  534MPD2    C4 7980   2.006   3.905   0.754  0.5439  0.3194 -0.0048
  534MPD2    C5 7981   2.141   3.874   0.781  0.0380  0.5220  0.4261
  534MPD2     H 7982   2.033   4.232   0.713  0.3811  0.7103  2.8130
  534MPD2    H1 7983   1.932   3.827   0.737  1.1808 -0.5851  1.3644
  534MPD2    H2 7984   2.339   3.937   0.769 -0.2672 -0.6253 -1.3703
  534MPD2    H3 7985   2.175   3.771   0.783  2.1808  1.1930 -1.2790
  534MPD2     N 7986   1.835   4.056   0.733  0.0263 -0.2233  0.1148
  534MPD2    H5 7987   1.764   3.987   0.754 -1.8593  1.4464 -0.7216
  534MPD2    N1 7988   2.297   4.203   0.732 -0.8010 -0.0065 -0.5242
  534MPD2    H7 7989   2.264   4.297   0.714  0.5039  0.7727  1.1503
  535TMC3    C1 7990   1.638   4.167   0.734 -0.1451 -0.5071  0.1213
  535TMC3    C2 7991   1.570   4.131   0.849  0.9040 -0.6396 -0.2685
  535TMC3    C3 7992   1.437   4.130   0.834  0.1683 -0.1939  0.5630
  535TMC3    C4 7993   1.576   4.182   0.612  0.5770  0.9120  0.1772
  535TMC3    C5 7994   1.443   4.155   0.601  0.3590 -0.2687 -0.0181
  535TMC3    C6 7995   1.372   4.135   0.711 -0.1380 -0.4279  0.8816
  535TMC3     C 7996   1.781   4.179   0.729  0.7101 -0.2302 -1.2729
  535TMC3     O 7997   1.826   4.289   0.702 -0.4292 -0.5799 -0.1132
  535TMC3     H 7998   1.614   4.114   0.946  1.1053 -2.8745 -0.7544
  535TMC3    H1 7999   1.639   4.225   0.534  1.2259  0.6774  0.5772
  535TMC3    H2 8000   1.265   4.123   0.696  0.1574  1.8707 -3.0495
  535TMC3    C7 8001   1.370   4.241   0.507  0.1963 -0.0606 -0.1240
  535TMC3    C8 8002   1.338   4.148   0.941 -0.3491 -0.5178  0.3597
  535TMC3    O1 8003   1.322   4.185   0.408 -0.6170 -0.1003 -0.0797
  535TMC3    O2 8004   1.221   4.115   0.924  0.1253  0.5326 -0.4272
  536MPD2     C 8005   0.651   2.479  16.275  0.3140  0.4274  0.2371
  536MPD2    C1 8006   0.540   2.424  16.327 -0.1814  0.0289  0.2171
  536MPD2    C2 8007   0.421   2.468  16.276  0.4701 -0.1584 -0.2587
  536MPD2    C3 8008   0.419   2.542  16.154 -0.1059 -0.1324  0.1132
  536MPD2    C4 8009   0.538   2.584  16.097  0.0777  0.3527  0.7454
  536MPD2    C5 8010   0.645   2.561  16.167 -0.0355  0.4151  0.4433
  536MPD2     H 8011   0.331   2.421  16.314  1.5656 -0.7769  1.5761
  536MPD2    H1 8012   0.549   2.650  16.011  0.8204 -0.4796  0.2054
  536MPD2    H2 8013   0.745   2.464  16.327 -0.1210  0.0145  0.9118
  536MPD2    H3 8014   0.734   2.619  16.147  0.0830 -0.3478 -1.2748
  536MPD2     N 8015   0.298   2.577  16.089 -0.3027  0.5907 -0.2585
  536MPD2    H5 8016   0.302   2.623  15.998 -1.5597  1.4969  0.1365
  536MPD2    N1 8017   0.553   2.327  16.437  0.0715  0.1659 -0.1969
  536MPD2    H7 8018   0.648   2.290  16.443  1.2733  3.2294 -0.2111
  537TMC3    C1 8019   0.493   2.172  16.615 -0.9608 -0.2211  0.4739
  537TMC3    C2 8020   0.598   2.200  16.697  1.4009 -0.4819  0.6189
  537TMC3    C3 8021   0.642   2.110  16.786  0.1223  0.2484 -0.4115
  537TMC3    C4 8022   0.407   2.073  16.660  0.0980  0.0718  0.0941
  537TMC3    C5 8023   0.450   1.984  16.748 -0.1603 -0.0856  0.9584
  537TMC3    C6 8024   0.566   1.999  16.814 -0.0569 -0.0903 -0.1257
  537TMC3     C 8025   0.452   2.247  16.498 -0.0816 -0.2551  0.4777
  537TMC3     O 8026   0.332   2.255  16.471  0.4193  0.1303  0.3406
  537TMC3     H 8027   0.657   2.289  16.676  0.5417 -0.0656 -0.0100
  537TMC3    H1 8028   0.315   2.062  16.605 -0.4308  0.2862  0.9465
  537TMC3    H2 8029   0.597   1.920  16.881  2.0011  1.1409  0.4039
  537TMC3    C7 8030   0.347   1.890  16.799  0.1952 -0.0690 -0.0864
  537TMC3    C8 8031   0.742   2.151  16.882  0.6575  0.2273 -0.4661
  537TMC3    O1 8032   0.239   1.886  16.739  0.6661  0.2547 -0.1019
  537TMC3    O2 8033   0.761   2.270  16.892  0.0593 -0.1784  0.7196
  538TMC3    C1 8034   1.476   0.364  10.981  0.3467  0.0573 -0.4457
  538TMC3    C2 8035   1.613   0.364  10.971 -0.4142 -0.2425  0.2437
  538TMC3    C3 8036   1.669   0.424  10.859  0.2903 -0.6665  0.2559
  538TMC3    C4 8037   1.396   0.427  10.890 -0.4447  0.4192 -0.2998
  538TMC3    C5 8038   1.460   0.501  10.790  0.1339 -0.5575  0.0667
  538TMC3    C6 8039   1.593   0.491  10.765 -0.1642 -0.0126 -0.3861
  538TMC3     C 8040   1.428   0.264  11.075 -0.6258 -0.1843  0.4529
  538TMC3     O 8041   1.380   0.157  11.034 -0.0614 -0.3298 -0.1680
  538TMC3     H 8042   1.678   0.323  11.047  2.7489  0.4225 -2.1199
  538TMC3    H1 8043   1.290   0.433  10.913  0.0643  0.5847  2.0957
  538TMC3    H2 8044   1.634   0.538  10.677 -1.1324  1.2595 -0.1509
  538TMC3    C7 8045   1.368   0.559  10.694 -0.7645 -0.0927  0.5658
  538TMC3    C8 8046   1.807   0.448  10.870 -0.9586 -0.2432 -0.4084
  538TMC3    O1 8047   1.249   0.565  10.718  0.1616 -0.1498 -0.0522
  538TMC3    O2 8048   1.859   0.447  10.983 -0.1003 -0.3433 -0.3082
  539MPD2     C 8049   1.162   4.243  11.688 -0.0279  0.4165 -0.3190
  539MPD2    C1 8050   1.155   4.246  11.551 -0.6170 -0.0978 -0.0755
  539MPD2    C2 8051   1.151   4.376  11.499  0.2063 -0.4722  0.3134
  539MPD2    C3 8052   1.169   4.490  11.574 -0.4831  1.0984 -0.0653
  539MPD2    C4 8053   1.169   4.474  11.714 -0.0279 -0.1865 -1.0266
  539MPD2    C5 8054   1.157   4.353  11.771  0.6576 -1.3222  0.2589
  539MPD2     H 8055   1.137   4.384  11.392  0.9875  0.3914  0.2685
  539MPD2    H1 8056   1.178   4.556  11.784 -0.5678 -2.1645  1.3765
  539MPD2    H2 8057   1.173   4.151  11.745  0.1770  0.7588  0.1997
  539MPD2    H3 8058   1.152   4.339  11.879 -0.4658 -0.2421  0.3584
  539MPD2     N 8059   1.176   4.626  11.532 -0.2750 -0.8533 -0.0207
  539MPD2    H5 8060   1.183   4.698  11.604  0.7885  0.0363 -1.0057
  539MPD2    N1 8061   1.159   4.131  11.468 -0.1758  0.4151 -0.2685
  539MPD2    H7 8062   1.153   4.147  11.368 -0.4393  2.4352  0.0778
  540TMC3    C1 8063   1.140   0.077  11.398  0.2558  0.6077  0.5241
  540TMC3    C2 8064   1.117   0.129  11.277 -0.0764 -0.4673 -0.2154
  540TMC3    C3 8065   1.084   0.261  11.266 -0.2684  0.5265 -0.4551
  540TMC3    C4 8066   1.126   0.144  11.520 -0.0029  0.2700 -0.6180
  540TMC3    C5 8067   1.089   0.278  11.498  0.2381 -0.6508  0.1314
  540TMC3    C6 8068   1.076   0.343  11.378  0.7081  0.0120  0.2016
  540TMC3     C 8069   1.153   4.666  11.407  0.3351  0.4077 -0.1467
  540TMC3     O 8070   1.110   4.606  11.311 -0.0078 -0.4519 -0.0112
  540TMC3     H 8071   1.123   0.067  11.189 -0.6325 -0.0695 -0.5303
  540TMC3    H1 8072   1.119   0.100  11.619  1.0453 -1.3546 -1.2702
  540TMC3    H2 8073   1.043   0.446  11.378  1.4406  0.2442  0.9091
  540TMC3    C7 8074   1.017   0.340  11.605  0.3331  1.0863  0.0750
  540TMC3    C8 8075   1.051   0.321  11.138  0.9046  0.3864  0.6134
  540TMC3    O1 8076   0.924   0.410  11.574  0.1445 -0.2013  0.3109
  540TMC3    O2 8077   1.088   0.436  11.119  0.0368 -0.1695 -0.0882
  541MPD2     C 8078   4.669   1.387  13.288  1.0297 -0.3283 -0.0867
  541MPD2    C1 8079   4.575   1.349  13.196  0.1615 -0.0088  0.0064
  541MPD2    C2 8080   4.610   1.351  13.059  0.5976  0.6440  0.7249
  541MPD2    C3 8081   4.729   1.407  13.019 -0.2565 -0.2242 -0.1037
  541MPD2    C4 8082   0.076   1.459  13.114  0.7373 -1.1063 -0.4484
  541MPD2    C5 8083   0.049   1.450  13.248 -0.5153 -0.4564  0.4236
  541MPD2     H 8084   4.540   1.314  12.985  1.9505  1.8370 -1.1586
  541MPD2    H1 8085   0.164   1.514  13.084  0.6315 -1.5673 -1.6069
  541MPD2    H2 8086   4.648   1.396  13.393  0.2153 -2.6324 -0.0627
  541MPD2    H3 8087   0.119   1.495  13.318  0.2783 -2.3951  0.9002
  541MPD2     N 8088   0.012   1.449  12.887 -0.5546  0.4609  0.0168
  541MPD2    H5 8089   0.072   1.530  12.871 -1.1880  0.8227 -0.4910
  541MPD2    N1 8090   4.452   1.301  13.251 -0.2923 -0.4891  0.0862
  541MPD2    H7 8091   4.440   1.318  13.350  1.7660 -2.4776  0.6630
  542TMC3    C1 8092   4.675   1.497  12.672 -0.7768 -0.2070  0.1746
  542TMC3    C2 8093   4.636   1.455  12.548  0.0641 -0.0006  0.1380
  542TMC3    C3 8094   4.614   1.558  12.453  0.2881  0.9285 -0.1184
  542TMC3    C4 8095   4.695   1.632  12.709 -0.3805  0.2536 -0.2532
  542TMC3    C5 8096   4.668   1.725  12.608 -0.6670 -0.3696  0.0217
  542TMC3    C6 8097   4.627   1.689  12.479  0.2186  0.1555 -0.0536
  542TMC3     C 8098   4.671   1.405  12.784  0.5524 -0.0231 -0.4024
  542TMC3     O 8099   4.606   1.303  12.770  0.5296  0.5651 -0.2417
  542TMC3     H 8100   4.618   1.350  12.527 -1.1897 -0.1522  2.0428
  542TMC3    H1 8101   4.717   1.664  12.811 -0.7597  0.7652 -0.3349
  542TMC3    H2 8102   4.611   1.765  12.403 -0.0771  0.4687  0.3301
  542TMC3    C7 8103   4.671   1.864  12.648  0.2798  0.4537 -0.6917
  542TMC3    C8 8104   4.607   1.517  12.312  0.4758  0.0257  0.2888
  542TMC3    O1 8105   4.714   1.890  12.760 -0.7170 -0.2911 -0.8301
  542TMC3    O2 8106   4.535   1.588  12.238 -0.5133  0.1309  0.1831
  543TMC3    C1 8107   3.540   3.521  17.287 -0.3170 -0.0021 -0.0141
  543TMC3    C2 8108   3.573   3.395  17.326  0.3980  0.7718 -0.0482
  543TMC3    C3 8109   3.605   3.385  17.459 -0.3821  0.2751 -0.6085
  543TMC3    C4 8110   3.552   3.629  17.365  0.2748  0.2348  0.5732
  543TMC3    C5 8111   3.593   3.609  17.496 -0.8211  0.0517  0.1403
  543TMC3    C6 8112   3.622   3.490  17.549  0.7445  0.2874  0.9483
  543TMC3     C 8113   3.499   3.530  17.144 -0.4060  0.0059 -0.1561
  543TMC3     O 8114   3.421   3.623  17.124  0.2804 -0.3858  0.2936
  543TMC3     H 8115   3.552   3.305  17.270 -0.3507  0.9803 -0.1037
  543TMC3    H1 8116   3.521   3.728  17.334  2.4424  1.4184  2.2527
  543TMC3    H2 8117   3.674   3.484  17.645  0.9939  0.2658  0.8119
  543TMC3    C7 8118   3.608   3.726  17.578 -0.0929 -0.2495  0.0926
  543TMC3    C8 8119   3.660   3.261  17.492 -0.7359 -0.2412 -0.4184
  543TMC3    O1 8120   3.573   3.714  17.695  0.1863 -0.4277 -0.5414
  543TMC3    O2 8121   3.718   3.198  17.407 -0.1162  0.4103  0.0121
  544MPD2     C 8122   3.545   2.854   0.023 -0.2142 -0.4440  0.1059
  544MPD2    C1 8123   3.638   2.859  17.665 -0.0022  0.5477  0.5288
  544MPD2    C2 8124   3.681   2.978  17.621 -0.9882  0.1567 -0.2112
  544MPD2    C3 8125   3.618   3.092  17.671 -0.2952 -0.0985  0.0722
  544MPD2    C4 8126   3.534   3.083   0.044 -0.1650  0.3228  0.6691
  544MPD2    C5 8127   3.490   2.961   0.089 -0.5790 -0.6690 -0.3704
  544MPD2     H 8128   3.743   2.995  17.533 -0.6936 -1.3658 -0.2992
  544MPD2    H1 8129   3.488   3.170   0.089  0.5989  2.8576 -3.4464
  544MPD2    H2 8130   3.515   2.755   0.057 -2.1175  0.3628  0.7638
  544MPD2    H3 8131   3.411   2.949   0.163  0.3671 -0.6842  0.6257
  544MPD2     N 8132   3.614   3.220  17.611 -0.1753  0.1115  0.6888
  544MPD2    H5 8133   3.556   3.288  17.661 -0.6717 -0.2850  0.6493
  544MPD2    N1 8134   3.679   2.733  17.615 -0.0803  0.2295 -0.7512
  544MPD2    H7 8135   3.656   2.643  17.655  0.4191  0.1399 -0.6674
  545TMC3    C1 8136   3.801   2.577  17.499  0.4888 -0.2167  0.1924
  545TMC3    C2 8137   3.935   2.545  17.505 -0.6606  0.1172 -0.3898
  545TMC3    C3 8138   3.968   2.413  17.505  0.5238 -0.2307 -0.6037
  545TMC3    C4 8139   3.699   2.486  17.505 -0.6093  0.2496 -0.4175
  545TMC3    C5 8140   3.737   2.354  17.510  0.7217  0.0836  0.2219
  545TMC3    C6 8141   3.875   2.318  17.513  0.0888  0.0771  0.6465
  545TMC3     C 8142   3.771   2.711  17.515  0.4363  0.0748  0.1816
  545TMC3     O 8143   3.824   2.792  17.439  0.6232  0.0882  0.0930
  545TMC3     H 8144   4.000   2.631  17.494 -1.2812  0.8234  1.5159
  545TMC3    H1 8145   3.595   2.518  17.503 -1.3041 -2.0256 -0.3049
  545TMC3    H2 8146   3.908   2.215  17.513  2.5043  0.8608 -1.0340
  545TMC3    C7 8147   3.635   2.259  17.493 -0.2975 -0.1333 -0.8119
  545TMC3    C8 8148   4.107   2.388  17.526  0.5376  0.3509  0.5975
  545TMC3    O1 8149   3.538   2.298  17.431 -0.0693  0.1770  0.1663
  545TMC3    O2 8150   4.122   2.275  17.572  0.3060  0.3373 -0.2372
  546MPD2     C 8151   0.795   3.001  17.202 -0.1346  0.0629  0.3545
  546MPD2    C1 8152   0.692   3.086  17.199 -0.1510  0.0899  0.1546
  546MPD2    C2 8153   0.719   3.222  17.187  0.5033  0.2302 -0.2310
  546MPD2    C3 8154   0.847   3.265  17.175  0.2610 -0.3031  0.0886
  546MPD2    C4 8155   0.946   3.175  17.149  0.5228  0.4752 -0.3394
  546MPD2    C5 8156   0.927   3.045  17.183  0.7837 -0.1922  0.6668
  546MPD2     H 8157   0.644   3.300  17.186  0.5008  0.2807  2.7670
  546MPD2    H1 8158   1.045   3.213  17.122  1.0328 -1.0245 -0.5486
  546MPD2    H2 8159   0.769   2.896  17.192 -0.5321  0.2006 -0.0906
  546MPD2    H3 8160   1.003   2.970  17.166 -1.3417 -2.1957  0.1141
  546MPD2     N 8161   0.876   3.400  17.148 -0.3940  0.3473 -0.2556
  546MPD2    H5 8162   0.944   3.429  17.078 -1.1235  1.3041 -0.5568
  546MPD2    N1 8163   0.560   3.038  17.191 -0.3436 -0.2242  0.0149
  546MPD2    H7 8164   0.544   2.938  17.202 -0.0589 -0.1855  0.7832
  547TMC3    C1 8165   0.335   3.034  17.162  0.5662 -0.0914  0.0733
  547TMC3    C2 8166   0.232   3.073  17.088  0.1836 -0.0743  0.3852
  547TMC3    C3 8167   0.111   3.013  17.109  0.2498 -0.0219 -0.4408
  547TMC3    C4 8168   0.326   2.929  17.243 -0.3672 -0.2910 -1.0354
  547TMC3    C5 8169   0.203   2.870  17.266 -0.1452  0.4011  0.9033
  547TMC3    C6 8170   0.092   2.914  17.199 -0.1141 -0.8089 -0.1326
  547TMC3     C 8171   0.453   3.112  17.152 -0.1569  0.5109 -0.5275
  547TMC3     O 8172   0.447   3.224  17.105 -0.0931 -0.3369  0.0772
  547TMC3     H 8173   0.241   3.147  17.010  1.4668  0.1687  0.7639
  547TMC3    H1 8174   0.402   2.921  17.319 -0.0671  0.5069 -1.2515
  547TMC3    H2 8175   0.000   2.857  17.201 -1.3030  1.0908 -0.5971
  547TMC3    C7 8176   0.168   2.806  17.390 -0.4389 -0.5482 -0.0455
  547TMC3    C8 8177   4.727   3.059  17.036 -0.1127  0.5201  0.4705
  547TMC3    O1 8178   0.047   2.804  17.411 -0.3158 -0.0562 -0.6813
  547TMC3    O2 8179   4.622   2.991  17.042 -0.8374  0.1908 -0.8968
  548MPD2     C 8180   0.234   3.381  11.835  0.0044 -0.7965 -0.4460
  548MPD2    C1 8181   0.256   3.281  11.935 -0.4133 -0.0296 -0.1480
  548MPD2    C2 8182   0.365   3.204  11.917 -0.3211  0.2199  0.4172
  548MPD2    C3 8183   0.451   3.215  11.806  0.2431  0.2373 -0.3089
  548MPD2    C4 8184   0.427   3.307  11.710  0.1081  0.4413  0.6141
  548MPD2    C5 8185   0.319   3.389  11.723 -0.1092 -0.0315  0.0837
  548MPD2     H 8186   0.403   3.136  11.992 -1.2014  0.6753  1.2737
  548MPD2    H1 8187   0.485   3.328  11.621  0.0668  0.2217  0.5358
  548MPD2    H2 8188   0.152   3.451  11.847 -0.3471 -1.2807 -0.0067
  548MPD2    H3 8189   0.301   3.466  11.649 -3.2254 -1.1834 -0.3839
  548MPD2     N 8190   0.563   3.125  11.803 -0.5823 -0.2103  0.4985
  548MPD2    H5 8191   0.556   3.044  11.864 -1.3573 -0.6198 -0.1324
  548MPD2    N1 8192   0.174   3.265  12.044  0.6741  0.2276  0.0613
  548MPD2    H7 8193   0.092   3.324  12.053  0.5511  0.2826 -1.4772
  549TMC3    C1 8194   0.090   3.165  12.242 -0.2986 -0.1101  0.2077
  549TMC3    C2 8195   4.734   3.269  12.263 -0.2313  0.3202  0.6264
  549TMC3    C3 8196   4.670   3.273  12.380  0.3513  0.4154  0.3867
  549TMC3    C4 8197   0.116   3.076  12.342 -0.5037  0.0333 -1.0795
  549TMC3    C5 8198   0.053   3.087  12.460  1.1013  0.9089 -0.0733
  549TMC3    C6 8199   4.700   3.191  12.483  0.0432  0.7286  0.1426
  549TMC3     C 8200   0.175   3.153  12.128  0.2383 -0.0853 -0.1569
  549TMC3     O 8201   0.223   3.044  12.103 -0.4243 -0.1205 -0.0626
  549TMC3     H 8202   4.714   3.347  12.191 -1.2238 -1.3204 -0.8840
  549TMC3    H1 8203   0.190   3.000  12.318 -0.1171 -0.1745  0.7591
  549TMC3    H2 8204   4.638   3.194  12.572 -1.0458 -1.0451 -0.5595
  549TMC3    C7 8205   0.117   3.027  12.567 -0.0435  0.1536  0.1205
  549TMC3    C8 8206   4.546   3.344  12.385 -0.1681 -0.4251  0.8023
  549TMC3    O1 8207   0.156   3.105  12.651 -0.2367  0.0891 -0.2503
  549TMC3    O2 8208   4.455   3.278  12.437 -0.4718 -0.7436  0.2047
  550TMC3    C1 8209   4.041   0.909  12.240 -0.2224 -0.1364  0.1815
  550TMC3    C2 8210   4.065   1.042  12.263 -0.2440 -0.2002 -0.8168
  550TMC3    C3 8211   3.962   1.125  12.293 -0.4183  0.3095  0.3143
  550TMC3    C4 8212   3.920   0.851  12.221 -0.4327  0.8659 -0.5401
  550TMC3    C5 8213   3.813   0.940  12.243  0.2944  0.5691 -0.2853
  550TMC3    C6 8214   3.831   1.072  12.285  1.0249  0.4518  0.0907
  550TMC3     C 8215   4.140   0.851  12.157  0.0899  0.1400 -0.6350
  550TMC3     O 8216   4.256   0.843  12.204  0.0884 -0.1131  0.0301
  550TMC3     H 8217   4.165   1.081  12.247 -0.1061  0.5978  2.0262
  550TMC3    H1 8218   3.907   0.746  12.197  0.6712  0.5077  0.4228
  550TMC3    H2 8219   3.752   1.141  12.310  1.2102  0.4542  0.6622
  550TMC3    C7 8220   3.677   0.887  12.248 -0.0053 -0.2815 -0.1486
  550TMC3    C8 8221   3.966   1.267  12.265 -1.4059 -0.4433 -0.2402
  550TMC3    O1 8222   3.577   0.957  12.230 -0.1421 -0.2564 -0.1367
  550TMC3    O2 8223   3.872   1.339  12.299  0.2673 -0.4953  0.4239
  551TMC3    C1 8224   0.983   4.044  12.915 -0.0034  0.3654  0.7721
  551TMC3    C2 8225   1.020   4.157  12.849  0.2036 -1.2590  0.4022
  551TMC3    C3 8226   1.080   4.255  12.919 -0.3671  0.8217 -0.8071
  551TMC3    C4 8227   0.996   4.034  13.053  0.1411 -0.3798  0.1357
  551TMC3    C5 8228   1.060   4.131  13.124  0.2472 -0.5329 -0.5242
  551TMC3    C6 8229   1.107   4.242  13.060  0.5457  0.1691 -0.2370
  551TMC3     C 8230   0.914   3.947  12.843  0.2372 -0.4103 -0.4576
  551TMC3     O 8231   0.959   3.914  12.732 -0.4743 -0.3632  0.2435
  551TMC3     H 8232   1.000   4.167  12.743  0.8097  0.6015  0.4633
  551TMC3    H1 8233   0.968   3.944  13.106  0.4821 -0.0776  0.8319
  551TMC3    H2 8234   1.180   4.307  13.107 -0.7803  1.4060  0.1128
  551TMC3    C7 8235   1.087   4.116  13.267  0.6167  0.5701  1.2980
  551TMC3    C8 8236   1.179   4.321  12.831  0.0426 -0.5637  0.2253
  551TMC3    O1 8237   1.137   4.009  13.307 -0.0426 -0.1175  0.1182
  551TMC3    O2 8238   1.146   4.341  12.715  0.0767  0.0906  0.0222
  552MPD2     C 8239   2.931   1.284  14.065 -0.4513 -0.4427  0.1721
  552MPD2    C1 8240   3.004   1.165  14.048 -0.2159  0.1514 -0.3293
  552MPD2    C2 8241   3.112   1.135  14.127  0.3929 -0.3651 -0.5507
  552MPD2    C3 8242   3.155   1.218  14.232  0.0089  0.2003 -0.9174
  552MPD2    C4 8243   3.095   1.345  14.240 -0.3416  0.9311 -0.7100
  552MPD2    C5 8244   2.984   1.369  14.164 -0.8141  0.6555  0.6511
  552MPD2     H 8245   3.154   1.036  14.114  0.4673 -0.3584 -0.3658
  552MPD2    H1 8246   3.119   1.429  14.305  0.1204  0.2252  0.0221
  552MPD2    H2 8247   2.841   1.313  14.012  0.2666  0.3607 -0.6174
  552MPD2    H3 8248   2.935   1.463  14.189  1.7708  1.8391  1.2221
  552MPD2     N 8249   3.267   1.195  14.311  0.4590 -0.1740 -0.9226
  552MPD2    H5 8250   3.312   1.275  14.353  0.6213  0.7004 -2.7534
  552MPD2    N1 8251   2.960   1.059  13.962 -0.0562  0.5777 -0.0513
  552MPD2    H7 8252   3.011   0.972  13.972 -2.0286 -0.7720 -1.6646
  553TMC3    C1 8253   2.819   0.919  13.835 -0.0573 -0.0666 -0.0744
  553TMC3    C2 8254   2.774   0.890  13.712  0.0321 -0.2311  0.5495
  553TMC3    C3 8255   2.733   0.761  13.690  0.1008  0.5941  0.1920
  553TMC3    C4 8256   2.825   0.824  13.941 -0.5574  0.2980  0.3446
  553TMC3    C5 8257   2.796   0.702  13.904 -0.2127  0.2149  0.4369
  553TMC3    C6 8258   2.735   0.662  13.785 -0.2819 -0.3988 -0.3429
  553TMC3     C 8259   2.849   1.055  13.880  1.2348 -0.2707 -0.2450
  553TMC3     O 8260   2.772   1.149  13.852  0.2901 -1.2373  0.2408
  553TMC3     H 8261   2.774   0.959  13.628 -0.1755  0.9834  1.5385
  553TMC3    H1 8262   2.834   0.857  14.044  0.1862 -1.1464  0.7348
  553TMC3    H2 8263   2.695   0.561  13.783 -0.9179 -0.1451 -0.3435
  553TMC3    C7 8264   2.865   0.608  13.992 -0.1747 -0.6615 -0.7036
  553TMC3    C8 8265   2.798   0.710  13.578  0.3605 -0.8167  0.3975
  553TMC3    O1 8266   2.789   0.525  14.041  0.6238 -0.5986 -0.3272
  553TMC3    O2 8267   2.888   0.776  13.531  0.5134  0.3737 -0.2341
  554TMC3    C1 8268   0.391   0.062  11.343 -0.1144  0.2340  0.5383
  554TMC3    C2 8269   0.318   4.720  11.258  0.5955 -0.6957  0.4076
  554TMC3    C3 8270   0.291   0.029  11.132  0.1465 -0.6658  0.4950
  554TMC3    C4 8271   0.450   0.172  11.289 -0.1101 -0.2361  0.0763
  554TMC3    C5 8272   0.423   0.211  11.159  0.0590  0.7537 -0.6763
  554TMC3    C6 8273   0.346   0.139  11.076  0.2237  0.6554 -0.5219
  554TMC3     C 8274   0.396   0.036  11.482  0.5167 -0.1343  0.0105
  554TMC3     O 8275   0.479   0.106  11.543  0.3020  0.3369 -0.1017
  554TMC3     H 8276   0.289   4.617  11.278  0.4009 -0.9917 -1.3528
  554TMC3    H1 8277   0.509   0.237  11.354 -0.2834  0.0546 -0.0565
  554TMC3    H2 8278   0.316   0.173  10.977 -1.0512  0.9203 -0.0476
  554TMC3    C7 8279   0.491   0.321  11.088 -0.2232 -0.0350 -0.7190
  554TMC3    C8 8280   0.191   4.685  11.056 -0.3512 -0.0220 -0.1292
  554TMC3    O1 8281   0.442   0.365  10.985 -0.6387  0.1281 -0.1958
  554TMC3    O2 8282   0.113   4.616  11.117  0.4257 -0.1296  0.4961
  555TMC3    C1 8283   3.949   4.612  15.066  0.1870  0.3244  0.7114
  555TMC3    C2 8284   4.023   4.654  15.174 -0.1549  0.2104  0.0937
  555TMC3    C3 8285   4.047   4.568  15.279  0.2895 -0.3725  1.0890
  555TMC3    C4 8286   3.901   4.488  15.064 -0.1087 -0.0019  0.0806
  555TMC3    C5 8287   3.924   4.408  15.172  0.3028  0.2260  0.0019
  555TMC3    C6 8288   3.993   4.447  15.285 -0.6287  0.0557  0.7117
  555TMC3     C 8289   3.920   4.711  14.959  0.9144 -0.1492 -0.0579
  555TMC3     O 8290   3.956   0.093  14.973 -0.6662  0.2212  0.6307
  555TMC3     H 8291   4.072   0.015  15.164 -0.7780  0.5374  0.2051
  555TMC3    H1 8292   3.834   4.446  14.990 -0.1131 -0.4077  0.3125
  555TMC3    H2 8293   4.001   4.389  15.376 -1.0236 -0.8813  0.1449
  555TMC3    C7 8294   3.888   4.268  15.167  0.5991 -0.2458 -0.7895
  555TMC3    C8 8295   4.088   4.635  15.404 -0.9181  0.1277  0.0307
  555TMC3    O1 8296   3.801   4.232  15.088 -0.4218 -0.0402 -0.3186
  555TMC3    O2 8297   4.085   0.022  15.399  0.3293 -0.1472 -0.0054
  556MPD2     C 8298   2.985   0.728  10.828 -0.1126 -0.0892 -0.4227
  556MPD2    C1 8299   2.854   0.763  10.848 -0.4711 -0.1868  0.4422
  556MPD2    C2 8300   2.755   0.726  10.752  0.4742  0.0846  0.7924
  556MPD2    C3 8301   2.793   0.641  10.652  0.1583 -0.5380  0.6249
  556MPD2    C4 8302   2.924   0.597  10.642 -0.1541  0.0813  0.3794
  556MPD2    C5 8303   3.014   0.638  10.730  0.6250 -0.1395 -1.3531
  556MPD2     H 8304   2.652   0.754  10.772  0.3930 -0.4382  1.0877
  556MPD2    H1 8305   2.971   0.543  10.560 -1.3401  0.2959 -0.4463
  556MPD2    H2 8306   3.065   0.752  10.896  1.2212  0.3036 -2.1092
  556MPD2    H3 8307   3.115   0.600  10.716  1.4124  0.5737  2.4818
  556MPD2     N 8308   2.704   0.606  10.549  0.8070 -0.2057  1.0847
  556MPD2    H5 8309   2.614   0.653  10.548  0.8658 -0.1781 -2.4330
  556MPD2    N1 8310   2.814   0.852  10.948 -0.1007 -0.4100  0.1692
  556MPD2    H7 8311   2.722   0.894  10.936 -0.2692 -0.6489  0.6332
  557TMC3    C1 8312   2.599   0.543  10.344  0.0711  0.4163  0.3396
  557TMC3    C2 8313   2.613   0.532  10.206 -0.0229 -0.1260 -0.6827
  557TMC3    C3 8314   2.501   0.507  10.133  0.3626  0.4030  0.6884
  557TMC3    C4 8315   2.487   0.530  10.419 -0.1337 -0.1218  0.3148
  557TMC3    C5 8316   2.380   0.505  10.338  0.7591 -0.1907  0.4338
  557TMC3    C6 8317   2.380   0.490  10.199  0.7218 -0.3173 -0.2826
  557TMC3     C 8318   2.723   0.547  10.417 -0.1257 -0.5150 -0.1695
  557TMC3     O 8319   2.830   0.531  10.359 -0.1509  0.6400  0.8767
  557TMC3     H 8320   2.705   0.558  10.155 -0.2892 -1.9927 -2.1188
  557TMC3    H1 8321   2.485   0.531  10.528 -1.9192 -0.7515  0.2805
  557TMC3    H2 8322   2.286   0.486  10.145 -0.1170 -2.2501  1.3387
  557TMC3    C7 8323   2.253   0.529  10.399  0.2800  0.1239  0.1192
  557TMC3    C8 8324   2.516   0.492   9.988 -0.0595 -0.1965  0.3732
  557TMC3    O1 8325   2.150   0.486  10.339 -0.5121 -0.2433 -0.1260
  557TMC3    O2 8326   2.610   0.561   9.948 -0.1071  0.7626  0.3449
  558TMC3    C1 8327   4.310   3.268   9.981  0.1123 -0.1722 -0.0436
  558TMC3    C2 8328   4.225   3.361  10.047  0.4340 -0.2178 -0.6864
  558TMC3    C3 8329   4.089   3.360  10.016 -0.3303 -0.1082 -0.2022
  558TMC3    C4 8330   4.256   3.181   9.895  0.3642 -0.3180  0.1052
  558TMC3    C5 8331   4.126   3.184   9.859 -0.1159  0.4715  0.5824
  558TMC3    C6 8332   4.036   3.270   9.924 -0.4177  0.1522 -0.9396
  558TMC3     C 8333   4.452   3.307   9.969 -0.2107 -0.6748 -0.1297
  558TMC3     O 8334   4.498   3.348  10.074  0.8748  1.1311 -0.2106
  558TMC3     H 8335   4.256   3.433  10.122 -0.9025 -1.6514  1.2377
  558TMC3    H1 8336   4.325   3.112   9.848  1.1254 -0.3083  1.2056
  558TMC3    H2 8337   3.931   3.267   9.899 -0.0089 -1.0398 -2.5225
  558TMC3    C7 8338   4.083   3.065   9.794 -0.4450  0.2273 -0.1022
  558TMC3    C8 8339   3.998   3.446  10.079 -0.6675 -0.4035  0.0734
  558TMC3    O1 8340   4.140   2.955   9.806 -0.1098  0.6261  0.2354
  558TMC3    O2 8341   3.884   3.448  10.030 -0.5753 -0.4465 -0.0464
  559MPD2     C 8342   0.059   4.310  10.193 -0.0154  0.5349 -0.1225
  559MPD2    C1 8343   4.703   4.286  10.294 -0.4945 -0.1352 -0.1867
  559MPD2    C2 8344   0.009   4.237  10.412  0.4275 -0.4345 -0.3656
  559MPD2    C3 8345   0.142   4.216  10.443 -0.4812  0.0426 -0.1560
  559MPD2    C4 8346   0.231   4.235  10.343  0.3739 -0.1749 -0.5282
  559MPD2    C5 8347   0.190   4.283  10.215 -0.3281 -0.4920 -0.3228
  559MPD2     H 8348   4.675   4.207  10.490 -1.3102 -0.3121 -1.8648
  559MPD2    H1 8349   0.335   4.204  10.353  0.5969  1.2737  1.6046
  559MPD2    H2 8350   0.033   4.341  10.092 -1.8185 -1.3974 -0.2558
  559MPD2    H3 8351   0.271   4.298  10.145  1.2835 -2.0402  1.2106
  559MPD2     N 8352   0.172   4.168  10.572  0.9843  0.0533 -0.2061
  559MPD2    H5 8353   0.094   4.173  10.637  1.1677 -0.2750  0.0353
  559MPD2    N1 8354   4.568   4.305  10.257  0.3030  0.0545  0.0319
  559MPD2    H7 8355   4.539   4.335  10.164  1.3641 -2.9986 -1.2830
  560TMC3    C1 8356   0.291   4.064  10.738 -0.3287  0.1219 -0.4680
  560TMC3    C2 8357   0.170   4.027  10.797  0.4716  0.5784 -0.2687
  560TMC3    C3 8358   0.170   3.986  10.930 -0.1567  0.3349  0.0441
  560TMC3    C4 8359   0.408   4.060  10.816 -0.6361  0.5806 -0.6039
  560TMC3    C5 8360   0.400   4.014  10.950  0.6410 -0.0561 -0.3205
  560TMC3    C6 8361   0.286   3.978  11.008  0.4425  0.4592 -0.0040
  560TMC3     C 8362   0.294   4.137  10.616 -0.5652  1.0303  0.1434
  560TMC3     O 8363   0.397   4.164  10.568 -0.0973 -0.1302  0.3330
  560TMC3     H 8364   0.083   4.019  10.733  0.1845 -1.3874  0.3676
  560TMC3    H1 8365   0.501   4.085  10.766 -0.4790  1.3266  0.0592
  560TMC3    H2 8366   0.290   3.933  11.107 -0.4072 -0.9547 -0.6126
  560TMC3    C7 8367   0.500   4.062  11.050 -0.9850 -0.3362  0.4595
  560TMC3    C8 8368   0.043   3.941  10.982  0.8442 -0.1967  0.0989
  560TMC3    O1 8369   0.494   4.016  11.164  0.7690 -0.5035  0.8267
  560TMC3    O2 8370   4.687   3.920  10.899  0.3478 -0.4965  0.2482
  561TMC3    C1 8371   2.890   3.469  10.748  0.5842  0.5285  0.6230
  561TMC3    C2 8372   2.881   3.407  10.870  0.5696 -0.0562  0.1101
  561TMC3    C3 8373   2.773   3.445  10.952  0.0792  0.1696 -0.1707
  561TMC3    C4 8374   2.811   3.577  10.720  0.6466  0.2176  0.0032
  561TMC3    C5 8375   2.714   3.621  10.811  0.3739 -0.3605  0.7032
  561TMC3    C6 8376   2.685   3.545  10.923  0.3663  0.0870  0.0880
  561TMC3     C 8377   3.021   3.485  10.678 -0.6297 -0.4628 -0.4226
  561TMC3     O 8378   3.009   3.515  10.558  0.3851  0.4964 -0.0404
  561TMC3     H 8379   2.960   3.338  10.897  0.5964  0.7029  1.9423
  561TMC3    H1 8380   2.813   3.624  10.622  1.9722 -0.9497 -0.5239
  561TMC3    H2 8381   2.611   3.577  10.995 -0.4281 -0.3870 -0.5245
  561TMC3    C7 8382   2.644   3.747  10.803  0.3507  0.1630 -0.0124
  561TMC3    C8 8383   2.758   3.362  11.066  0.0832 -0.1598 -0.0391
  561TMC3    O1 8384   2.585   3.790  10.901  0.8064 -0.2995 -0.1390
  561TMC3    O2 8385   2.860   3.301  11.095  0.1395  0.0991  0.6450
  562TMC3    C1 8386   4.164   4.592  16.075  0.4283  0.0623 -0.1638
  562TMC3    C2 8387   4.128   4.723  16.075  1.3622  0.1331  0.7687
  562TMC3    C3 8388   4.038   0.033  15.991  0.0226  0.8676 -0.1067
  562TMC3    C4 8389   4.105   4.501  15.988 -0.0315  0.8440 -0.4872
  562TMC3    C5 8390   3.999   4.542  15.912 -0.3731 -0.5273 -0.0116
  562TMC3    C6 8391   3.976   4.677  15.907 -0.9607 -0.8885  0.2692
  562TMC3     C 8392   4.290   4.566  16.140  0.1373  0.9290 -0.2695
  562TMC3     O 8393   4.340   4.457  16.115  0.3491  0.1541  0.0893
  562TMC3     H 8394   4.196   0.063  16.113 -0.4862  2.4456 -0.5691
  562TMC3    H1 8395   4.139   4.398  15.986 -2.2327  0.1493 -1.5234
  562TMC3    H2 8396   3.886   4.708  15.855  0.0044 -1.0403 -1.4976
  562TMC3    C7 8397   3.940   4.460  15.817 -0.4235 -0.5312 -0.4840
  562TMC3    C8 8398   3.985   0.164  16.004 -0.6345 -0.0637 -0.2644
  562TMC3    O1 8399   3.877   4.505  15.721 -0.1346 -0.1704  0.6100
  562TMC3    O2 8400   4.013   0.214  16.112 -0.0394  0.1097 -0.8195
  563MPD2     C 8401   1.651   1.454  15.580  0.1104  0.3409 -0.3059
  563MPD2    C1 8402   1.709   1.536  15.683 -0.5175  0.5444 -0.3979
  563MPD2    C2 8403   1.840   1.508  15.712 -0.4115  0.6450 -0.2416
  563MPD2    C3 8404   1.905   1.407  15.646  0.0653 -0.4466 -0.2662
  563MPD2    C4 8405   1.855   1.352  15.527 -1.2225  0.3875 -1.0484
  563MPD2    C5 8406   1.726   1.372  15.500  0.3268  0.0392 -0.2901
  563MPD2     H 8407   1.880   1.552  15.803  0.6467  1.7941 -1.2628
  563MPD2    H1 8408   1.902   1.278  15.462 -1.3241 -0.6683  0.0792
  563MPD2    H2 8409   1.546   1.463  15.554 -0.3970  1.8720  2.2766
  563MPD2    H3 8410   1.679   1.311  15.425  0.1790  0.1206 -0.2632
  563MPD2     N 8411   2.020   1.371  15.710 -1.0507 -0.2759 -0.7651
  563MPD2    H5 8412   2.037   1.415  15.800 -0.3994  0.5163 -1.2790
  563MPD2    N1 8413   1.628   1.620  15.765  0.0980  0.0007 -0.5074
  563MPD2    H7 8414   1.528   1.605  15.759 -0.2589  1.7692  1.0266
  564TMC3    C1 8415   1.580   1.754  15.941 -0.5796 -0.1443 -0.6978
  564TMC3    C2 8416   1.453   1.711  15.932  0.5364 -0.2041  0.0510
  564TMC3    C3 8417   1.384   1.695  16.047 -0.2823  0.5029  0.4510
  564TMC3    C4 8418   1.644   1.757  16.056 -0.2625 -0.4028 -0.4132
  564TMC3    C5 8419   1.574   1.726  16.177 -0.5067 -0.6908 -0.0438
  564TMC3    C6 8420   1.443   1.694  16.169  0.3772  0.6020 -0.4618
  564TMC3     C 8421   1.676   1.719  15.838 -0.1130  0.3551 -0.0493
  564TMC3     O 8422   1.786   1.775  15.832 -0.4975 -0.2501  0.0592
  564TMC3     H 8423   1.409   1.697  15.834 -3.0504 -2.6926  2.0163
  564TMC3    H1 8424   1.751   1.778  16.058 -0.8061  2.2440  0.5803
  564TMC3    H2 8425   1.383   1.662  16.254  1.2443 -1.5051 -0.6497
  564TMC3    C7 8426   1.656   1.631  16.245 -0.6283  0.2361  0.3934
  564TMC3    C8 8427   1.278   1.596  16.037  0.8928 -0.0085  0.0348
  564TMC3    O1 8428   1.772   1.653  16.274  0.0113  0.1023  0.3054
  564TMC3    O2 8429   1.285   1.508  16.118 -0.3497  0.0178 -0.0736
  565TMC3    C1 8430   2.213   2.268  10.840 -0.2659  0.1208  0.3448
  565TMC3    C2 8431   2.314   2.245  10.930 -0.2396 -0.2042 -0.1681
  565TMC3    C3 8432   2.329   2.119  10.976 -0.6429  0.1453  0.3310
  565TMC3    C4 8433   2.138   2.166  10.789  0.2039 -0.1839 -0.6541
  565TMC3    C5 8434   2.157   2.040  10.831  0.2000  0.4477  0.1382
  565TMC3    C6 8435   2.253   2.012  10.921 -0.1592 -0.7718 -0.3090
  565TMC3     C 8436   2.197   2.407  10.792  1.0009  0.3507  0.4324
  565TMC3     O 8437   2.267   2.495  10.845 -0.0026 -0.2705  0.0256
  565TMC3     H 8438   2.378   2.325  10.965  0.1524 -0.0443 -1.2671
  565TMC3    H1 8439   2.054   2.183  10.723  1.1752 -0.2633 -1.9106
  565TMC3    H2 8440   2.256   1.912  10.963  1.3731 -0.0014  1.4123
  565TMC3    C7 8441   2.097   1.939  10.748  0.3838 -0.4210 -0.2952
  565TMC3    C8 8442   2.399   2.090  11.102 -0.0914  0.4490  0.4991
  565TMC3    O1 8443   2.058   1.982  10.637  0.0451  0.0760  0.2565
  565TMC3    O2 8444   2.433   1.972  11.114  0.2824  0.3552  0.4631
  566MPD2     C 8445   3.454   4.031  14.100  0.6031  0.2832  0.0821
  566MPD2    C1 8446   3.503   4.131  14.029 -0.3034  0.2357 -0.2861
  566MPD2    C2 8447   3.452   4.154  13.904 -0.2300  0.3841 -0.4736
  566MPD2    C3 8448   3.348   4.080  13.857 -0.4942  0.7928  0.0092
  566MPD2    C4 8449   3.294   3.980  13.940 -0.3786 -0.3992  0.5748
  566MPD2    C5 8450   3.343   3.962  14.064 -0.5232 -0.5356  0.4121
  566MPD2     H 8451   3.510   4.220  13.840  1.7416 -2.0197 -1.1493
  566MPD2    H1 8452   3.205   3.925  13.913  0.2227 -1.3944  0.6318
  566MPD2    H2 8453   3.492   4.012  14.200  0.4477 -0.9272 -0.1001
  566MPD2    H3 8454   3.285   3.893  14.124 -0.6075 -1.8106 -1.1277
  566MPD2     N 8455   3.328   4.086  13.719  0.0292 -0.1825 -0.4472
  566MPD2    H5 8456   3.369   4.160  13.662 -0.9979  0.8206  0.1067
  566MPD2    N1 8457   3.620   4.193  14.075  0.0787 -0.6937  0.6946
  566MPD2    H7 8458   3.646   4.157  14.166  2.0160  1.0990  0.8622
  567TMC3    C1 8459   3.827   4.314  14.050 -0.0213 -0.8172 -0.3928
  567TMC3    C2 8460   3.905   4.362  13.953 -0.4862 -0.7131  0.1915
  567TMC3    C3 8461   4.040   4.336  13.967 -0.2586 -0.1832 -0.1494
  567TMC3    C4 8462   3.879   4.248  14.161 -0.7004 -0.1159  0.1667
  567TMC3    C5 8463   4.011   4.239  14.182  0.1662  0.1865 -1.2460
  567TMC3    C6 8464   4.098   4.293  14.091  0.4487 -0.4109 -0.0022
  567TMC3     C 8465   3.688   4.295  14.010  0.1622 -0.0073 -0.1417
  567TMC3     O 8466   3.644   4.370  13.922 -0.2550 -0.4730 -0.1015
  567TMC3     H 8467   3.872   4.395  13.855 -0.2286 -1.0580 -0.0141
  567TMC3    H1 8468   3.799   4.230  14.233  0.3362 -2.8937  0.6186
  567TMC3    H2 8469   4.204   4.282  14.108  0.6649  0.7505 -0.6796
  567TMC3    C7 8470   4.057   4.223  14.319  0.0213 -0.6869 -0.0154
  567TMC3    C8 8471   4.124   4.384  13.852 -0.7234 -0.6496 -0.2593
  567TMC3    O1 8472   4.173   4.230  14.348  0.1633  0.2923  0.3831
  567TMC3    O2 8473   4.070   4.391  13.743  0.2986 -0.3648  0.4313
  568MPD2     C 8474   1.112   0.133  15.888 -0.4085 -0.8216  0.3475
  568MPD2    C1 8475   1.107   0.186  16.014  0.0301 -0.2401  0.4575
  568MPD2    C2 8476   1.046   0.310  16.025  0.0567 -0.1317 -0.3717
  568MPD2    C3 8477   0.994   0.388  15.921  0.5914  0.8160  0.4773
  568MPD2    C4 8478   0.997   0.328  15.793  0.6487  0.1259  0.1097
  568MPD2    C5 8479   1.054   0.203  15.785  0.0382 -0.3204 -0.5513
  568MPD2     H 8480   1.038   0.346  16.127 -2.5375 -0.8640 -0.3094
  568MPD2    H1 8481   0.973   0.384  15.703  0.4052 -0.6429 -0.3046
  568MPD2    H2 8482   1.149   0.031  15.880  1.9938 -0.0059  1.1977
  568MPD2    H3 8483   1.059   0.157  15.687  1.2138 -0.4696 -0.4206
  568MPD2     N 8484   0.955   0.519  15.957  0.2141 -0.1850  0.0946
  568MPD2    H5 8485   0.966   0.544  16.055 -1.0928 -1.4753  0.5772
  568MPD2    N1 8486   1.168   0.110  16.120  0.3937 -0.3396 -0.4219
  568MPD2    H7 8487   1.222   0.027  16.099  0.5740  0.2112 -2.1727
  569TMC3    C1 8488   0.912   0.736  15.934 -0.2789 -0.1924 -0.4120
  569TMC3    C2 8489   0.901   0.730  16.072 -0.5979  0.3301  0.1205
  569TMC3    C3 8490   0.930   0.855  16.126 -0.6447 -0.1571 -0.4022
  569TMC3    C4 8491   0.932   0.847  15.849 -0.2195  0.3604  0.1586
  569TMC3    C5 8492   0.962   0.961  15.911 -0.3765 -0.1452  0.7697
  569TMC3    C6 8493   0.954   0.971  16.047  0.2142  0.9139 -0.4650
  569TMC3     C 8494   0.906   0.612  15.865  0.8912  0.0684  0.5170
  569TMC3     O 8495   0.912   0.621  15.746  0.2282  0.0066 -0.0252
  569TMC3     H 8496   0.883   0.643  16.132  1.3605 -0.3376 -0.2496
  569TMC3    H1 8497   0.934   0.842  15.741  0.8627 -0.3378  0.2032
  569TMC3    H2 8498   0.945   1.067  16.096  0.5254  0.5719  0.2685
  569TMC3    C7 8499   0.970   1.082  15.828 -0.4627  0.5088 -0.3443
  569TMC3    C8 8500   0.982   0.845  16.258  0.0902  0.5040 -0.2578
  569TMC3    O1 8501   0.946   1.074  15.706  0.1241 -0.4928 -0.0415
  569TMC3    O2 8502   0.965   0.736  16.311  0.0013 -0.4025  0.3356
  570TMC3    C1 8503   0.470   3.583  15.980 -0.3288 -0.3233 -0.5991
  570TMC3    C2 8504   0.489   3.546  15.851  0.5724  0.3869 -0.1530
  570TMC3    C3 8505   0.519   3.643  15.762 -0.0095 -0.8957 -0.3644
  570TMC3    C4 8506   0.483   3.716  16.019  0.1068 -0.3341  0.6822
  570TMC3    C5 8507   0.515   3.812  15.922 -0.2596 -0.2216 -0.6258
  570TMC3    C6 8508   0.523   3.780  15.789  0.6516  0.2629  0.2324
  570TMC3     C 8509   0.399   3.487  16.069 -0.1319  0.3287  0.4091
  570TMC3     O 8510   0.359   3.381  16.027  0.7392 -0.0504  0.0731
  570TMC3     H 8511   0.468   3.447  15.812  0.5252 -0.0827  1.0597
  570TMC3    H1 8512   0.468   3.750  16.121 -0.9369  0.7373  0.1732
  570TMC3    H2 8513   0.538   3.855  15.712 -2.0026  0.5613 -0.0175
  570TMC3    C7 8514   0.485   3.948  15.958  0.2884  0.3640  0.5809
  570TMC3    C8 8515   0.577   3.599  15.638  0.2167  0.0920 -0.0931
  570TMC3    O1 8516   0.508   3.990  16.072 -0.5746 -0.0104 -0.1409
  570TMC3    O2 8517   0.567   3.478  15.612  0.2847 -0.7441 -0.0333
  571MPD2     C 8518   3.379   1.120   0.042  0.4650 -0.1118 -0.4686
  571MPD2    C1 8519   3.484   1.093   0.133 -0.9844  0.6652  0.4078
  571MPD2    C2 8520   3.540   1.193   0.206  0.3319  0.0457  0.2367
  571MPD2    C3 8521   3.484   1.317   0.199  0.1261 -0.1624 -0.4225
  571MPD2    C4 8522   3.378   1.340   0.111 -0.1804  0.2834  0.7484
  571MPD2    C5 8523   3.322   1.242   0.027  0.0381  0.2855  0.7871
  571MPD2     H 8524   3.609   1.169   0.287  1.4403  0.6406 -0.5330
  571MPD2    H1 8525   3.338   1.440   0.117 -0.2684  0.2126  1.3559
  571MPD2    H2 8526   3.329   1.040  17.728 -0.1261 -1.2230  1.7296
  571MPD2    H3 8527   3.245   1.263  17.694 -0.3345  1.8271  1.6220
  571MPD2     N 8528   3.540   1.417   0.277  0.2264  0.6360 -0.1329
  571MPD2    H5 8529   3.504   1.507   0.247 -1.2249  0.1976  0.2913
  571MPD2    N1 8530   3.541   0.964   0.128  0.0758  0.4769 -0.5966
  571MPD2    H7 8531   3.492   0.908   0.059  0.5358  1.4858 -1.7328
  572TMC3    C1 8532   3.694   1.544   0.406 -0.2509 -0.8453  0.0893
  572TMC3    C2 8533   3.749   1.559   0.531 -0.1803 -0.7918 -0.3215
  572TMC3    C3 8534   3.810   1.682   0.556 -0.3743  0.3623  0.3370
  572TMC3    C4 8535   3.711   1.628   0.299 -0.1350  0.4437  0.4621
  572TMC3    C5 8536   3.769   1.755   0.331  0.3297  0.0810 -0.4036
  572TMC3    C6 8537   3.812   1.782   0.459 -0.3663  0.2970  0.5201
  572TMC3     C 8538   3.635   1.417   0.377 -0.4738  0.6620  0.1063
  572TMC3     O 8539   3.663   1.325   0.453  0.0867 -0.1123 -0.0822
  572TMC3     H 8540   3.701   1.507   0.612  2.4745 -2.1693  0.3597
  572TMC3    H1 8541   3.678   1.603   0.199  0.1156 -2.9767  1.2439
  572TMC3    H2 8542   3.847   1.884   0.476  0.0796 -0.1059  2.0017
  572TMC3    C7 8543   3.701   1.867   0.271 -0.6762  0.0695 -0.0189
  572TMC3    C8 8544   3.880   1.711   0.678 -0.2865  0.6300  0.6274
  572TMC3    O1 8545   3.598   1.859   0.205 -0.4664 -0.3776 -0.1658
  572TMC3    O2 8546   3.902   1.832   0.702 -0.3232  0.1904 -0.5304
  573MPD2     C 8547   4.095   1.183   0.603  0.0953  0.5756 -0.5325
  573MPD2    C1 8548   4.108   1.300   0.540 -0.3454  0.3705 -0.2986
  573MPD2    C2 8549   4.042   1.318   0.417  0.7281  0.3877  0.5678
  573MPD2    C3 8550   3.971   1.214   0.353  0.0971 -0.7920  0.0551
  573MPD2    C4 8551   3.966   1.090   0.422  0.1681 -0.1032  0.2557
  573MPD2    C5 8552   4.025   1.079   0.546 -0.3909 -0.1648  0.0404
  573MPD2     H 8553   4.044   1.415   0.367 -1.3375  1.2659  2.1612
  573MPD2    H1 8554   3.909   1.008   0.379  0.5794  0.1524 -0.7933
  573MPD2    H2 8555   4.131   1.169   0.704  1.2857 -0.3912 -1.0946
  573MPD2    H3 8556   4.021   0.987   0.604 -0.2967 -0.7939 -0.9468
  573MPD2     N 8557   3.914   1.226   0.227 -0.6742  0.3409 -0.3321
  573MPD2    H5 8558   3.848   1.156   0.194 -2.1325  1.2835  0.6061
  573MPD2    N1 8559   4.190   1.402   0.605 -0.1533  0.0533 -0.1567
  573MPD2    H7 8560   4.233   1.361   0.687  0.1955  0.3711 -0.1836
  574TMC3    C1 8561   3.827   1.323   0.026  0.0223  0.5007  0.4069
  574TMC3    C2 8562   3.784   1.447  17.710 -0.1025 -0.0918 -0.3925
  574TMC3    C3 8563   3.681   1.440  17.611  0.2884  0.2894 -0.5781
  574TMC3    C4 8564   3.787   1.198  17.718  0.9067 -0.2294 -0.2260
  574TMC3    C5 8565   3.690   1.198  17.618 -0.0781  0.2398 -0.2365
  574TMC3    C6 8566   3.640   1.316  17.568  0.4210 -0.6055  0.0324
  574TMC3     C 8567   3.916   1.335   0.141  0.3454  0.2508 -0.2463
  574TMC3     O 8568   3.965   1.445   0.156  0.4387 -0.2311 -0.4040
  574TMC3     H 8569   3.810   1.540   0.019  1.7781 -0.0940 -1.3626
  574TMC3    H1 8570   3.826   1.109   0.025 -0.7289 -0.3066  0.9573
  574TMC3    H2 8571   3.569   1.315  17.486 -0.9958 -0.6030  1.2531
  574TMC3    C7 8572   3.640   1.075  17.555 -0.1798 -0.1379  0.9186
  574TMC3    C8 8573   3.577   1.547  17.601 -0.0084 -1.1945  0.5069
  574TMC3    O1 8574   3.556   1.091  17.470 -0.4280 -0.6123  0.5191
  574TMC3    O2 8575   3.462   1.518  17.569 -0.2874  0.1627  0.2758
  575TMC3    C1 8576   2.813   1.574  11.710 -0.3291  0.1653  0.0031
  575TMC3    C2 8577   2.802   1.588  11.844 -0.0367  0.7496  0.4700
  575TMC3    C3 8578   2.715   1.687  11.886 -0.0997  0.2855  0.5682
  575TMC3    C4 8579   2.742   1.650  11.617 -0.2565 -0.2906  0.2956
  575TMC3    C5 8580   2.662   1.752  11.662 -0.5768 -0.3916 -0.1956
  575TMC3    C6 8581   2.642   1.763  11.797 -0.1733  0.3372  0.5362
  575TMC3     C 8582   2.919   1.472  11.670 -0.3665  0.0429 -0.1571
  575TMC3     O 8583   2.935   1.372  11.740  0.2162  0.2267 -0.3613
  575TMC3     H 8584   2.858   1.523  11.911  0.2504  0.4040 -0.0969
  575TMC3    H1 8585   2.766   1.648  11.511  0.1071 -0.3297  0.3777
  575TMC3    H2 8586   2.574   1.834  11.842  1.0512  0.7935  1.6499
  575TMC3    C7 8587   2.618   1.847  11.560  0.4882  0.4243  0.3128
  575TMC3    C8 8588   2.684   1.693  12.026  0.0742  0.0718  0.4175
  575TMC3    O1 8589   2.649   1.829  11.443  0.2796  0.2073  0.5485
  575TMC3    O2 8590   2.566   1.718  12.054  0.0831  0.3143 -0.2588
  576MPD2     C 8591   1.853   3.231  12.205 -0.4746 -0.2188  1.1539
  576MPD2    C1 8592   1.773   3.294  12.110 -0.4499 -0.7479 -0.5190
  576MPD2    C2 8593   1.656   3.351  12.151  0.0528 -0.9350 -0.2391
  576MPD2    C3 8594   1.620   3.340  12.288 -0.3070  0.1199 -0.4671
  576MPD2    C4 8595   1.697   3.263  12.372 -0.3069 -0.3642  0.1356
  576MPD2    C5 8596   1.814   3.208  12.331  0.6608  0.2967  0.2661
  576MPD2     H 8597   1.594   3.411  12.086  2.0217  0.1396 -1.1353
  576MPD2    H1 8598   1.658   3.247  12.472 -1.5128  0.2858 -0.2281
  576MPD2    H2 8599   1.949   3.181  12.195  0.4612  2.3821 -2.9105
  576MPD2    H3 8600   1.864   3.143  12.402  0.8276  1.0100  0.8016
  576MPD2     N 8601   1.510   3.416  12.337 -0.3093 -0.0253  1.0702
  576MPD2    H5 8602   1.499   3.503  12.287 -1.6263 -0.0781  1.2520
  576MPD2    N1 8603   1.818   3.292  11.975  0.1644  0.2497  0.1713
  576MPD2    H7 8604   1.757   3.343  11.912 -0.9453  1.9082  2.5663
  577TMC3    C1 8605   1.962   3.233  11.787  0.8835 -0.6374 -0.6004
  577TMC3    C2 8606   2.099   3.241  11.758  1.0068 -0.2960 -0.4149
  577TMC3    C3 8607   2.139   3.212  11.630  0.3456 -0.7416 -0.2651
  577TMC3    C4 8608   1.867   3.228  11.689 -0.3385  0.1112  0.2809
  577TMC3    C5 8609   1.915   3.210  11.563  0.0471  0.0445  0.3225
  577TMC3    C6 8610   2.049   3.199  11.530  0.2757  0.1586  0.0473
  577TMC3     C 8611   1.925   3.223  11.923  0.3757 -0.6029  0.6343
  577TMC3     O 8612   1.995   3.143  11.983 -0.6462  0.4842 -0.1025
  577TMC3     H 8613   2.170   3.239  11.840  1.5514  0.0280 -0.8762
  577TMC3    H1 8614   1.764   3.219  11.722  0.0721 -3.0838  0.6141
  577TMC3    H2 8615   2.079   3.169  11.430 -1.7867  1.9768 -1.1288
  577TMC3    C7 8616   1.824   3.199  11.450 -0.0806 -0.1447 -0.4851
  577TMC3    C8 8617   2.280   3.204  11.603 -0.0209 -0.6077  0.7316
  577TMC3    O1 8618   1.862   3.143  11.347 -0.0222 -0.0619 -0.1718
  577TMC3    O2 8619   2.343   3.156  11.697 -0.2712  0.0095 -0.4908
  578MPD2     C 8620   0.077   0.192   1.167  0.1032  0.0723 -0.2675
  578MPD2    C1 8621   0.109   0.111   1.057 -0.5175 -0.1127 -0.5535
  578MPD2    C2 8622   0.204   0.011   1.068  1.0310  0.5875 -0.1468
  578MPD2    C3 8623   0.249   4.712   1.191 -0.7587  0.4493  1.0241
  578MPD2    C4 8624   0.206   0.045   1.300 -0.1429  0.1658  0.8024
  578MPD2    C5 8625   0.118   0.153   1.292  0.2090 -0.1336 -0.4119
  578MPD2     H 8626   0.233   4.696   0.977  0.3963 -1.3305  0.7080
  578MPD2    H1 8627   0.232   0.021   1.402  1.8858  2.3255  0.7918
  578MPD2    H2 8628   0.022   0.285   1.156 -0.5136 -0.2497  0.1065
  578MPD2    H3 8629   0.087   0.211   1.378 -1.5668 -2.0843  0.2632
  578MPD2     N 8630   0.333   4.600   1.197 -0.5348 -0.0872  0.2952
  578MPD2    H5 8631   0.347   4.540   1.117 -0.4027 -0.4245  0.5706
  578MPD2    N1 8632   0.058   0.150   0.932 -0.4518 -0.0255  0.0186
  578MPD2    H7 8633   0.005   0.237   0.935 -2.8861 -1.6211  2.4649
  579TMC3    C1 8634   0.504   4.470   1.275 -0.2838  0.0628 -1.1670
  579TMC3    C2 8635   0.633   4.471   1.324  0.1449  0.2383 -0.5005
  579TMC3    C3 8636   0.728   4.398   1.256  0.8336  0.5936 -0.0847
  579TMC3    C4 8637   0.457   4.364   1.200  0.1042 -1.2843 -0.2943
  579TMC3    C5 8638   0.558   4.288   1.139 -0.0474 -0.0906 -0.2360
  579TMC3    C6 8639   0.693   4.306   1.167  0.1903  0.1097 -0.4345
  579TMC3     C 8640   0.416   4.578   1.306  0.0995  0.0431  0.5384
  579TMC3     O 8641   0.445   4.650   1.399 -0.2211 -0.0982  0.1989
  579TMC3     H 8642   0.662   4.559   1.380 -1.9307 -0.4159  1.6233
  579TMC3    H1 8643   0.356   4.348   1.164 -1.8075  2.1662  3.5310
  579TMC3    H2 8644   0.767   4.258   1.103 -0.1534 -0.9520 -0.0254
  579TMC3    C7 8645   0.528   4.181   1.044 -0.0182  0.9304  0.2646
  579TMC3    C8 8646   0.870   4.442   1.271 -0.6144  0.0471  0.1846
  579TMC3    O1 8647   0.615   4.092   1.034  0.1623  0.7491 -0.5365
  579TMC3    O2 8648   0.887   4.547   1.328 -0.1582 -0.2331 -0.0377
  580TMC3    C1 8649   4.095   2.718  11.933  0.2424  0.1037  0.2690
  580TMC3    C2 8650   4.087   2.711  11.795  0.6224 -0.1098 -0.1190
  580TMC3    C3 8651   4.185   2.645  11.726 -0.2010  0.4622 -0.6438
  580TMC3    C4 8652   4.170   2.628  12.006  0.5754  0.4368  0.1861
  580TMC3    C5 8653   4.256   2.557  11.934  0.7302 -0.1262 -0.0435
  580TMC3    C6 8654   4.268   2.566  11.800  0.1391 -0.1691 -0.4550
  580TMC3     C 8655   4.114   2.841  12.005 -0.6848 -0.9241 -1.1669
  580TMC3     O 8656   4.122   2.829  12.128 -0.7305 -0.2953  0.1155
  580TMC3     H 8657   4.015   2.777  11.748  1.8349 -0.2706 -2.2312
  580TMC3    H1 8658   4.166   2.599  12.111 -0.1521  0.6005  0.2038
  580TMC3    H2 8659   4.343   2.510  11.745  0.2087  1.8568 -2.4653
  580TMC3    C7 8660   4.316   2.448  12.009 -0.2118  0.4691 -0.1467
  580TMC3    C8 8661   4.248   2.714  11.614  0.2776 -0.3523  0.5308
  580TMC3    O1 8662   4.363   2.473  12.118  0.2095  0.0301  0.1169
  580TMC3    O2 8663   4.173   2.749  11.523  0.1422  0.0050 -0.1494
  581MPD2     C 8664   2.686   2.092  14.623  0.7663 -0.1543 -0.0957
  581MPD2    C1 8665   2.646   2.206  14.677  0.2201  0.4976 -0.5741
  581MPD2    C2 8666   2.586   2.305  14.600 -0.1313  0.0002  0.1747
  581MPD2    C3 8667   2.580   2.292  14.459  0.1760  0.8348 -0.3183
  581MPD2    C4 8668   2.637   2.185  14.402 -0.0679 -0.3586 -0.6829
  581MPD2    C5 8669   2.687   2.087  14.483  0.1323 -0.6924  0.1839
  581MPD2     H 8670   2.549   2.393  14.653  0.1105 -0.4211  1.0454
  581MPD2    H1 8671   2.630   2.156  14.298 -1.5809  3.0402 -1.5025
  581MPD2    H2 8672   2.724   2.005  14.675 -2.8910 -1.3149  0.5671
  581MPD2    H3 8673   2.720   2.000  14.426 -0.5848 -1.0034  0.2387
  581MPD2     N 8674   2.502   2.387  14.390  0.2720  0.2078 -0.6123
  581MPD2    H5 8675   2.455   2.459  14.443  1.0440  0.6825 -0.5773
  581MPD2    N1 8676   2.661   2.214  14.819  0.1178  0.4995  0.5745
  581MPD2    H7 8677   2.685   2.128  14.867 -1.0360 -0.5154 -0.6717
  582TMC3    C1 8678   2.601   2.274  15.030 -0.1804  0.1950  0.7771
  582TMC3    C2 8679   2.606   2.379  15.114 -0.4047  0.6550  0.3083
  582TMC3    C3 8680   2.513   2.392  15.214 -0.6704 -0.0257  0.7078
  582TMC3    C4 8681   2.514   2.166  15.045  0.5989  0.1677  0.8743
  582TMC3    C5 8682   2.409   2.187  15.133  0.4930  0.2885 -0.2799
  582TMC3    C6 8683   2.416   2.300  15.220  0.0635 -0.1995  0.4700
  582TMC3     C 8684   2.637   2.319  14.897 -0.8653 -0.5631  0.5375
  582TMC3     O 8685   2.643   2.435  14.874  0.3226 -0.2225 -0.3124
  582TMC3     H 8686   2.683   2.455  15.102 -0.3969  0.7934  1.1872
  582TMC3    H1 8687   2.505   2.087  14.972  0.0263 -0.5042  1.6741
  582TMC3    H2 8688   2.348   2.315  15.303  0.9605  0.1384  1.1410
  582TMC3    C7 8689   2.294   2.172  15.053 -0.0767 -0.5683 -0.4730
  582TMC3    C8 8690   2.553   2.486  15.325 -0.2343  0.2826  0.1277
  582TMC3    O1 8691   2.288   2.080  14.968  0.4206  0.0895 -0.0977
  582TMC3    O2 8692   2.675   2.488  15.347 -0.0591  0.3745 -0.1888
  583MPD2     C 8693   2.360   4.453  16.457  0.6120 -0.9336  0.2886
  583MPD2    C1 8694   2.340   4.568  16.377  0.5745  0.3855 -0.1358
  583MPD2    C2 8695   2.221   4.630  16.399 -0.4695  0.2031  0.1591
  583MPD2    C3 8696   2.142   4.611  16.509  0.0666 -0.1432  0.2607
  583MPD2    C4 8697   2.167   4.497  16.589 -0.7159  0.1560  0.1039
  583MPD2    C5 8698   2.268   4.413  16.548 -0.6854  0.2419  0.0986
  583MPD2     H 8699   2.190   4.703  16.325  2.0655  0.6343 -0.4798
  583MPD2    H1 8700   2.109   4.470  16.676  0.9882 -1.8584  0.6245
  583MPD2    H2 8701   2.448   4.390  16.453  1.8957  0.8092  0.4930
  583MPD2    H3 8702   2.276   4.319  16.602  3.0103 -0.8390 -2.3462
  583MPD2     N 8703   2.034   4.705  16.535 -0.4983  0.0657  0.5132
  583MPD2    H5 8704   2.022   0.049  16.472 -3.2200  0.8224  1.9810
  583MPD2    N1 8705   2.436   4.607  16.285 -0.7316  0.1328  0.2478
  583MPD2    H7 8706   2.411   4.668  16.208 -3.6155  0.1933  1.2354
  584TMC3    C1 8707   1.890   0.091  16.680 -0.6604  0.0659 -0.5671
  584TMC3    C2 8708   1.954   0.203  16.622  0.1329  0.3530  0.4327
  584TMC3    C3 8709   1.965   0.312  16.711 -0.1921 -0.1881  0.4959
  584TMC3    C4 8710   1.852   0.089  16.810 -0.0702 -0.7292  0.0549
  584TMC3    C5 8711   1.861   0.199  16.889 -0.0293  0.6270 -0.2968
  584TMC3    C6 8712   1.920   0.310  16.843  0.1677 -0.6249  0.1625
  584TMC3     C 8713   1.942   4.696  16.639  0.5674 -0.3635  0.2849
  584TMC3     O 8714   1.909   4.599  16.708 -0.4881 -0.2497 -0.2117
  584TMC3     H 8715   1.998   0.206  16.523  3.0851 -0.0433  1.7019
  584TMC3    H1 8716   1.795   0.006  16.849  0.6279 -1.3469 -0.2394
  584TMC3    H2 8717   1.929   0.395  16.910 -0.1072 -0.4180 -0.0597
  584TMC3    C7 8718   1.843   0.181  17.032  0.3000  0.5801 -0.0650
  584TMC3    C8 8719   2.066   0.412  16.678  0.0597 -0.1330  0.2217
  584TMC3    O1 8720   1.831   0.062  17.072  0.0418  0.4610  0.0565
  584TMC3    O2 8721   2.118   0.472  16.772  1.1762  0.3508 -0.2502
  585MPD2     C 8722   1.051   4.057   0.231  0.1099 -0.2433  0.7459
  585MPD2    C1 8723   1.057   4.078   0.094  0.1471 -0.4429 -0.1802
  585MPD2    C2 8724   1.121   3.985   0.014  0.4571  0.1099 -0.1822
  585MPD2    C3 8725   1.144   3.859   0.064 -0.2895 -0.3549  0.4626
  585MPD2    C4 8726   1.144   3.843   0.202  0.0095  0.0087  0.7182
  585MPD2    C5 8727   1.107   3.942   0.291 -0.2181  0.0536 -0.2168
  585MPD2     H 8728   1.142   4.007  17.651 -3.2391 -1.0400 -1.1788
  585MPD2    H1 8729   1.177   3.749   0.246  1.3966  0.0320 -0.2351
  585MPD2    H2 8730   0.993   4.117   0.301 -0.5578 -0.4275  0.3510
  585MPD2    H3 8731   1.104   3.935   0.399 -1.8314  0.3561 -0.2506
  585MPD2     N 8732   1.189   3.750  17.730  0.8672  0.2832 -0.0340
  585MPD2    H5 8733   1.195   3.659   0.036 -0.5455  0.3980  0.3657
  585MPD2    N1 8734   1.008   4.204   0.051  0.1652  0.2902 -0.0830
  585MPD2    H7 8735   0.954   4.249   0.124  0.7783 -1.1221  1.2596
  586TMC3    C1 8736   1.334   3.647  17.572  0.5895  0.5355  0.1916
  586TMC3    C2 8737   1.443   3.686  17.496  0.2953  0.1097  0.0474
  586TMC3    C3 8738   1.552   3.605  17.502  0.2911  0.3418 -0.0081
  586TMC3    C4 8739   1.311   3.523  17.627  0.3789  0.0509  0.2698
  586TMC3    C5 8740   1.419   3.437  17.612 -0.8556 -0.9769 -0.5393
  586TMC3    C6 8741   1.537   3.481  17.558 -0.0554 -0.3253  0.7033
  586TMC3     C 8742   1.239   3.754  17.603 -1.4078 -0.4003  0.6772
  586TMC3     O 8743   1.247   3.859  17.535 -0.4057  0.3722  0.0825
  586TMC3     H 8744   1.455   3.781  17.444  1.2645 -0.0875 -0.0791
  586TMC3    H1 8745   1.218   3.491  17.673  1.0119 -2.2932 -0.0925
  586TMC3    H2 8746   1.612   3.404  17.545 -0.7224 -0.9620  0.6103
  586TMC3    C7 8747   1.386   3.304  17.556 -0.4864 -0.6475 -0.5288
  586TMC3    C8 8748   1.667   3.617  17.414 -0.2261  0.3867  0.0443
  586TMC3    O1 8749   1.295   3.247  17.615 -0.2319  0.5893  0.1015
  586TMC3    O2 8750   1.756   3.533  17.433  0.2975  0.1769 -0.1187
  587TMC3    C1 8751   3.839   2.576  16.160 -0.0685  0.1486 -0.1716
  587TMC3    C2 8752   3.808   2.616  16.290 -0.1259 -0.3441  1.1171
  587TMC3    C3 8753   3.910   2.608  16.383 -0.2438  0.2069 -1.0502
  587TMC3    C4 8754   3.960   2.527  16.126  0.3084  0.1139  0.1716
  587TMC3    C5 8755   4.053   2.513  16.222  0.7327  0.3023 -0.4856
  587TMC3    C6 8756   4.029   2.551  16.352 -0.0897  0.6875  0.5970
  587TMC3     C 8757   3.748   2.597  16.056  0.0937 -0.1238 -0.1428
  587TMC3     O 8758   3.784   2.581  15.937  0.3063 -0.3055 -0.0762
  587TMC3     H 8759   3.716   2.671  16.308  0.8784  2.0035 -0.8687
  587TMC3    H1 8760   3.984   2.515  16.021 -0.1053  2.6340 -0.2088
  587TMC3    H2 8761   4.105   2.553  16.430  0.9787 -0.9984 -0.4039
  587TMC3    C7 8762   4.193   2.476  16.194 -0.3755 -0.0514  1.1088
  587TMC3    C8 8763   3.906   2.690  16.502 -0.9977 -0.2340 -0.1428
  587TMC3    O1 8764   4.277   2.497  16.282 -0.3392 -0.4618 -0.1487
  587TMC3    O2 8765   3.996   2.674  16.586  0.1996 -0.4421 -0.3611
  588TMC3    C1 8766   1.514   4.478   9.628  0.2906  0.7418 -0.6054
  588TMC3    C2 8767   1.424   4.375   9.648  0.2719 -0.3851  0.7205
  588TMC3    C3 8768   1.402   4.324   9.777 -0.4204  0.1806  0.0547
  588TMC3    C4 8769   1.584   4.531   9.733 -0.5091  0.2208  0.3466
  588TMC3    C5 8770   1.557   4.487   9.861  0.2662 -0.1542 -0.6902
  588TMC3    C6 8771   1.463   4.383   9.889 -0.2194  0.2709  0.4827
  588TMC3     C 8772   1.552   4.515   9.493  0.0042  0.6765  0.0255
  588TMC3     O 8773   1.559   4.433   9.407 -0.2761 -0.3027 -0.7763
  588TMC3     H 8774   1.369   4.350   9.558 -0.9386  1.4413  0.9459
  588TMC3    H1 8775   1.672   4.592   9.720  0.8255 -1.6655  0.4491
  588TMC3    H2 8776   1.452   4.359   9.994 -0.7341 -0.3982  0.2751
  588TMC3    C7 8777   1.637   4.546   9.969 -0.3830  0.2465  0.2925
  588TMC3    C8 8778   1.315   4.206   9.798  0.0815  0.6989  0.1386
  588TMC3    O1 8779   1.639   4.492  10.082  0.2803 -0.3197 -0.0267
  588TMC3    O2 8780   1.269   4.161   9.693  0.2118  0.0152 -0.4058
  589TMC3    C1 8781   0.738   2.683   1.193  1.0243  0.6280  0.2633
  589TMC3    C2 8782   0.818   2.702   1.296 -0.4015  0.0410  0.2110
  589TMC3    C3 8783   0.952   2.719   1.274  0.4642  0.4065 -0.1116
  589TMC3    C4 8784   0.794   2.656   1.071 -0.2428  0.1783 -0.6379
  589TMC3    C5 8785   0.926   2.650   1.058  1.1694  0.3865  0.2493
  589TMC3    C6 8786   1.012   2.687   1.156  0.3380 -0.1097  0.6220
  589TMC3     C 8787   0.601   2.647   1.211  0.4090 -0.6968 -0.2782
  589TMC3     O 8788   0.535   2.643   1.108 -0.3233 -0.0116 -0.7119
  589TMC3     H 8789   0.761   2.711   1.388 -1.5669 -1.1229 -0.3957
  589TMC3    H1 8790   0.732   2.651   0.981  1.9454 -3.2661 -1.9495
  589TMC3    H2 8791   1.118   2.675   1.136  0.1184  0.3683 -0.8220
  589TMC3    C7 8792   0.996   2.579   0.949  0.9912 -0.5679  0.0199
  589TMC3    C8 8793   1.033   2.731   1.396 -0.4175  0.4323 -0.0268
  589TMC3    O1 8794   1.108   2.622   0.906 -0.3650  0.0319  0.1351
  589TMC3    O2 8795   0.982   2.778   1.497  0.1053 -0.7754 -0.2451
  590MPD2     C 8796   0.565   0.726  16.527 -0.4701 -0.5961  0.5771
  590MPD2    C1 8797   0.482   0.686  16.421 -1.1139  0.2719  0.2941
  590MPD2    C2 8798   0.479   0.761  16.304  0.1292 -0.2081 -0.6043
  590MPD2    C3 8799   0.569   0.871  16.284  1.1856 -0.3152 -0.2903
  590MPD2    C4 8800   0.660   0.896  16.387  0.8087  0.7915  0.0867
  590MPD2    C5 8801   0.652   0.828  16.506 -0.0513 -0.6395  0.0440
  590MPD2     H 8802   0.410   0.729  16.228 -1.2375 -0.5566  0.7768
  590MPD2    H1 8803   0.742   0.963  16.365  0.7080  0.1191 -2.3557
  590MPD2    H2 8804   0.572   0.670  16.619 -0.7885 -1.9959 -0.2477
  590MPD2    H3 8805   0.729   0.848  16.579  0.7519  0.0520 -1.0070
  590MPD2     N 8806   0.553   0.944  16.160 -0.5096  0.6512  0.1940
  590MPD2    H5 8807   0.476   0.911  16.103 -0.5864  1.2299 -0.0349
  590MPD2    N1 8808   0.411   0.561  16.442  0.0350  0.3699  0.1934
  590MPD2    H7 8809   0.414   0.515  16.532 -2.7941 -2.0753 -0.9872
  591TMC3    C1 8810   0.587   1.116  16.000  0.4306 -0.4802  0.5208
  591TMC3    C2 8811   0.543   1.039  15.891  0.4939  0.1197  0.2288
  591TMC3    C3 8812   0.537   1.107  15.768 -0.0727  0.8088 -0.3887
  591TMC3    C4 8813   0.598   1.251  15.997 -0.1412  0.5487 -0.1002
  591TMC3    C5 8814   0.568   1.312  15.874 -0.3453 -0.8069  0.3245
  591TMC3    C6 8815   0.545   1.245  15.757 -0.2413  0.0565  0.1632
  591TMC3     C 8816   0.626   1.055  16.129  0.1492 -0.2225 -0.3119
  591TMC3     O 8817   0.707   1.113  16.196 -0.0481 -0.1279 -0.0565
  591TMC3     H 8818   0.540   0.931  15.901 -0.8362  0.0808 -0.5472
  591TMC3    H1 8819   0.650   1.307  16.075 -1.2248  0.8413  0.4079
  591TMC3    H2 8820   0.517   1.291  15.663  0.0233 -1.5468 -0.7049
  591TMC3    C7 8821   0.569   1.454  15.884 -0.3607 -0.6065  0.2379
  591TMC3    C8 8822   0.565   1.032  15.654 -0.2024  0.0566  0.4692
  591TMC3    O1 8823   0.558   1.490  16.004 -0.3664 -0.5583 -0.6428
  591TMC3    O2 8824   0.540   0.912  15.669  0.2187  0.4399 -0.5199
  592MPD2     C 8825   0.363   2.799  10.931  0.3715  0.1229 -0.3335
  592MPD2    C1 8826   0.458   2.757  11.026  0.0268 -0.2838  0.0420
  592MPD2    C2 8827   0.428   2.638  11.089 -0.1479  0.0248 -0.8114
  592MPD2    C3 8828   0.318   2.558  11.066  0.6405  0.1996 -0.1150
  592MPD2    C4 8829   0.227   2.600  10.972 -0.8074 -0.4263 -0.2519
  592MPD2    C5 8830   0.257   2.718  10.903  0.2754  0.6174 -0.0584
  592MPD2     H 8831   0.488   2.606  11.174  0.5757 -1.7013 -1.9702
  592MPD2    H1 8832   0.135   2.547  10.948 -0.6348 -1.1903  0.7714
  592MPD2    H2 8833   0.386   2.880  10.863 -1.4933 -0.5008 -1.7183
  592MPD2    H3 8834   0.209   2.727  10.807 -1.0297  0.2671  0.5640
  592MPD2     N 8835   0.305   2.438  11.139 -0.1228 -0.6022  0.5287
  592MPD2    H5 8836   0.371   2.428  11.215 -0.0107  0.4371  0.5678
  592MPD2    N1 8837   0.578   2.830  11.055 -0.0868 -0.0528 -0.0784
  592MPD2    H7 8838   0.591   2.909  10.993  2.2164  0.6563  1.3323
  593TMC3    C1 8839   0.794   2.879  11.163  0.6780  0.6846  0.7741
  593TMC3    C2 8840   0.866   2.897  11.277 -0.1465  0.5184 -0.1787
  593TMC3    C3 8841   0.982   2.974  11.278 -0.5599 -0.4465 -0.0545
  593TMC3    C4 8842   0.831   2.935  11.043 -0.4123 -0.5482 -0.3503
  593TMC3    C5 8843   0.949   2.998  11.040 -0.5817  0.3951  0.5125
  593TMC3    C6 8844   1.024   3.019  11.153  0.2623  0.0571 -0.2517
  593TMC3     C 8845   0.665   2.807  11.162  0.6293  0.9747 -0.3341
  593TMC3     O 8846   0.640   2.745  11.262  0.6448  0.4149 -0.4220
  593TMC3     H 8847   0.818   2.861  11.367  0.5042 -0.2770 -0.1515
  593TMC3    H1 8848   0.770   2.923  10.955 -2.1601  0.7596  0.6771
  593TMC3    H2 8849   1.111   3.083  11.151 -0.4011  0.9987  1.0072
  593TMC3    C7 8850   0.992   3.078  10.924  0.3123  0.0650 -0.0695
  593TMC3    C8 8851   0.986   3.076  11.378 -0.1440  0.0168 -0.4268
  593TMC3    O1 8852   0.913   3.152  10.871 -0.4029  0.0258  0.0074
  593TMC3    O2 8853   1.008   3.185  11.334  0.9868  0.4117  0.6795
  594MPD2     C 8854   3.823   1.218  13.930 -0.7565  0.0992  0.1005
  594MPD2    C1 8855   3.867   1.217  14.057  0.1936  0.4580 -0.6786
  594MPD2    C2 8856   3.984   1.284  14.081  0.4734  0.3121  0.9605
  594MPD2    C3 8857   4.062   1.338  13.975 -0.3823 -0.2753  0.8363
  594MPD2    C4 8858   4.014   1.313  13.847  0.1648 -0.1406 -0.1076
  594MPD2    C5 8859   3.897   1.248  13.824  0.2337  0.3835 -0.7882
  594MPD2     H 8860   4.013   1.312  14.181  1.5860 -3.1269  1.5891
  594MPD2    H1 8861   4.072   1.330  13.757  0.3566 -1.7383 -0.2843
  594MPD2    H2 8862   3.733   1.165  13.902 -0.9994  0.9671 -0.7354
  594MPD2    H3 8863   3.878   1.219  13.722 -0.7348 -2.7142  0.2572
  594MPD2     N 8864   4.166   1.434  13.999 -0.2137  0.1495 -0.1923
  594MPD2    H5 8865   4.185   1.452  14.097  1.0704  0.2970 -0.4644
  594MPD2    N1 8866   3.777   1.169  14.154 -0.0083 -0.7204 -0.6335
  594MPD2    H7 8867   3.685   1.140  14.121 -0.3743  0.1075 -0.3467
  595TMC3    C1 8868   4.524   1.725  13.932  0.5001 -0.3813  0.4561
  595TMC3    C2 8869   4.460   1.611  13.898  0.1853 -0.3156  0.5632
  595TMC3    C3 8870   4.334   1.605  13.933 -0.6967  0.0529 -0.0836
  595TMC3    C4 8871   4.462   1.825  14.002  0.0614  0.8026 -0.7318
  595TMC3    C5 8872   4.332   1.803  14.045 -0.6267  0.5965  0.0365
  595TMC3    C6 8873   4.263   1.693  14.001  0.9692  0.3035  0.1401
  595TMC3     C 8874   4.666   1.726  13.918 -0.0473 -0.3499  0.4289
  595TMC3     O 8875   4.723   1.809  13.988  0.0389  0.3727 -0.0178
  595TMC3     H 8876   4.503   1.528  13.843  1.1208  0.8124 -0.3995
  595TMC3    H1 8877   4.513   1.917  14.025 -0.7433  0.8212  1.0189
  595TMC3    H2 8878   4.164   1.661  14.033  1.2344 -1.4148 -0.7228
  595TMC3    C7 8879   4.275   1.865  14.165  0.1117  0.3546 -0.0291
  595TMC3    C8 8880   4.259   1.480  13.902  0.3650 -0.6509 -0.1106
  595TMC3    O1 8881   4.153   1.868  14.171 -0.1196  0.4080  0.0589
  595TMC3    O2 8882   4.269   1.435  13.789 -0.7614  0.1524  0.3629
  596MPD2     C 8883   3.333   4.499  16.870  0.0373  0.1315  0.0845
  596MPD2    C1 8884   3.247   4.578  16.791  0.1868 -0.0635  0.5659
  596MPD2    C2 8885   3.233   4.543  16.657 -1.0144 -0.0740  0.6597
  596MPD2    C3 8886   3.292   4.429  16.610 -0.9282  0.3319  0.2767
  596MPD2    C4 8887   3.375   4.348  16.683  0.0905 -0.1151 -0.1415
  596MPD2    C5 8888   3.396   4.398  16.813  0.2668 -0.4467  0.2590
  596MPD2     H 8889   3.158   4.602  16.606 -1.0975  1.0500  2.0729
  596MPD2    H1 8890   3.423   4.254  16.656 -2.5646 -1.5593  0.2223
  596MPD2    H2 8891   3.351   4.523  16.974  1.2848  4.1911 -1.0512
  596MPD2    H3 8892   3.465   4.338  16.872 -0.1459 -1.7237 -0.5509
  596MPD2     N 8893   3.268   4.389  16.476 -0.0156 -0.1440  0.4413
  596MPD2    H5 8894   3.326   4.309  16.453  1.6822  1.4590 -0.8399
  596MPD2    N1 8895   3.193   4.704  16.836 -0.4290  0.4167  0.2320
  596MPD2    H7 8896   3.150   0.034  16.771 -1.3797  1.2763  1.7397
  597TMC3    C1 8897   3.156   0.160  16.962  0.2828  0.6062  0.5485
  597TMC3    C2 8898   3.245   0.268  16.973  0.1322 -0.2412 -0.2509
  597TMC3    C3 8899   3.202   0.391  16.928  0.0710 -0.1812 -0.6909
  597TMC3    C4 8900   3.031   0.169  16.904  0.9783  0.6829  0.0398
  597TMC3    C5 8901   2.993   0.295  16.861  0.0894 -0.4303 -0.0266
  597TMC3    C6 8902   3.073   0.410  16.882  0.9752  0.4737 -0.1649
  597TMC3     C 8903   3.218   0.032  16.954  0.2069 -0.0754 -0.0984
  597TMC3     O 8904   3.291   4.732  17.050  0.4266  0.3249 -0.1992
  597TMC3     H 8905   3.347   0.245  17.000 -0.7954 -0.0618  3.4675
  597TMC3    H1 8906   2.970   0.083  16.880  0.3491  0.4086  2.6092
  597TMC3    H2 8907   3.038   0.508  16.853 -2.9272 -0.6448  0.7493
  597TMC3    C7 8908   2.849   0.317  16.842  0.5609  0.3769  0.5628
  597TMC3    C8 8909   3.271   0.506  16.984  0.3890 -0.0465 -0.2985
  597TMC3    O1 8910   2.811   0.397  16.758  0.0675 -0.0856  0.0941
  597TMC3    O2 8911   3.193   0.601  17.018  0.0415  0.5750  0.2250
  598TMC3    C1 8912   1.160   0.786  15.503 -0.9011  0.1594  0.0061
  598TMC3    C2 8913   1.145   0.659  15.461 -0.1784 -0.2406  0.3920
  598TMC3    C3 8914   1.149   0.658  15.324 -0.5040 -0.4847 -0.4030
  598TMC3    C4 8915   1.176   0.896  15.426 -0.0660  0.0010  0.4071
  598TMC3    C5 8916   1.179   0.887  15.291 -0.3252 -0.5915 -0.1665
  598TMC3    C6 8917   1.180   0.762  15.237 -0.5344  0.0975 -0.4372
  598TMC3     C 8918   1.206   0.812  15.638  0.4564 -0.2071 -0.2956
  598TMC3     O 8919   1.202   0.925  15.693 -0.0079 -0.5155 -0.6108
  598TMC3     H 8920   1.129   0.573  15.525 -1.2751 -0.6158 -0.3749
  598TMC3    H1 8921   1.199   0.992  15.471 -2.3767  0.2984  0.9589
  598TMC3    H2 8922   1.194   0.743  15.132  0.8226  0.6446 -0.3480
  598TMC3    C7 8923   1.241   1.003  15.224  0.4999 -0.5431  0.4829
  598TMC3    C8 8924   1.162   0.532  15.257  0.0903 -0.1346 -0.1769
  598TMC3    O1 8925   1.200   1.112  15.268 -0.2137 -0.2022 -0.0499
  598TMC3    O2 8926   1.244   0.531  15.166  0.8659  0.4722  0.0681
  599MPD2     C 8927   0.966   2.846  15.243  0.4684 -0.0637 -0.3186
  599MPD2    C1 8928   1.058   2.894  15.332  0.0927  0.1709 -0.4375
  599MPD2    C2 8929   1.024   2.957  15.447 -0.4526 -0.2350  0.5400
  599MPD2    C3 8930   0.890   2.968  15.483  0.0502 -0.8822 -0.0369
  599MPD2    C4 8931   0.797   2.923  15.393  0.1122  0.2690  0.7514
  599MPD2    C5 8932   0.835   2.877  15.267  0.7591  0.7962 -0.0493
  599MPD2     H 8933   1.098   3.013  15.504  0.3643  0.1924 -0.9340
  599MPD2    H1 8934   0.692   2.946  15.407 -0.0566  0.0856 -0.2084
  599MPD2    H2 8935   1.001   2.797  15.153  2.7494 -0.3025  0.7026
  599MPD2    H3 8936   0.754   2.861  15.197 -0.6697  0.1969  1.7284
  599MPD2     N 8937   0.854   3.032  15.605  0.8010 -0.5093 -0.0923
  599MPD2    H5 8938   0.934   3.065  15.658 -2.2921  1.4941  3.3328
  599MPD2    N1 8939   1.195   2.884  15.293  0.0050  0.2976 -0.2945
  599MPD2    H7 8940   1.220   2.846  15.202  0.1303  0.6939 -0.4273
  600TMC3    C1 8941   0.709   3.122  15.771  0.3323 -0.1649 -0.2473
  600TMC3    C2 8942   0.610   3.075  15.861 -0.5319 -0.2798  0.4004
  600TMC3    C3 8943   0.599   3.147  15.979  0.0801 -0.1494  0.3333
  600TMC3    C4 8944   0.788   3.236  15.790 -0.3514  0.3872  0.4667
  600TMC3    C5 8945   0.773   3.304  15.910  0.4127  0.4885 -0.3590
  600TMC3    C6 8946   0.684   3.257  16.004  0.9125  0.5296 -0.4071
  600TMC3     C 8947   0.722   3.055  15.649 -0.4831 -0.8697 -0.0136
  600TMC3     O 8948   0.617   3.008  15.606  0.6016  0.5091  0.6848
  600TMC3     H 8949   0.549   2.987  15.842 -1.3701  0.1520  1.0977
  600TMC3    H1 8950   0.859   3.277  15.720  0.4568  3.2995  2.9838
  600TMC3    H2 8951   0.661   3.311  16.095  0.7950 -1.0555  0.4864
  600TMC3    C7 8952   0.807   3.444  15.929  0.1553 -0.5769  0.4253
  600TMC3    C8 8953   0.513   3.090  16.082 -0.3135 -0.1023 -0.5081
  600TMC3    O1 8954   0.766   3.503  16.028  0.0007  0.0901 -0.0205
  600TMC3    O2 8955   0.566   3.072  16.190 -0.0779 -0.6700 -0.4984
  601MPD2     C 8956   3.698   2.373   0.144  0.0304  0.0092 -0.3505
  601MPD2    C1 8957   3.603   2.280   0.131  0.5895 -0.0525  0.2163
  601MPD2    C2 8958   3.625   2.152   0.172 -0.0657 -0.1265  0.6968
  601MPD2    C3 8959   3.752   2.110   0.218  0.2918 -0.1550 -0.1376
  601MPD2    C4 8960   3.849   2.205   0.228 -0.2143 -0.1034 -0.4146
  601MPD2    C5 8961   3.819   2.334   0.197 -0.8503  0.7310 -0.1971
  601MPD2     H 8962   3.544   2.080   0.165 -0.4418  0.5222 -1.7843
  601MPD2    H1 8963   3.950   2.180   0.256 -0.0132  0.7238 -0.4030
  601MPD2    H2 8964   3.681   2.478   0.125  3.0923  0.4100 -0.9214
  601MPD2    H3 8965   3.900   2.406   0.192  1.6792 -2.1888 -1.1845
  601MPD2     N 8966   3.787   1.977   0.264  0.6252 -0.2482 -0.0320
  601MPD2    H5 8967   3.884   1.959   0.289  0.4737 -0.1623  0.6071
  601MPD2    N1 8968   3.474   2.315   0.079  0.2305  0.0461  0.6318
  601MPD2    H7 8969   3.404   2.243   0.081  1.7293 -1.3719  1.6368
  602TMC3    C1 8970   3.306   2.443  17.690 -0.5678  0.3402  0.1553
  602TMC3    C2 8971   3.286   2.563  17.624 -0.5832  0.0198  0.0579
  602TMC3    C3 8972   3.194   2.565  17.527  0.8224  0.1739  0.2972
  602TMC3    C4 8973   3.242   2.330  17.653  0.1112 -0.4995 -0.7362
  602TMC3    C5 8974   3.140   2.339  17.563  0.0685  0.9925 -0.6222
  602TMC3    C6 8975   3.117   2.455  17.495  0.3214  0.2514 -0.1141
  602TMC3     C 8976   3.446   2.435   0.009 -0.0233  0.2027 -0.1951
  602TMC3     O 8977   3.515   2.528  17.729  0.2178  0.0940 -0.2496
  602TMC3     H 8978   3.340   2.654  17.647  0.1923 -0.8673  1.7898
  602TMC3    H1 8979   3.273   2.232  17.688  3.3298  0.8891  0.2618
  602TMC3    H2 8980   3.037   2.468  17.424 -0.0723  2.1504  0.6805
  602TMC3    C7 8981   3.071   2.221  17.529 -0.0073  0.3150  0.0557
  602TMC3    C8 8982   3.164   2.683  17.455 -0.3293  0.5728 -0.5717
  602TMC3    O1 8983   3.055   2.141  17.620  0.3475  0.3616  0.0767
  602TMC3    O2 8984   3.135   2.784  17.514  0.1046  0.4530  0.2984
  603TMC3    C1 8985   1.030   1.885  10.633 -0.0007 -0.6953  0.6296
  603TMC3    C2 8986   1.081   1.866  10.757 -0.1476 -0.0597 -0.2025
  603TMC3    C3 8987   1.148   1.966  10.817 -0.7081 -0.4549  0.1065
  603TMC3    C4 8988   1.043   2.003  10.556  0.8981  0.7963  0.9163
  603TMC3    C5 8989   1.111   2.102  10.618 -0.7681 -0.4792 -0.3956
  603TMC3    C6 8990   1.158   2.083  10.751  0.1615  0.0869  0.2857
  603TMC3     C 8991   0.931   1.792  10.584  0.5437 -0.6388 -0.4991
  603TMC3     O 8992   0.880   1.822  10.479 -0.4377 -0.0974 -0.0919
  603TMC3     H 8993   1.087   1.768  10.804  0.2165 -0.3114 -0.7664
  603TMC3    H1 8994   1.004   2.016  10.456  0.1071  0.8709  1.2334
  603TMC3    H2 8995   1.207   2.165  10.802  2.5904 -0.3417 -1.3313
  603TMC3    C7 8996   1.192   2.187  10.537  0.9796 -0.3005  0.3760
  603TMC3    C8 8997   1.259   1.933  10.911  0.2092 -0.2199 -0.2853
  603TMC3    O1 8998   1.297   2.240  10.583 -0.3163  0.1856  0.4164
  603TMC3    O2 8999   1.255   1.837  10.988 -0.3944 -0.1215 -0.3074
  604MPD2     C 9000   2.714   1.068  16.116 -0.3504 -0.0713 -0.3164
  604MPD2    C1 9001   2.592   1.010  16.100 -0.1682 -0.3873  0.3082
  604MPD2    C2 9002   2.571   0.931  15.990  0.3335  0.3675  0.0517
  604MPD2    C3 9003   2.665   0.928  15.882  0.3133  0.1637  0.6558
  604MPD2    C4 9004   2.785   1.001  15.894 -0.0387 -0.1650 -0.3592
  604MPD2    C5 9005   2.809   1.069  16.015  0.4829 -0.4937 -0.1722
  604MPD2     H 9006   2.479   0.874  15.978 -0.2731  1.0304  1.6352
  604MPD2    H1 9007   2.871   1.006  15.829  1.3004 -0.4377  1.3774
  604MPD2    H2 9008   2.741   1.110  16.212 -0.7405 -0.1251 -0.1852
  604MPD2    H3 9009   2.907   1.112  16.034  1.2432 -2.6197  0.7403
  604MPD2     N 9010   2.629   0.851  15.765  0.5059 -0.2347 -0.5842
  604MPD2    H5 9011   2.536   0.813  15.770  0.6869 -0.6900 -0.7068
  604MPD2    N1 9012   2.499   1.016  16.206 -0.6230  0.0112 -0.1346
  604MPD2    H7 9013   2.528   1.075  16.284 -0.8486  0.3419 -0.3016
  605TMC3    C1 9014   2.304   1.014  16.326 -0.2208 -0.0456  0.3497
  605TMC3    C2 9015   2.395   1.036  16.427 -0.1109 -0.4819  0.4826
  605TMC3    C3 9016   2.382   1.145  16.499  0.0279 -0.4615 -0.0972
  605TMC3    C4 9017   2.194   1.085  16.310  0.0629 -0.3461 -0.0578
  605TMC3    C5 9018   2.185   1.200  16.391 -0.3887 -0.3897 -0.0097
  605TMC3    C6 9019   2.275   1.233  16.486 -0.0689  0.5492 -0.6771
  605TMC3     C 9020   2.365   0.970  16.204  0.7793 -0.3543 -0.5283
  605TMC3     O 9021   2.296   0.931  16.107 -0.7729  0.1111  0.0936
  605TMC3     H 9022   2.487   0.988  16.458  0.3035  0.8599  1.3109
  605TMC3    H1 9023   2.130   1.079  16.223  0.7849  0.8609 -0.6751
  605TMC3    H2 9024   2.267   1.332  16.531  0.0524  0.2990 -0.0978
  605TMC3    C7 9025   2.056   1.267  16.384  0.4965 -0.3905 -0.1535
  605TMC3    C8 9026   2.499   1.224  16.491 -0.4643  0.4165  0.0920
  605TMC3    O1 9027   2.057   1.386  16.408 -0.5361  0.2025  0.0268
  605TMC3    O2 9028   2.573   1.212  16.396  0.2563  0.3912  0.5670
  606TMC3    C1 9029   2.799   4.412  17.571  0.2366  0.0009  0.0645
  606TMC3    C2 9030   2.914   4.461  17.629 -0.6110 -0.1882  0.4313
  606TMC3    C3 9031   3.023   4.380  17.636 -1.1825 -0.0676  0.4140
  606TMC3    C4 9032   2.788   4.277  17.534 -0.1568  0.2558  0.5224
  606TMC3    C5 9033   2.904   4.205  17.534 -0.0237  0.4386  0.7447
  606TMC3    C6 9034   3.028   4.254  17.574 -0.6602  0.1127  0.7312
  606TMC3     C 9035   2.669   4.474  17.609  0.0732 -0.1634  0.6589
  606TMC3     O 9036   2.570   4.397  17.610  0.2575  0.2986  0.3070
  606TMC3     H 9037   2.922   4.567  17.649  0.2202 -0.2888  0.6384
  606TMC3    H1 9038   2.689   4.237  17.517 -0.9514  3.7712 -3.2372
  606TMC3    H2 9039   3.117   4.192  17.566 -0.0615  1.1357 -0.5884
  606TMC3    C7 9040   2.898   4.064  17.511  0.4688 -0.4412 -0.4830
  606TMC3    C8 9041   3.145   4.445  17.692  0.8125 -0.1841 -0.0737
  606TMC3    O1 9042   2.997   3.998  17.520  0.2651  0.4630 -0.0431
  606TMC3    O2 9043   3.157   4.567  17.677  0.3145 -0.0235  0.3859
  607MPD2     C 9044   0.612   1.751  11.381 -0.0682  0.5859 -0.3130
  607MPD2    C1 9045   0.669   1.781  11.503 -0.9141 -0.4046  0.6529
  607MPD2    C2 9046   0.676   1.674  11.595 -0.3360  0.3122  0.5162
  607MPD2    C3 9047   0.640   1.545  11.567 -0.2123 -0.0542 -0.0185
  607MPD2    C4 9048   0.608   1.519  11.436  0.3602 -0.3532 -0.1536
  607MPD2    C5 9049   0.582   1.623  11.351 -0.4033  0.2259 -0.6361
  607MPD2     H 9050   0.710   1.695  11.695  2.3347 -0.0571 -0.3052
  607MPD2    H1 9051   0.582   1.424  11.392  0.7098  0.0121 -1.1381
  607MPD2    H2 9052   0.602   1.824  11.301 -1.4122  0.4733 -0.2503
  607MPD2    H3 9053   0.546   1.601  11.252  0.2626  0.8535 -1.0163
  607MPD2     N 9054   0.672   1.455  11.664 -0.5444 -0.0431  0.5325
  607MPD2    H5 9055   0.709   1.495  11.750 -0.4636  1.3423 -0.1422
  607MPD2    N1 9056   0.730   1.903  11.543  0.4437  0.1818  0.7951
  607MPD2    H7 9057   0.767   1.911  11.637  0.0863  0.1721  0.9367
  608TMC3    C1 9058   0.816   2.120  11.513 -0.3315 -0.5548 -0.0067
  608TMC3    C2 9059   0.859   2.096  11.641 -0.0091  0.2913  0.9298
  608TMC3    C3 9060   0.976   2.154  11.676  0.2812  1.3066 -0.1644
  608TMC3    C4 9061   0.883   2.197  11.424 -0.3249  1.0850  0.8987
  608TMC3    C5 9062   1.005   2.251  11.468 -0.1409 -0.2421 -0.5143
  608TMC3    C6 9063   1.047   2.236  11.596  0.6427  0.4063 -0.2225
  608TMC3     C 9064   0.740   2.014  11.459  0.1216  0.6377 -0.1108
  608TMC3     O 9065   0.713   2.017  11.339  0.3379  0.5304  0.5075
  608TMC3     H 9066   0.790   2.067  11.720 -1.2718  1.2103  0.1621
  608TMC3    H1 9067   0.845   2.208  11.323 -0.6017 -1.5634  0.7138
  608TMC3    H2 9068   1.141   2.270  11.636  0.8629 -0.2654 -0.1796
  608TMC3    C7 9069   1.086   2.297  11.363  0.0951  0.2057 -0.2217
  608TMC3    C8 9070   1.036   2.106  11.804 -0.4167 -0.6589 -0.0245
  608TMC3    O1 9071   1.041   2.285  11.249  0.1538  0.6364  0.1480
  608TMC3    O2 9072   1.115   2.176  11.865 -0.0924  0.0362 -0.6959
  609TMC3    C1 9073   0.069   1.713   8.912  0.4393 -0.1087  0.4924
  609TMC3    C2 9074   0.116   1.842   8.927 -0.0118  0.6897  0.0836
  609TMC3    C3 9075   0.228   1.863   9.004 -0.0714 -0.0375  0.3868
  609TMC3    C4 9076   0.121   1.617   8.992 -0.2655  0.9409 -0.5279
  609TMC3    C5 9077   0.229   1.640   9.066  0.3010  0.4671  0.8601
  609TMC3    C6 9078   0.283   1.763   9.075 -0.3765 -0.1175 -0.4392
  609TMC3     C 9079   4.675   1.689   8.856  0.1156 -0.2768  0.4145
  609TMC3     O 9080   4.644   1.570   8.844  0.1876 -0.3308  0.3323
  609TMC3     H 9081   0.072   1.928   8.879  1.2287  0.5827 -1.2573
  609TMC3    H1 9082   0.064   1.529   9.018 -0.1845  0.5767 -1.5855
  609TMC3    H2 9083   0.370   1.772   9.138 -0.6026  0.5483 -0.2206
  609TMC3    C7 9084   0.248   1.556   9.181  0.3247 -0.8553 -0.6351
  609TMC3    C8 9085   0.297   1.995   9.011  0.1382 -0.0846  0.3331
  609TMC3    O1 9086   0.272   1.602   9.288 -0.3319  0.1215  0.2101
  609TMC3    O2 9087   0.240   2.085   8.958 -0.2755  0.3140 -0.6928
  610TMC3    C1 9088   1.669   1.994  11.709 -0.3286  1.1690  0.3899
  610TMC3    C2 9089   1.798   1.994  11.670 -0.4353 -0.4700  0.5784
  610TMC3    C3 9090   1.887   1.994  11.774 -0.5411  0.2915  0.4530
  610TMC3    C4 9091   1.626   2.005  11.839  0.1291  0.1632  0.1410
  610TMC3    C5 9092   1.713   2.036  11.933  0.0705  0.6472  0.7599
  610TMC3    C6 9093   1.846   2.008  11.906  0.2535 -0.4788 -0.5207
  610TMC3     C 9094   1.570   2.006  11.601  0.2824 -0.2553 -0.5822
  610TMC3     O 9095   1.610   2.047  11.491 -0.0991  0.7337 -0.2186
  610TMC3     H 9096   1.821   1.987  11.564 -1.1889 -0.9221  0.4477
  610TMC3    H1 9097   1.521   2.021  11.864  0.4856 -1.7960  2.8771
  610TMC3    H2 9098   1.916   1.996  11.988  1.3073  0.3743 -1.2858
  610TMC3    C7 9099   1.662   2.009  12.069  0.3866  0.0349 -0.2437
  610TMC3    C8 9100   2.016   1.932  11.756 -0.0751  0.4304 -0.4902
  610TMC3    O1 9101   1.541   1.999  12.093 -0.4286 -0.5525 -1.0855
  610TMC3    O2 9102   2.079   1.902  11.853 -0.1200  0.4676  0.0007
  611MPD2     C 9103   0.160   2.479   9.721 -0.6401 -0.3820 -0.0968
  611MPD2    C1 9104   0.235   2.399   9.806 -0.1029 -0.3503 -0.0136
  611MPD2    C2 9105   0.375   2.409   9.794 -0.2038  0.0281 -0.4079
  611MPD2    C3 9106   0.428   2.511   9.722  0.6007  0.2343 -0.4503
  611MPD2    C4 9107   0.350   2.594   9.654 -0.7303  0.3098 -0.2361
  611MPD2    C5 9108   0.222   2.581   9.652 -0.2408 -0.7416  0.2977
  611MPD2     H 9109   0.445   2.353   9.856  0.1965  2.0161  0.9135
  611MPD2    H1 9110   0.391   2.670   9.587 -3.0025  0.1641 -1.7940
  611MPD2    H2 9111   0.052   2.479   9.713 -0.6198 -2.5039 -0.1885
  611MPD2    H3 9112   0.163   2.644   9.587  0.0450 -0.5844  0.1930
  611MPD2     N 9113   0.570   2.525   9.705  0.3929 -0.0254 -0.1010
  611MPD2    H5 9114   0.590   2.611   9.655  0.1820 -1.8094 -3.3080
  611MPD2    N1 9115   0.177   2.296   9.880 -0.5613  0.6891 -0.1120
  611MPD2    H7 9116   0.076   2.287   9.876 -0.6165  1.4060 -0.3711
  612TMC3    C1 9117   0.803   2.508   9.753  0.3651 -0.0330  0.4256
  612TMC3    C2 9118   0.894   2.415   9.788 -0.0185 -0.5909 -0.0116
  612TMC3    C3 9119   1.024   2.425   9.740  1.0233  0.0990  0.2033
  612TMC3    C4 9120   0.836   2.598   9.653  0.0932 -0.0698  0.1375
  612TMC3    C5 9121   0.961   2.609   9.605  0.4380 -0.6280 -0.2487
  612TMC3    C6 9122   1.052   2.521   9.648  0.1388  0.6766  0.1303
  612TMC3     C 9123   0.670   2.450   9.751 -0.6475 -0.1193 -0.1995
  612TMC3     O 9124   0.655   2.344   9.808  0.5776 -0.1899  0.1922
  612TMC3     H 9125   0.873   2.335   9.857 -0.3271  0.8603  1.5654
  612TMC3    H1 9126   0.757   2.671   9.635  2.1506  2.4772  1.3583
  612TMC3    H2 9127   1.153   2.546   9.617 -0.1045  1.3666 -0.1126
  612TMC3    C7 9128   0.993   2.725   9.523 -0.3048  0.2141  0.3923
  612TMC3    C8 9129   1.135   2.400   9.834 -0.1760  0.1554 -0.9568
  612TMC3    O1 9130   1.110   2.751   9.487  0.0488  0.1342  0.5309
  612TMC3    O2 9131   1.239   2.450   9.795  0.2363  0.1675 -0.4695
  613MPD2     C 9132   4.528   3.975  16.340  1.1257  0.6111 -0.2309
  613MPD2    C1 9133   4.572   3.959  16.216 -0.4782 -1.1191 -0.1710
  613MPD2    C2 9134   4.513   3.866  16.132 -0.0263  0.2722 -0.3374
  613MPD2    C3 9135   4.415   3.781  16.182  0.0809  0.6266  0.1219
  613MPD2    C4 9136   4.382   3.782  16.315 -0.0868 -0.3281  0.0507
  613MPD2    C5 9137   4.436   3.886  16.390  0.0268 -0.2010 -0.7949
  613MPD2     H 9138   4.540   3.865  16.027  1.1018  1.1635 -0.0441
  613MPD2    H1 9139   4.310   3.714  16.357 -1.5224 -0.2755 -2.3389
  613MPD2    H2 9140   4.577   4.037  16.415 -0.4727  3.0535 -1.1854
  613MPD2    H3 9141   4.415   3.895  16.496 -0.5261 -0.5406 -0.8778
  613MPD2     N 9142   4.348   3.691  16.095  0.0519  0.4579  1.0243
  613MPD2    H5 9143   4.394   3.680  16.005  2.0619  1.8502  1.8778
  613MPD2    N1 9144   4.672   4.035  16.150 -0.1866 -0.6058  0.5715
  613MPD2    H7 9145   4.693   4.002  16.057 -0.1127  2.2748 -0.4263
  614TMC3    C1 9146   0.055   4.219  16.094  0.8299 -0.2369 -0.1802
  614TMC3    C2 9147   0.100   4.141  15.990 -0.2736  0.6339 -0.6388
  614TMC3    C3 9148   0.064   4.166  15.857 -0.0069 -0.1306  0.2705
  614TMC3    C4 9149   4.729   4.339  16.055  0.0464  0.6976 -0.7894
  614TMC3    C5 9150   4.703   4.358  15.921  0.1626 -0.8826 -0.4453
  614TMC3    C6 9151   4.734   4.278  15.816  0.3974 -0.1781  0.0451
  614TMC3     C 9152   4.711   4.159  16.192  0.2699  0.0149 -0.3204
  614TMC3     O 9153   4.672   4.229  16.281 -0.2119 -0.3320  1.1137
  614TMC3     H 9154   0.141   4.043  16.007 -1.5111  0.0510 -0.9932
  614TMC3    H1 9155   4.695   4.407  16.132  1.0727  0.2393  0.0554
  614TMC3    H2 9156   4.702   4.291  15.713  0.9492  2.0982  0.1492
  614TMC3    C7 9157   4.617   4.474  15.897  0.5124 -0.5117  0.3402
  614TMC3    C8 9158   4.733   4.044  15.797 -0.7105  0.1139  0.0062
  614TMC3    O1 9159   4.624   4.562  15.977  0.1221  0.4111 -0.2970
  614TMC3    O2 9160   4.685   3.965  15.876  0.2426  0.1712  0.2029
  615MPD2     C 9161   4.259   0.747  16.127 -0.3422 -0.2162 -0.5890
  615MPD2    C1 9162   4.178   0.857  16.098 -0.2549  0.5110  0.3341
  615MPD2    C2 9163   4.093   0.846  15.993  0.2378  0.5459  0.1940
  615MPD2    C3 9164   4.081   0.729  15.918 -0.3457  0.7847  1.1094
  615MPD2    C4 9165   4.160   0.624  15.948 -0.1827 -0.0778 -0.3265
  615MPD2    C5 9166   4.254   0.633  16.048 -0.4910 -0.6495 -0.2521
  615MPD2     H 9167   4.024   0.927  15.974 -1.9547 -0.8943  1.9517
  615MPD2    H1 9168   4.150   0.527  15.901 -0.6803  0.2663 -0.9352
  615MPD2    H2 9169   4.330   0.761  16.208  1.3788  1.3598 -2.3713
  615MPD2    H3 9170   4.329   0.556  16.064 -0.0670 -0.2730 -0.4327
  615MPD2     N 9171   3.989   0.733  15.813 -0.1006 -0.2488 -0.2564
  615MPD2    H5 9172   3.940   0.821  15.797 -0.4113 -0.4548 -0.4534
  615MPD2    N1 9173   4.177   0.979  16.166  0.1181  0.7022 -0.5823
  615MPD2    H7 9174   4.109   1.048  16.138 -0.6987  0.5798  1.1046
  616TMC3    C1 9175   4.269   1.160  16.287 -0.1032 -0.8604 -0.0451
  616TMC3    C2 9176   4.350   1.206  16.389 -0.1024  0.7347 -0.1144
  616TMC3    C3 9177   4.403   1.330  16.381 -0.2201 -0.1468 -0.3849
  616TMC3    C4 9178   4.227   1.246  16.184  0.2013  0.5062  0.6832
  616TMC3    C5 9179   4.274   1.376  16.189  0.7011 -0.3070  0.1139
  616TMC3    C6 9180   4.361   1.419  16.284 -0.0430  0.2039  0.8764
  616TMC3     C 9181   4.263   1.013  16.271  0.2237 -0.1991  0.1773
  616TMC3     O 9182   4.330   0.944  16.350  0.6160 -0.0095  0.2037
  616TMC3     H 9183   4.381   1.137  16.466 -1.3545 -0.5649 -0.7846
  616TMC3    H1 9184   4.176   1.218  16.093 -1.8512  0.8071  1.7312
  616TMC3    H2 9185   4.407   1.517  16.281  0.8894 -0.2916 -1.2755
  616TMC3    C7 9186   4.236   1.465  16.087 -0.0273 -0.0137  0.1489
  616TMC3    C8 9187   4.519   1.356  16.453  0.4627 -0.6367 -0.3475
  616TMC3    O1 9188   4.199   1.413  15.982 -0.2517 -0.1162  0.0258
  616TMC3    O2 9189   4.585   1.448  16.416  0.4960  0.2070  0.7671
  617MPD2     C 9190   2.130   3.692  13.171 -0.9534  0.1956 -0.4422
  617MPD2    C1 9191   2.193   3.611  13.269  0.6981 -1.0187 -0.2314
  617MPD2    C2 9192   2.119   3.562  13.369 -0.7898 -0.0924 -0.2334
  617MPD2    C3 9193   1.980   3.583  13.370 -1.6331  0.5806  0.4481
  617MPD2    C4 9194   1.921   3.650  13.268 -0.1609  0.1054  0.3781
  617MPD2    C5 9195   1.995   3.710  13.168 -0.0339 -0.3941 -0.4575
  617MPD2     H 9196   2.174   3.530  13.456 -0.2052  0.4918 -0.3897
  617MPD2    H1 9197   1.816   3.674  13.281 -0.8074 -1.7437 -1.4631
  617MPD2    H2 9198   2.186   3.736  13.089  0.6572 -0.2178  0.4255
  617MPD2    H3 9199   1.951   3.768  13.088 -0.9141  0.4771  0.6398
  617MPD2     N 9200   1.896   3.539  13.473 -0.3768 -0.1183 -0.6548
  617MPD2    H5 9201   1.796   3.560  13.468  0.0747  2.6169  1.7055
  617MPD2    N1 9202   2.327   3.586  13.267  0.5019 -0.5190  0.2428
  617MPD2    H7 9203   2.384   3.651  13.213 -0.1261 -2.1934 -2.4385
  618TMC3    C1 9204   2.544   3.508  13.270 -0.2037  0.1850  0.9184
  618TMC3    C2 9205   2.605   3.401  13.214 -0.1470 -0.2212 -0.4481
  618TMC3    C3 9206   2.689   3.437  13.112  0.1071 -0.3184 -0.3505
  618TMC3    C4 9207   2.565   3.637  13.234 -0.4502 -0.0562 -0.1906
  618TMC3    C5 9208   2.637   3.663  13.122  0.0287  0.3098  0.2219
  618TMC3    C6 9209   2.703   3.564  13.058  0.0215  0.8380  0.0971
  618TMC3     C 9210   2.405   3.486  13.318  0.4003 -0.0214 -0.4951
  618TMC3     O 9211   2.365   3.382  13.364  0.1903 -0.3235 -0.0803
  618TMC3     H 9212   2.575   3.299  13.236 -1.2482 -0.0224 -1.0441
  618TMC3    H1 9213   2.518   3.721  13.283  2.8991  1.9433 -0.3714
  618TMC3    H2 9214   2.758   3.571  12.965 -1.6372  1.4867 -0.8374
  618TMC3    C7 9215   2.558   3.744  13.040  0.5954 -0.9361 -0.0214
  618TMC3    C8 9216   2.735   3.325  13.039  0.4546  0.6416 -0.2666
  618TMC3    O1 9217   2.441   3.762  13.071 -0.3237 -0.1779  0.1262
  618TMC3    O2 9218   2.703   3.324  12.922  0.1315 -0.0769 -0.3513
  619MPD2     C 9219   3.299   0.389  13.990  0.0440 -0.1961  0.1617
  619MPD2    C1 9220   3.266   0.370  13.857  0.4491  0.1044 -0.3127
  619MPD2    C2 9221   3.137   0.326  13.836  0.0171 -0.0390  0.0620
  619MPD2    C3 9222   3.049   0.312  13.937 -0.1666 -0.0609 -0.8905
  619MPD2    C4 9223   3.086   0.341  14.070 -0.3722  0.0290 -0.2018
  619MPD2    C5 9224   3.216   0.368  14.095 -0.1731 -0.3597 -0.3781
  619MPD2     H 9225   3.109   0.301  13.734  0.1734  1.5963 -0.3794
  619MPD2    H1 9226   3.015   0.343  14.152  0.0985  0.0747  0.2066
  619MPD2    H2 9227   3.398   0.426  14.014  0.9022 -1.2266 -1.7709
  619MPD2    H3 9228   3.250   0.396  14.194 -1.2641  2.5264 -0.8305
  619MPD2     N 9229   2.921   0.258  13.914  0.7443 -0.2845 -0.5435
  619MPD2    H5 9230   2.845   0.260  13.981  0.9952  0.2536 -0.2749
  619MPD2    N1 9231   3.346   0.395  13.742  0.1394 -0.0892 -0.2483
  619MPD2    H7 9232   3.300   0.402  13.652 -0.5451  1.1101  0.1910
  620TMC3    C1 9233   3.511   0.457  13.598  0.5126 -0.6481  0.5427
  620TMC3    C2 9234   3.425   0.400  13.507 -0.0980  0.6623 -0.2746
  620TMC3    C3 9235   3.394   0.470  13.395 -0.1737 -0.5968 -0.1208
  620TMC3    C4 9236   3.569   0.585  13.582  0.3293  0.2198  0.1813
  620TMC3    C5 9237   3.549   0.642  13.459 -0.0002 -0.4836 -0.0212
  620TMC3    C6 9238   3.467   0.584  13.366 -0.3583  0.2039  0.1722
  620TMC3     C 9239   3.477   0.436  13.742 -0.2699  0.5098 -0.5078
  620TMC3     O 9240   3.556   0.461  13.835  0.0350 -0.1150  0.2410
  620TMC3     H 9241   3.393   0.297  13.521 -0.3317  0.8415  0.4656
  620TMC3    H1 9242   3.610   0.642  13.664 -0.9145 -0.7717  1.4971
  620TMC3    H2 9243   3.444   0.632  13.272 -0.9347  0.1736  0.2951
  620TMC3    C7 9244   3.539   0.791  13.455  0.2999 -0.0034 -0.4005
  620TMC3    C8 9245   3.256   0.484  13.371  0.6867 -0.6868  0.2110
  620TMC3    O1 9246   3.499   0.845  13.351 -0.4890  0.1584 -0.3710
  620TMC3    O2 9247   3.222   0.591  13.326 -0.4076 -0.3018 -0.3955
  621MPD2     C 9248   4.395   0.730   8.801 -0.3949 -0.7402  0.4185
  621MPD2    C1 9249   4.395   0.701   8.931 -0.2745 -0.4170  0.0974
  621MPD2    C2 9250   4.477   0.774   9.010  0.1746  0.1084 -0.1004
  621MPD2    C3 9251   4.547   0.886   8.962 -0.2276  0.0419 -0.0264
  621MPD2    C4 9252   4.540   0.916   8.830  0.5770 -0.0690 -0.2127
  621MPD2    C5 9253   4.454   0.842   8.759  0.5869  0.7033 -0.0236
  621MPD2     H 9254   4.480   0.751   9.116 -2.5630 -1.2416 -0.2956
  621MPD2    H1 9255   4.599   0.983   8.770 -1.3206  0.4275 -1.5239
  621MPD2    H2 9256   4.345   0.670   8.725 -1.4969 -2.0395  2.1825
  621MPD2    H3 9257   4.453   0.868   8.653  1.0758  3.1071  0.5492
  621MPD2     N 9258   4.599   0.976   9.053 -0.2976 -0.5454 -1.0783
  621MPD2    H5 9259   4.568   0.962   9.148 -1.4487  1.2142 -1.1985
  621MPD2    N1 9260   4.342   0.581   8.980 -0.4314  0.1452  0.4500
  621MPD2    H7 9261   4.361   0.551   9.076  0.8005  1.6193  0.6670
  622TMC3    C1 9262   4.223   0.384   8.986 -0.3267 -0.0972  0.0538
  622TMC3    C2 9263   4.296   0.350   9.097 -0.4761  0.3011 -0.1819
  622TMC3    C3 9264   4.242   0.261   9.178 -0.3912  0.0079 -0.0478
  622TMC3    C4 9265   4.103   0.316   8.960 -0.1150  0.3498 -0.3157
  622TMC3    C5 9266   4.052   0.218   9.041  0.3311  0.1065 -0.0564
  622TMC3    C6 9267   4.122   0.194   9.152  0.2138 -0.1566 -0.1707
  622TMC3     C 9268   4.254   0.503   8.908 -0.2442 -0.0264 -0.5730
  622TMC3     O 9269   4.201   0.521   8.801 -0.5254 -0.0753  0.6995
  622TMC3     H 9270   4.401   0.377   9.107 -0.9709  1.6428  1.3799
  622TMC3    H1 9271   4.042   0.354   8.879 -3.1368 -1.2569  1.2134
  622TMC3    H2 9272   4.084   0.130   9.231  1.5117  0.0043  0.5976
  622TMC3    C7 9273   3.919   0.213   9.077 -0.2327 -0.4593 -0.2847
  622TMC3    C8 9274   4.253   0.307   9.318  1.1396  0.5305 -0.1391
  622TMC3    O1 9275   3.898   0.261   9.190  0.1110  0.5157  0.4223
  622TMC3    O2 9276   4.350   0.377   9.342 -0.4863  0.2236  0.4643
  623MPD2     C 9277   2.861   1.372  15.650 -0.2694  0.3925  0.0714
  623MPD2    C1 9278   2.803   1.346  15.776 -0.5007  0.6129 -0.1686
  623MPD2    C2 9279   2.878   1.372  15.886 -0.5408 -0.0244 -0.2249
  623MPD2    C3 9280   3.006   1.417  15.877 -0.0490 -0.0005 -0.7820
  623MPD2    C4 9281   3.065   1.438  15.753  0.1771 -0.6379 -0.4006
  623MPD2    C5 9282   2.987   1.425  15.648 -0.9668 -0.0215 -0.4326
  623MPD2     H 9283   2.835   1.346  15.982  0.5478  0.3006  0.3459
  623MPD2    H1 9284   3.167   1.470  15.739 -0.2951  0.3237 -1.6553
  623MPD2    H2 9285   2.809   1.355  15.556  1.1324  0.7309 -0.7814
  623MPD2    H3 9286   3.028   1.456  15.552  0.2249 -0.0260  0.0768
  623MPD2     N 9287   3.067   1.455  15.995  0.0014 -0.3744 -0.1154
  623MPD2    H5 9288   3.000   1.458  16.071  0.6607 -0.0972  0.4534
  623MPD2    N1 9289   2.669   1.300  15.808 -0.5357 -0.2256 -0.6050
  623MPD2    H7 9290   2.656   1.275  15.906  0.3500 -2.6181 -1.0989
  624TMC3    C1 9291   3.342   1.418  16.340  0.4441  0.1339  0.9640
  624TMC3    C2 9292   3.230   1.440  16.415  0.2784  0.4963 -0.2700
  624TMC3    C3 9293   3.120   1.504  16.364  0.0727  0.0980  0.7460
  624TMC3    C4 9294   3.342   1.453  16.206  0.0704 -0.0908  0.5579
  624TMC3    C5 9295   3.229   1.514  16.152  0.2309 -0.9471 -0.7827
  624TMC3    C6 9296   3.121   1.545  16.230 -0.4214 -0.4162  0.5470
  624TMC3     C 9297   3.451   1.347  16.407 -0.1033  0.2048  0.4067
  624TMC3     O 9298   3.443   1.289  16.512  0.0804  0.1983 -0.1284
  624TMC3     H 9299   3.233   1.415  16.520  0.9146 -1.1189 -0.6736
  624TMC3    H1 9300   3.422   1.430  16.137  1.2862  2.7560  1.0242
  624TMC3    H2 9301   3.029   1.579  16.183 -0.3789 -2.6002 -1.0935
  624TMC3    C7 9302   3.200   1.498  16.015  0.7531 -0.1765  0.0212
  624TMC3    C8 9303   2.999   1.448  16.408 -0.4747  0.1025  0.3991
  624TMC3    O1 9304   3.292   1.499  15.934  0.1159 -0.8967  0.2085
  624TMC3    O2 9305   2.926   1.399  16.321 -0.0191 -0.2732 -0.1169
  625MPD2     C 9306   3.118   2.476   0.715 -0.7909  0.2052 -0.6440
  625MPD2    C1 9307   3.135   2.606   0.676  0.1892 -0.5900 -0.7447
  625MPD2    C2 9308   3.259   2.658   0.674 -0.7943 -0.4692 -0.7474
  625MPD2    C3 9309   3.370   2.576   0.715 -0.0255  0.6186  0.1733
  625MPD2    C4 9310   3.345   2.444   0.748 -0.1000 -0.4719 -0.5764
  625MPD2    C5 9311   3.221   2.393   0.753  0.0988 -0.5915 -0.3770
  625MPD2     H 9312   3.270   2.762   0.644 -0.1200 -0.5895 -0.9228
  625MPD2    H1 9313   3.427   2.377   0.771  0.2870 -0.2120 -1.2148
  625MPD2    H2 9314   3.020   2.430   0.716 -1.4636  1.6259 -2.4091
  625MPD2    H3 9315   3.205   2.287   0.771 -1.3332 -0.3580 -0.2732
  625MPD2     N 9316   3.499   2.629   0.711  0.1499  0.6603  1.1957
  625MPD2    H5 9317   3.501   2.726   0.682  0.3717  0.6597  1.2076
  625MPD2    N1 9318   3.024   2.688   0.640 -0.3817 -0.2292 -0.1338
  625MPD2    H7 9319   3.046   2.784   0.620 -1.2337 -0.8693 -3.9942
  626TMC3    C1 9320   2.817   2.772   0.601 -0.3126 -0.7182  0.6739
  626TMC3    C2 9321   2.767   2.796   0.480 -0.1550  0.5875 -0.5312
  626TMC3    C3 9322   2.759   2.938   0.458  0.7526  0.1517 -0.1769
  626TMC3    C4 9323   2.858   2.868   0.691  0.9130 -0.0244  0.8715
  626TMC3    C5 9324   2.843   3.001   0.666 -0.0282 -0.0126 -0.0420
  626TMC3    C6 9325   2.797   3.039   0.544  0.5121 -0.2024  0.1038
  626TMC3     C 9326   2.891   2.655   0.631  0.0475  0.1980 -0.0952
  626TMC3     O 9327   2.827   2.562   0.686  0.0115 -0.2661 -0.3864
  626TMC3     H 9328   2.735   2.722   0.409 -1.1789 -0.6347  1.2249
  626TMC3    H1 9329   2.883   2.838   0.792  0.8382 -1.3216  0.5105
  626TMC3    H2 9330   2.808   3.144   0.517 -0.1591 -0.2178 -0.2099
  626TMC3    C7 9331   2.860   3.105   0.771 -0.3147  0.6370 -0.0261
  626TMC3    C8 9332   2.670   2.966   0.348 -0.3205 -0.1459 -0.2135
  626TMC3    O1 9333   2.967   3.118   0.830  0.0235 -0.1505 -0.1214
  626TMC3    O2 9334   2.678   2.899   0.253 -0.8634  0.3793 -0.0730
  627MPD2     C 9335   1.826   2.290  13.902  0.0150  0.0830  0.4156
  627MPD2    C1 9336   1.832   2.358  14.020  0.6816 -0.3637  0.0014
  627MPD2    C2 9337   1.715   2.357  14.096 -0.4982  0.1529  0.3170
  627MPD2    C3 9338   1.599   2.286  14.056 -0.0602  0.1041 -0.0694
  627MPD2    C4 9339   1.594   2.220  13.936  1.0628  0.2999  0.1680
  627MPD2    C5 9340   1.713   2.220  13.861  0.3031 -0.6070  0.6403
  627MPD2     H 9341   1.704   2.406  14.192 -0.7150  0.1718  0.2825
  627MPD2    H1 9342   1.523   2.147  13.901  1.4005 -0.2397  0.6025
  627MPD2    H2 9343   1.911   2.284  13.835 -0.8299 -1.8487 -0.4893
  627MPD2    H3 9344   1.723   2.173  13.764  0.3061  0.3438  0.1797
  627MPD2     N 9345   1.494   2.280  14.154 -0.8594  0.1417  0.2062
  627MPD2    H5 9346   1.509   2.299  14.252 -1.2390 -0.2711  0.3441
  627MPD2    N1 9347   1.948   2.421  14.078  0.5066  0.3040 -0.6443
  627MPD2    H7 9348   1.938   2.460  14.171  1.0389  0.4538 -0.6496
  628TMC3    C1 9349   2.168   2.496  14.096 -0.5389 -1.0164  0.5794
  628TMC3    C2 9350   2.291   2.427  14.114  0.4020  1.0820 -0.2898
  628TMC3    C3 9351   2.373   2.484  14.208  0.8633  0.4156 -0.2634
  628TMC3    C4 9352   2.126   2.611  14.168 -0.0399 -0.2965 -0.0876
  628TMC3    C5 9353   2.212   2.658  14.258 -0.3153  0.3245  0.1083
  628TMC3    C6 9354   2.328   2.589  14.286  0.2530 -0.2771  0.3812
  628TMC3     C 9355   2.067   2.431  14.011  0.4303  0.6968  0.6960
  628TMC3     O 9356   2.103   2.395  13.899 -0.1485 -0.1164 -0.5190
  628TMC3     H 9357   2.327   2.351  14.046  0.0038  0.6800 -0.0510
  628TMC3    H1 9358   2.024   2.647  14.161 -0.4593 -1.0404  2.0829
  628TMC3    H2 9359   2.393   2.634  14.360 -2.0569  3.9762 -0.1628
  628TMC3    C7 9360   2.198   2.796  14.307 -0.6539  0.1417 -0.4892
  628TMC3    C8 9361   2.479   2.396  14.255 -0.1318  0.2401 -0.1530
  628TMC3    O1 9362   2.256   2.823  14.414 -0.4327  0.3231  0.4241
  628TMC3    O2 9363   2.532   2.332  14.164 -0.0614 -0.4692  0.0581
  629MPD2     C 9364   0.146   1.266  16.810 -0.0869 -0.1497  0.1230
  629MPD2    C1 9365   0.158   1.340  16.690  0.2603 -0.3777  0.3825
  629MPD2    C2 9366   0.048   1.344  16.604  0.0452  0.1781 -0.4521
  629MPD2    C3 9367   4.660   1.285  16.644 -0.2515 -0.0842  0.6439
  629MPD2    C4 9368   4.653   1.225  16.761  0.0510  0.0643  0.0474
  629MPD2    C5 9369   0.025   1.217  16.844  0.0667 -0.1157  0.4750
  629MPD2     H 9370   0.060   1.391  16.507 -0.9864  2.9944  0.7707
  629MPD2    H1 9371   4.564   1.164  16.777  0.3502 -0.0456  1.2980
  629MPD2    H2 9372   0.229   1.270  16.880 -1.0469  0.5050  1.2279
  629MPD2    H3 9373   0.014   1.173  16.943 -0.8047  0.4478  0.6262
  629MPD2     N 9374   4.541   1.282  16.568  0.8874 -0.4537  0.0479
  629MPD2    H5 9375   4.478   1.215  16.611  0.7254 -1.4498 -1.7708
  629MPD2    N1 9376   0.280   1.405  16.665 -0.0110  0.0391 -0.0742
  629MPD2    H7 9377   0.352   1.390  16.735 -0.0802  0.8376  0.1666
  630TMC3    C1 9378   0.441   1.550  16.574 -0.3565 -0.3331  0.1485
  630TMC3    C2 9379   0.467   1.679  16.537  0.4102 -0.3123 -0.0242
  630TMC3    C3 9380   0.593   1.727  16.563 -0.6248  0.0790  0.0930
  630TMC3    C4 9381   0.526   1.471  16.653 -0.6455  0.3159 -0.5429
  630TMC3    C5 9382   0.648   1.526  16.680 -0.3010  0.2927  0.0305
  630TMC3    C6 9383   0.685   1.654  16.638  0.5570  0.0345  0.4563
  630TMC3     C 9384   0.306   1.504  16.574  0.0814  0.0730 -0.8461
  630TMC3     O 9385   0.222   1.569  16.510  0.2603 -0.4806 -0.1534
  630TMC3     H 9386   0.392   1.738  16.485 -2.2198 -3.3963  0.2751
  630TMC3    H1 9387   0.512   1.364  16.664  0.1398  0.1391 -1.3080
  630TMC3    H2 9388   0.777   1.703  16.666  0.6461  0.5227 -0.6875
  630TMC3    C7 9389   0.697   1.473  16.805  0.2470  0.4832 -0.2811
  630TMC3    C8 9390   0.650   1.841  16.489  0.1722 -0.1581  0.3654
  630TMC3    O1 9391   0.633   1.387  16.865 -0.0254  0.4499 -0.1409
  630TMC3    O2 9392   0.746   1.899  16.537 -0.3778 -0.1063 -0.3461
  631MPD2     C 9393   3.176   1.174  15.426 -0.4336  0.0850  0.0504
  631MPD2    C1 9394   3.276   1.196  15.334  0.1864 -0.1918 -0.6398
  631MPD2    C2 9395   3.402   1.137  15.348  0.8565  0.1129  0.2711
  631MPD2    C3 9396   3.423   1.051  15.459  0.4642  0.5938  0.3607
  631MPD2    C4 9397   3.320   1.028  15.549 -0.2972  0.4363  0.3596
  631MPD2    C5 9398   3.203   1.093  15.538  0.1201  0.3743  0.3135
  631MPD2     H 9399   3.482   1.159  15.279  1.5992  0.6044  1.2981
  631MPD2    H1 9400   3.337   0.971  15.640 -0.0479 -0.0672 -0.0005
  631MPD2    H2 9401   3.074   1.211  15.420 -0.1307  0.7718 -0.7922
  631MPD2    H3 9402   3.121   1.077  15.607 -2.7811  0.4969 -3.0729
  631MPD2     N 9403   3.548   0.988  15.474 -0.0300  0.1811  0.0732
  631MPD2    H5 9404   3.624   1.002  15.408  0.7037  0.5934  1.0082
  631MPD2    N1 9405   3.238   1.269  15.226  0.5644 -0.7561 -0.4114
  631MPD2    H7 9406   3.143   1.306  15.228  0.8882 -0.0218  0.9349
  632TMC3    C1 9407   3.245   1.400  15.028 -0.4933 -0.1331 -0.5070
  632TMC3    C2 9408   3.115   1.432  15.059  0.4245  0.3577  0.3793
  632TMC3    C3 9409   3.043   1.494  14.960  0.4103 -0.6495 -0.2617
  632TMC3    C4 9410   3.303   1.433  14.909  0.3298  0.2905  0.4773
  632TMC3    C5 9411   3.226   1.487  14.812  0.3607 -0.2981  0.1037
  632TMC3    C6 9412   3.094   1.504  14.828  0.1944 -0.1092 -0.3647
  632TMC3     C 9413   3.322   1.314  15.126 -0.7161  0.2252  0.1143
  632TMC3     O 9414   3.444   1.305  15.115 -0.3059  0.1966 -0.7600
  632TMC3     H 9415   3.073   1.424  15.158  0.3171 -0.6554  0.2508
  632TMC3    H1 9416   3.408   1.406  14.899  0.1268 -0.3718  0.1543
  632TMC3    H2 9417   3.054   1.568  14.751  0.0419  0.8371  0.5081
  632TMC3    C7 9418   3.276   1.519  14.677 -0.7879 -0.3609  0.9719
  632TMC3    C8 9419   2.923   1.563  15.000 -0.1254 -0.3302  0.0774
  632TMC3    O1 9420   3.194   1.564  14.596 -0.1083  0.0075  0.2435
  632TMC3    O2 9421   2.902   1.573  15.124  0.5261 -0.0786  0.8632
  633MPD2     C 9422   2.404   4.367  17.126 -0.5872  0.4712  1.0027
  633MPD2    C1 9423   2.452   4.294  17.016 -0.4350 -0.5602  0.9581
  633MPD2    C2 9424   2.418   4.159  16.996 -0.5520 -0.3685  0.0822
  633MPD2    C3 9425   2.337   4.091  17.091 -0.2538  0.1004  0.4898
  633MPD2    C4 9426   2.305   4.159  17.204  0.3082  0.4768 -0.0495
  633MPD2    C5 9427   2.332   4.296  17.219  0.2579  0.6397  0.1531
  633MPD2     H 9428   2.456   4.104  16.910 -0.3221  0.4859 -0.3606
  633MPD2    H1 9429   2.254   4.118  17.291 -0.3403 -0.5954 -0.9487
  633MPD2    H2 9430   2.426   4.471  17.145 -2.2333  0.7976  1.1002
  633MPD2    H3 9431   2.286   4.338  17.308  1.0525  1.1564  0.3163
  633MPD2     N 9432   2.285   3.957  17.078  0.1234  0.1113 -0.1890
  633MPD2    H5 9433   2.241   3.922  17.162 -0.2152  0.0402 -0.3958
  633MPD2    N1 9434   2.518   4.361  16.906 -0.1890  0.9146 -0.4999
  633MPD2    H7 9435   2.539   4.309  16.821 -1.4326 -1.2447  0.5022
  634TMC3    C1 9436   2.616   4.542  16.796  0.2119  0.8890  0.0581
  634TMC3    C2 9437   2.724   4.462  16.774 -0.4355 -0.9604  0.1352
  634TMC3    C3 9438   2.809   4.510  16.679  0.4263 -0.2117  0.2378
  634TMC3    C4 9439   2.596   4.663  16.744  0.2336  0.4950  0.4564
  634TMC3    C5 9440   2.692   4.715  16.660 -0.4826  0.2261 -0.9249
  634TMC3    C6 9441   2.798   4.632  16.619  0.1789 -0.7434  0.1708
  634TMC3     C 9442   2.528   4.492  16.894 -0.0717  0.4645 -0.9473
  634TMC3     O 9443   2.468   4.581  16.955  0.4019  0.4402 -0.2419
  634TMC3     H 9444   2.740   4.358  16.803  1.9702 -1.1387 -1.8830
  634TMC3    H1 9445   2.516   4.729  16.776  0.8087  1.8585 -0.9448
  634TMC3    H2 9446   2.865   4.661  16.539  2.4052 -0.7366  2.0237
  634TMC3    C7 9447   2.662   0.085  16.560  0.0751  0.2827  0.4581
  634TMC3    C8 9448   2.882   4.406  16.616 -0.3052  0.5197 -0.3192
  634TMC3    O1 9449   2.758   0.137  16.505  0.1586  0.0998  0.0109
  634TMC3    O2 9450   2.942   4.335  16.695 -0.2701 -0.1164 -0.5120
  635TMC3    C1 9451   3.680   0.781   0.188 -0.2493 -0.2156 -0.0133
  635TMC3    C2 9452   3.813   0.751   0.190  0.2947 -0.5480  0.0330
  635TMC3    C3 9453   3.846   0.622   0.167  0.1846 -0.0930  0.8853
  635TMC3    C4 9454   3.583   0.686   0.172  0.1953  0.0133  0.0443
  635TMC3    C5 9455   3.626   0.553   0.162 -0.0620 -0.4197  0.1860
  635TMC3    C6 9456   3.759   0.522   0.168 -0.3473  0.1655 -0.6006
  635TMC3     C 9457   3.654   0.922   0.191  0.2596 -0.9689 -0.7587
  635TMC3     O 9458   3.748   0.992   0.226 -0.2766 -0.3829 -0.3572
  635TMC3     H 9459   3.887   0.830   0.190  0.1998 -0.4360 -4.6174
  635TMC3    H1 9460   3.478   0.712   0.169  0.7195  1.9180 -1.6467
  635TMC3    H2 9461   3.791   0.419   0.157  0.0147  0.0439  1.7311
  635TMC3    C7 9462   3.533   0.443   0.147 -0.0984 -0.0145  0.0357
  635TMC3    C8 9463   3.989   0.581   0.160  0.0405 -0.7431  0.2075
  635TMC3    O1 9464   3.563   0.332   0.190 -0.5206 -0.0169 -0.2146
  635TMC3    O2 9465   4.009   0.465   0.188  0.1722 -0.5047  0.1848
  636MPD2     C 9466   3.915   4.227  15.638 -0.0518 -0.4243 -0.1457
  636MPD2    C1 9467   3.965   4.221  15.760 -0.3931  0.2147 -0.4829
  636MPD2    C2 9468   3.991   4.101  15.822  0.6624 -0.9229 -0.2917
  636MPD2    C3 9469   3.974   3.983  15.754 -0.4985 -0.0832  0.0530
  636MPD2    C4 9470   3.923   3.995  15.619  0.6843 -0.1519 -0.0448
  636MPD2    C5 9471   3.896   4.116  15.571 -0.5409  0.1399  0.0822
  636MPD2     H 9472   4.026   4.102  15.925  0.5531  2.0913 -0.2903
  636MPD2    H1 9473   3.910   3.911  15.551 -2.0156  0.1572  0.1104
  636MPD2    H2 9474   3.882   4.321  15.594  0.3743  0.8887  2.3109
  636MPD2    H3 9475   3.856   4.130  15.471 -2.3798  3.1226  1.2626
  636MPD2     N 9476   4.005   3.855  15.810  0.1859  0.3025  0.7303
  636MPD2    H5 9477   4.054   3.864  15.898 -0.3858  1.8813  0.8686
  636MPD2    N1 9478   3.977   4.331  15.839  0.4397  0.3741 -0.7521
  636MPD2    H7 9479   4.012   4.323  15.934  0.0275  0.6649 -0.5738
  637TMC3    C1 9480   4.084   3.632  15.799  0.0079  0.3717 -0.4052
  637TMC3    C2 9481   4.079   3.621  15.929  0.1131  0.3962  0.0329
  637TMC3    C3 9482   4.193   3.570  15.995  0.3628  0.1749 -0.1668
  637TMC3    C4 9483   4.197   3.595  15.726 -0.5006  0.3690  0.2265
  637TMC3    C5 9484   4.310   3.551  15.784  0.5071  0.6608  0.3150
  637TMC3    C6 9485   4.303   3.530  15.923  0.6982  0.2215 -0.6793
  637TMC3     C 9486   4.002   3.736  15.741 -0.3765  0.4723  0.2006
  637TMC3     O 9487   3.986   3.718  15.623 -0.5170 -0.8748 -0.4636
  637TMC3     H 9488   3.989   3.653  15.980 -1.3529 -1.4632 -1.3707
  637TMC3    H1 9489   4.199   3.616  15.619  0.2845  0.4541  0.2597
  637TMC3    H2 9490   4.391   3.492  15.973  0.1801 -1.8866 -1.3624
  637TMC3    C7 9491   4.438   3.612  15.747 -0.0525 -0.6465 -0.1207
  637TMC3    C8 9492   4.226   3.638  16.118  0.2417 -0.4604 -0.3159
  637TMC3    O1 9493   4.493   3.650  15.850 -0.2855  0.6000  0.1125
  637TMC3    O2 9494   4.141   3.657  16.204 -0.2792  0.1406  0.6828
  638MPD2     C 9495   3.550   3.283  14.740  0.0358  0.1332 -0.8308
  638MPD2    C1 9496   3.530   3.168  14.671  0.4955  0.1489 -0.1905
  638MPD2    C2 9497   3.489   3.056  14.735  0.2215  0.1820  0.1217
  638MPD2    C3 9498   3.472   3.051  14.869  0.2408 -0.3760  0.2958
  638MPD2    C4 9499   3.503   3.172  14.939  0.5650  0.1222  0.7891
  638MPD2    C5 9500   3.537   3.285  14.873 -0.0800  0.2771  0.7078
  638MPD2     H 9501   3.454   2.970  14.678 -1.8647  0.6946  0.6362
  638MPD2    H1 9502   3.502   3.179  15.047 -0.5720 -0.3135  0.8014
  638MPD2    H2 9503   3.575   3.377  14.693  0.8143  0.6206  0.5762
  638MPD2    H3 9504   3.563   3.369  14.937  1.7993 -0.3666  0.7806
  638MPD2     N 9505   3.450   2.929  14.930  0.4445  0.6875 -0.6350
  638MPD2    H5 9506   3.461   2.845  14.874 -1.9092 -0.6328  0.9079
  638MPD2    N1 9507   3.558   3.187  14.532  0.5964 -0.3144 -0.1110
  638MPD2    H7 9508   3.604   3.273  14.504 -2.5757  0.8315 -1.7442
  639TMC3    C1 9509   3.449   2.775  15.097 -0.0694  0.3010  0.7233
  639TMC3    C2 9510   3.371   2.681  15.035 -0.4133 -0.1355 -0.1026
  639TMC3    C3 9511   3.397   2.537  15.043  0.5252  0.2902  0.3156
  639TMC3    C4 9512   3.564   2.737  15.156  0.3799 -0.9328 -0.3529
  639TMC3    C5 9513   3.593   2.607  15.161 -0.2887 -0.3215 -0.3605
  639TMC3    C6 9514   3.513   2.505  15.111  1.0123 -0.5638 -0.4503
  639TMC3     C 9515   3.435   2.908  15.067  0.4617 -0.7480 -0.5600
  639TMC3     O 9516   3.419   2.990  15.155  0.3095 -0.0488 -0.3397
  639TMC3     H 9517   3.287   2.715  14.976 -0.0224  0.5000 -0.3016
  639TMC3    H1 9518   3.636   2.809  15.191 -0.7425  0.3615 -0.7100
  639TMC3    H2 9519   3.535   2.401  15.131 -0.5151 -1.0204 -1.1200
  639TMC3    C7 9520   3.716   2.560  15.218  0.6196 -0.0043  0.9731
  639TMC3    C8 9521   3.359   2.433  14.945  0.3141 -0.0956  0.3556
  639TMC3    O1 9522   3.700   2.454  15.285 -0.7725  0.9116 -0.3660
  639TMC3    O2 9523   3.452   2.370  14.900  0.0967  0.0111  0.8365
  640MPD2     C 9524   3.596   1.932   9.849 -0.1368  0.3452  0.5064
  640MPD2    C1 9525   3.653   2.037   9.781  0.0375  0.3020  0.8296
  640MPD2    C2 9526   3.601   2.158   9.797  0.1030  0.3486  0.0343
  640MPD2    C3 9527   3.510   2.182   9.906 -0.4823 -0.1751 -0.5002
  640MPD2    C4 9528   3.465   2.074   9.978  0.2344 -0.6090 -0.0326
  640MPD2    C5 9529   3.502   1.950   9.939  0.5328  0.4109  0.1188
  640MPD2     H 9530   3.647   2.243   9.747 -1.6306  1.4246  0.2844
  640MPD2    H1 9531   3.390   2.079  10.057  1.0373 -1.7752  0.8023
  640MPD2    H2 9532   3.637   1.834   9.827 -1.9147 -0.2706 -0.0366
  640MPD2    H3 9533   3.476   1.863   9.997 -2.6649  2.0602  1.1872
  640MPD2     N 9534   3.465   2.311   9.936 -0.0927 -0.6569  0.2108
  640MPD2    H5 9535   3.387   2.316  10.001  0.2164 -1.4538  0.6453
  640MPD2    N1 9536   3.766   2.011   9.703 -0.2296 -0.1291  0.4627
  640MPD2    H7 9537   3.802   1.916   9.695 -1.6437 -0.6573  0.1688
  641TMC3    C1 9538   3.961   2.051   9.587  0.0849  0.0859 -0.1863
  641TMC3    C2 9539   4.040   1.966   9.657  0.5751  0.4205 -0.2784
  641TMC3    C3 9540   4.155   1.923   9.600  0.4261 -0.6211  0.3799
  641TMC3    C4 9541   4.009   2.123   9.482 -1.2140 -0.2071 -0.3600
  641TMC3    C5 9542   4.135   2.087   9.436 -0.2327  0.4626  0.4862
  641TMC3    C6 9543   4.202   1.979   9.482  0.3455 -0.1508  0.8913
  641TMC3     C 9544   3.846   2.111   9.653  0.5198  0.2472 -0.2923
  641TMC3     O 9545   3.823   2.226   9.626 -1.1090 -0.2758 -0.1021
  641TMC3     H 9546   3.995   1.908   9.737  0.2150  0.5965 -0.3496
  641TMC3    H1 9547   3.943   2.200   9.443  0.6651  0.2300 -2.6816
  641TMC3    H2 9548   4.296   1.940   9.445  1.0536  2.2298  0.2067
  641TMC3    C7 9549   4.189   2.146   9.314 -0.2456 -0.2802  0.5336
  641TMC3    C8 9550   4.234   1.815   9.667  0.6656  0.0462  0.2912
  641TMC3    O1 9551   4.102   2.201   9.251  0.2372  0.0286  0.3622
  641TMC3    O2 9552   4.319   1.760   9.599 -0.3049 -0.1401  0.3700
  642TMC3    C1 9553   0.754   3.021  11.733 -0.1477  0.1141 -0.2548
  642TMC3    C2 9554   0.797   3.036  11.864  0.9013  0.4656 -0.4781
  642TMC3    C3 9555   0.837   2.919  11.922 -0.5041  0.3998  0.3681
  642TMC3    C4 9556   0.756   2.908  11.663 -0.0632  0.0136 -0.1965
  642TMC3    C5 9557   0.801   2.795  11.733  0.0692 -0.8586  0.5614
  642TMC3    C6 9558   0.852   2.801  11.856  0.3844  0.2826 -0.1414
  642TMC3     C 9559   0.652   3.123  11.701 -0.2681  0.1217 -0.5070
  642TMC3     O 9560   0.654   3.182  11.590 -0.1037  0.7094 -0.2361
  642TMC3     H 9561   0.796   3.134  11.909  0.9483  1.0266 -1.7008
  642TMC3    H1 9562   0.691   2.901  11.577  1.2860 -0.6634 -1.1588
  642TMC3    H2 9563   0.890   2.713  11.906  1.2817  0.5697 -0.3073
  642TMC3    C7 9564   0.760   2.668  11.679 -0.0325 -0.3489 -0.5823
  642TMC3    C8 9565   0.885   2.928  12.059 -0.3407  0.3838 -1.0528
  642TMC3    O1 9566   0.718   2.666  11.565 -0.0327 -0.5877 -0.3095
  642TMC3    O2 9567   0.908   2.822  12.112  0.5174  0.8747  0.3557
  643TMC3    C1 9568   4.541   2.569   0.424 -0.6313  0.2283 -0.1126
  643TMC3    C2 9569   4.431   2.653   0.412  0.9951  0.0300 -0.5223
  643TMC3    C3 9570   4.384   2.690   0.286 -1.0082  0.2517  0.2145
  643TMC3    C4 9571   4.602   2.520   0.309  0.5783  0.4385 -0.0609
  643TMC3    C5 9572   4.564   2.577   0.191  0.0332 -0.9299 -0.0886
  643TMC3    C6 9573   4.452   2.660   0.174  0.2416  0.1774 -0.3122
  643TMC3     C 9574   4.622   2.565   0.543 -0.3869  0.7248 -0.7578
  643TMC3     O 9575   4.633   2.456   0.591 -0.1043  0.4123 -0.3894
  643TMC3     H 9576   4.391   2.695   0.504  2.0838 -0.6601  0.2655
  643TMC3    H1 9577   4.673   2.440   0.324  0.0314 -0.0555 -0.1317
  643TMC3    H2 9578   4.426   2.692   0.074 -1.3936  1.6696  0.5680
  643TMC3    C7 9579   4.661   2.581   0.078  0.2637  0.7533 -0.1892
  643TMC3    C8 9580   4.320   2.822   0.287 -0.3503  0.0986  0.2535
  643TMC3    O1 9581   4.614   2.626  17.715  0.4497  0.5918 -0.1569
  643TMC3    O2 9582   4.253   2.847   0.391 -0.0289  0.3963  0.3649
  644MPD2     C 9583   4.401   2.272   9.627  0.3947  0.0502  0.3514
  644MPD2    C1 9584   4.480   2.347   9.544 -0.0294  0.6830  0.4022
  644MPD2    C2 9585   4.444   2.480   9.506 -0.2795 -0.4493 -0.5043
  644MPD2    C3 9586   4.318   2.522   9.539 -0.1743  0.0701 -0.4785
  644MPD2    C4 9587   4.235   2.444   9.619  0.4626  0.2250  0.0666
  644MPD2    C5 9588   4.277   2.321   9.661 -0.0065 -0.4730 -0.6186
  644MPD2     H 9589   4.511   2.546   9.452  0.2552 -1.3110 -0.9042
  644MPD2    H1 9590   4.134   2.470   9.648 -0.2016 -2.1264 -0.1348
  644MPD2    H2 9591   4.424   2.168   9.648 -0.1329  0.1042  1.1870
  644MPD2    H3 9592   4.205   2.257   9.710  0.0982 -0.1781 -0.0772
  644MPD2     N 9593   4.284   2.648   9.480 -0.2137 -0.2711 -0.5063
  644MPD2    H5 9594   4.356   2.705   9.438  1.8292 -1.8445  0.8769
  644MPD2    N1 9595   4.604   2.289   9.517 -0.3286 -0.2260  0.2095
  644MPD2    H7 9596   4.618   2.194   9.553 -0.3000 -0.2889  0.0307
  645TMC3    C1 9597   4.155   2.825   9.403 -0.3828  0.0480  0.2036
  645TMC3    C2 9598   4.229   2.928   9.452  0.2731 -0.3618 -0.4033
  645TMC3    C3 9599   4.192   3.054   9.423  0.9484  0.1255  0.3974
  645TMC3    C4 9600   4.031   2.851   9.355  0.0605 -0.2067 -0.3329
  645TMC3    C5 9601   3.984   2.977   9.347 -0.0336  0.2979 -0.6593
  645TMC3    C6 9602   4.064   3.081   9.384  0.8230 -0.0772 -0.1147
  645TMC3     C 9603   4.159   2.705   9.486  0.3270 -0.0819 -0.1107
  645TMC3     O 9604   4.058   2.640   9.507  0.6019  0.7801  0.3042
  645TMC3     H 9605   4.323   2.922   9.505 -0.8524  2.1063  1.8934
  645TMC3    H1 9606   3.978   2.770   9.306 -1.6753  0.5229  0.3309
  645TMC3    H2 9607   4.020   3.179   9.369  1.0455  0.1173  0.4890
  645TMC3    C7 9608   3.887   3.012   9.238 -0.5202  0.0520 -1.3663
  645TMC3    C8 9609   4.287   3.155   9.445 -0.3095  0.2067 -0.1354
  645TMC3    O1 9610   3.890   3.127   9.198  0.4020 -0.1373 -0.2550
  645TMC3    O2 9611   4.366   3.142   9.535  0.1857 -0.5260 -0.3044
  646MPD2     C 9612   4.014   1.647  14.427 -0.8173  0.2188  0.9859
  646MPD2    C1 9613   3.953   1.664  14.544 -0.5626  0.2419  0.4693
  646MPD2    C2 9614   3.821   1.714  14.545  0.9429  0.5414  0.1367
  646MPD2    C3 9615   3.747   1.737  14.421 -0.6161  0.8303  0.4390
  646MPD2    C4 9616   3.811   1.701  14.305  0.4627  0.3382 -0.2535
  646MPD2    C5 9617   3.944   1.665  14.309 -0.5802 -0.5767 -0.0454
  646MPD2     H 9618   3.776   1.742  14.640  0.7112 -0.4127  0.3009
  646MPD2    H1 9619   3.762   1.708  14.209 -0.1308 -1.1524 -0.0585
  646MPD2    H2 9620   4.117   1.615  14.415 -0.9053  0.4839 -0.4568
  646MPD2    H3 9621   4.002   1.644  14.220 -0.7272 -0.4277 -0.1769
  646MPD2     N 9622   3.620   1.788  14.410  0.0171  0.1388  0.3362
  646MPD2    H5 9623   3.560   1.800  14.492 -0.4170 -1.2427  0.2222
  646MPD2    N1 9624   4.022   1.649  14.666 -0.3856  0.7272  0.4281
  646MPD2    H7 9625   4.117   1.615  14.654 -1.1559 -1.6379  0.9237
  647TMC3    C1 9626   4.071   1.649  14.895  0.0304  0.5529  0.0613
  647TMC3    C2 9627   4.024   1.591  15.012  0.4463 -0.0084 -0.0277
  647TMC3    C3 9628   4.104   1.599  15.124 -0.4405  0.7609  0.4600
  647TMC3    C4 9629   4.195   1.705  14.873  0.5297 -0.3626 -0.8840
  647TMC3    C5 9630   4.268   1.709  14.988  1.0492 -0.4778  0.3590
  647TMC3    C6 9631   4.224   1.667  15.116  0.4261  0.5158 -0.0081
  647TMC3     C 9632   3.967   1.660  14.793  0.1250 -0.7960  0.7411
  647TMC3     O 9633   3.849   1.672  14.827  0.9883  0.3144  0.0541
  647TMC3     H 9634   3.928   1.542  15.016  0.4675 -0.1390 -0.9831
  647TMC3    H1 9635   4.226   1.746  14.778  0.7119  3.7488  0.9216
  647TMC3    H2 9636   4.295   1.639  15.192  0.7825 -1.4961 -1.1019
  647TMC3    C7 9637   4.411   1.716  14.986 -0.5267 -0.9123 -0.0915
  647TMC3    C8 9638   4.127   1.467  15.187 -0.2575  0.0350  0.8642
  647TMC3    O1 9639   4.461   1.723  15.097 -0.0317  0.1156 -0.0363
  647TMC3    O2 9640   4.167   1.465  15.303  0.2325 -0.6226  0.5368
  648TMC3    C1 9641   3.205   4.397  16.248  0.2092  0.1416 -0.5224
  648TMC3    C2 9642   3.267   4.275  16.216 -0.1991 -0.5090 -0.1083
  648TMC3    C3 9643   3.294   4.238  16.089 -0.3781  0.2937 -0.1196
  648TMC3    C4 9644   3.168   4.480  16.140  0.1924  0.1814  0.8973
  648TMC3    C5 9645   3.207   4.446  16.014 -0.2388 -0.1106  0.6128
  648TMC3    C6 9646   3.254   4.322  15.983  0.2740 -0.1584 -0.2335
  648TMC3     C 9647   3.182   4.449  16.383  1.2803  0.2375 -0.6142
  648TMC3     O 9648   3.112   4.548  16.392 -0.4648 -0.0342 -0.0267
  648TMC3     H 9649   3.275   4.205  16.298 -0.1693 -0.6609 -0.2405
  648TMC3    H1 9650   3.119   4.575  16.158 -1.7772 -0.3930 -1.4126
  648TMC3    H2 9651   3.282   4.297  15.881 -0.2052 -2.3392  0.1656
  648TMC3    C7 9652   3.171   4.532  15.905 -0.7306  0.5449 -0.4701
  648TMC3    C8 9653   3.379   4.119  16.069 -0.3102  0.0329 -0.1204
  648TMC3    O1 9654   3.191   4.485  15.794 -0.0773 -0.0738 -0.1270
  648TMC3    O2 9655   3.413   4.060  16.172 -0.1001 -0.3252 -0.9473
  649TMC3    C1 9656   2.520   0.318  12.624 -0.0910 -0.0206  0.5108
  649TMC3    C2 9657   2.646   0.328  12.679  0.2014  0.0436 -0.1077
  649TMC3    C3 9658   2.663   0.297  12.813 -0.0408  0.2823 -0.6928
  649TMC3    C4 9659   2.413   0.306  12.715 -0.1219 -0.4336 -0.3057
  649TMC3    C5 9660   2.427   0.287  12.847 -0.4041  0.0644 -0.5683
  649TMC3    C6 9661   2.555   0.278  12.902 -0.3160  0.1009 -0.1019
  649TMC3     C 9662   2.496   0.332  12.477  0.0905 -0.1846  0.5381
  649TMC3     O 9663   2.383   0.371  12.448  0.1303  0.7146 -0.6060
  649TMC3     H 9664   2.731   0.346  12.613 -0.2425 -0.6421 -0.8635
  649TMC3    H1 9665   2.315   0.323  12.673 -0.5402  1.6785  1.5072
  649TMC3    H2 9666   2.574   0.289  13.008 -2.2379 -0.1447  0.2819
  649TMC3    C7 9667   2.304   0.242  12.923  0.5226 -0.1719  0.6363
  649TMC3    C8 9668   2.787   0.262  12.874 -0.1091  0.4183 -0.1615
  649TMC3    O1 9669   2.196   0.252  12.872  0.4438 -0.5245 -0.1324
  649TMC3    O2 9670   2.777   0.215  12.984  0.2443  0.1210  0.4554
  650TMC3    C1 9671   0.341   2.048  12.476  0.4812 -1.2235 -0.2658
  650TMC3    C2 9672   0.343   2.174  12.527  0.5228  0.5738 -0.1431
  650TMC3    C3 9673   0.241   2.250  12.479  0.3190 -0.3909  0.4855
  650TMC3    C4 9674   0.249   2.001  12.386  0.2009 -0.4137 -0.2783
  650TMC3    C5 9675   0.142   2.079  12.346 -0.0509 -0.3317  0.1922
  650TMC3    C6 9676   0.139   2.207  12.396 -0.7094  0.4881 -0.2726
  650TMC3     C 9677   0.436   1.957  12.530 -0.2913 -0.8442  0.3076
  650TMC3     O 9678   0.532   2.006  12.585 -0.2744 -0.0115 -0.4700
  650TMC3     H 9679   0.426   2.218  12.581  0.6162 -0.8453  0.8802
  650TMC3    H1 9680   0.262   1.906  12.337  2.1172 -0.5805  0.5689
  650TMC3    H2 9681   0.052   2.271  12.389 -1.6655 -0.8527 -0.7416
  650TMC3    C7 9682   0.048   2.038  12.246  0.4927 -0.2507 -0.0874
  650TMC3    C8 9683   0.252   2.395  12.483 -0.3486  1.3164  0.1258
  650TMC3    O1 9684   0.030   1.919  12.249 -0.0538 -0.1611 -0.1260
  650TMC3    O2 9685   0.207   2.461  12.390 -0.0410  0.0260  0.0079
  651MPD2     C 9686   3.557   3.999  10.087  0.7030 -0.5450  0.3004
  651MPD2    C1 9687   3.540   4.129  10.126  0.2688  0.1047 -0.5611
  651MPD2    C2 9688   3.651   4.206  10.158 -0.3553  0.1453 -0.2635
  651MPD2    C3 9689   3.775   4.149  10.175  0.0279 -0.9005 -0.0516
  651MPD2    C4 9690   3.792   4.013  10.144  0.1712 -0.6398  0.1674
  651MPD2    C5 9691   3.680   3.944  10.100 -0.5979  0.2448  0.8428
  651MPD2     H 9692   3.642   4.313  10.177  0.9655  0.7382 -2.9260
  651MPD2    H1 9693   3.893   3.977  10.134  0.7908  1.1050  0.2210
  651MPD2    H2 9694   3.476   3.942  10.043  0.7256  0.3322 -0.8908
  651MPD2    H3 9695   3.695   3.849  10.052 -0.0155  0.8441 -0.1509
  651MPD2     N 9696   3.888   4.226  10.206 -0.0271  0.1054  0.0351
  651MPD2    H5 9697   3.878   4.326  10.188 -2.5518 -0.2022 -0.2651
  651MPD2    N1 9698   3.413   4.199  10.118 -0.4462  0.1733  0.3068
  651MPD2    H7 9699   3.424   4.300  10.120 -0.5956  0.2016 -0.2592
  652TMC3    C1 9700   4.342   4.318  10.269 -0.5732  0.1681 -0.6035
  652TMC3    C2 9701   4.242   4.232  10.286 -0.1313  0.2190 -0.0052
  652TMC3    C3 9702   4.118   4.264  10.230  0.3436  0.8298 -0.2634
  652TMC3    C4 9703   4.346   4.424  10.184 -0.3005 -0.0559 -0.7841
  652TMC3    C5 9704   4.225   4.444  10.118  0.0582  0.1854  0.4164
  652TMC3    C6 9705   4.112   4.371  10.151  0.4040 -0.2141  0.0550
  652TMC3     C 9706   4.460   4.292  10.341  0.1854  0.5748  0.0938
  652TMC3     O 9707   4.442   4.229  10.441 -0.1448  0.3152 -0.8351
  652TMC3     H 9708   4.246   4.151  10.357  0.8949  0.9731  0.8130
  652TMC3    H1 9709   4.435   4.480  10.161  0.2430 -0.7099 -0.2614
  652TMC3    H2 9710   4.029   4.371  10.080  0.4786  0.7850 -0.0374
  652TMC3    C7 9711   4.210   4.542  10.015  0.6200 -0.3888 -0.1333
  652TMC3    C8 9712   4.003   4.178  10.258 -0.2785  0.5453 -0.0769
  652TMC3    O1 9713   4.148   4.511   9.915  0.3200  0.6337  0.2618
  652TMC3    O2 9714   4.033   4.068  10.308  0.2265 -0.8223 -0.3441
  653MPD2     C 9715   2.017   4.236  17.514  0.4867  0.3661 -0.4426
  653MPD2    C1 9716   2.012   4.306  17.392 -0.2619 -0.1258  0.5827
  653MPD2    C2 9717   1.996   4.251  17.267 -0.6144  0.0183  0.3643
  653MPD2    C3 9718   1.965   4.119  17.271  0.5173  0.1863  0.4157
  653MPD2    C4 9719   1.968   4.038  17.382 -0.2382 -0.0965 -0.2965
  653MPD2    C5 9720   2.006   4.100  17.501  0.0822 -0.1255  0.4312
  653MPD2     H 9721   1.992   4.313  17.178 -0.2229 -0.6995 -0.1553
  653MPD2    H1 9722   1.951   3.931  17.381  4.1377 -0.7818 -0.1329
  653MPD2    H2 9723   2.046   4.275  17.611 -2.6969 -1.4029  1.1968
  653MPD2    H3 9724   2.027   4.053  17.596 -0.7087 -0.2751  0.5358
  653MPD2     N 9725   1.932   4.064  17.146 -0.3983 -0.2250 -0.2496
  653MPD2    H5 9726   1.917   4.134  17.075  0.2405 -0.7623 -0.9197
  653MPD2    N1 9727   2.036   4.444  17.394  0.2743 -0.1381  0.1978
  653MPD2    H7 9728   2.013   4.495  17.310  1.5413 -0.2920 -0.2316
  654TMC3    C1 9729   1.885   3.902  16.982 -0.2130 -0.2762 -0.5722
  654TMC3    C2 9730   1.794   3.975  16.909  0.0227 -0.3694  0.0275
  654TMC3    C3 9731   1.749   3.924  16.792  0.6752 -0.2949  0.0923
  654TMC3    C4 9732   1.932   3.783  16.940  0.5476  0.1297 -0.1343
  654TMC3    C5 9733   1.876   3.735  16.818 -0.0325  0.1397 -0.8062
  654TMC3    C6 9734   1.784   3.806  16.740 -0.1637 -0.0075 -0.4518
  654TMC3     C 9735   1.923   3.930  17.118 -0.2646 -0.3695 -0.5913
  654TMC3     O 9736   1.970   3.835  17.175 -0.3132 -0.5503 -0.2567
  654TMC3     H 9737   1.764   4.072  16.947  0.4076  0.3381 -1.4730
  654TMC3    H1 9738   2.007   3.730  16.997  2.7242  1.9346 -1.3074
  654TMC3    H2 9739   1.751   3.758  16.648  0.7156 -2.3399  0.4337
  654TMC3    C7 9740   1.913   3.597  16.780 -0.5399 -0.3789  0.4295
  654TMC3    C8 9741   1.689   4.020  16.705 -0.2795  0.0126  0.6764
  654TMC3    O1 9742   1.893   3.567  16.661  0.4328 -0.1898  0.1212
  654TMC3    O2 9743   1.659   4.129  16.749 -0.1599 -0.6423 -0.4262
  655MPD2     C 9744   3.533   4.217  15.619 -0.0357  0.3325 -0.2067
  655MPD2    C1 9745   3.469   4.313  15.544  0.2357 -0.1436 -0.4566
  655MPD2    C2 9746   3.432   4.283  15.415  0.5083 -0.2292 -0.0264
  655MPD2    C3 9747   3.477   4.166  15.358  0.0833 -0.4261 -0.1612
  655MPD2    C4 9748   3.555   4.076  15.427  0.2563  0.3592  0.8933
  655MPD2    C5 9749   3.581   4.107  15.557 -0.0129 -0.3315 -0.6409
  655MPD2     H 9750   3.382   4.364  15.362  1.5983  2.2698  2.7299
  655MPD2    H1 9751   3.593   3.981  15.392 -1.7019 -0.8027  1.9713
  655MPD2    H2 9752   3.554   4.224  15.725 -0.2831  2.1133 -0.2773
  655MPD2    H3 9753   3.647   4.049  15.620  0.4800 -0.2469 -1.0737
  655MPD2     N 9754   3.445   4.134  15.224  0.5305  0.2475 -0.3324
  655MPD2    H5 9755   3.493   4.053  15.187 -0.6054 -0.3828 -0.4105
  655MPD2    N1 9756   3.452   4.441  15.588  0.0582  0.2270 -0.3129
  655MPD2    H7 9757   3.405   4.497  15.517 -0.6912 -0.3198 -0.2495
  656TMC3    C1 9758   3.492   4.631  15.724 -0.0984 -0.0504 -0.8020
  656TMC3    C2 9759   3.494   4.679  15.857 -0.2194  0.2280  0.6705
  656TMC3    C3 9760   3.457   0.075  15.864  0.1771 -0.0551  0.0536
  656TMC3    C4 9761   3.512   4.712  15.616  1.0031  0.3958  0.2519
  656TMC3    C5 9762   3.487   0.111  15.632  0.4468  0.0731  0.4550
  656TMC3    C6 9763   3.452   0.161  15.761 -0.9789 -0.3768 -0.4786
  656TMC3     C 9764   3.505   4.488  15.711 -0.0535 -0.4042 -0.7577
  656TMC3     O 9765   3.562   4.431  15.802 -0.3498 -0.7635  0.6258
  656TMC3     H 9766   3.489   4.615  15.945 -1.1919 -0.7090 -0.0591
  656TMC3    H1 9767   3.536   4.671  15.519 -0.7861 -1.0552  0.4208
  656TMC3    H2 9768   3.443   0.269  15.770 -1.1850 -0.2233 -2.5198
  656TMC3    C7 9769   3.436   0.167  15.509  0.5465  0.6168  0.2150
  656TMC3    C8 9770   3.400   0.120  15.996  0.0352 -0.1652  0.2886
  656TMC3    O1 9771   3.488   0.126  15.411  0.0877  0.1758  0.0752
  656TMC3    O2 9772   3.395   0.038  16.087 -0.3791 -0.3512 -0.1307
  657TMC3    C1 9773   2.360   3.830  14.978  0.0349 -0.3516  0.0370
  657TMC3    C2 9774   2.360   3.958  15.029 -0.8437  0.0939 -0.5458
  657TMC3    C3 9775   2.296   4.051  14.954 -0.8009  0.4074 -0.4355
  657TMC3    C4 9776   2.275   3.797  14.876 -0.8297  0.3839  0.1867
  657TMC3    C5 9777   2.212   3.893  14.799 -0.4948  0.8448 -0.0942
  657TMC3    C6 9778   2.228   4.018  14.838  0.7931 -0.2230 -0.3291
  657TMC3     C 9779   2.409   3.729  15.073  0.4394  1.0442  0.8445
  657TMC3     O 9780   2.366   3.747  15.186  0.0767 -0.0916  0.9407
  657TMC3     H 9781   2.407   3.977  15.125 -0.4097 -0.2119 -0.6954
  657TMC3    H1 9782   2.245   3.693  14.880  2.8819 -0.6175  1.5199
  657TMC3    H2 9783   2.174   4.096  14.784  0.0032 -1.8311 -1.8440
  657TMC3    C7 9784   2.095   3.862  14.708  0.2110  0.6742 -0.2695
  657TMC3    C8 9785   2.285   4.186  15.006 -0.1808 -0.6650  0.3731
  657TMC3    O1 9786   2.006   3.945  14.709  0.1304  0.6928  0.0239
  657TMC3    O2 9787   2.222   4.261  14.931  0.1002  0.1910 -0.6427
  658MPD2     C 9788   3.959   4.148  14.819 -0.5248 -0.7055  0.7878
  658MPD2    C1 9789   3.838   4.145  14.752 -0.2058 -0.3662  0.5283
  658MPD2    C2 9790   3.852   4.161  14.613 -0.2842  0.1016 -0.2779
  658MPD2    C3 9791   3.967   4.177  14.547  0.3533 -0.8875  0.6559
  658MPD2    C4 9792   4.081   4.188  14.621  0.3115 -0.1773  0.4302
  658MPD2    C5 9793   4.074   4.172  14.755 -0.1633  0.4749 -0.1526
  658MPD2     H 9794   3.763   4.158  14.551 -0.3907  1.2208 -0.1755
  658MPD2    H1 9795   4.179   4.198  14.576 -0.5322 -1.6536 -1.7327
  658MPD2    H2 9796   3.969   4.124  14.925 -1.4602  0.5111  1.1546
  658MPD2    H3 9797   4.155   4.179  14.825 -0.6894 -0.1317  0.5182
  658MPD2     N 9798   3.954   4.191  14.405 -0.8539  0.3313  0.5929
  658MPD2    H5 9799   3.860   4.173  14.372  0.0711 -4.0634  0.2933
  658MPD2    N1 9800   3.727   4.099  14.817 -0.1293 -0.1656  0.4286
  658MPD2    H7 9801   3.740   4.107  14.917 -1.3594  2.9450  0.3440
  659TMC3    C1 9802   3.500   4.041  14.846 -0.3547 -0.4634  0.3522
  659TMC3    C2 9803   3.503   4.117  14.960 -0.4850  0.5399  0.3074
  659TMC3    C3 9804   3.375   4.152  15.004 -0.4995  0.6197  0.2550
  659TMC3    C4 9805   3.383   4.031  14.763 -0.6197 -0.1908 -0.4986
  659TMC3    C5 9806   3.261   4.077  14.815  0.1405 -0.2607 -1.1888
  659TMC3    C6 9807   3.258   4.145  14.930 -0.6568  1.0315 -0.1496
  659TMC3     C 9808   3.614   4.044  14.756 -0.2168 -0.1155  0.1857
  659TMC3     O 9809   3.610   3.981  14.653 -0.4807 -0.1469 -0.3532
  659TMC3     H 9810   3.584   4.149  15.025  1.3686 -2.4729 -0.4812
  659TMC3    H1 9811   3.397   3.975  14.672 -1.7048 -0.0892 -0.7193
  659TMC3    H2 9812   3.165   4.185  14.967 -1.5018  0.3727 -1.5553
  659TMC3    C7 9813   3.142   4.086  14.729 -0.5580  0.4432 -0.7345
  659TMC3    C8 9814   3.366   4.198  15.140  0.3389 -0.0090  0.3348
  659TMC3    O1 9815   3.047   4.159  14.759 -0.6674 -0.2093  0.2451
  659TMC3    O2 9816   3.262   4.260  15.168 -0.2320  0.3665  0.1063
  660MPD2     C 9817   1.460   2.834  12.712 -0.2612  1.3215 -0.3216
  660MPD2    C1 9818   1.352   2.855  12.634 -0.6767 -0.3985 -0.5966
  660MPD2    C2 9819   1.229   2.811  12.673  0.0824  0.1677 -0.6571
  660MPD2    C3 9820   1.211   2.756  12.795  0.1085  0.3377  0.6459
  660MPD2    C4 9821   1.319   2.733  12.871 -0.7171 -0.5757 -0.2981
  660MPD2    C5 9822   1.443   2.775  12.835  0.5785  0.8868  0.3448
  660MPD2     H 9823   1.149   2.840  12.605 -0.4659  0.5215  0.1276
  660MPD2    H1 9824   1.313   2.700  12.974 -0.6822 -1.3444 -0.5478
  660MPD2    H2 9825   1.557   2.877  12.690  1.6198 -3.5988 -1.6654
  660MPD2    H3 9826   1.531   2.768  12.898 -0.5603  0.0443  1.8158
  660MPD2     N 9827   1.082   2.725  12.843 -0.0701 -0.3731  0.2447
  660MPD2    H5 9828   1.079   2.689  12.938  1.2673 -0.6205  0.1866
  660MPD2    N1 9829   1.368   2.913  12.503 -0.3348  0.2195  0.0751
  660MPD2    H7 9830   1.281   2.935  12.456 -0.2543 -1.8477 -1.0109
  661TMC3    C1 9831   1.477   2.983  12.301  0.2048  0.4831 -0.0978
  661TMC3    C2 9832   1.578   2.954  12.221  0.0273 -0.9624 -0.2586
  661TMC3    C3 9833   1.563   2.958  12.085  0.5134 -0.5472  0.2724
  661TMC3    C4 9834   1.358   3.025  12.251 -0.0286  0.6469  0.3416
  661TMC3    C5 9835   1.345   3.018  12.115  0.2674 -0.1823 -0.3722
  661TMC3    C6 9836   1.446   2.981  12.026  0.4984 -0.3515  0.2584
  661TMC3     C 9837   1.490   2.929  12.436 -0.2025  0.6831  0.0402
  661TMC3     O 9838   1.601   2.900  12.472 -1.2320  0.5115 -0.6426
  661TMC3     H 9839   1.668   2.915  12.267  1.0548  1.3744 -0.3079
  661TMC3    H1 9840   1.281   3.070  12.313 -0.2604  0.1422  0.4185
  661TMC3    H2 9841   1.435   2.980  11.919 -0.9576 -0.5689  0.4046
  661TMC3    C7 9842   1.251   3.111  12.054  0.5363 -0.3368  0.0034
  661TMC3    C8 9843   1.664   2.896  12.008  0.3146  0.2299  0.0089
  661TMC3    O1 9844   1.236   3.224  12.109 -0.4208  0.0013  0.0506
  661TMC3    O2 9845   1.740   2.824  12.074 -0.5881  0.7232  0.4267
  662MPD2     C 9846   1.625   3.478  16.925  0.5832  0.5674 -0.1054
  662MPD2    C1 9847   1.686   3.416  17.033  0.0398  0.2063 -0.5752
  662MPD2    C2 9848   1.694   3.489  17.150  0.3672 -0.0326 -0.3320
  662MPD2    C3 9849   1.635   3.616  17.171 -0.2229 -0.1550  0.2114
  662MPD2    C4 9850   1.592   3.680  17.061 -0.0488  0.2319  0.4852
  662MPD2    C5 9851   1.588   3.610  16.940  0.2167 -0.5171  0.7252
  662MPD2     H 9852   1.738   3.430  17.229 -1.0065  0.0660  0.5040
  662MPD2    H1 9853   1.547   3.779  17.057 -0.0237  0.3276  2.5981
  662MPD2    H2 9854   1.620   3.436  16.826 -3.6389 -1.0119  0.7817
  662MPD2    H3 9855   1.524   3.645  16.860 -0.8997 -2.5008  0.7409
  662MPD2     N 9856   1.629   3.677  17.294  0.2827  0.3597  0.0562
  662MPD2    H5 9857   1.583   3.767  17.306  0.2007  0.4972 -1.3859
  662MPD2    N1 9858   1.727   3.281  17.035  0.0348  0.1380 -0.0601
  662MPD2    H7 9859   1.777   3.251  17.118 -3.0934  0.0497  1.7794
  663TMC3    C1 9860   1.766   3.063  16.966 -0.3481 -0.4732  0.3573
  663TMC3    C2 9861   1.768   3.017  17.090  0.2042 -0.6930  0.1723
  663TMC3    C3 9862   1.781   2.881  17.116  0.3319  0.3511 -0.3946
  663TMC3    C4 9863   1.779   2.974  16.859 -0.0511 -0.4440  0.3391
  663TMC3    C5 9864   1.823   2.849  16.891  0.5919  0.0224  0.1507
  663TMC3    C6 9865   1.821   2.800  17.018 -1.3286  0.2511 -0.3850
  663TMC3     C 9866   1.723   3.199  16.933 -0.1993 -0.0657  0.2107
  663TMC3     O 9867   1.676   3.210  16.822 -0.3674 -0.0945 -0.4435
  663TMC3     H 9868   1.712   3.081  17.156  1.9080 -0.6878  1.6090
  663TMC3    H1 9869   1.779   3.018  16.760 -0.0004 -1.3545 -0.0578
  663TMC3    H2 9870   1.803   2.695  17.041 -1.8096  0.5662  0.7135
  663TMC3    C7 9871   1.789   2.754  16.788  0.4703  0.7769  0.1415
  663TMC3    C8 9872   1.676   2.830  17.209  0.2646  0.1302  0.0207
  663TMC3    O1 9873   1.726   2.795  16.692  0.1530 -0.6213  0.6223
  663TMC3    O2 9874   1.607   2.741  17.159  0.3768  0.4078 -0.0559
  664MPD2     C 9875   0.193   0.895  17.620  0.0563  0.4268 -0.7469
  664MPD2    C1 9876   0.207   1.030  17.646  0.1756 -0.1169 -0.1465
  664MPD2    C2 9877   0.112   1.082  17.731 -0.1178  0.6930 -0.1124
  664MPD2    C3 9878   0.025   1.000   0.074  0.2589 -0.5145  0.3227
  664MPD2    C4 9879   0.025   0.859   0.053 -0.0781 -0.1692  0.1829
  664MPD2    C5 9880   0.107   0.814  17.688 -0.9673 -0.3665  0.6189
  664MPD2     H 9881   0.116   1.187   0.018 -0.2477  0.8284 -0.6218
  664MPD2    H1 9882   4.689   0.794   0.102  0.6579  0.1467  1.6778
  664MPD2    H2 9883   0.245   0.854  17.534 -0.5177 -1.7018 -0.0918
  664MPD2    H3 9884   0.128   0.709  17.674  0.2566  0.0187 -0.4874
  664MPD2     N 9885   4.685   1.062   0.173 -0.2770 -0.4883 -0.1839
  664MPD2    H5 9886   4.679   1.163   0.162 -0.0218 -0.3386  1.0226
  664MPD2    N1 9887   0.296   1.118  17.581  0.3133  0.5228  0.1654
  664MPD2    H7 9888   0.302   1.210  17.623 -1.0420 -0.1782  1.9097
  665TMC3    C1 9889   4.555   1.112   0.356 -0.2861  0.1730  0.2827
  665TMC3    C2 9890   4.526   1.081   0.487 -0.0010 -0.5641 -0.5029
  665TMC3    C3 9891   4.474   1.177   0.571 -0.5255 -0.2781 -0.1806
  665TMC3    C4 9892   4.543   1.240   0.313  0.2283  0.5489  0.6797
  665TMC3    C5 9893   4.510   1.333   0.404  0.7032 -0.0930  0.9742
  665TMC3    C6 9894   4.474   1.306   0.532 -0.2316  1.1889  0.9932
  665TMC3     C 9895   4.613   1.007   0.276 -0.0905 -0.4034  0.0112
  665TMC3     O 9896   4.608   0.892   0.318  0.6334  0.6054  0.2434
  665TMC3     H 9897   4.527   0.979   0.522  0.1159 -0.7541 -1.0619
  665TMC3    H1 9898   4.560   1.271   0.210  2.3549  0.6737  1.0700
  665TMC3    H2 9899   4.446   1.383   0.604 -0.2752  1.4754  0.6687
  665TMC3    C7 9900   4.490   1.459   0.365 -0.3125 -0.0599  0.2763
  665TMC3    C8 9901   4.457   1.149   0.712 -0.5888 -0.4943 -0.1060
  665TMC3    O1 9902   4.463   1.480   0.253 -0.1074  0.1781  0.2237
  665TMC3    O2 9903   4.393   1.230   0.772 -0.3178  0.0126  0.8684
  666TMC3    C1 9904   4.649   1.184   9.130  0.2994  0.2382  0.5080
  666TMC3    C2 9905   4.639   1.136   9.258  0.2325 -0.2669  0.2902
  666TMC3    C3 9906   4.630   1.226   9.368  0.0887  0.2554 -0.0457
  666TMC3    C4 9907   4.637   1.315   9.109 -0.0275 -0.1972  0.1364
  666TMC3    C5 9908   4.633   1.404   9.217  0.2217  0.4797  0.0090
  666TMC3    C6 9909   4.638   1.361   9.348  0.3831  0.5833 -0.5418
  666TMC3     C 9910   4.655   1.096   9.020 -0.1658 -0.3337  0.8949
  666TMC3     O 9911   4.671   1.147   8.907  0.5470  0.2159  0.6926
  666TMC3     H 9912   4.646   1.032   9.286  1.4593 -0.0125  0.9567
  666TMC3    H1 9913   4.640   1.364   9.012  0.4646  0.4800  0.4910
  666TMC3    H2 9914   4.622   1.432   9.428 -0.7066  1.6121 -1.6786
  666TMC3    C7 9915   4.528   1.505   9.202 -0.0157 -0.5427  0.8027
  666TMC3    C8 9916   4.593   1.175   9.491 -0.2631  0.1933 -0.0550
  666TMC3    O1 9917   4.557   1.614   9.156  0.1262  0.4512 -0.0588
  666TMC3    O2 9918   4.586   1.051   9.496  0.7367 -0.4362  0.2751
  667MPD2     C 9919   0.576   0.592  14.782 -0.3496 -0.2444 -0.3120
  667MPD2    C1 9920   0.527   0.653  14.887 -0.8565 -0.4263  0.3136
  667MPD2    C2 9921   0.417   0.608  14.951 -0.0973 -0.8962 -0.3186
  667MPD2    C3 9922   0.333   0.509  14.908 -0.3378  0.0968  0.7856
  667MPD2    C4 9923   0.372   0.450  14.792 -0.0588 -0.5507 -0.7946
  667MPD2    C5 9924   0.499   0.489  14.737 -0.2939 -0.1821  0.1666
  667MPD2     H 9925   0.380   0.666  15.035  0.7303 -0.0679 -0.5301
  667MPD2    H1 9926   0.323   0.361  14.756 -1.3598 -0.6746  1.3204
  667MPD2    H2 9927   0.663   0.627  14.727 -0.7667  0.9965 -0.1805
  667MPD2    H3 9928   0.540   0.439  14.650  2.4905 -0.0637  1.4045
  667MPD2     N 9929   0.216   0.460  14.972  0.5967  0.0964  0.2264
  667MPD2    H5 9930   0.146   0.415  14.914  1.2245  1.9642 -1.9894
  667MPD2    N1 9931   0.574   0.779  14.930 -0.4768 -0.1399 -0.3326
  667MPD2    H7 9932   0.507   0.822  14.994  1.6381  0.2680  1.6328
  668TMC3    C1 9933   0.694   0.984  14.952 -1.1553 -0.0017  0.7072
  668TMC3    C2 9934   0.764   1.083  14.894  0.4308 -0.1417 -0.3712
  668TMC3    C3 9935   0.770   1.207  14.951  0.0770  0.4557 -0.0702
  668TMC3    C4 9936   0.604   1.012  15.048 -0.4974 -0.2693  0.1823
  668TMC3    C5 9937   0.602   1.139  15.090  0.2176  0.2789  0.4215
  668TMC3    C6 9938   0.674   1.247  15.043 -0.4946  0.1504 -0.3211
  668TMC3     C 9939   0.687   0.848  14.889 -0.2411 -0.3076 -0.6911
  668TMC3     O 9940   0.764   0.818  14.798  0.1792  0.4509  0.0255
  668TMC3     H 9941   0.840   1.058  14.820 -1.2060  0.8605 -2.4091
  668TMC3    H1 9942   0.542   0.940  15.101  0.5794  0.8212  2.9417
  668TMC3    H2 9943   0.674   1.346  15.086 -0.1337 -0.7772  1.8335
  668TMC3    C7 9944   0.510   1.172  15.194  0.3610 -0.2814  0.2607
  668TMC3    C8 9945   0.836   1.323  14.879  0.2474  0.3383 -0.2506
  668TMC3    O1 9946   0.530   1.271  15.265 -0.6473  0.1354  0.1691
  668TMC3    O2 9947   0.815   1.436  14.925  0.6167 -0.4563  0.1520
  669TMC3    C1 9948   3.600   0.933  14.513  0.4580  0.0805 -0.4568
  669TMC3    C2 9949   3.473   0.972  14.477 -0.1978 -0.3496  0.0404
  669TMC3    C3 9950   3.453   1.075  14.389 -0.4834  0.2557  0.1041
  669TMC3    C4 9951   3.715   0.992  14.457  0.3301  0.2920  0.1284
  669TMC3    C5 9952   3.691   1.087  14.363 -0.1762  0.5751  0.2330
  669TMC3    C6 9953   3.559   1.129  14.330 -0.1968  0.2687  0.2596
  669TMC3     C 9954   3.621   0.836  14.628 -0.3451  0.7057  0.3908
  669TMC3     O 9955   3.514   0.794  14.673  0.0581 -0.0975 -0.0972
  669TMC3     H 9956   3.385   0.926  14.522  0.1953  0.1325  1.3171
  669TMC3    H1 9957   3.817   0.973  14.487  0.5664 -1.2915 -1.6990
  669TMC3    H2 9958   3.543   1.200  14.250 -1.1772 -1.4082 -1.0245
  669TMC3    C7 9959   3.806   1.140  14.289  0.3325 -0.0824  0.1177
  669TMC3    C8 9960   3.335   1.075  14.308 -0.3890 -0.2377 -0.8527
  669TMC3    O1 9961   3.915   1.139  14.344 -0.0915 -0.1233  0.3911
  669TMC3    O2 9962   3.294   0.964  14.276  0.5360  0.2820 -0.0496
  670MPD2     C 9963   1.661   3.268  12.777  0.4078  0.1795  0.2628
  670MPD2    C1 9964   1.736   3.346  12.859 -1.1201 -0.5520 -0.3479
  670MPD2    C2 9965   1.785   3.301  12.978 -0.9280  0.3758  0.2118
  670MPD2    C3 9966   1.749   3.174  13.020 -1.0912  0.5663 -0.6432
  670MPD2    C4 9967   1.668   3.095  12.937 -0.7122  0.9338 -0.2186
  670MPD2    C5 9968   1.634   3.138  12.809 -0.2132 -0.7482  0.6231
  670MPD2     H 9969   1.841   3.366  13.044 -0.0569 -0.3297  0.1791
  670MPD2    H1 9970   1.641   2.994  12.965 -0.9797  0.4845 -2.1264
  670MPD2    H2 9971   1.627   3.312  12.684 -0.6452 -1.9540 -0.3422
  670MPD2    H3 9972   1.567   3.089  12.740 -0.3212  0.4882 -0.1439
  670MPD2     N 9973   1.788   3.143  13.148  0.2033 -0.0036 -0.1856
  670MPD2    H5 9974   1.850   3.205  13.200 -0.0494  0.0843  0.0062
  670MPD2    N1 9975   1.772   3.476  12.831  0.2671  0.4505  0.4809
  670MPD2    H7 9976   1.851   3.523  12.874  0.0370  0.6354  0.7001
  671TMC3    C1 9977   1.818   3.016  13.344  0.2123 -0.1466  0.0753
  671TMC3    C2 9978   1.895   3.110  13.398 -0.0830  0.9429 -0.1666
  671TMC3    C3 9979   1.925   3.114  13.535  0.0311 -0.1078 -0.2005
  671TMC3    C4 9980   1.746   2.940  13.430 -0.4152 -0.1265  0.4720
  671TMC3    C5 9981   1.768   2.949  13.560  0.3883  0.5826 -0.0443
  671TMC3    C6 9982   1.860   3.035  13.622  1.1993  0.7525  0.2813
  671TMC3     C 9983   1.773   3.014  13.208  0.3565 -1.0443 -0.1788
  671TMC3     O 9984   1.726   2.918  13.160  0.0221 -0.5059 -0.2167
  671TMC3     H 9985   1.957   3.160  13.325  1.1512  1.9365  1.5639
  671TMC3    H1 9986   1.681   2.870  13.379 -0.9473  0.9348 -0.2984
  671TMC3    H2 9987   1.883   3.025  13.728 -2.3276  0.2134  0.9905
  671TMC3    C7 9988   1.695   2.851  13.642 -0.3291 -1.1952  0.5611
  671TMC3    C8 9989   2.070   3.111  13.549 -0.2595  0.3785  0.1345
  671TMC3    O1 9990   1.673   2.744  13.593 -0.2133 -0.2815  0.1104
  671TMC3    O2 9991   2.140   3.044  13.472 -0.6093  0.4324  0.1475
  672MPD2     C 9992   2.538   4.568   0.434 -0.2029  0.0195  0.0554
  672MPD2    C1 9993   2.627   4.466   0.398 -0.0166  0.3408 -0.2151
  672MPD2    C2 9994   2.753   4.490   0.353 -0.5287 -0.3479  0.5333
  672MPD2    C3 9995   2.781   4.619   0.318  0.3589  0.3625 -0.2350
  672MPD2    C4 9996   2.693   4.720   0.342 -0.6344 -0.2822 -0.5458
  672MPD2    C5 9997   2.574   4.693   0.404 -0.1822 -0.0701  0.2073
  672MPD2     H 9998   2.816   4.410   0.317 -1.2509 -0.6467 -0.0801
  672MPD2    H1 9999   2.721   0.086   0.316  1.5098 -0.8720 -0.5423
  672MPD2    H210000   2.441   4.550   0.478 -0.9142  0.5384 -1.3202
  672MPD2    H310001   2.501   0.037   0.417  1.2879  1.3564 -0.3116
  672MPD2     N10002   2.906   4.653   0.261  0.3747  0.1381  0.3055
  672MPD2    H510003   2.930   0.016   0.253 -3.6080  1.1095  0.4576
  672MPD2    N110004   2.583   4.330   0.392  0.4427 -0.0721  0.3989
  672MPD2    H710005   2.658   4.266   0.367  0.9881  1.1511 -1.0462
  673TMC3    C110006   2.431   4.143   0.379  0.4950  0.3078  0.0212
  673TMC3    C210007   2.505   4.056   0.452 -0.3732 -0.3709 -0.1723
  673TMC3    C310008   2.466   3.923   0.457  0.3118 -0.1691  0.0184
  673TMC3    C410009   2.300   4.112   0.350 -0.3959 -0.2674 -0.6849
  673TMC3    C510010   2.259   3.982   0.370  0.6615 -0.4508 -0.9513
  673TMC3    C610011   2.342   3.885   0.420  0.6302  0.1314 -0.4154
  673TMC3     C10012   2.454   4.286   0.406 -0.0314 -0.9653  0.3623
  673TMC3     O10013   2.346   4.348   0.418 -0.2850  0.4556  0.0955
  673TMC3     H10014   2.604   4.088   0.480 -1.5859  2.9906  0.3025
  673TMC3    H110015   2.236   4.189   0.306  1.7419  1.0851 -1.4270
  673TMC3    H210016   2.300   3.786   0.428  0.9038  0.2159  2.1478
  673TMC3    C710017   2.117   3.945   0.373  0.1039 -0.4560  0.7266
  673TMC3    C810018   2.533   3.837   0.541 -0.8251 -0.2662  0.1626
  673TMC3    O110019   2.084   3.833   0.414 -0.0160  0.1869 -0.2058
  673TMC3    O210020   2.463   3.748   0.588 -0.1811 -0.5173 -0.2132
  674MPD2     C10021   1.620   4.286  17.400 -0.5848 -0.2204  0.4352
  674MPD2    C110022   1.543   4.216  17.494  0.3509 -0.1274  0.5724
  674MPD2    C210023   1.423   4.279  17.529 -0.0344  0.6702  1.0693
  674MPD2    C310024   1.375   4.397  17.474  0.0792  0.4813 -0.4086
  674MPD2    C410025   1.449   4.463  17.381 -0.4676 -0.0417 -0.7815
  674MPD2    C510026   1.568   4.405  17.341  0.4626 -0.3302  0.0468
  674MPD2     H10027   1.360   4.221  17.595  0.7122 -2.2694 -0.8187
  674MPD2    H110028   1.409   4.546  17.322  1.5209  0.6622 -1.1341
  674MPD2    H210029   1.720   4.254  17.373 -1.5369 -2.4131 -0.4614
  674MPD2    H310030   1.621   4.455  17.261  0.7536  0.0469  0.4737
  674MPD2     N10031   1.244   4.441  17.508  0.0582 -0.3241 -0.3590
  674MPD2    H510032   1.185   4.377  17.561 -0.1536 -1.7820 -2.3703
  674MPD2    N110033   1.588   4.096  17.552  0.4805  0.2686  0.4122
  674MPD2    H710034   1.680   4.071  17.516 -0.5696 -0.0277 -2.0924
  675TMC3    C110035   1.616   3.911  17.706  0.4659  0.5421 -0.2216
  675TMC3    C210036   1.551   3.840   0.064 -0.0719  0.6950  0.6599
  675TMC3    C310037   1.613   3.730   0.107 -0.2569  0.0256 -0.3697
  675TMC3    C410038   1.744   3.882  17.673 -0.7411 -0.3138  0.3409
  675TMC3    C510039   1.814   3.785  17.735  0.6489  0.6189 -0.4215
  675TMC3    C610040   1.743   3.692   0.071  0.2006  0.4083 -1.5254
  675TMC3     C10041   1.537   4.020  17.650  0.5453 -0.1874 -0.2353
  675TMC3     O10042   1.429   4.035  17.703  0.2179 -0.0748  0.2527
  675TMC3     H10043   1.446   3.859   0.079 -1.0260 -2.9023 -1.6385
  675TMC3    H110044   1.793   3.961  17.616 -0.7579  0.2280  1.0783
  675TMC3    H210045   1.789   3.602   0.108  2.3452  1.1352 -2.4153
  675TMC3    C710046   1.953   3.762  17.691  0.1484 -0.2202 -0.4839
  675TMC3    C810047   1.553   3.667   0.223 -0.3851  0.7211 -0.0031
  675TMC3    O110048   1.986   3.816  17.585 -0.5008  0.5093 -0.4708
  675TMC3    O210049   1.431   3.686   0.242 -0.2827  0.2048 -0.8023
  676MPD2     C10050   4.556   2.004  10.738 -0.5119 -0.1989 -0.2484
  676MPD2    C110051   4.518   1.937  10.852  0.0978  0.7007 -0.2363
  676MPD2    C210052   4.565   1.805  10.869  0.7334 -0.4479 -0.1951
  676MPD2    C310053   4.656   1.747  10.788  0.5777  0.7048 -0.0343
  676MPD2    C410054   4.690   1.819  10.676 -0.0951 -0.0150  0.3836
  676MPD2    C510055   4.647   1.948  10.652 -0.0705  0.0044 -0.1523
  676MPD2     H10056   4.519   1.756  10.954 -1.4213  1.1789 -0.4329
  676MPD2    H110057   0.033   1.797  10.604 -1.1441  1.1838 -1.1453
  676MPD2    H210058   4.523   2.105  10.715 -2.2333 -0.4241  1.2945
  676MPD2    H310059   4.686   2.007  10.569 -0.7040  1.1064  0.3320
  676MPD2     N10060   4.701   1.610  10.808  0.0322 -0.2507  0.0372
  676MPD2    H510061   0.040   1.584  10.744  0.1866 -3.3835  1.4745
  676MPD2    N110062   4.444   1.993  10.954 -0.3597  0.8797  0.1957
  676MPD2    H710063   4.394   1.934  11.020  0.9258 -1.3123 -0.8256
  677TMC3    C110064   4.351   2.157  11.090 -0.3875 -0.7302  0.1227
  677TMC3    C210065   4.249   2.065  11.113 -0.2619  0.2005 -0.0582
  677TMC3    C310066   4.212   2.042  11.240 -0.2213  0.3047  0.1996
  677TMC3    C410067   4.407   2.238  11.190  0.3728 -0.0987 -0.2321
  677TMC3    C510068   4.363   2.208  11.319 -0.5594  0.1728 -0.3081
  677TMC3    C610069   4.265   2.116  11.344 -0.1575  0.6091 -0.6500
  677TMC3     C10070   4.438   2.129  10.977  0.1824  0.1409  0.2040
  677TMC3     O10071   4.509   2.219  10.938 -0.3161  0.1705 -0.1709
  677TMC3     H10072   4.213   2.004  11.031 -0.8663  0.1395  0.2529
  677TMC3    H110073   4.487   2.306  11.164 -1.2131  0.7257 -2.9274
  677TMC3    H210074   4.215   2.094  11.438 -1.0603  1.9820 -0.8014
  677TMC3    C710075   4.428   2.264  11.433  0.9290  0.4988  0.1736
  677TMC3    C810076   4.142   1.910  11.267  0.4837 -0.0633 -0.2739
  677TMC3    O110077   4.375   2.241  11.542  0.4290 -0.1717 -0.3409
  677TMC3    O210078   4.056   1.888  11.186  0.1808 -0.1657  0.5618
  678MPD2     C10079   1.487   2.805   1.614 -0.4129 -0.5422 -0.3939
  678MPD2    C110080   1.506   2.816   1.478  0.6093 -0.7265 -0.4176
  678MPD2    C210081   1.397   2.782   1.402  0.2689 -0.1470  0.1100
  678MPD2    C310082   1.275   2.757   1.458 -0.4515  0.2359  0.1711
  678MPD2    C410083   1.256   2.750   1.598 -0.3622 -0.2074 -0.1569
  678MPD2    C510084   1.366   2.778   1.672 -0.2458  0.6058  1.1548
  678MPD2     H10085   1.406   2.779   1.294 -0.8473  0.4051 -0.0003
  678MPD2    H110086   1.168   2.723   1.654 -0.0777  1.7353  1.2332
  678MPD2    H210087   1.572   2.810   1.682 -0.5402  2.3577 -0.4574
  678MPD2    H310088   1.357   2.770   1.780  1.0963  0.0699  1.2305
  678MPD2     N10089   1.169   2.727   1.365 -0.7222 -0.2294  0.3071
  678MPD2    H510090   1.188   2.723   1.265  1.9734 -1.5181  0.8509
  678MPD2    N110091   1.630   2.844   1.409 -0.2522  0.8933 -0.0102
  678MPD2    H710092   1.625   2.838   1.308 -3.4637  0.8314  0.1344
  679TMC3    C110093   2.069   2.868   1.311 -0.2943 -0.1016  0.3691
  679TMC3    C210094   1.973   2.873   1.416  0.1739  0.7354 -0.1873
  679TMC3    C310095   1.848   2.915   1.374  0.1705 -0.1099 -0.7414
  679TMC3    C410096   2.049   2.912   1.179  0.5447 -0.3744  0.3375
  679TMC3    C510097   1.922   2.956   1.155  0.2219 -0.0205  0.0472
  679TMC3    C610098   1.820   2.953   1.244  0.2765 -0.2321  0.7026
  679TMC3     C10099   2.149   2.750   1.319  0.9663  0.3751  0.4784
  679TMC3     O10100   2.175   2.702   1.427  0.4244 -0.3727 -0.2139
  679TMC3     H10101   1.981   2.817   1.508 -0.0088 -0.0202 -0.6357
  679TMC3    H110102   2.124   2.902   1.101  0.5107  2.0511  0.0027
  679TMC3    H210103   1.719   2.980   1.214 -0.0731 -1.9292  0.3241
  679TMC3    C710104   1.888   3.005   1.021 -0.5386 -0.5011  0.0243
  679TMC3    C810105   1.751   2.874   1.469 -0.1661  0.3820 -0.1836
  679TMC3    O110106   1.770   3.012   0.991  0.0269  0.1590  0.2903
  679TMC3    O210107   1.775   2.860   1.588  0.9659  0.3671  0.6367
  680MPD2     C10108   1.553   0.538  13.040  0.4361  0.1763 -0.1218
  680MPD2    C110109   1.578   0.503  13.170  0.4382 -0.3023 -1.0119
  680MPD2    C210110   1.641   0.594  13.250 -0.4479 -0.4574  0.5262
  680MPD2    C310111   1.656   0.728  13.213 -0.5039 -0.2335  0.1648
  680MPD2    C410112   1.616   0.765  13.081 -0.6942 -0.2162 -0.6494
  680MPD2    C510113   1.573   0.667  12.996  0.6196 -0.6431  0.1335
  680MPD2     H10114   1.670   0.554  13.346  0.4557 -2.1030 -0.4286
  680MPD2    H110115   1.636   0.866  13.047  0.2269  0.8055  2.8973
  680MPD2    H210116   1.513   0.477  12.960 -0.6365 -0.3580  0.8187
  680MPD2    H310117   1.557   0.683  12.890 -0.0601  0.4949  0.4076
  680MPD2     N10118   1.714   0.829  13.293  0.0002  0.4397  0.5975
  680MPD2    H510119   1.712   0.921  13.250 -1.0236  0.0033 -0.2859
  680MPD2    N110120   1.571   0.367  13.207  0.6791  0.2890  0.5836
  680MPD2    H710121   1.626   0.335  13.286  2.0156 -0.8321 -0.8183
  681TMC3    C110122   1.511   0.151  13.183 -0.0481  0.5404  0.0669
  681TMC3    C210123   1.413   0.084  13.251  0.2148  0.4324  0.0829
  681TMC3    C310124   1.450   4.695  13.312  0.7559  1.1695 -0.3590
  681TMC3    C410125   1.643   0.122  13.183 -0.3790  0.2002 -0.0678
  681TMC3    C510126   1.679   0.004  13.248  0.0381  0.0523 -0.3918
  681TMC3    C610127   1.589   4.669  13.317 -0.1414 -0.0502  0.0944
  681TMC3     C10128   1.485   0.282  13.139 -0.1959 -0.4904 -0.0736
  681TMC3     O10129   1.374   0.305  13.095 -0.0264  0.1705 -0.1991
  681TMC3     H10130   1.312   0.124  13.251 -0.4024 -1.1367  0.8293
  681TMC3    H110131   1.718   0.188  13.142 -1.5852  1.5986 -0.0426
  681TMC3    H210132   1.625   4.580  13.366 -0.2033 -0.1104  0.0298
  681TMC3    C710133   1.817   4.730  13.288  0.5726  0.0941  0.4536
  681TMC3    C810134   1.384   4.680  13.437 -0.3811 -0.4347 -0.3412
  681TMC3    O110135   1.848   4.660  13.383 -0.1305  0.5953  0.4312
  681TMC3    O210136   1.457   4.656  13.531 -0.1822 -0.6808  0.5233
  682MPD2     C10137   3.780   1.881  10.177  0.7121  0.8153 -0.0270
  682MPD2    C110138   3.785   1.742  10.221 -0.4200 -0.0005  0.0833
  682MPD2    C210139   3.754   1.717  10.354 -0.2235 -0.2640  0.1574
  682MPD2    C310140   3.718   1.825  10.443 -0.0363  0.1115  0.4597
  682MPD2    C410141   3.708   1.955  10.390 -0.3714 -0.5151 -0.5079
  682MPD2    C510142   3.737   1.978  10.261  0.5248  0.2448 -1.0016
  682MPD2     H10143   3.761   1.616  10.394 -3.4543  0.1277  1.6592
  682MPD2    H110144   3.663   2.036  10.445  0.4789 -2.0478  2.4576
  682MPD2    H210145   3.817   1.904  10.077 -1.3078  2.5701 -0.3847
  682MPD2    H310146   3.716   2.081  10.233  2.0840  1.1248  1.0291
  682MPD2     N10147   3.668   1.794  10.571  0.3210  0.2224  1.2498
  682MPD2    H510148   3.630   1.875  10.618  1.5200  1.2650  0.4297
  682MPD2    N110149   3.825   1.633  10.135  0.2931  0.1586 -0.2181
  682MPD2    H710150   3.831   1.541  10.177  0.5228  0.2422 -0.0700
  683TMC3    C110151   3.556   1.773  10.968  0.7374  0.0916 -0.0330
  683TMC3    C210152   3.511   1.655  11.013  0.2360  0.2518 -0.3397
  683TMC3    C310153   3.484   1.551  10.929  0.5785 -0.3137 -0.5012
  683TMC3    C410154   3.583   1.790  10.830  0.3301 -0.7187 -0.4362
  683TMC3    C510155   3.565   1.681  10.748  0.2542  0.4080 -0.7067
  683TMC3    C610156   3.505   1.564  10.794 -0.1405 -0.5831 -0.6637
  683TMC3     C10157   3.584   1.881  11.062  0.3857  0.4519  0.4929
  683TMC3     O10158   3.586   1.993  11.008  0.2674  0.0508 -0.3258
  683TMC3     H10159   3.477   1.643  11.115  2.8000  1.0186  0.6034
  683TMC3    H110160   3.601   1.888  10.788 -0.3974 -0.9245 -1.2192
  683TMC3    H210161   3.482   1.493  10.715  1.2112  0.3830 -1.9244
  683TMC3    C710162   3.624   1.673  10.614 -0.0114  1.0549 -0.6287
  683TMC3    C810163   3.462   1.419  10.990 -0.8886 -0.2338 -0.4108
  683TMC3    O110164   3.625   1.565  10.556 -0.1526 -0.6013 -0.0024
  683TMC3    O210165   3.509   1.412  11.103 -0.6259  0.2258 -0.1714
  684MPD2     C10166   2.298   1.570  16.305 -0.8843  0.8512 -0.4594
  684MPD2    C110167   2.226   1.577  16.186  0.8381 -0.3383  0.0170
  684MPD2    C210168   2.151   1.687  16.157  0.3572  0.8150 -0.0009
  684MPD2    C310169   2.148   1.797  16.242  0.2292 -0.3096 -0.1121
  684MPD2    C410170   2.223   1.787  16.359  0.2299  0.7571 -0.3386
  684MPD2    C510171   2.293   1.676  16.386 -0.0518  0.1686 -0.4111
  684MPD2     H10172   2.100   1.687  16.061 -0.9321 -0.3138  0.6841
  684MPD2    H110173   2.227   1.870  16.428  2.1019  0.8291 -0.5311
  684MPD2    H210174   2.368   1.492  16.332 -0.7439  1.6678  1.5401
  684MPD2    H310175   2.351   1.691  16.477  1.3961 -0.5587 -1.2252
  684MPD2     N10176   2.077   1.918  16.211  0.8835  0.1322 -0.3521
  684MPD2    H510177   2.096   2.001  16.267  0.9419 -0.5837  0.7046
  684MPD2    N110178   2.239   1.475  16.088  0.0966 -0.0155 -0.0346
  684MPD2    H710179   2.192   1.497  16.000  0.0546 -0.7135 -0.1869
  685TMC3    C110180   2.310   1.283  15.972 -0.0348  0.3300 -0.0981
  685TMC3    C210181   2.196   1.287  15.890 -0.0022  0.3890  0.4814
  685TMC3    C310182   2.208   1.255  15.758 -0.0944  0.0433  0.6815
  685TMC3    C410183   2.434   1.265  15.920  0.2570 -0.0091  0.8342
  685TMC3    C510184   2.439   1.242  15.795 -0.0829  0.1459 -0.1815
  685TMC3    C610185   2.332   1.224  15.713  0.2596 -0.3789  0.0539
  685TMC3     C10186   2.312   1.358  16.094 -0.8484 -0.0711 -0.2961
  685TMC3     O10187   2.392   1.324  16.175 -0.0777 -0.1763  0.0445
  685TMC3     H10188   2.097   1.291  15.932  0.0031 -0.1877  0.5543
  685TMC3    H110189   2.524   1.276  15.980  0.7627 -0.4249  0.1504
  685TMC3    H210190   2.345   1.216  15.606 -3.4335  0.0196 -0.4384
  685TMC3    C710191   2.568   1.266  15.725  0.8444  0.6532 -0.3845
  685TMC3    C810192   2.104   1.279  15.666  0.1809  0.9933  0.1478
  685TMC3    O110193   2.570   1.260  15.604  0.4222 -0.3690  0.0817
  685TMC3    O210194   2.115   1.220  15.561  0.0703  0.1135 -0.3576
  686MPD2     C10195   3.761   1.218  15.090 -0.5408  0.0844  0.4257
  686MPD2    C110196   3.795   1.172  15.216  0.2183  0.3224 -0.4739
  686MPD2    C210197   3.833   1.037  15.234  0.6710  0.8299 -0.6053
  686MPD2    C310198   3.820   0.948  15.132  0.2707 -0.3084 -0.6201
  686MPD2    C410199   3.779   0.996  15.008  0.0732 -0.0609 -0.1991
  686MPD2    C510200   3.765   1.127  14.986  0.7213  0.6355 -0.0957
  686MPD2     H10201   3.876   0.997  15.325 -1.0862  1.4055  0.4608
  686MPD2    H110202   3.771   0.926  14.927 -1.0371 -0.3687  0.1754
  686MPD2    H210203   3.743   1.324  15.074 -2.2669  0.0611  2.1862
  686MPD2    H310204   3.743   1.151  14.883 -0.2535  0.8957  0.1702
  686MPD2     N10205   3.846   0.807  15.140 -0.0190  0.3700 -0.4288
  686MPD2    H510206   3.842   0.773  15.045  0.4887 -1.5626  0.2326
  686MPD2    N110207   3.786   1.268  15.322  0.4563  0.3940  0.1715
  686MPD2    H710208   3.773   1.367  15.300  0.2644  0.2155 -0.5370
  687TMC3    C110209   3.864   0.759  15.378 -0.5836 -0.1899  0.2616
  687TMC3    C210210   3.750   0.821  15.418 -0.3178  0.0015 -0.4980
  687TMC3    C310211   3.708   0.828  15.546 -0.3094  0.2268 -0.1870
  687TMC3    C410212   3.924   0.684  15.483  0.2792 -0.1705  0.6420
  687TMC3    C510213   3.876   0.682  15.610  0.3981 -1.0539  0.1755
  687TMC3    C610214   3.776   0.764  15.651  0.0867  0.5964 -0.3101
  687TMC3     C10215   3.894   0.724  15.243  0.5800  0.5158 -0.8503
  687TMC3     O10216   3.937   0.607  15.229 -0.9033  0.5026  0.0213
  687TMC3     H10217   3.681   0.832  15.336 -2.0495 -3.1837  0.5390
  687TMC3    H110218   4.010   0.623  15.457  0.1915 -0.2387  0.5180
  687TMC3    H210219   3.750   0.773  15.756  1.3076  1.4722 -0.0856
  687TMC3    C710220   3.973   0.635  15.712  0.0090  0.5117  0.2070
  687TMC3    C810221   3.582   0.899  15.574 -0.9399  0.2383 -0.4027
  687TMC3    O110222   4.054   0.552  15.674  0.1061 -0.0744 -0.4975
  687TMC3    O210223   3.535   0.879  15.683  0.1128 -0.1528  0.4157
  688MPD2     C10224   2.343   0.218  16.921 -0.4594  0.1591  0.0265
  688MPD2    C110225   2.421   0.171  17.032 -0.3127  0.3084  0.0087
  688MPD2    C210226   2.556   0.186  17.034 -0.3087  0.1317 -0.1253
  688MPD2    C310227   2.630   0.232  16.924  0.0521  0.4861  0.5797
  688MPD2    C410228   2.553   0.267  16.817  0.0667 -1.0674  0.0730
  688MPD2    C510229   2.419   0.257  16.812  0.4869 -0.6827 -0.1567
  688MPD2     H10230   2.603   0.141  17.121 -1.0118 -1.8833 -0.7873
  688MPD2    H110231   2.597   0.296  16.723 -1.2818  0.4190 -0.1027
  688MPD2    H210232   2.237   0.242  16.929 -0.6283 -0.5319 -0.1731
  688MPD2    H310233   2.377   0.302  16.723  0.6831 -1.8050 -0.8209
  688MPD2     N10234   2.771   0.241  16.927 -0.1527  0.1649  0.0470
  688MPD2    H510235   2.822   0.191  16.998 -2.4251 -1.8253  0.2896
  688MPD2    N110236   2.365   0.131  17.151  0.3115 -0.2279 -0.2058
  688MPD2    H710237   2.419   0.132  17.237 -1.0581 -0.2933  0.6662
  689TMC3    C110238   2.186   0.073  17.288 -0.0207 -0.1478 -0.0404
  689TMC3    C210239   2.207   0.175  17.378  0.3197 -0.7561 -0.0089
  689TMC3    C310240   2.206   0.132  17.512  0.3143 -0.1126 -0.0823
  689TMC3    C410241   2.149   4.680  17.322  0.2769  0.0407 -0.3715
  689TMC3    C510242   2.127   4.656  17.451 -0.0874  0.0795 -0.0169
  689TMC3    C610243   2.149   0.013  17.548  0.7783  0.1865  0.2315
  689TMC3     C10244   2.232   0.099  17.157  0.4588  0.5502  0.2476
  689TMC3     O10245   2.163   0.055  17.062  0.4438  0.4343 -0.0340
  689TMC3     H10246   2.242   0.275  17.353  0.2229 -0.8469 -0.5011
  689TMC3    H110247   2.141   4.617  17.234 -1.9996 -2.0950  1.3641
  689TMC3    H210248   2.139   4.725  17.653 -1.5410 -0.6917 -0.1777
  689TMC3    C710249   2.094   4.521  17.492 -0.0340  0.2042 -0.1288
  689TMC3    C810250   2.206   0.238  17.612  0.3463  0.3797  0.0555
  689TMC3    O110251   2.115   4.491  17.609 -0.6168 -0.7889  0.3249
  689TMC3    O210252   2.302   0.317  17.595 -0.1008  0.4504  0.0352
  690MPD2     C10253   0.271   2.255  15.856  0.2361 -0.0214 -0.1246
  690MPD2    C110254   0.190   2.219  15.753 -0.8205  0.4313  0.0079
  690MPD2    C210255   0.216   2.273  15.624  0.1448  0.3096 -0.0977
  690MPD2    C310256   0.333   2.340  15.598 -0.4079  0.1840  0.5657
  690MPD2    C410257   0.416   2.360  15.702  0.2141  0.0929 -0.5013
  690MPD2    C510258   0.381   2.330  15.839  0.2509 -0.5527  0.2026
  690MPD2     H10259   0.147   2.256  15.543 -0.6357  2.5720  0.0963
  690MPD2    H110260   0.508   2.416  15.690  0.9874 -0.7636  1.3423
  690MPD2    H210261   0.261   2.212  15.955  0.1853  1.1693  0.3892
  690MPD2    H310262   0.453   2.347  15.918  1.1726 -0.8399 -0.5695
  690MPD2     N10263   0.361   2.385  15.467  0.4917  0.3616  0.7634
  690MPD2    H510264   0.288   2.384  15.397  1.8935 -0.9130 -0.7053
  690MPD2    N110265   0.082   2.126  15.774 -0.4836 -0.2862  0.6063
  690MPD2    H710266   0.049   2.077  15.691  0.8966 -0.8321  0.3674
  691TMC3    C110267   4.658   1.998  15.861  0.1761 -0.4415 -0.8059
  691TMC3    C210268   4.586   2.021  15.741  0.1021 -0.4718 -0.8120
  691TMC3    C310269   4.518   1.916  15.694  0.2450  0.2498  0.3756
  691TMC3    C410270   4.662   1.877  15.925  0.6444 -0.7225  0.0185
  691TMC3    C510271   4.595   1.774  15.865  0.0290  0.2137  0.1976
  691TMC3    C610272   4.530   1.789  15.745  0.4426 -0.2066 -0.2342
  691TMC3     C10273   0.030   2.089  15.894 -0.0197  0.3762 -0.0070
  691TMC3     O10274   0.059   2.117  16.007 -0.4957 -0.1140  0.2273
  691TMC3     H10275   4.602   2.097  15.665 -0.7266  1.8242  1.3244
  691TMC3    H110276   4.722   1.858  16.014 -1.3866 -1.4540  1.2161
  691TMC3    H210277   4.468   1.709  15.705  0.7441 -2.0011  2.8801
  691TMC3    C710278   4.589   1.661  15.948  0.3580 -0.3523  0.1601
  691TMC3    C810279   4.446   1.934  15.570 -0.5212 -0.2482 -0.3840
  691TMC3    O110280   4.621   1.669  16.066  0.0842 -0.1715 -0.1725
  691TMC3    O210281   4.457   1.841  15.491 -0.4706  0.6143  0.4367
  692TMC3    C110282   1.427   2.874  15.317  0.7211  0.2659  0.1288
  692TMC3    C210283   1.441   2.933  15.198  0.5670 -0.0465 -0.1525
  692TMC3    C310284   1.563   2.935  15.135  0.2526 -0.5352 -0.2720
  692TMC3    C410285   1.533   2.804  15.377 -0.7151 -0.3542  0.0910
  692TMC3    C510286   1.639   2.782  15.298  0.0103  0.0178  0.4814
  692TMC3    C610287   1.657   2.849  15.179  0.1622  0.5469  0.7651
  692TMC3     C10288   1.297   2.886  15.385 -0.2120 -0.9059 -0.0246
  692TMC3     O10289   1.301   2.864  15.505 -0.5261  0.6746 -0.4680
  692TMC3     H10290   1.369   3.007  15.164 -1.0228 -1.2088  0.7440
  692TMC3    H110291   1.526   2.748  15.470 -4.1482 -1.0319 -0.5646
  692TMC3    H210292   1.756   2.852  15.135  0.2694  1.0796  1.0488
  692TMC3    C710293   1.723   2.663  15.311  0.3957 -0.4631 -0.3893
  692TMC3    C810294   1.614   3.076  15.129 -0.1051  0.3506 -0.9717
  692TMC3    O110295   1.788   2.636  15.210  0.3525  0.2069  0.1824
  692TMC3    O210296   1.714   3.105  15.067  0.4950  0.4674 -0.7875
  693MPD2     C10297   1.210   0.714  10.237  0.2019  0.0702  0.4803
  693MPD2    C110298   1.158   0.733  10.361  0.0709 -0.7657  0.3877
  693MPD2    C210299   1.228   0.692  10.469  0.1567  0.1495 -0.9056
  693MPD2    C310300   1.352   0.633  10.457  0.2231  0.0334 -1.2130
  693MPD2    C410301   1.415   0.633  10.332  0.6943 -0.6135 -0.0312
  693MPD2    C510302   1.339   0.666  10.221  0.7363  0.2185 -0.4129
  693MPD2     H10303   1.179   0.698  10.565  1.5392  2.9659 -0.3653
  693MPD2    H110304   1.512   0.590  10.311  1.2219  0.2370  0.6557
  693MPD2    H210305   1.162   0.760  10.152 -2.4561  0.1735  2.0372
  693MPD2    H310306   1.376   0.662  10.119  1.5390 -0.1521 -0.1058
  693MPD2     N10307   1.421   0.580  10.569  0.1191 -0.0224 -0.3370
  693MPD2    H510308   1.521   0.562  10.569  0.0576 -0.3678  2.4197
  693MPD2    N110309   1.036   0.795  10.369  0.3134  0.4836 -0.2324
  693MPD2    H710310   0.971   0.796  10.292  1.8132 -0.7353 -1.5148
  694TMC3    C110311   0.832   0.844  10.496 -0.1685  0.1981  0.4385
  694TMC3    C210312   0.760   0.785  10.399  0.8197  0.5440  0.1660
  694TMC3    C310313   0.632   0.738  10.433  0.1452  0.1427 -0.2881
  694TMC3    C410314   0.783   0.851  10.627  0.1939 -0.0502  0.0739
  694TMC3    C510315   0.659   0.805  10.656  0.3823 -0.2954  0.0705
  694TMC3    C610316   0.576   0.757  10.561  0.2296 -1.0437  0.2679
  694TMC3     C10317   0.981   0.838  10.490 -0.6945 -0.3516  0.1366
  694TMC3     O10318   1.043   0.872  10.588 -0.0870 -0.4560 -0.5323
  694TMC3     H10319   0.794   0.750  10.302  0.5846 -0.7351  0.5445
  694TMC3    H110320   0.823   0.919  10.701  1.3875 -1.6702  0.8989
  694TMC3    H210321   0.486   0.703  10.589 -1.1245  0.4185 -1.2647
  694TMC3    C710322   0.630   0.747  10.786 -0.4466  0.0836 -0.1386
  694TMC3    C810323   0.564   0.653  10.335 -0.2068 -0.4331 -0.0178
  694TMC3    O110324   0.517   0.741  10.824 -0.5873  0.6904  0.4722
  694TMC3    O210325   0.503   0.565  10.389  0.2582 -0.4377 -0.6749
  695MPD2     C10326   2.121   2.199  13.436  0.0251  0.2447  0.5663
  695MPD2    C110327   2.094   2.286  13.538 -0.8508  0.2206  0.2678
  695MPD2    C210328   1.961   2.331  13.552 -0.9174 -0.2630 -1.2968
  695MPD2    C310329   1.854   2.284  13.472 -0.1869 -0.2074 -0.2324
  695MPD2    C410330   1.879   2.191  13.375 -0.2171 -0.1512  1.2531
  695MPD2    C510331   2.015   2.153  13.357  0.8217 -0.3316  0.5376
  695MPD2     H10332   1.943   2.399  13.634  0.9672 -0.3771 -0.8012
  695MPD2    H110333   1.805   2.149  13.309 -1.1339  1.8369  1.0271
  695MPD2    H210334   2.220   2.157  13.427 -0.3406 -0.8272  1.7205
  695MPD2    H310335   2.035   2.080  13.279  0.0067 -1.2624  1.2081
  695MPD2     N10336   1.720   2.327  13.507  0.4342  0.2014 -0.1099
  695MPD2    H510337   1.700   2.372  13.596  1.6280 -1.7424  1.1361
  695MPD2    N110338   2.195   2.349  13.614 -0.1234 -0.7049  0.0072
  695MPD2    H710339   2.162   2.414  13.684 -1.3924 -2.7539  1.3105
  696TMC3    C110340   1.494   2.375  13.478  0.6444  0.4828 -0.7000
  696TMC3    C210341   1.461   2.391  13.616  0.2594  0.3555  0.1473
  696TMC3    C310342   1.385   2.499  13.652 -0.4188 -0.2476  0.3336
  696TMC3    C410343   1.440   2.461  13.385 -0.2234 -1.0235 -0.0158
  696TMC3    C510344   1.360   2.564  13.427  0.6396  0.2198  0.2226
  696TMC3    C610345   1.320   2.578  13.559 -0.8767 -0.1332 -0.9480
  696TMC3     C10346   1.607   2.300  13.432  0.1503 -0.4933  0.0575
  696TMC3     O10347   1.600   2.262  13.313  0.5630 -0.1446  0.3290
  696TMC3     H10348   1.492   2.321  13.692 -0.8234 -0.7354 -0.4094
  696TMC3    H110349   1.458   2.444  13.279  4.0472 -0.7888  0.6835
  696TMC3    H210350   1.233   2.639  13.579 -1.6435 -1.1380 -1.1911
  696TMC3    C710351   1.338   2.670  13.343 -0.1430  0.1547 -0.2173
  696TMC3    C810352   1.307   2.488  13.775 -0.3966  0.8041  0.0104
  696TMC3    O110353   1.361   2.644  13.225  0.2335  0.2822 -0.3461
  696TMC3    O210354   1.206   2.417  13.763  0.3779  0.0295  0.3856
  697MPD2     C10355   1.258   4.468  15.476  0.2294  1.0782  0.6041
  697MPD2    C110356   1.266   4.466  15.341 -0.4608 -0.4818 -0.2152
  697MPD2    C210357   1.300   4.580  15.273 -0.1958  0.4040 -0.3627
  697MPD2    C310358   1.337   4.696  15.339  0.0479 -0.4169  0.0933
  697MPD2    C410359   1.328   4.699  15.474 -0.6129  0.1730 -0.7352
  697MPD2    C510360   1.287   4.588  15.541 -0.0847  0.5179 -0.4957
  697MPD2     H10361   1.306   4.579  15.165 -1.5439 -1.3933 -0.4175
  697MPD2    H110362   1.365   0.047  15.534  0.8759 -1.1406  0.1881
  697MPD2    H210363   1.229   4.375  15.524 -0.4861  0.0301 -1.8846
  697MPD2    H310364   1.282   4.603  15.648 -0.6185  2.2870 -0.7559
  697MPD2     N10365   1.393   0.063  15.264  0.2092 -0.6627  0.7085
  697MPD2    H510366   1.416   0.045  15.166 -0.0439  1.0573  0.3376
  697MPD2    N110367   1.232   4.346  15.278  0.1873 -0.3652  0.4718
  697MPD2    H710368   1.198   4.276  15.343 -0.7292 -1.1820 -0.8746
  698TMC3    C110369   1.495   0.248  15.202  0.3330  0.6288  0.0653
  698TMC3    C210370   1.600   0.330  15.229  0.7128 -0.4184  0.1124
  698TMC3    C310371   1.666   0.382  15.122  0.0539  0.2339  0.0146
  698TMC3    C410372   1.453   0.237  15.073  0.3330 -0.0537  0.1613
  698TMC3    C510373   1.516   0.288  14.967 -0.2765 -0.8668  0.4924
  698TMC3    C610374   1.628   0.363  14.994  0.3193 -0.4262  0.1749
  698TMC3     C10375   1.440   0.180  15.308 -0.4405 -0.1316 -0.1515
  698TMC3     O10376   1.450   0.226  15.419 -0.2492 -0.1652  0.6808
  698TMC3     H10377   1.643   0.347  15.327  0.2226  0.4469  0.1784
  698TMC3    H110378   1.365   0.178  15.050  0.3323 -0.2990  0.7870
  698TMC3    H210379   1.670   0.423  14.914  0.1276  1.0813  1.2045
  698TMC3    C710380   1.461   0.254  14.832  0.2561 -0.9516 -0.1427
  698TMC3    C810381   1.780   0.464  15.151  0.4730 -1.0293  0.1486
  698TMC3    O110382   1.354   0.193  14.831  0.5007 -0.3997  0.3420
  698TMC3    O210383   1.775   0.525  15.260 -0.5125 -0.3861  0.3255
  699TMC3    C110384   0.859   2.671  12.861 -0.0657  0.1220  0.3022
  699TMC3    C210385   0.896   2.589  12.970  0.2868  0.4106 -0.1721
  699TMC3    C310386   0.800   2.571  13.069 -0.6866 -0.1649 -0.2450
  699TMC3    C410387   0.743   2.742  12.861  0.2105 -0.3403 -0.6441
  699TMC3    C510388   0.660   2.734  12.971 -0.1812 -0.1609  0.0489
  699TMC3    C610389   0.694   2.653  13.078  0.3467  0.1654  0.0835
  699TMC3     C10390   0.968   2.706  12.767 -0.5587 -0.6290  0.6262
  699TMC3     O10391   0.950   2.726  12.649  0.4479 -0.2408 -0.0888
  699TMC3     H10392   0.970   2.512  12.947  2.1314  1.8902  0.8048
  699TMC3    H110393   0.719   2.802  12.774  0.6136  1.0944  0.2311
  699TMC3    H210394   0.629   2.659  13.164  1.5088  1.8685  0.8549
  699TMC3    C710395   0.599   2.863  13.016  0.8079 -0.9064 -0.0101
  699TMC3    C810396   0.806   2.465  13.159 -0.3331  0.1799  0.2163
  699TMC3    O110397   0.657   2.900  13.117 -0.1022 -0.0308  1.0575
  699TMC3    O210398   0.701   2.450  13.215 -0.6007 -0.0932 -0.4217
  700TMC3    C110399   0.646   0.659  17.114 -0.0151 -0.7578 -0.2892
  700TMC3    C210400   0.704   0.552  17.058 -0.0446  0.1921  0.2693
  700TMC3    C310401   0.809   0.503  17.124 -0.3820  0.2974 -0.5788
  700TMC3    C410402   0.706   0.727  17.221 -0.1921 -0.0907  0.3753
  700TMC3    C510403   0.812   0.658  17.283  0.2694 -0.4898 -0.1039
  700TMC3    C610404   0.875   0.549  17.238 -0.4474 -1.1781 -0.0302
  700TMC3     C10405   0.594   0.747  17.012 -0.5505  0.6463  0.3744
  700TMC3     O10406   0.502   0.708  16.940 -0.1857  0.6860 -0.3967
  700TMC3     H10407   0.658   0.510  16.970 -2.4367  1.2540  1.0073
  700TMC3    H110408   0.664   0.823  17.248 -1.5195 -0.3602 -0.7357
  700TMC3    H210409   0.955   0.503  17.293 -0.1109  0.0625  0.5133
  700TMC3    C710410   0.896   0.733  17.379  0.5955  0.1800 -0.0105
  700TMC3    C810411   0.880   0.404  17.041 -0.3227 -0.7673 -0.0564
  700TMC3    O110412   1.017   0.734  17.356 -0.0247 -0.1877 -0.2434
  700TMC3    O210413   0.999   0.384  17.058 -0.6085  0.3116 -0.3472
  701TMC3    C110414   0.405   4.002  15.302  0.5127  0.1107  0.4071
  701TMC3    C210415   0.438   3.970  15.170  0.1976 -0.1382 -0.6656
  701TMC3    C310416   0.515   4.054  15.102 -0.5987 -0.0044 -0.1503
  701TMC3    C410417   0.456   4.112  15.363  0.1630  0.9531 -0.3369
  701TMC3    C510418   0.546   4.187  15.297  0.1438  0.3139 -0.5688
  701TMC3    C610419   0.589   4.150  15.167  0.1799  0.3983  0.5338
  701TMC3     C10420   0.355   3.909  15.400 -0.0174 -0.3254 -0.0880
  701TMC3     O10421   0.368   3.936  15.517  0.0855 -0.0467 -0.0494
  701TMC3     H10422   0.405   3.881  15.119 -3.8621 -0.9042  3.2696
  701TMC3    H110423   0.415   4.150  15.455  1.2902 -2.3558  1.5319
  701TMC3    H210424   0.655   4.217  15.113 -0.6398  1.8169  1.3007
  701TMC3    C710425   0.558   4.326  15.319  0.2323  0.8358 -0.1010
  701TMC3    C810426   0.510   4.047  14.958  0.0800 -0.4552  0.5584
  701TMC3    O110427   0.554   4.396  15.221  0.6038  0.6421  0.7694
  701TMC3    O210428   0.612   4.066  14.898  0.2762 -0.4986 -0.1167
  702MPD2     C10429   0.306   1.327  10.330  0.6630 -0.1036 -0.5266
  702MPD2    C110430   0.222   1.412  10.401 -0.5697 -0.6709 -0.5479
  702MPD2    C210431   0.195   1.543  10.364 -0.8654  0.0269  0.5749
  702MPD2    C310432   0.254   1.606  10.255  0.8497 -0.3592 -1.4736
  702MPD2    C410433   0.363   1.529  10.198  0.3545  0.2002 -0.1079
  702MPD2    C510434   0.383   1.389  10.236 -0.3966 -0.2039 -0.3603
  702MPD2     H10435   0.137   1.598  10.437 -0.8521  0.3166  0.3678
  702MPD2    H110436   0.421   1.567  10.116  3.0999  2.0784  2.6920
  702MPD2    H210437   0.322   1.222  10.350 -1.7802  0.0943  2.4990
  702MPD2    H310438   0.454   1.328  10.181 -1.9663 -3.5993  1.4121
  702MPD2     N10439   0.234   1.741  10.215  0.4134  0.7650 -0.5976
  702MPD2    H510440   0.314   1.773  10.161  0.2155  1.7180 -0.3093
  702MPD2    N110441   0.149   1.366  10.516 -0.4036 -0.5277 -0.2014
  702MPD2    H710442   0.092   1.440  10.555 -1.1286 -0.7919 -0.7409
  703TMC3    C110443   0.118   1.955  10.205 -0.1008  0.3454 -0.6946
  703TMC3    C210444   0.003   2.028  10.255 -0.0744  0.5985 -0.1265
  703TMC3    C310445   4.697   2.135  10.192 -0.4820  0.1677 -0.6730
  703TMC3    C410446   0.190   2.008  10.102 -0.2264  0.9851 -0.0496
  703TMC3    C510447   0.151   2.130  10.041 -0.3080 -0.6687  0.8430
  703TMC3    C610448   0.038   2.191  10.092  0.5907  0.3894 -0.2935
  703TMC3     C10449   0.120   1.815  10.248 -0.5296  0.3222 -0.1140
  703TMC3     O10450   0.021   1.776  10.304  0.3177 -0.7207 -0.1570
  703TMC3     H10451   4.674   1.992  10.335 -0.1137  0.5521 -0.1788
  703TMC3    H110452   0.268   1.952  10.051 -1.7182 -2.4752  1.5066
  703TMC3    H210453   0.023   2.295  10.068  1.4907  0.2419 -1.4753
  703TMC3    C710454   0.240   2.188   9.937 -0.3001 -0.3679 -0.5910
  703TMC3    C810455   4.623   2.235  10.279 -0.2039  0.3785  0.0506
  703TMC3    O110456   0.358   2.158   9.926 -0.3376 -0.6208  0.6385
  703TMC3    O210457   4.665   2.349  10.283  0.4070  0.0593  0.4419
  704TMC3    C110458   2.911   4.425  12.258  0.1514  0.1434 -0.3732
  704TMC3    C210459   2.910   4.408  12.122 -1.1065  0.5139 -0.0275
  704TMC3    C310460   3.028   4.400  12.058  0.1737 -0.2175  0.3707
  704TMC3    C410461   3.026   4.423  12.333  0.1615 -1.0897 -0.4839
  704TMC3    C510462   3.143   4.387  12.262 -0.2123 -0.4477 -0.1998
  704TMC3    C610463   3.141   4.375  12.127  0.2626  0.3775  0.4560
  704TMC3     C10464   2.793   4.376  12.333 -0.2230  0.4756  0.1792
  704TMC3     O10465   2.759   4.430  12.442 -0.2552 -0.0940  0.1871
  704TMC3     H10466   2.822   4.428  12.061 -0.9100 -0.5163 -0.6514
  704TMC3    H110467   3.022   4.448  12.438  0.8262  0.4383 -0.8186
  704TMC3    H210468   3.232   4.345  12.078 -0.0380  3.4620 -2.0159
  704TMC3    C710469   3.267   4.360  12.330 -0.2032  0.6250 -0.7083
  704TMC3    C810470   3.012   4.369  11.918 -0.5978 -0.5423  0.6228
  704TMC3    O110471   3.366   4.394  12.266  0.1848 -0.0706 -0.1537
  704TMC3    O210472   2.904   4.330  11.877  0.6614  0.4094  0.1348
  705MPD2     C10473   1.487   2.642  15.842  0.4305 -0.9524  0.4880
  705MPD2    C110474   1.498   2.775  15.878  0.0521  0.0621  0.1713
  705MPD2    C210475   1.406   2.830  15.972 -0.2885 -0.1053 -0.4253
  705MPD2    C310476   1.303   2.752  16.027  0.1289  0.2605  0.2966
  705MPD2    C410477   1.289   2.622  15.978  0.1711  0.0155  0.4401
  705MPD2    C510478   1.385   2.566  15.892  0.0298 -0.7389  0.1319
  705MPD2     H10479   1.408   2.936  15.996 -0.9067 -0.4673  1.2558
  705MPD2    H110480   1.209   2.557  16.010  0.5640  0.3750  2.1498
  705MPD2    H210481   1.545   2.590  15.766  1.3215  0.5395  0.1435
  705MPD2    H310482   1.356   2.473  15.845 -1.5354 -0.3652  0.3761
  705MPD2     N10483   1.210   2.802  16.123  0.3442 -0.0022 -0.1479
  705MPD2    H510484   1.123   2.752  16.140 -0.8272  1.4501 -1.8488
  705MPD2    N110485   1.597   2.864  15.828  0.7508 -0.4146 -0.8839
  705MPD2    H710486   1.597   2.954  15.874 -0.9614 -0.7970 -0.1281
  706TMC3    C110487   2.024   2.964  15.773 -0.8083  0.5162  0.7212
  706TMC3    C210488   2.002   3.097  15.793 -0.1945  1.0522  0.3688
  706TMC3    C310489   1.878   3.144  15.783  0.8795  0.0135  0.3703
  706TMC3    C410490   1.929   2.878  15.740  0.2138 -0.2157  0.1427
  706TMC3    C510491   1.805   2.922  15.738  0.7473 -0.3903 -0.0258
  706TMC3    C610492   1.778   3.052  15.759 -0.0467  0.3353  0.4930
  706TMC3     C10493   2.157   2.911  15.784 -0.3624 -0.1176  0.5744
  706TMC3     O10494   2.229   2.968  15.865  0.1640  0.1250 -0.3332
  706TMC3     H10495   2.083   3.164  15.820  0.2236 -0.0075  1.7182
  706TMC3    H110496   1.954   2.777  15.710 -0.3856  0.2857 -2.0093
  706TMC3    H210497   1.674   3.085  15.767 -0.6922 -2.0614  1.9234
  706TMC3    C710498   1.698   2.825  15.746 -0.6825 -0.6372 -0.1260
  706TMC3    C810499   1.853   3.286  15.778 -0.0788  1.3483  0.0917
  706TMC3    O110500   1.714   2.724  15.682 -0.0502 -0.1675  0.1508
  706TMC3    O210501   1.734   3.317  15.757 -0.0378  1.0767  0.1301
  707TMC3    C110502   4.147   2.442   1.181  0.8734  0.1085  0.3155
  707TMC3    C210503   4.251   2.383   1.242  0.1387 -0.4241 -0.2325
  707TMC3    C310504   4.369   2.448   1.266 -0.2869 -1.1342  0.3009
  707TMC3    C410505   4.165   2.559   1.127 -0.2822 -0.2838  0.4140
  707TMC3    C510506   4.284   2.626   1.159  0.1047 -0.8959 -0.6529
  707TMC3    C610507   4.391   2.572   1.229  0.0304 -0.9933 -0.1786
  707TMC3     C10508   4.077   2.342   1.098  0.3239  0.5460  0.7495
  707TMC3     O10509   4.062   2.228   1.144  0.5020  0.2569  0.8655
  707TMC3     H10510   4.251   2.283   1.283 -1.9632 -0.6141 -0.6794
  707TMC3    H110511   4.075   2.608   1.093 -0.9610 -2.4254 -0.8437
  707TMC3    H210512   4.488   2.620   1.230 -0.4083 -0.1070 -0.1453
  707TMC3    C710513   4.294   2.764   1.112  0.7133  0.0406  1.0066
  707TMC3    C810514   4.461   2.391   1.358  0.0767  0.1442 -0.5391
  707TMC3    O110515   4.232   2.792   1.010  0.8006  0.8786 -0.1625
  707TMC3    O210516   4.506   2.464   1.443 -0.1141  0.4652  0.3708
  708MPD2     C10517   0.113   0.625  13.775  0.5540 -0.2615  0.0288
  708MPD2    C110518   0.177   0.727  13.833 -0.6820  0.2582 -0.1532
  708MPD2    C210519   0.220   0.725  13.961 -0.1925 -0.7900 -0.0980
  708MPD2    C310520   0.201   0.604  14.036 -0.0243 -0.2507 -0.9917
  708MPD2    C410521   0.136   0.496  13.985  0.2891  0.3568 -0.1601
  708MPD2    C510522   0.092   0.507  13.855  0.9110 -0.6314  0.3154
  708MPD2     H10523   0.276   0.806  14.007 -0.5629 -0.0092 -1.0156
  708MPD2    H110524   0.112   0.407  14.042 -0.7504  0.8636  0.1940
  708MPD2    H210525   0.074   0.636  13.674 -0.1181  0.9701  0.4188
  708MPD2    H310526   0.034   0.433  13.801 -0.7897  0.9325 -0.0123
  708MPD2     N10527   0.234   0.592  14.170  0.5833 -0.1471 -0.0154
  708MPD2    H510528   0.205   0.503  14.211  0.6090  0.0193  0.3689
  708MPD2    N110529   0.182   0.853  13.752  0.5738 -0.6957 -0.3278
  708MPD2    H710530   0.134   0.862  13.663 -0.5538  0.2037  0.3682
  709TMC3    C110531   0.188   1.093  13.736  0.7635 -0.5760 -0.5324
  709TMC3    C210532   0.104   1.078  13.633  0.2365 -0.6753 -0.6571
  709TMC3    C310533   4.722   1.147  13.625  0.3097  0.5961  0.1660
  709TMC3    C410534   0.153   1.185  13.831 -0.4734 -0.7406 -0.0739
  709TMC3    C510535   0.037   1.251  13.818 -0.1847  0.3508 -0.1845
  709TMC3    C610536   4.683   1.243  13.721 -1.0892  0.1707 -0.8718
  709TMC3     C10537   0.236   0.971  13.797 -0.0797  0.2650  0.2433
  709TMC3     O10538   0.293   0.995  13.898 -0.1587 -0.6423  0.2140
  709TMC3     H10539   0.127   1.005  13.555 -1.0261  0.7557 -2.3729
  709TMC3    H110540   0.222   1.222  13.906 -0.5792  1.1095 -0.8810
  709TMC3    H210541   4.592   1.302  13.715  1.0069  3.6281  1.6527
  709TMC3    C710542   4.708   1.265  13.945  0.4417 -0.8198 -0.1999
  709TMC3    C810543   4.636   1.107  13.514  0.3297  0.6068  0.0224
  709TMC3    O110544   4.603   1.331  13.951 -0.4975 -0.3234 -0.4730
  709TMC3    O210545   4.520   1.086  13.551  0.5064  0.3103 -0.3215
  710TMC3    C110546   1.342   3.170   0.338  0.0125  0.1928 -0.1602
  710TMC3    C210547   1.384   3.160   0.210 -0.1604  0.2108  0.7477
  710TMC3    C310548   1.521   3.162   0.190 -0.6762  0.0285 -0.0656
  710TMC3    C410549   1.426   3.162   0.449 -0.0937 -0.5042  0.3604
  710TMC3    C510550   1.562   3.143   0.427  0.3479  0.4736  0.5798
  710TMC3    C610551   1.611   3.151   0.299 -0.3204 -0.3123 -0.5961
  710TMC3     C10552   1.205   3.211   0.359  0.4188  0.2818  0.3498
  710TMC3     O10553   1.149   3.257   0.261  0.2585 -0.4327 -0.4158
  710TMC3     H10554   1.315   3.153   0.128  1.9422  2.7942 -1.2284
  710TMC3    H110555   1.394   3.168   0.552 -0.9145 -1.3940  0.1570
  710TMC3    H210556   1.715   3.133   0.277 -0.1488 -0.2561  0.1755
  710TMC3    C710557   1.651   3.143   0.544  0.4966  0.1035 -0.3499
  710TMC3    C810558   1.574   3.106   0.065  0.7012  0.5307 -0.6043
  710TMC3    O110559   1.596   3.104   0.647 -0.1584 -0.3260 -0.3630
  710TMC3    O210560   1.685   3.126   0.023  0.2930 -0.1746 -0.1905
  711TMC3    C110561   1.019   3.390  14.515 -0.4510  0.9132 -0.5100
  711TMC3    C210562   0.970   3.456  14.625 -0.2548 -0.8854  0.2090
  711TMC3    C310563   1.064   3.523  14.706  0.6283 -0.5262 -0.3737
  711TMC3    C410564   1.149   3.384  14.482  0.0923  0.7622  0.4955
  711TMC3    C510565   1.234   3.448  14.564  0.2521  0.3618 -0.6599
  711TMC3    C610566   1.199   3.510  14.682  0.5787  0.3309  0.1147
  711TMC3     C10567   0.920   3.334  14.427  0.7954 -0.4910 -0.3933
  711TMC3     O10568   0.808   3.307  14.467 -0.5186 -0.3185  0.1121
  711TMC3     H10569   0.865   3.449  14.649 -1.0161  0.6640 -2.7678
  711TMC3    H110570   1.184   3.320  14.402 -1.6901 -2.0059  1.9206
  711TMC3    H210571   1.273   3.577  14.725 -0.7613  2.9511 -1.7338
  711TMC3    C710572   1.380   3.432  14.551  0.4198 -0.1484 -0.4900
  711TMC3    C810573   1.024   3.555  14.844 -0.2471 -0.2699  0.0339
  711TMC3    O110574   1.440   3.433  14.657  0.0674 -0.0345 -0.2058
  711TMC3    O210575   0.917   3.509  14.881  0.2223  0.3592  0.5997
  712MPD2     C10576   2.654   4.093  13.598  0.6030  0.3646  0.0049
  712MPD2    C110577   2.541   4.168  13.565 -0.6628  0.7020 -0.0948
  712MPD2    C210578   2.538   4.305  13.587 -0.2686 -0.3638  0.4954
  712MPD2    C310579   2.648   4.372  13.643 -0.4506  1.0832 -0.0971
  712MPD2    C410580   2.754   4.293  13.679 -1.4699 -0.4622  0.7000
  712MPD2    C510581   2.765   4.158  13.657 -0.0131  1.1010  0.5856
  712MPD2     H10582   2.441   4.345  13.557 -0.4069 -1.1757 -0.1525
  712MPD2    H110583   2.844   4.336  13.722 -0.9506 -0.6395 -0.2044
  712MPD2    H210584   2.659   3.985  13.592  1.5647  0.4680 -0.8649
  712MPD2    H310585   2.863   4.114  13.669 -0.4262  0.3069  1.0541
  712MPD2     N10586   2.653   4.510  13.683 -0.0246  0.5208  0.3271
  712MPD2    H510587   2.731   4.558  13.726  1.5557 -1.2746 -0.5360
  712MPD2    N110588   2.430   4.113  13.501  0.0314 -0.4617 -0.4493
  712MPD2    H710589   2.362   4.185  13.478 -0.8180 -1.5934 -1.4846
  713TMC3    C110590   2.603   0.004  13.673 -0.0934 -0.5967 -0.8185
  713TMC3    C210591   2.723   0.024  13.731 -0.0148  0.5643  0.4342
  713TMC3    C310592   2.748   0.148  13.797 -0.5912  0.2927  0.2630
  713TMC3    C410593   2.512   0.108  13.651  0.2296 -0.1240 -0.6819
  713TMC3    C510594   2.551   0.231  13.700  0.5477 -0.5092 -0.1862
  713TMC3    C610595   2.653   0.246  13.786 -0.1263  0.7601  0.4177
  713TMC3     C10596   2.566   4.607  13.638 -0.0318  0.1143 -0.4319
  713TMC3     O10597   2.465   4.605  13.564 -0.2270 -0.2691 -0.5708
  713TMC3     H10598   2.802   4.685  13.735 -0.2605  0.4414  3.0035
  713TMC3    H110599   2.430   0.090  13.583  1.3529 -3.7078 -1.0460
  713TMC3    H210600   2.674   0.344  13.828  0.9961 -0.0944  1.8351
  713TMC3    C710601   2.479   0.352  13.650  0.0930 -0.1269 -0.4559
  713TMC3    C810602   2.889   0.186  13.802  0.1922 -0.2462 -0.5249
  713TMC3    O110603   2.523   0.464  13.675 -0.0333  0.2521 -0.0351
  713TMC3    O210604   2.966   0.111  13.741 -0.2708 -0.0896 -0.2185
  714MPD2     C10605   0.123   4.426   1.618 -0.7865 -0.4837  0.4005
  714MPD2    C110606   0.157   4.358   1.502  0.2250  0.0688  0.1208
  714MPD2    C210607   0.089   4.383   1.381  0.2611 -0.3834 -0.0526
  714MPD2    C310608   4.733   4.484   1.373  0.4163 -0.4485  0.5040
  714MPD2    C410609   4.699   4.552   1.485  0.4999  0.7803 -0.5630
  714MPD2    C510610   0.021   4.519   1.605  0.1663 -0.0177  0.8504
  714MPD2     H10611   0.108   4.327   1.291 -2.0994  1.2857 -1.6072
  714MPD2    H110612   4.635   4.639   1.490 -0.5569  0.0582 -1.3258
  714MPD2    H210613   0.173   4.417   1.714  2.1713  3.3095 -0.8019
  714MPD2    H310614   4.721   4.572   1.692  0.0001  0.0185  0.7611
  714MPD2     N10615   4.661   4.497   1.249 -0.3496 -0.2030 -0.6789
  714MPD2    H510616   4.696   4.438   1.174 -2.2145 -3.0170  0.6605
  714MPD2    N110617   0.254   4.261   1.523  0.6972  0.3627 -0.4743
  714MPD2    H710618   0.284   4.255   1.620 -3.4663  1.7344  0.9096
  715TMC3    C110619   0.407   4.089   1.492  0.7729 -0.2959 -0.1189
  715TMC3    C210620   0.427   3.965   1.444 -0.3550  0.5996  0.0659
  715TMC3    C310621   0.553   3.922   1.419  0.1563  0.0768  0.8504
  715TMC3    C410622   0.513   4.168   1.518  0.0711 -0.1565 -0.1976
  715TMC3    C510623   0.637   4.122   1.494 -0.1302 -0.0234  0.5847
  715TMC3    C610624   0.666   3.996   1.447  0.0558  0.1888  0.7190
  715TMC3     C10625   0.292   4.163   1.437  0.0838  0.5116  0.0474
  715TMC3     O10626   0.272   4.147   1.315 -0.2928  0.3930  0.2139
  715TMC3     H10627   0.344   3.897   1.428 -0.4868  1.3704 -2.5067
  715TMC3    H110628   0.498   4.274   1.532  0.6068  0.0671 -1.2904
  715TMC3    H210629   0.765   3.955   1.431  0.2458 -0.1276  2.6920
  715TMC3    C710630   0.749   4.201   1.535  0.2706 -0.7699  1.2284
  715TMC3    C810631   0.561   3.805   1.328 -0.5230  0.6843  0.2751
  715TMC3    O110632   0.856   4.162   1.485 -0.0868  0.1187  0.5008
  715TMC3    O210633   0.455   3.780   1.272 -0.0286  0.1918 -0.5921
  716MPD2     C10634   4.205   1.701  10.008  0.7456  0.1284  0.0278
  716MPD2    C110635   4.263   1.711   9.891  0.9076  0.2604 -0.2521
  716MPD2    C210636   4.392   1.653   9.881  0.4062 -0.1932  0.0747
  716MPD2    C310637   4.452   1.583   9.986  0.0167  0.1259 -0.0496
  716MPD2    C410638   4.380   1.569  10.099 -0.7996  0.2037 -0.1500
  716MPD2    C510639   4.256   1.625  10.107 -0.2856  0.7583  0.2466
  716MPD2     H10640   4.457   1.658   9.794  0.4458 -1.0101  0.0625
  716MPD2    H110641   4.412   1.524  10.193 -0.3759 -0.8467 -0.7952
  716MPD2    H210642   4.113   1.750  10.039  0.1101 -0.1270 -1.4540
  716MPD2    H310643   4.201   1.628  10.201 -0.5060 -0.5818  0.1580
  716MPD2     N10644   4.576   1.523   9.967 -0.0467 -0.1255 -0.1525
  716MPD2    H510645   4.612   1.539   9.874  2.6827  0.4832  1.0200
  716MPD2    N110646   4.201   1.794   9.797 -0.6149  0.5080 -0.0993
  716MPD2    H710647   4.126   1.850   9.835 -0.6801 -0.6437  1.4950
  717TMC3    C110648   0.010   1.366   9.982  0.3594 -0.4371  0.0398
  717TMC3    C210649   0.047   1.381   9.851 -0.0934  0.1807  0.1154
  717TMC3    C310650   0.144   1.307   9.795 -1.0758  0.1944  0.2136
  717TMC3    C410651   0.075   1.273  10.064 -0.2483  0.1747 -1.6564
  717TMC3    C510652   0.160   1.184   9.996  0.7562  0.3459 -0.0327
  717TMC3    C610653   0.202   1.198   9.860  0.2004  0.5482  0.4227
  717TMC3     C10654   4.633   1.431  10.047 -0.0818  0.1115  0.2943
  717TMC3     O10655   4.602   1.389  10.157  0.3243 -0.0899 -0.5108
  717TMC3     H10656   4.730   1.448   9.783  1.7297  1.1703 -0.3285
  717TMC3    H110657   0.080   1.291  10.171 -0.5880 -1.9639 -1.2771
  717TMC3    H210658   0.269   1.125   9.816 -1.6509 -0.3752 -0.8495
  717TMC3    C710659   0.185   1.064  10.064  0.3948 -0.0313  0.1853
  717TMC3    C810660   0.166   1.324   9.654  0.1239  0.1783  0.7985
  717TMC3    O110661   0.231   0.970   9.999 -0.4220 -0.0968  0.4853
  717TMC3    O210662   0.141   1.438   9.611 -0.0961  0.1653 -0.0117
  718MPD2     C10663   3.744   0.197  12.500 -0.8942  0.3854  0.0020
  718MPD2    C110664   3.824   0.094  12.457 -0.0502  0.2692 -0.5437
  718MPD2    C210665   3.864   4.723  12.541 -1.0501 -0.0437 -0.0774
  718MPD2    C310666   3.824   4.718  12.668 -0.3812  0.7654 -0.3619
  718MPD2    C410667   3.739   0.085  12.709 -0.8726 -0.4886 -0.2558
  718MPD2    C510668   3.690   0.189  12.629 -0.1864 -0.5337  0.3971
  718MPD2     H10669   3.931   4.647  12.502 -0.9912  0.7839 -1.5742
  718MPD2    H110670   3.707   0.079  12.812  0.3320 -1.0985  0.0777
  718MPD2    H210671   3.726   0.280  12.433 -0.6907  1.0194  0.7368
  718MPD2    H310672   3.614   0.256  12.668  0.0451 -0.5801  0.9250
  718MPD2     N10673   3.873   4.625  12.768  0.1179  0.1931 -0.2356
  718MPD2    H510674   3.867   4.648  12.867  0.3917 -0.4206 -0.0776
  718MPD2    N110675   3.884   0.101  12.330  0.6144 -0.9802  0.7562
  718MPD2    H710676   3.884   0.190  12.281 -1.5788 -1.3483  0.0832
  719TMC3    C110677   4.017   0.027  12.143 -0.7696  0.0495 -0.2298
  719TMC3    C210678   4.028   4.650  12.067  0.2080 -0.2967 -0.5052
  719TMC3    C310679   4.147   4.625  12.008 -0.0601 -0.2655 -0.3291
  719TMC3    C410680   4.124   0.115  12.168  0.2520 -1.0078  0.3631
  719TMC3    C510681   4.234   0.088  12.102 -0.1345 -0.8067 -0.1755
  719TMC3    C610682   4.253   4.710  12.027 -0.9533 -0.3380  0.9883
  719TMC3     C10683   3.935   4.727  12.258  0.0108  0.2118 -1.2322
  719TMC3     O10684   3.920   4.605  12.269 -0.6493  0.1879 -0.1548
  719TMC3     H10685   3.944   4.586  12.042  0.8970 -1.0413 -0.9037
  719TMC3    H110686   4.117   0.189  12.246  1.4478  0.4162 -0.8834
  719TMC3    H210687   4.353   4.684  11.995 -2.9461 -5.6194 -0.9685
  719TMC3    C710688   4.357   0.144  12.135 -0.0991 -0.2345  0.2545
  719TMC3    C810689   4.182   4.483  12.025  0.1943  0.8802  0.1916
  719TMC3    O110690   4.441   0.133  12.047  0.5642  0.2637  0.1655
  719TMC3    O210691   4.261   4.422  11.949  0.6414 -0.2686  0.5286
  720MPD2     C10692   2.487   1.568  13.790 -0.0947 -0.2603  0.2388
  720MPD2    C110693   2.562   1.572  13.672 -0.0022  0.5383 -0.6041
  720MPD2    C210694   2.697   1.567  13.680 -0.1084 -0.0507  0.0842
  720MPD2    C310695   2.758   1.561  13.805 -0.2226  0.1416  0.4768
  720MPD2    C410696   2.679   1.553  13.917 -0.3100  0.8863 -0.6167
  720MPD2    C510697   2.547   1.569  13.914 -0.2481 -0.5622 -0.6964
  720MPD2     H10698   2.760   1.566  13.591 -1.2616  0.6418 -0.7346
  720MPD2    H110699   2.726   1.548  14.015 -3.1515  1.4659  0.7863
  720MPD2    H210700   2.379   1.579  13.791 -0.3167 -2.1822 -2.9834
  720MPD2    H310701   2.492   1.572  14.008 -0.3168  0.9213 -0.7833
  720MPD2     N10702   2.900   1.563  13.801 -0.2733 -0.0576 -0.0546
  720MPD2    H510703   2.941   1.540  13.711 -0.5308  3.9251 -1.1914
  720MPD2    N110704   2.506   1.604  13.550 -0.0165  0.0853  0.4535
  720MPD2    H710705   2.568   1.611  13.470  0.5057 -0.0289  0.8493
  721TMC3    C110706   3.119   1.577  13.869 -0.8000 -0.1535 -0.1133
  721TMC3    C210707   3.204   1.539  13.968 -0.3531 -0.1877 -0.0695
  721TMC3    C310708   3.330   1.508  13.927 -0.0627 -0.1530 -1.2317
  721TMC3    C410709   3.156   1.572  13.737 -0.5970  0.1535  0.5347
  721TMC3    C510710   3.287   1.555  13.700  0.2675  0.5748  0.3120
  721TMC3    C610711   3.373   1.521  13.799  0.3181  0.3086  0.5099
  721TMC3     C10712   2.981   1.597  13.904  0.0703  0.0415 -0.2051
  721TMC3     O10713   2.966   1.647  14.012 -0.2513 -0.6834 -0.2631
  721TMC3     H10714   3.153   1.514  14.061  1.4983 -0.6249  0.8425
  721TMC3    H110715   3.093   1.600  13.653 -0.1404 -0.0048  0.1431
  721TMC3    H210716   3.480   1.521  13.778 -0.0306 -0.4579 -1.2400
  721TMC3    C710717   3.346   1.630  13.586  0.3322  0.1412 -0.4369
  721TMC3    C810718   3.438   1.494  14.034 -0.0374  1.1379 -0.1095
  721TMC3    O110719   3.465   1.598  13.584  0.1084 -0.5279  0.1731
  721TMC3    O210720   3.549   1.460  13.998 -0.3227  0.1693 -0.2211
  722MPD2     C10721   1.601   0.103  12.842  0.1160 -0.6157  0.0216
  722MPD2    C110722   1.604   0.224  12.779  0.0695 -0.3395 -0.6652
  722MPD2    C210723   1.501   0.255  12.692  0.3493  1.1767 -0.1069
  722MPD2    C310724   1.388   0.179  12.683 -0.3889 -0.1170 -0.9865
  722MPD2    C410725   1.383   0.064  12.760  0.1129  0.5232  0.6297
  722MPD2    C510726   1.488   0.023  12.827  0.3575 -0.2410 -1.0610
  722MPD2     H10727   1.504   0.344  12.631  2.9373  1.8138  0.9670
  722MPD2    H110728   1.298   4.732  12.759  0.0648  0.5878  0.2836
  722MPD2    H210729   1.680   0.057  12.901 -1.2043 -2.5043  0.3349
  722MPD2    H310730   1.486   4.664  12.882 -1.4672  1.0924  1.1322
  722MPD2     N10731   1.287   0.224  12.599  0.1581  0.4462 -0.1348
  722MPD2    H510732   1.296   0.315  12.556 -2.6543 -0.4597 -2.6401
  722MPD2    N110733   1.722   0.302  12.777  0.1733 -0.3151 -0.2402
  722MPD2    H710734   1.717   0.379  12.711  4.0498  0.0580 -0.0883
  723TMC3    C110735   1.065   0.236  12.507  0.1498  0.6807  0.0580
  723TMC3    C210736   0.965   0.156  12.449 -0.0499  0.2270  0.5418
  723TMC3    C310737   0.846   0.211  12.431 -0.6447 -0.0035 -0.0175
  723TMC3    C410738   1.050   0.369  12.538  0.1562  0.0588 -0.1050
  723TMC3    C510739   0.928   0.422  12.486 -0.2935 -0.5519  0.1375
  723TMC3    C610740   0.828   0.343  12.434 -0.5405 -0.2888 -0.4303
  723TMC3     C10741   1.176   0.157  12.554  0.3657 -0.0209 -0.0938
  723TMC3     O10742   1.164   0.035  12.565 -0.1066 -0.0432 -0.2107
  723TMC3     H10743   0.982   0.050  12.433 -0.6446  0.1525  0.4004
  723TMC3    H110744   1.117   0.430  12.597  0.7258 -1.9414  1.2701
  723TMC3    H210745   0.730   0.385  12.412 -1.0674 -2.0911 -1.5018
  723TMC3    C710746   0.878   0.548  12.537  0.5112 -0.3866 -0.0911
  723TMC3    C810747   0.729   0.131  12.410 -0.4867  0.4049 -0.0143
  723TMC3    O110748   0.919   0.592  12.640 -0.6469 -0.4031 -0.4559
  723TMC3    O210749   0.631   0.186  12.358 -0.0883 -0.6227  0.2100
  724TMC3    C110750   1.927   3.772  11.007  0.2588  0.3788 -0.8961
  724TMC3    C210751   1.941   3.637  10.975  0.0292 -0.1799 -1.1285
  724TMC3    C310752   2.050   3.597  10.892 -0.7612 -0.5941 -0.6748
  724TMC3    C410753   2.027   3.863  10.970 -0.3648  0.0538 -0.4030
  724TMC3    C510754   2.129   3.814  10.899  0.0902 -0.0691 -0.2238
  724TMC3    C610755   2.151   3.686  10.873  0.2362 -0.4089  0.6389
  724TMC3     C10756   1.821   3.813  11.102 -0.6298 -0.1278 -0.0335
  724TMC3     O10757   1.741   3.724  11.128 -0.5531 -0.4608  0.5519
  724TMC3     H10758   1.850   3.579  10.970 -1.1992  1.5965  0.3465
  724TMC3    H110759   2.027   3.965  11.009  3.9384 -0.0589 -0.0940
  724TMC3    H210760   2.242   3.653  10.825  0.1577 -0.5263  0.5717
  724TMC3    C710761   2.179   3.891  10.792  0.2333 -0.7900  0.1583
  724TMC3    C810762   2.004   3.549  10.768 -0.1333 -0.3485  0.1250
  724TMC3    O110763   2.230   3.830  10.700 -0.0160 -0.4572 -0.6804
  724TMC3    O210764   1.907   3.466  10.780  0.0731 -0.4651 -1.0924
  725TMC3    C110765   3.630   2.094  11.891  0.1533  0.0772 -0.2708
  725TMC3    C210766   3.540   2.023  11.811  0.3644  0.2465  0.1834
  725TMC3    C310767   3.568   1.888  11.792  0.6619 -0.2216  0.5699
  725TMC3    C410768   3.737   2.026  11.950  0.0175  0.0698 -0.4209
  725TMC3    C510769   3.755   1.897  11.929 -0.0312 -0.1751 -0.0170
  725TMC3    C610770   3.667   1.821  11.857  0.2716  0.2051  0.8632
  725TMC3     C10771   3.566   2.214  11.952 -0.3972  0.0892  0.4035
  725TMC3     O10772   3.484   2.277  11.880  0.0174 -0.5789  0.4628
  725TMC3     H10773   3.440   2.055  11.784 -0.4059 -0.4344  2.2469
  725TMC3    H110774   3.815   2.078  12.005  0.9417 -1.4947 -0.2419
  725TMC3    H210775   3.694   1.718  11.838 -1.5975 -0.4593  1.7463
  725TMC3    C710776   3.891   1.846  11.959  0.0516  0.5211  0.4268
  725TMC3    C810777   3.499   1.806  11.697  0.0307 -0.2242  0.4239
  725TMC3    O110778   3.981   1.923  11.937 -0.2078  0.5617  1.0017
  725TMC3    O210779   3.520   1.685  11.693  0.0958  0.4679  0.1745
  726MPD2     C10780   1.042   3.701  10.295 -0.5890  0.5656 -0.2924
  726MPD2    C110781   0.928   3.747  10.232 -0.5438 -0.3446 -0.2892
  726MPD2    C210782   0.811   3.685  10.256  0.2928 -0.6756  0.0070
  726MPD2    C310783   0.812   3.569  10.337  0.9933 -0.6726 -1.1265
  726MPD2    C410784   0.929   3.530  10.402  0.4287 -0.3153 -0.2040
  726MPD2    C510785   1.044   3.597  10.380  0.1154  0.0686 -0.1114
  726MPD2     H10786   0.715   3.729  10.233  1.7642  3.4872  1.7339
  726MPD2    H110787   0.930   3.453  10.478 -1.4700  1.2489  1.3923
  726MPD2    H210788   1.137   3.751  10.282  0.5984 -1.6580 -0.3063
  726MPD2    H310789   1.139   3.575  10.426  0.0441 -2.7848 -1.3408
  726MPD2     N10790   0.700   3.486  10.370  0.1756 -0.4491  0.5135
  726MPD2    H510791   0.715   3.412  10.438  0.8890  1.4918  2.4361
  726MPD2    N110792   0.941   3.866  10.158 -0.7859 -0.0118  0.0533
  726MPD2    H710793   1.026   3.919  10.173 -1.0912  0.5254 -0.1328
  727TMC3    C110794   0.883   4.023   9.995 -0.7412 -0.4998 -0.6315
  727TMC3    C210795   0.960   4.123  10.046 -0.3287 -0.0056  0.0841
  727TMC3    C310796   0.994   4.217   9.954 -0.5676 -0.2499 -0.7094
  727TMC3    C410797   0.837   4.014   9.870  0.2457  0.5762 -0.0782
  727TMC3    C510798   0.873   4.114   9.787  0.2469  0.6242  0.0252
  727TMC3    C610799   0.964   4.205   9.822 -0.0293  0.5209  0.2580
  727TMC3     C10800   0.841   3.911  10.076 -0.2894  0.4277  1.0544
  727TMC3     O10801   0.734   3.855  10.048  0.0239 -0.1987  0.1824
  727TMC3     H10802   0.965   4.135  10.154  1.1821  0.9269 -0.0818
  727TMC3    H110803   0.772   3.934   9.837  2.8228 -1.4186 -0.3499
  727TMC3    H210804   0.979   4.290   9.756 -0.5956 -0.8826 -1.6920
  727TMC3    C710805   0.847   4.102   9.646  0.2722 -0.3440  0.6863
  727TMC3    C810806   1.069   4.323  10.014  0.0202  0.1444  0.2060
  727TMC3    O110807   0.919   4.171   9.578  0.0925  0.3169 -0.1038
  727TMC3    O210808   1.101   4.313  10.130  0.2283 -0.6018 -0.3307
  728TMC3    C110809   0.492   2.477  15.287 -0.2781 -0.1217 -0.4810
  728TMC3    C210810   0.614   2.471  15.220 -0.1271  0.1169 -0.5381
  728TMC3    C310811   0.617   2.520  15.094 -0.4942 -0.7254 -0.3718
  728TMC3    C410812   0.377   2.531  15.233  0.3045 -0.3754 -0.1444
  728TMC3    C510813   0.393   2.575  15.107  0.3176  0.0108 -0.0094
  728TMC3    C610814   0.506   2.566  15.039 -0.5461 -1.1322 -0.1665
  728TMC3     C10815   0.488   2.426  15.424  0.6589  0.0601 -0.0744
  728TMC3     O10816   0.596   2.406  15.475 -0.6438  0.4957  0.1187
  728TMC3     H10817   0.701   2.415  15.253 -1.1550  0.0202  1.9853
  728TMC3    H110818   0.291   2.561  15.292 -0.3817  1.7736 -2.2505
  728TMC3    H210819   0.501   2.604  14.937  0.6492  1.6084  0.7829
  728TMC3    C710820   0.269   2.576  15.029 -0.2132 -0.0776 -0.0020
  728TMC3    C810821   0.728   2.482  15.003  0.5622 -0.4524 -1.1143
  728TMC3    O110822   0.175   2.509  15.077  0.0795 -0.7481 -0.3146
  728TMC3    O210823   0.840   2.467  15.051 -0.1417  0.1198  0.9827
  729MPD2     C10824   2.762   3.544  16.361  0.0046  0.4628 -0.1592
  729MPD2    C110825   2.806   3.557  16.489 -0.3954  0.0360 -0.3039
  729MPD2    C210826   2.712   3.550  16.593  0.1242  0.2145  0.1876
  729MPD2    C310827   2.574   3.537  16.570 -0.1760  0.0207 -0.0066
  729MPD2    C410828   2.533   3.535  16.435  0.4037  0.2196  0.4922
  729MPD2    C510829   2.627   3.536  16.334  0.2973  0.1587  0.2053
  729MPD2     H10830   2.757   3.574  16.689  1.8618  0.9516 -0.8129
  729MPD2    H110831   2.431   3.540  16.400  0.0788  1.5205  1.6424
  729MPD2    H210832   2.832   3.545  16.278  0.4527  2.2677  0.2515
  729MPD2    H310833   2.606   3.516  16.230 -0.4912 -1.5249  0.6832
  729MPD2     N10834   2.486   3.535  16.677  0.5838  0.0706  0.6148
  729MPD2    H510835   2.385   3.528  16.665  0.9240  0.6629 -2.7412
  729MPD2    N110836   2.945   3.573  16.500  0.5794 -0.8349 -0.6824
  729MPD2    H710837   2.997   3.555  16.415 -0.9038 -0.2530 -1.7118
  730TMC3    C110838   2.402   3.560  16.895 -0.9293  0.7646 -0.5549
  730TMC3    C210839   2.412   3.508  17.021  0.9724  0.0286  0.7947
  730TMC3    C310840   2.362   3.575  17.126  0.0583  0.3530  0.2278
  730TMC3    C410841   2.330   3.671  16.872 -0.6364 -0.2562 -0.0862
  730TMC3    C510842   2.271   3.739  16.974  0.6745  0.3284  0.1024
  730TMC3    C610843   2.290   3.692  17.103 -0.8410 -0.6380  0.3241
  730TMC3     C10844   2.514   3.539  16.809  0.3581 -0.2482  0.4976
  730TMC3     O10845   2.623   3.524  16.868 -0.0151 -0.4998 -0.3218
  730TMC3     H10846   2.475   3.420  17.029  0.6584 -0.4092 -1.6442
  730TMC3    H110847   2.324   3.709  16.771  1.0006  0.4261  0.0816
  730TMC3    H210848   2.257   3.751  17.187 -2.3608 -2.3736  0.9665
  730TMC3    C710849   2.283   3.883  16.959 -0.1110  0.4087  0.0136
  730TMC3    C810850   2.439   3.573  17.239  0.2392  0.2006 -0.7814
  730TMC3    O110851   2.317   3.924  16.849 -0.3516  0.5329  0.0107
  730TMC3    O210852   2.450   3.468  17.298 -0.3142  0.3933  0.0375
  731MPD2     C10853   2.358   0.755  12.355  0.2163 -0.2913  0.0275
  731MPD2    C110854   2.484   0.718  12.403 -0.5677 -0.0659 -0.3135
  731MPD2    C210855   2.502   0.678  12.531 -0.6112  0.0578  0.5228
  731MPD2    C310856   2.402   0.687  12.619 -0.0393  0.7147  0.4660
  731MPD2    C410857   2.279   0.718  12.570 -0.3584  0.9846 -0.3775
  731MPD2    C510858   2.254   0.762  12.444 -0.2617 -0.4480  0.2904
  731MPD2     H10859   2.604   0.659  12.562 -0.9940 -1.8175  0.5919
  731MPD2    H110860   2.197   0.715  12.642  0.3425 -0.9610  0.3273
  731MPD2    H210861   2.340   0.778  12.251 -0.4889 -2.3572 -0.3040
  731MPD2    H310862   2.151   0.785  12.419  0.1127  0.8911 -0.0577
  731MPD2     N10863   2.430   0.679  12.761 -0.4675 -0.0037 -0.3625
  731MPD2    H510864   2.524   0.659  12.794  0.1297  0.4916 -1.7811
  731MPD2    N110865   2.593   0.725  12.308 -0.0310  0.1515  0.2411
  731MPD2    H710866   2.577   0.768  12.217 -1.2939  1.9424  1.3065
  732TMC3    C110867   2.816   0.709  12.218  0.3015 -0.6486  0.7131
  732TMC3    C210868   2.770   0.753  12.106 -0.4245 -0.3661  0.0948
  732TMC3    C310869   2.860   0.798  12.015  0.1725 -0.4778 -1.0924
  732TMC3    C410870   2.946   0.688  12.241  0.3418  0.3555  0.6278
  732TMC3    C510871   3.038   0.714  12.137 -0.0442  0.6805 -0.4184
  732TMC3    C610872   2.987   0.762  12.020 -0.0862 -0.3207  0.3663
  732TMC3     C10873   2.725   0.707  12.338  0.2727  0.1770  0.8882
  732TMC3     O10874   2.779   0.654  12.434  0.1333 -0.3111 -0.3017
  732TMC3     H10875   2.664   0.765  12.086 -0.0399 -1.3649 -2.6191
  732TMC3    H110876   2.987   0.666  12.339  2.3139  0.6239 -0.1457
  732TMC3    H210877   3.047   0.776  11.931 -1.4627  0.1325 -0.4748
  732TMC3    C710878   3.177   0.727  12.165 -0.1255 -0.0245  0.2564
  732TMC3    C810879   2.805   0.797  11.883 -0.6621  1.2020 -0.1839
  732TMC3    O110880   3.242   0.819  12.125 -0.3275  0.1104 -0.2684
  732TMC3    O210881   2.845   0.711  11.807 -0.4393  0.2726 -0.1676
  733TMC3    C110882   3.833   4.234  12.895 -0.3998  0.6067 -1.0133
  733TMC3    C210883   3.862   4.372  12.893  0.0194  0.1354  1.4349
  733TMC3    C310884   3.985   4.419  12.850 -0.2554 -0.1728 -0.4662
  733TMC3    C410885   3.921   4.148  12.832 -0.3180  0.0785 -0.2984
  733TMC3    C510886   4.034   4.204  12.776 -0.3956  0.7794  0.2517
  733TMC3    C610887   4.085   4.331  12.803  0.2078 -0.6210 -0.0756
  733TMC3     C10888   3.692   4.216  12.896 -0.1787 -0.1435  0.5425
  733TMC3     O10889   3.627   4.310  12.852 -0.0316  0.0542  0.2248
  733TMC3     H10890   3.791   4.435  12.945 -1.1975  0.6618 -0.8482
  733TMC3    H110891   3.895   4.045  12.815  0.0264 -0.1614  0.6330
  733TMC3    H210892   4.185   4.363  12.778 -0.1806 -2.9592 -4.4754
  733TMC3    C710893   4.079   4.142  12.657 -0.7017  0.5752 -0.1047
  733TMC3    C810894   3.962   4.519  12.743 -0.1937  0.0231  0.3118
  733TMC3    O110895   4.041   4.029  12.632 -0.1842 -0.1883  0.0868
  733TMC3    O210896   4.023   4.493  12.640  0.1417  0.2712  0.1331
  734MPD2     C10897   1.126   1.718  12.135  0.0207  0.4566  0.2183
  734MPD2    C110898   1.035   1.684  12.034 -0.4194  0.4613  0.0968
  734MPD2    C210899   1.015   1.768  11.925  1.1278  0.8649  0.5992
  734MPD2    C310900   1.058   1.895  11.929  0.4702  0.1951 -0.2849
  734MPD2    C410901   1.133   1.938  12.038 -0.2382 -0.0761  1.1457
  734MPD2    C510902   1.165   1.848  12.138 -0.2764  0.4194  0.4066
  734MPD2     H10903   0.976   1.727  11.832 -0.2034  0.9158  1.1267
  734MPD2    H110904   1.182   2.035  12.038 -1.0635  0.3515  0.4907
  734MPD2    H210905   1.139   1.654  12.222 -1.5691  0.8955  0.7776
  734MPD2    H310906   1.232   1.888  12.214  0.0617 -1.6422  1.1926
  734MPD2     N10907   1.021   1.973  11.813 -0.0996  0.2157 -0.4506
  734MPD2    H510908   0.976   1.917  11.742  1.0409  0.8311 -1.6604
  734MPD2    N110909   0.974   1.556  12.042 -0.0023  0.1056 -0.2091
  734MPD2    H710910   1.006   1.494  12.116 -2.5052  0.8408  1.5001
  735TMC3    C110911   0.821   1.386  11.970  0.1469 -0.0660 -0.1035
  735TMC3    C210912   0.729   1.366  11.877  0.2262 -0.7491  0.8230
  735TMC3    C310913   0.743   1.267  11.774  0.0906  0.1371 -0.2966
  735TMC3    C410914   0.934   1.313  11.955  0.6706 -0.7657  0.8243
  735TMC3    C510915   0.951   1.236  11.847 -0.1424  0.5487  0.0698
  735TMC3    C610916   0.853   1.199  11.760  0.9844 -0.2626  0.0297
  735TMC3     C10917   0.846   1.529  11.998  0.4129 -0.5373 -0.3091
  735TMC3     O10918   0.774   1.609  11.945  0.1768 -0.2004 -0.2664
  735TMC3     H10919   0.638   1.423  11.890 -0.7471 -2.0116 -0.4764
  735TMC3    H110920   1.015   1.324  12.027  1.7034  0.3116 -0.4891
  735TMC3    H210921   0.860   1.118  11.688  2.6141 -0.2836  0.2048
  735TMC3    C710922   1.055   1.307  11.781  0.5123 -0.2008  0.5776
  735TMC3    C810923   0.692   1.322  11.643 -0.7557 -0.0001 -0.6919
  735TMC3    O110924   1.141   1.357  11.852  0.5938 -0.4357  0.3893
  735TMC3    O210925   0.714   1.267  11.536  0.1725 -0.3870  0.1304
  736MPD2     C10926   1.015   1.425  11.436 -0.0779 -0.0534 -0.2809
  736MPD2    C110927   1.083   1.405  11.555 -0.1031  0.2475 -0.0430
  736MPD2    C210928   1.211   1.462  11.577  0.1876 -0.2673 -0.0533
  736MPD2    C310929   1.273   1.530  11.480  0.6316  0.5317  0.2661
  736MPD2    C410930   1.206   1.560  11.361 -0.6233 -0.3796 -0.5334
  736MPD2    C510931   1.078   1.507  11.342  0.6244  0.0523  0.2423
  736MPD2     H10932   1.259   1.439  11.672  2.2467 -0.8825 -1.2472
  736MPD2    H110933   1.246   1.624  11.283 -1.3331 -1.0291 -1.4408
  736MPD2    H210934   0.915   1.386  11.416 -0.8900  1.9629 -0.1554
  736MPD2    H310935   1.031   1.519  11.245 -0.2404 -2.2528  0.3663
  736MPD2     N10936   1.408   1.578  11.483 -1.0812  0.3476  0.0731
  736MPD2    H510937   1.446   1.602  11.392  0.6885 -2.1982  0.1199
  736MPD2    N110938   1.021   1.324  11.651  0.1648 -0.4027  0.1658
  736MPD2    H710939   0.933   1.281  11.623  0.5712  0.3458 -2.2608
  737TMC3    C110940   1.628   1.612  11.545 -0.3212 -0.3822  0.2694
  737TMC3    C210941   1.641   1.706  11.452  0.5820  0.5469  1.2354
  737TMC3    C310942   1.769   1.731  11.417 -0.4022 -0.3675  0.5914
  737TMC3    C410943   1.733   1.548  11.607  0.1559 -0.5001 -0.1330
  737TMC3    C510944   1.861   1.560  11.557 -0.1624 -0.5547 -0.2557
  737TMC3    C610945   1.879   1.663  11.464  0.3595 -0.0783  0.1391
  737TMC3     C10946   1.495   1.562  11.589  0.2192 -0.1221 -0.4326
  737TMC3     O10947   1.487   1.501  11.695 -0.2361  0.9152  0.3481
  737TMC3     H10948   1.553   1.765  11.429  0.8093  1.2911  2.2407
  737TMC3    H110949   1.708   1.477  11.685 -1.5805  2.1690  1.7339
  737TMC3    H210950   1.959   1.663  11.391  0.7042  1.9911  0.5005
  737TMC3    C710951   1.912   1.432  11.521 -0.0360  0.1208 -0.1311
  737TMC3    C810952   1.792   1.821  11.304  0.7924 -0.2047  0.7431
  737TMC3    O110953   1.824   1.347  11.520  0.3089 -0.0271  0.3363
  737TMC3    O210954   1.902   1.872  11.296  0.5027 -0.0738  0.4988
  738MPD2     C10955   2.053   0.597  15.158  0.1606 -0.0321  0.1794
  738MPD2    C110956   1.995   0.539  15.042 -0.3011  0.6282  0.9192
  738MPD2    C210957   2.058   0.561  14.919  0.2719 -0.4295 -0.0277
  738MPD2    C310958   2.167   0.644  14.911 -0.3081  0.6926  0.0940
  738MPD2    C410959   2.228   0.689  15.026 -0.2952 -0.4145  0.5404
  738MPD2    C510960   2.165   0.668  15.149 -0.8067  0.4561 -0.3424
  738MPD2     H10961   2.015   0.510  14.833 -0.7146 -2.4718  1.6526
  738MPD2    H110962   2.309   0.761  15.031  1.0991 -1.9196 -0.0685
  738MPD2    H210963   2.022   0.582  15.261 -1.4746 -1.3477 -0.5058
  738MPD2    H310964   2.196   0.723  15.237  0.7302  0.7075 -1.0326
  738MPD2     N10965   2.229   0.675  14.793  0.2334  0.1350  0.5434
  738MPD2    H510966   2.297   0.751  14.787 -0.1131  0.4518  0.6370
  738MPD2    N110967   1.872   0.469  15.046 -0.1746 -0.3617 -0.2559
  738MPD2    H710968   1.848   0.421  14.960  0.4883 -0.1541 -0.5558
  739TMC3    C110969   2.263   0.710  14.567  0.5482 -0.2626 -1.2537
  739TMC3    C210970   2.205   0.772  14.454  0.0922 -0.0675  0.8652
  739TMC3    C310971   2.274   0.875  14.391  0.1639 -0.2135  0.3877
  739TMC3    C410972   2.389   0.740  14.601 -0.5281 -0.3116 -0.1582
  739TMC3    C510973   2.461   0.840  14.532 -0.0607 -0.0656 -0.9276
  739TMC3    C610974   2.396   0.922  14.436 -0.3635 -0.3361  0.1876
  739TMC3     C10975   2.184   0.642  14.666  0.3181 -0.7003 -0.5884
  739TMC3     O10976   2.083   0.583  14.629  0.3091  0.5440 -0.0955
  739TMC3     H10977   2.107   0.741  14.418  0.0193  0.1047  0.9176
  739TMC3    H110978   2.449   0.694  14.679 -3.7929 -0.1852  2.4072
  739TMC3    H210979   2.437   1.018  14.405 -0.0855 -0.1980  0.9707
  739TMC3    C710980   2.563   0.897  14.613 -0.4838  0.0395 -0.3715
  739TMC3    C810981   2.220   0.927  14.261 -0.6706 -0.5758  0.1838
  739TMC3    O110982   2.651   0.833  14.671 -0.2935 -0.1626  0.0322
  739TMC3    O210983   2.114   0.882  14.216  0.4435 -0.5841 -0.6151
  740TMC3    C110984   2.010   2.097  14.170  0.2148 -0.1508 -0.4032
  740TMC3    C210985   1.994   2.191  14.275  0.0042  0.5286  0.3535
  740TMC3    C310986   2.103   2.219  14.351  0.4119 -0.5064  0.0308
  740TMC3    C410987   2.127   2.050  14.136  0.9280  0.5923 -0.0736
  740TMC3    C510988   2.235   2.095  14.204  0.7564  0.1372  0.1393
  740TMC3    C610989   2.223   2.166  14.320  0.8253 -0.4885  0.3664
  740TMC3     C10990   1.894   2.023  14.123 -0.9530  0.5742  0.8479
  740TMC3     O10991   1.899   1.964  14.017 -0.1007 -0.2605  0.5835
  740TMC3     H10992   1.893   2.223  14.294 -0.2506  0.1807 -0.4069
  740TMC3    H110993   2.142   1.982  14.052  0.7488  1.5734 -0.9060
  740TMC3    H210994   2.317   2.193  14.367  0.5067 -0.2235  0.8447
  740TMC3    C710995   2.361   2.048  14.165 -0.6597  0.4959  0.2063
  740TMC3    C810996   2.096   2.334  14.435  0.9916  0.4028  0.4784
  740TMC3    O110997   2.436   2.025  14.260 -0.7538 -0.1751 -0.1480
  740TMC3    O210998   2.009   2.414  14.414 -0.1099 -0.0458  0.4023
  741TMC3    C110999   2.086   1.066  14.542  0.1066 -0.7966 -0.4108
  741TMC3    C211000   1.985   1.071  14.447  0.1967 -0.1469 -0.4405
  741TMC3    C311001   1.863   1.015  14.474  0.5391 -0.5003  0.3194
  741TMC3    C411002   2.068   1.009  14.662 -0.2174  0.6135  0.0020
  741TMC3    C511003   1.948   0.950  14.685  0.0375  0.0258 -0.6737
  741TMC3    C611004   1.841   0.954  14.597  0.7257 -0.2569 -0.1895
  741TMC3     C11005   2.184   1.163  14.539  0.0808 -0.3805  0.5772
  741TMC3     O11006   2.283   1.126  14.605  0.2993 -0.1412 -0.1480
  741TMC3     H11007   2.014   1.099  14.346  1.2620  0.1699 -0.0441
  741TMC3    H111008   2.147   0.997  14.735 -1.2955  1.7480  1.3609
  741TMC3    H211009   1.744   0.915  14.626 -0.1029  1.2779 -0.9021
  741TMC3    C711010   1.909   0.914  14.818 -1.0392  0.9030  0.0577
  741TMC3    C811011   1.743   1.039  14.393 -0.4907 -0.9877  0.0007
  741TMC3    O111012   1.805   0.853  14.827  0.0211  0.3097  0.2502
  741TMC3    O211013   1.634   1.028  14.449  0.1171 -0.2203 -0.1274
  742TMC3    C111014   1.732   4.680  14.856  0.3600  0.0863 -0.3899
  742TMC3    C211015   1.658   4.639  14.751 -0.8394  0.2978 -0.5969
  742TMC3    C311016   1.713   4.624  14.625 -0.1007 -0.0071 -0.7473
  742TMC3    C411017   1.865   4.701  14.844 -0.6237  0.0648 -0.2275
  742TMC3    C511018   1.918   4.683  14.717  0.3912 -0.7827 -0.1491
  742TMC3    C611019   1.847   4.651  14.605  0.3206 -0.2237 -0.2663
  742TMC3     C11020   1.684   4.634  14.985  0.3805 -0.0329 -0.5299
  742TMC3     O11021   1.573   4.675  15.020 -0.0226  0.5325  0.0421
  742TMC3     H11022   1.561   4.604  14.783 -0.1703 -2.0237 -1.1279
  742TMC3    H111023   1.926   4.713  14.932  0.3984 -2.2311 -0.6211
  742TMC3    H211024   1.897   4.642  14.509  2.7710  0.4523  0.9601
  742TMC3    C711025   2.062   4.671  14.704  0.2276  0.3230 -0.2212
  742TMC3    C811026   1.637   4.547  14.524 -0.3375  0.4957  0.3132
  742TMC3    O111027   2.105   4.609  14.607 -0.0809 -0.1766 -0.0977
  742TMC3    O211028   1.682   4.561  14.408  0.1559 -0.3031 -0.0088
  743MPD2     C11029   0.230   1.400   1.928 -0.2154 -0.2949 -0.5402
  743MPD2    C111030   0.240   1.391   1.792  0.7229 -0.0448  0.4034
  743MPD2    C211031   0.360   1.336   1.746  0.1369 -0.3803 -0.5709
  743MPD2    C311032   0.468   1.307   1.827  0.6091 -0.4244  0.1500
  743MPD2    C411033   0.453   1.316   1.962 -0.0170  0.5162  0.0963
  743MPD2    C511034   0.336   1.375   2.009  0.6433 -0.4506 -0.1398
  743MPD2     H11035   0.377   1.315   1.641  0.6168 -1.1894 -0.3370
  743MPD2    H111036   0.529   1.285   2.033 -2.0951  1.4628  2.7346
  743MPD2    H211037   0.142   1.440   1.979  0.1033 -1.4629  0.9320
  743MPD2    H311038   0.325   1.379   2.117  0.0154 -2.8020 -0.1099
  743MPD2     N11039   0.586   1.263   1.768  0.7906 -0.2986 -0.1745
  743MPD2    H511040   0.591   1.277   1.667 -3.4216  1.8404 -0.0778
  743MPD2    N111041   0.137   1.437   1.707 -0.2202  0.5793 -0.5929
  743MPD2    H711042   0.058   1.487   1.747  0.9041  1.1900  0.8599
  744TMC3    C111043   0.002   1.438   1.520  0.3405 -0.2366 -0.0031
  744TMC3    C211044   4.685   1.560   1.544  0.0688  0.2271 -0.2166
  744TMC3    C311045   4.586   1.609   1.456  0.2845 -0.5078 -0.1918
  744TMC3    C411046   4.690   1.355   1.421  0.3356  0.8803  0.2353
  744TMC3    C511047   4.585   1.401   1.338 -0.1644 -0.1306  0.6062
  744TMC3    C611048   4.537   1.525   1.359  0.5024 -0.1132 -0.1621
  744TMC3     C11049   0.128   1.406   1.573  0.0104 -0.0488 -0.1937
  744TMC3     O11050   0.196   1.330   1.506 -0.4403 -0.1931 -0.3613
  744TMC3     H11051   4.730   1.628   1.615 -1.8303 -0.0473  1.2497
  744TMC3    H111052   4.731   1.255   1.416 -0.1215  0.7312 -0.3953
  744TMC3    H211053   4.453   1.556   1.297 -1.5794 -1.3206  2.0725
  744TMC3    C711054   4.534   1.324   1.226 -0.0618 -0.7055  0.1318
  744TMC3    C811055   4.553   1.746   1.457 -0.1387  0.7016 -0.2649
  744TMC3    O111056   4.437   1.359   1.159  0.0075 -0.5572 -0.1571
  744TMC3    O211057   4.439   1.776   1.428 -0.5642 -0.2397  0.2462
  745TMC3    C111058   2.278   3.958  13.407  0.6244  0.4025 -0.2984
  745TMC3    C211059   2.159   3.964  13.477  0.1610  0.3126  0.0260
  745TMC3    C311060   2.035   3.982  13.411 -0.4482  1.2093  0.0885
  745TMC3    C411061   2.270   3.990  13.272 -0.0620 -0.9537  0.2333
  745TMC3    C511062   2.146   3.997  13.205 -0.2551  0.3040  0.4378
  745TMC3    C611063   2.031   3.995  13.279 -0.3676 -0.3549  0.3996
  745TMC3     C11064   2.400   3.980  13.477 -0.3136  0.1627 -0.0574
  745TMC3     O11065   2.467   3.879  13.494 -0.3664 -0.1597 -0.1989
  745TMC3     H11066   2.165   3.935  13.581  3.0711 -0.0710 -0.2382
  745TMC3    H111067   2.368   3.996  13.225  0.0417  0.5374  0.6153
  745TMC3    H211068   1.934   4.005  13.233 -0.6902 -0.4552  1.0669
  745TMC3    C711069   2.144   4.067  13.081 -0.2458 -0.3696 -0.8158
  745TMC3    C811070   1.934   4.056  13.483 -0.5553 -1.1599 -0.6982
  745TMC3    O111071   2.040   4.119  13.046  0.0610  0.4056  0.7684
  745TMC3    O211072   1.823   4.072  13.441  0.8661 -0.4491 -0.4403
  746TMC3    C111073   4.720   1.387  10.870 -0.6061 -0.1847 -0.1734
  746TMC3    C211074   0.070   1.373  10.764 -1.2597 -0.0582  0.0813
  746TMC3    C311075   0.084   1.252  10.706 -0.0243  0.0880 -0.6141
  746TMC3    C411076   4.640   1.284  10.902  0.6906  0.1008  0.0796
  746TMC3    C511077   4.654   1.162  10.840  0.2417  0.5630  0.1997
  746TMC3    C611078   0.011   1.140  10.746 -0.2441  0.5094  1.2213
  746TMC3     C11079   4.661   1.516  10.902 -1.0023 -0.6368  0.1507
  746TMC3     O11080   4.564   1.521  10.977 -0.3846  0.1235 -0.3749
  746TMC3     H11081   0.145   1.450  10.747  0.0153 -1.6072 -1.3279
  746TMC3    H111082   4.567   1.299  10.981  0.2974  1.1586 -0.4912
  746TMC3    H211083   0.019   1.043  10.698 -1.5579  1.5779 -1.1500
  746TMC3    C711084   4.540   1.069  10.839  0.9781  0.0290 -0.4665
  746TMC3    C811085   0.138   1.246  10.574 -0.0325  0.4650  0.2074
  746TMC3    O111086   4.526   1.010  10.730 -0.1802 -0.5120  0.2176
  746TMC3    O211087   0.167   1.135  10.532 -0.2012 -0.0925 -0.2965
  747TMC3    C111088   2.819   0.991  11.144  0.6337 -0.5273 -0.2317
  747TMC3    C211089   2.696   1.030  11.121  0.4247 -0.4785 -1.0034
  747TMC3    C311090   2.615   1.084  11.214 -0.2131  0.6414  0.3332
  747TMC3    C411091   2.862   1.001  11.273  0.0056  0.0749 -0.2201
  747TMC3    C511092   2.783   1.049  11.365  0.0524 -0.0108  0.1564
  747TMC3    C611093   2.655   1.098  11.349  0.5812 -0.2483  0.4677
  747TMC3     C11094   2.882   0.885  11.059  0.4099 -0.1406 -0.3044
  747TMC3     O11095   2.984   0.838  11.100 -0.2613  0.1982  0.1162
  747TMC3     H11096   2.655   1.020  11.021 -0.8308 -1.8029 -0.3559
  747TMC3    H111097   2.968   0.987  11.290  0.1252  3.0891  1.4494
  747TMC3    H211098   2.592   1.119  11.435  1.9425  0.5613  1.2705
  747TMC3    C711099   2.851   1.062  11.493 -0.2352 -0.6111 -0.2469
  747TMC3    C811100   2.477   1.112  11.196  0.4469 -0.4647 -0.0112
  747TMC3    O111101   2.811   1.155  11.569  0.0659 -0.0114 -0.6047
  747TMC3    O211102   2.437   1.077  11.085 -0.0809 -0.2854 -0.5075
  748MPD2     C11103   0.482   2.987   1.333 -0.7149 -0.1049 -0.3039
  748MPD2    C111104   0.363   2.916   1.349  0.4588  0.5172  0.1956
  748MPD2    C211105   0.264   2.924   1.256  0.3764 -0.2359 -0.0629
  748MPD2    C311106   0.273   2.998   1.142 -0.3410 -0.0350 -0.5645
  748MPD2    C411107   0.394   3.064   1.126  0.1942  0.1437 -0.4038
  748MPD2    C511108   0.492   3.060   1.217  0.4231 -0.3231 -0.0337
  748MPD2     H11109   0.170   2.871   1.273  0.1353  0.0452 -0.5140
  748MPD2    H111110   0.419   3.115   1.034  1.0037  1.1865  0.3844
  748MPD2    H211111   0.567   2.992   1.401  0.2920 -1.6577 -1.4406
  748MPD2    H311112   0.579   3.123   1.203 -0.3457  1.0749  1.4572
  748MPD2     N11113   0.167   3.016   1.054  0.0642 -0.4422 -0.0525
  748MPD2    H511114   0.092   2.947   1.053 -0.1658 -0.2071  1.8962
  748MPD2    N111115   0.347   2.834   1.465 -0.1855  0.3668  0.4402
  748MPD2    H711116   0.429   2.841   1.525 -0.0765  1.8754  0.1173
  749TMC3    C111117   0.029   3.114   0.888 -0.0871 -0.4808  0.3199
  749TMC3    C211118   4.707   2.990   0.873  0.9141  0.3928 -0.3324
  749TMC3    C311119   4.596   2.986   0.787  0.2619  1.1527  0.2382
  749TMC3    C411120   4.723   3.229   0.834  0.3874  0.1035 -0.7947
  749TMC3    C511121   4.619   3.218   0.742  0.0395  0.3731  0.3140
  749TMC3    C611122   4.553   3.099   0.723  0.3235 -0.5654 -0.6628
  749TMC3     C11123   0.145   3.123   0.977 -0.4792  0.4889  0.4464
  749TMC3     O11124   0.208   3.225   0.954 -0.0155 -0.4355 -0.0047
  749TMC3     H11125   4.735   2.896   0.919 -0.1128  0.3910  0.2931
  749TMC3    H111126   0.032   3.325   0.857 -0.1576 -0.2221  1.6440
  749TMC3    H211127   4.458   3.086   0.673 -0.9410  1.5960  1.1940
  749TMC3    C711128   4.557   3.346   0.703 -0.3866  0.2399  0.7511
  749TMC3    C811129   4.506   2.877   0.786 -0.1924  0.2057  0.5663
  749TMC3    O111130   4.578   3.446   0.771 -0.3224  0.4103  0.4834
  749TMC3    O211131   4.399   2.897   0.727  0.0848  0.2429 -0.4796
  750MPD2     C11132   4.606   3.481  10.974 -0.3885  0.0848  0.0915
  750MPD2    C111133   4.553   3.406  11.077  0.3772 -0.2445  0.0774
  750MPD2    C211134   4.522   3.277  11.049  0.0232  0.4121 -0.6044
  750MPD2    C311135   4.528   3.221  10.927 -0.3077  0.2135 -0.0584
  750MPD2    C411136   4.571   3.302  10.823  0.3781  0.8486 -0.0667
  750MPD2    C511137   4.610   3.430  10.844  0.2487 -0.0207  0.3032
  750MPD2     H11138   4.519   3.207  11.132  1.4389  2.2886  1.0398
  750MPD2    H111139   4.574   3.256  10.726 -0.1264  1.9909 -0.6313
  750MPD2    H211140   4.645   3.582  10.979  1.3728 -0.5987 -0.0506
  750MPD2    H311141   4.656   3.491  10.767 -0.6065 -0.3774 -0.4951
  750MPD2     N11142   4.500   3.085  10.906  0.6429  0.1208 -0.5413
  750MPD2    H511143   4.537   3.052  10.818 -1.3960  0.4652 -1.5338
  750MPD2    N111144   4.563   3.457  11.212  0.9613 -0.0558 -0.1760
  750MPD2    H711145   4.611   3.545  11.228 -0.3462  0.5990  0.1304
  751TMC3    C111146   4.465   2.865  10.971  0.2568 -0.3529 -0.5536
  751TMC3    C211147   4.386   2.777  11.031  0.6862  0.2580 -0.3775
  751TMC3    C311148   4.398   2.645  10.997  0.3761 -0.3486 -0.1081
  751TMC3    C411149   4.554   2.820  10.873  0.2756 -0.6880  0.2456
  751TMC3    C511150   4.565   2.686  10.846 -0.0706 -0.3205  0.8713
  751TMC3    C611151   4.477   2.593  10.898 -0.6493 -0.5163  0.9311
  751TMC3     C11152   4.446   3.007  11.006  0.1011  0.4377 -0.6502
  751TMC3     O11153   4.378   3.031  11.104  0.0851 -0.0287 -0.0701
  751TMC3     H11154   4.312   2.808  11.104  2.4440  1.7334  0.7570
  751TMC3    H111155   4.625   2.885  10.824 -0.5344  0.2594  0.3350
  751TMC3    H211156   4.474   2.489  10.868  3.1029 -0.1247 -0.8334
  751TMC3    C711157   4.662   2.642  10.748 -0.3217 -0.5874  0.1234
  751TMC3    C811158   4.272   2.569  11.010 -0.9687  0.2838  0.5346
  751TMC3    O111159   4.703   2.716  10.659  0.1151  0.2643  0.1695
  751TMC3    O211160   4.208   2.546  10.909 -0.3501  0.7991 -0.2168
  752TMC3    C111161   3.305   3.895  17.591  0.3127  0.2415  0.1097
  752TMC3    C211162   3.270   3.763  17.565  0.1138  0.7376  0.0208
  752TMC3    C311163   3.181   3.701  17.648  0.2405 -0.0091  0.0712
  752TMC3    C411164   3.248   3.960  17.697 -0.4313 -0.3953  0.2579
  752TMC3    C511165   3.168   3.895   0.042 -0.0209 -0.5988 -0.5169
  752TMC3    C611166   3.132   3.768   0.018  0.0361  0.0101  0.5863
  752TMC3     C11167   3.337   3.973  17.476  0.2730  0.3061  0.6194
  752TMC3     O11168   3.386   4.081  17.504  0.0246 -0.6280  0.0485
  752TMC3     H11169   3.334   3.714  17.492  1.6305  1.2398  1.0183
  752TMC3    H111170   3.270   4.062  17.728  2.2906 -1.4894  1.8929
  752TMC3    H211171   3.078   3.711   0.093  0.3549 -0.3395  0.5546
  752TMC3    C711172   3.066   3.979   0.089  0.4497 -0.2803  0.0405
  752TMC3    C811173   3.184   3.553  17.651 -0.7631  0.0926 -0.4536
  752TMC3    O111174   3.102   4.096   0.105 -0.0455  0.2380  0.0170
  752TMC3    O211175   3.144   3.490   0.008  0.0391  0.1748 -0.4679
  753TMC3    C111176   0.844   3.917  13.397 -1.6864 -0.0036 -0.2165
  753TMC3    C211177   0.876   3.948  13.529 -0.7291 -0.1347 -0.9445
  753TMC3    C311178   0.943   3.850  13.596  0.1317 -0.1769  0.2928
  753TMC3    C411179   0.877   3.802  13.340 -0.1151  0.0931  0.0770
  753TMC3    C511180   0.954   3.715  13.405 -0.6328 -1.1116 -0.1071
  753TMC3    C611181   0.989   3.738  13.531  0.5382  0.9388 -0.5178
  753TMC3     C11182   0.775   4.017  13.315  1.4122  0.1358  0.4873
  753TMC3     O11183   0.745   3.977  13.203  0.2636 -1.0237  0.3791
  753TMC3     H11184   0.856   4.042  13.580  0.8087 -0.9893  1.2260
  753TMC3    H111185   0.868   3.782  13.234 -0.3643  0.0990  0.0959
  753TMC3    H211186   1.046   3.664  13.585  0.0841  2.0837  1.5529
  753TMC3    C711187   0.932   3.574  13.367 -0.0952 -0.3320  0.7767
  753TMC3    C811188   0.979   3.880  13.735  0.0459 -0.0859  0.3684
  753TMC3    O111189   0.947   3.491  13.452  0.4224 -0.6109  0.0690
  753TMC3    O211190   1.028   3.784  13.791  0.1034 -0.3775 -0.0158
  754MPD2     C11191   4.678   2.656  12.807 -0.5090 -0.3282 -0.4167
  754MPD2    C111192   4.591   2.611  12.909  0.4512  0.8293  0.4900
  754MPD2    C211193   4.456   2.639  12.896  0.3749  0.5331  0.1644
  754MPD2    C311194   4.405   2.693  12.782  0.3700  0.4999  0.0591
  754MPD2    C411195   4.494   2.720  12.679 -0.0466 -0.0627  1.0790
  754MPD2    C511196   4.630   2.705  12.694 -0.8098 -0.3719  1.1158
  754MPD2     H11197   4.387   2.629  12.979  1.0356 -0.1413  0.6331
  754MPD2    H111198   4.463   2.753  12.580  0.6678  2.0165  1.5463
  754MPD2    H211199   0.050   2.639  12.813 -0.4768  0.3097  0.8917
  754MPD2    H311200   4.696   2.738  12.615  0.5422 -3.2271  1.0742
  754MPD2     N11201   4.267   2.711  12.772 -0.7633 -0.2815  1.0449
  754MPD2    H511202   4.212   2.697  12.856 -1.4987  0.0663  0.6194
  754MPD2    N111203   4.637   2.567  13.035 -0.8811 -0.0915 -0.1296
  754MPD2    H711204   4.570   2.550  13.109 -0.2332 -2.5332 -0.0932
  755MPD2     C11205   3.722   2.727  13.404 -0.5078  0.3439  0.4125
  755MPD2    C111206   3.638   2.693  13.305  0.2297 -0.4858  0.1598
  755MPD2    C211207   3.683   2.694  13.176 -0.2058 -0.1658  1.0141
  755MPD2    C311208   3.813   2.714  13.148 -0.3669  0.1009  0.0140
  755MPD2    C411209   3.899   2.746  13.250 -0.8889 -0.7327  0.8571
  755MPD2    C511210   3.857   2.742  13.386 -0.2639  0.3013  1.0115
  755MPD2     H11211   3.617   2.647  13.103 -0.6969 -1.3792  2.2512
  755MPD2    H111212   4.004   2.768  13.232 -1.2299 -2.3115 -3.2026
  755MPD2    H211213   3.679   2.730  13.504 -1.9764 -0.2672 -0.1947
  755MPD2    H311214   3.938   2.760  13.455 -1.5412 -0.5667  2.7322
  755MPD2     N11215   3.860   2.700  13.018  0.4333  0.6965 -0.5432
  755MPD2    H511216   3.960   2.682  13.008  0.5003 -0.1927  1.7461
  755MPD2    N111217   3.504   2.665  13.328  0.1985  0.0845 -0.2815
  755MPD2    H711218   3.440   2.650  13.251  1.2016 -0.1487 -1.0681
  756MPD2     C11219   3.879   2.880   9.698  0.3291 -0.0116 -0.1722
  756MPD2    C111220   3.888   3.011   9.666 -0.7511 -0.6386 -0.0096
  756MPD2    C211221   3.786   3.062   9.591  0.0503 -0.0694  0.5232
  756MPD2    C311222   3.672   2.990   9.559  0.0281  0.3998  0.2408
  756MPD2    C411223   3.657   2.863   9.613  0.0002 -0.7556  0.0092
  756MPD2    C511224   3.770   2.803   9.672 -0.6254  0.7633  0.0945
  756MPD2     H11225   3.792   3.165   9.559  1.8500  0.1064  1.3760
  756MPD2    H111226   3.571   2.803   9.587 -0.7111  0.4008 -0.2533
  756MPD2    H211227   3.959   2.836   9.757 -1.0025 -2.0328  0.1113
  756MPD2    H311228   3.763   2.703   9.715 -0.1896  1.3922  1.6200
  756MPD2     N11229   3.571   3.067   9.498 -0.1281 -0.1975 -0.0031
  756MPD2    H511230   3.600   3.156   9.459  0.1927 -0.4103 -0.2508
  756MPD2    N111231   3.981   3.104   9.711  0.7775 -0.0534  0.4946
  756MPD2    H711232   3.974   3.205   9.701  2.1540  0.1792  2.0159
  757MPD2     C11233   2.778   3.266   9.928  0.1022 -0.1253  0.5372
  757MPD2    C111234   2.894   3.195   9.943  0.2278  0.1386 -0.2320
  757MPD2    C211235   2.989   3.204   9.842 -0.1952 -0.5535  0.5382
  757MPD2    C311236   2.972   3.282   9.730  0.4036 -0.6686 -0.3654
  757MPD2    C411237   2.856   3.359   9.721 -0.3517 -0.0217 -0.2861
  757MPD2    C511238   2.752   3.344   9.819  0.3095 -1.0101  1.1315
  757MPD2     H11239   3.083   3.151   9.844 -0.5808 -1.3509 -1.7143
  757MPD2    H111240   2.844   3.428   9.638 -0.4542 -1.5120 -1.5024
  757MPD2    H211241   2.714   3.276  10.014 -0.0914  2.0124  0.1311
  757MPD2    H311242   2.662   3.405   9.826  1.1296  0.2869  0.3317
  757MPD2     N11243   3.068   3.264   9.632 -0.3911 -0.4010  0.1831
  757MPD2    H511244   3.157   3.222   9.658  0.1924  0.3225 -0.6556
  757MPD2    N111245   2.898   3.104  10.052  0.2734 -0.4367  0.0553
  757MPD2    H711246   2.810   3.091  10.100 -0.7339 -2.2252 -2.2413
  758MPD2     C11247   4.163   2.812  15.845  0.2586  0.2448 -0.1176
  758MPD2    C111248   4.252   2.797  15.954 -0.8813 -0.4312 -1.0018
  758MPD2    C211249   4.208   2.822  16.083  0.0212  0.0547 -0.3524
  758MPD2    C311250   4.080   2.867  16.110 -0.1188 -0.3030  0.9323
  758MPD2    C411251   3.992   2.880  16.003 -0.3071  0.4362 -0.9786
  758MPD2    C511252   4.038   2.849  15.874 -0.6419  0.0583  0.3101
  758MPD2     H11253   4.273   2.819  16.170 -0.9769  0.1857  0.3963
  758MPD2    H111254   3.891   2.913  16.025 -0.7500 -1.3010 -0.4190
  758MPD2    H211255   4.194   2.797  15.743 -0.7559 -0.3569 -0.3372
  758MPD2    H311256   3.965   2.865  15.795 -0.4147  0.1101  0.1115
  758MPD2     N11257   4.044   2.921  16.241 -0.0485  0.1037 -0.1403
  758MPD2    H511258   3.955   2.970  16.249 -1.0351 -1.4056 -2.0600
  758MPD2    N111259   4.379   2.750  15.928 -0.2285  0.2459 -0.0752
  758MPD2    H711260   4.409   2.738  15.831  0.5054 -1.3908  0.3584
  759MPD2     C11261   3.495   1.122   9.663  0.3351  0.4247 -0.7606
  759MPD2    C111262   3.569   1.023   9.601  0.0294 -0.1252  0.1317
  759MPD2    C211263   3.669   1.058   9.517 -0.5383  0.0734 -0.3790
  759MPD2    C311264   3.699   1.190   9.482 -0.0115 -0.6048 -0.0635
  759MPD2    C411265   3.628   1.291   9.547 -0.4793  0.4005 -0.0829
  759MPD2    C511266   3.524   1.248   9.632 -0.0437 -0.3445 -0.0115
  759MPD2     H11267   3.740   0.979   9.495 -3.6653 -2.2788 -1.9238
  759MPD2    H111268   3.641   1.398   9.537 -0.7550  0.3549 -0.8960
  759MPD2    H211269   3.416   1.108   9.736  0.6901  0.2626 -0.4091
  759MPD2    H311270   3.471   1.324   9.687 -2.0844 -0.9143 -1.1697
  759MPD2     N11271   3.805   1.212   9.392 -0.2372 -0.2115 -0.0544
  759MPD2    H511272   3.858   1.132   9.360  0.0278  1.2964 -3.3340
  759MPD2    N111273   3.544   0.886   9.630  0.5311  0.1214  0.0886
  759MPD2    H711274   3.612   0.815   9.604 -1.0727 -1.5616  0.5211
  760MPD2     C11275   2.879   2.974  11.003 -0.5481 -0.2688 -0.6598
  760MPD2    C111276   2.978   2.973  11.098  0.2696 -0.1058  1.0702
  760MPD2    C211277   3.038   2.851  11.116 -0.2525  0.8741 -0.0115
  760MPD2    C311278   2.995   2.738  11.058 -0.1649 -0.2831  0.4438
  760MPD2    C411279   2.891   2.734  10.966  0.0637  0.6535 -0.0927
  760MPD2    C511280   2.832   2.855  10.948 -0.6303  0.6980 -0.3263
  760MPD2     H11281   3.126   2.842  11.178 -0.9970  0.2381  0.9571
  760MPD2    H111282   2.857   2.642  10.919  0.2459 -0.0866  1.2381
  760MPD2    H211283   2.832   3.068  10.974 -1.3413  0.0442  1.6049
  760MPD2    H311284   2.761   2.862  10.866  0.1390 -2.6649 -1.2797
  760MPD2     N11285   3.068   2.618  11.074 -0.2689  0.2388 -0.5201
  760MPD2    H511286   3.160   2.623  11.116 -0.3003 -2.2617 -0.1488
  760MPD2    N111287   3.019   3.097  11.155  0.2388  0.5876  0.2229
  760MPD2    H711288   2.959   3.177  11.139  0.1007  0.5507  0.5385
  761MPD2     C11289   3.963   2.277  11.282  0.2022 -0.1096 -0.3631
  761MPD2    C111290   3.985   2.274  11.145  0.1036 -0.4772  0.1129
  761MPD2    C211291   4.085   2.358  11.096  0.1388 -0.0153  0.0691
  761MPD2    C311292   4.150   2.449  11.181 -0.0346  0.2795  0.2144
  761MPD2    C411293   4.123   2.452  11.316 -0.1938 -0.2084 -0.0131
  761MPD2    C511294   4.024   2.369  11.362 -0.3389 -0.4717 -0.1996
  761MPD2     H11295   4.120   2.352  10.994 -0.2737 -1.5002  0.0222
  761MPD2    H111296   4.175   2.523  11.379  1.1147 -1.8350  0.7537
  761MPD2    H211297   3.910   2.196  11.330  2.5019  0.4378  3.1453
  761MPD2    H311298   4.007   2.356  11.468 -0.5828 -1.1634 -0.3243
  761MPD2     N11299   4.252   2.535  11.139  0.5536 -0.9906 -0.6736
  761MPD2    H511300   4.314   2.581  11.205  0.2910  1.0953 -1.8805
  761MPD2    N111301   3.912   2.191  11.062 -0.4237  0.1198  0.4053
  761MPD2    H711302   3.855   2.117  11.101 -0.1599  1.1543  2.7096
  762MPD2     C11303   4.291   2.312  10.658 -0.3913 -0.0215  0.2565
  762MPD2    C111304   4.250   2.191  10.597 -0.3198  0.2257  1.1763
  762MPD2    C211305   4.331   2.147  10.488  0.4403 -0.2652  0.6718
  762MPD2    C311306   4.442   2.218  10.454 -0.9723 -0.1062 -0.9265
  762MPD2    C411307   4.483   2.332  10.521  0.9891  0.2229  0.2455
  762MPD2    C511308   4.402   2.383  10.624  0.0808  0.1122  0.6324
  762MPD2     H11309   4.294   2.075  10.416 -2.5968  0.3312  1.6250
  762MPD2    H111310   4.575   2.382  10.492  1.0073  1.2130  2.0150
  762MPD2    H211311   4.231   2.347  10.741 -1.1217 -1.7596  0.4585
  762MPD2    H311312   4.427   2.474  10.678 -0.8023  0.4563  0.4709
  762MPD2     N11313   4.509   2.178  10.334  0.5562  0.0402  0.3362
  762MPD2    H511314   4.478   2.092  10.291  0.4604 -0.4474  1.3785
  762MPD2    N111315   4.128   2.128  10.640  0.2706 -0.0025 -0.8562
  762MPD2    H711316   4.076   2.170  10.716 -0.7163 -0.3021 -1.3632
  763MPD2     C11317   0.925   2.824  15.916  0.7341  0.1085 -0.5797
  763MPD2    C111318   1.041   2.838  15.837 -0.5021  0.2531  0.0018
  763MPD2    C211319   1.102   2.960  15.829 -0.8735 -0.1386  0.7049
  763MPD2    C311320   1.059   3.060  15.913  1.5683 -0.0502  0.0622
  763MPD2    C411321   0.946   3.047  15.988 -0.8942  0.3011  0.0385
  763MPD2    C511322   0.883   2.926  15.992  0.0285 -0.4886 -0.9762
  763MPD2     H11323   1.189   2.964  15.765 -2.1806 -0.0916 -1.0538
  763MPD2    H111324   0.897   3.125  16.045  2.6430 -0.3243  3.8862
  763MPD2    H211325   0.859   2.738  15.908  2.5170 -1.4289  1.2246
  763MPD2    H311326   0.782   2.915  16.032  0.5068  2.6384  1.0367
  763MPD2     N11327   1.116   3.192  15.921 -0.0713 -1.0029  0.2770
  763MPD2    H511328   1.072   3.259  15.983 -0.7296 -0.3434 -0.9037
  763MPD2    N111329   1.080   2.730  15.750 -0.2718 -0.5207 -0.9680
  763MPD2    H711330   1.140   2.752  15.671  1.6853 -2.0888  0.1074
  764MPD2     C11331   4.135   0.288  17.099 -0.3266 -0.7841 -1.0403
  764MPD2    C111332   4.005   0.244  17.098 -0.6640  0.1014  0.1084
  764MPD2    C211333   3.938   0.213  17.218 -0.2092 -0.5744 -0.2389
  764MPD2    C311334   3.995   0.220  17.344 -0.3568  0.4775  0.5344
  764MPD2    C411335   4.136   0.248  17.334  0.4302 -0.3326  0.0525
  764MPD2    C511336   4.201   0.283  17.218 -0.0725  0.9162 -1.4058
  764MPD2     H11337   3.833   0.188  17.212  0.1893 -2.5113  1.0004
  764MPD2    H111338   4.198   0.250  17.423  1.9056  0.9680 -0.9818
  764MPD2    H211339   4.186   0.331  17.014 -1.9427  0.0464 -1.5859
  764MPD2    H311340   4.306   0.312  17.219  0.4934 -1.1364  1.8317
  764MPD2     N11341   3.927   0.208  17.472  0.1282 -0.5288 -0.0888
  764MPD2    H511342   3.834   0.170  17.475 -0.6090  1.1617 -1.5995
  764MPD2    N111343   3.933   0.236  16.974 -0.7587 -0.4033  0.4764
  764MPD2    H711344   3.842   0.192  16.980 -0.9752 -0.0608 -0.3007
  765MPD2     C11345   4.000   2.085  15.364 -0.2181  0.8780  0.4515
  765MPD2    C111346   4.027   2.166  15.478 -0.4231  0.1306 -0.0424
  765MPD2    C211347   4.151   2.159  15.540  1.2853 -0.4871  0.0479
  765MPD2    C311348   4.241   2.060  15.502 -0.4708  0.0947  0.0953
  765MPD2    C411349   4.218   1.981  15.389  0.5374 -0.3339  0.5645
  765MPD2    C511350   4.098   2.001  15.319  0.6447 -0.6776 -0.1519
  765MPD2     H11351   4.170   2.211  15.633 -0.3189 -1.9225  1.1941
  765MPD2    H111352   4.282   1.901  15.354 -0.2851 -1.1090  0.8421
  765MPD2    H211353   3.909   2.102  15.308  0.7428  1.9338 -0.7635
  765MPD2    H311354   4.077   1.942  15.230  0.0458 -2.1983  0.9973
  765MPD2     N11355   4.353   2.040  15.580 -0.0143  0.5563 -0.0868
  765MPD2    H511356   4.380   2.111  15.647  2.0435 -0.2617 -0.0611
  765MPD2    N111357   3.924   2.251  15.518 -0.2146  0.1465  0.2923
  765MPD2    H711358   3.833   2.240  15.475 -0.5596 -0.6256  1.2295
  766MPD2     C11359   3.327   2.150  15.374 -1.0648  0.2547  0.4489
  766MPD2    C111360   3.457   2.199  15.348  0.4974  0.2790 -0.2382
  766MPD2    C211361   3.515   2.163  15.228  0.3328 -0.0445 -0.1601
  766MPD2    C311362   3.442   2.089  15.135  0.4215 -0.7980  1.6901
  766MPD2    C411363   3.309   2.054  15.157 -0.0946  0.5409 -0.2369
  766MPD2    C511364   3.255   2.086  15.280  0.7393  0.0166 -0.7264
  766MPD2     H11365   3.617   2.196  15.213  1.1364 -0.6858  3.9260
  766MPD2    H111366   3.263   1.998  15.077  0.7330  1.4813 -1.3814
  766MPD2    H211367   3.286   2.167  15.473  2.1939  0.6702  1.7372
  766MPD2    H311368   3.156   2.050  15.305  1.3425  0.0107  1.6144
  766MPD2     N11369   3.502   2.043  15.012  0.1958 -0.4257  0.1099
  766MPD2    H511370   3.442   2.005  14.939 -0.4836 -0.9276  0.9235
  766MPD2    N111371   3.534   2.281  15.431  0.1597  0.4297  0.4859
  766MPD2    H711372   3.627   2.312  15.403  1.6388 -1.0253  3.7466
  767MPD2     C11373   3.031   2.406  14.790  0.0544 -0.0143  0.6017
  767MPD2    C111374   3.159   2.378  14.807  0.1798 -0.3063 -0.3136
  767MPD2    C211375   3.225   2.281  14.725  0.4164 -0.2588 -0.5250
  767MPD2    C311376   3.149   2.220  14.625 -0.7094 -0.2416  0.2622
  767MPD2    C411377   3.009   2.246  14.617 -0.3907 -0.1789  0.1848
  767MPD2    C511378   2.958   2.339  14.701  0.5539  0.4094 -0.6797
  767MPD2     H11379   3.332   2.263  14.738  0.3851  0.2274  0.4069
  767MPD2    H111380   2.937   2.197  14.552 -0.1639  0.8072 -0.8129
  767MPD2    H211381   2.983   2.467  14.866  2.9825  2.2054  0.6741
  767MPD2    H311382   2.851   2.352  14.690 -0.1457 -2.8615  2.0486
  767MPD2     N11383   3.217   2.132  14.537 -0.6324 -0.4621 -0.3434
  767MPD2    H511384   3.319   2.127  14.533 -0.4277  1.7576  2.0959
  767MPD2    N111385   3.225   2.445  14.912  0.2399  0.1185 -0.1490
  767MPD2    H711386   3.177   2.520  14.962 -1.5717 -1.2135  0.1211
  768MPD2     C11387   4.357   0.205  10.603  0.0098 -0.1000 -0.5724
  768MPD2    C111388   4.335   0.329  10.651  0.3085  0.4426 -0.7787
  768MPD2    C211389   4.438   0.382  10.727 -0.1164 -0.4465  0.7070
  768MPD2    C311390   4.564   0.327  10.741 -0.3990  0.1220 -0.5307
  768MPD2    C411391   4.579   0.199  10.695 -0.6972  0.0317  0.0540
  768MPD2    C511392   4.477   0.139  10.627  0.2668  0.6941  0.2966
  768MPD2     H11393   4.418   0.479  10.772 -0.1589 -1.5046  2.9862
  768MPD2    H111394   4.680   0.162  10.689  0.1131  2.4009 -1.0020
  768MPD2    H211395   4.278   0.147  10.555  0.3594 -1.0500 -0.0064
  768MPD2    H311396   4.490   0.046  10.572 -2.3080  0.6262 -0.2032
  768MPD2     N11397   4.675   0.395  10.799 -0.2586 -0.1305 -0.0217
  768MPD2    H511398   0.015   0.333  10.825  0.9567  0.9610 -0.9599
  768MPD2    N111399   4.221   0.409  10.634 -0.2406  0.9238 -0.0701
  768MPD2    H711400   4.235   0.503  10.672  2.0402  0.3609  0.4949
  769MPD2     C11401   0.259   3.990  14.517 -0.5916  0.1798  0.6626
  769MPD2    C111402   0.166   3.972  14.613 -0.2451 -0.5266 -0.4096
  769MPD2    C211403   0.217   3.969  14.744  0.0610  0.3199 -0.0983
  769MPD2    C311404   0.345   4.004  14.778  0.3633 -0.6560 -0.3674
  769MPD2    C411405   0.428   4.037  14.676 -0.8905 -0.1306 -0.2109
  769MPD2    C511406   0.386   4.034  14.548 -0.6657  0.7343 -0.0025
  769MPD2     H11407   0.147   3.950  14.825  0.5900 -1.4996 -0.0589
  769MPD2    H111408   0.526   4.080  14.692  0.0896 -2.5439  0.3398
  769MPD2    H211409   0.229   3.994  14.413 -0.6901 -0.8168  0.6577
  769MPD2    H311410   0.452   4.071  14.469 -1.7304 -0.3137 -1.3794
  769MPD2     N11411   0.387   4.015  14.912  0.4741 -0.0699  0.6569
  769MPD2    H511412   0.308   4.003  14.974 -1.4473 -0.1636 -1.7891
  769MPD2    N111413   0.031   3.948  14.574  0.2221 -0.5389  0.4411
  769MPD2    H711414   0.007   3.923  14.479  1.5973 -0.9459  0.2051
  770MPD2     C11415   4.153   3.360  15.063  0.0402  0.9939  0.4678
  770MPD2    C111416   4.282   3.353  15.024 -0.3835  0.1037  0.1755
  770MPD2    C211417   4.342   3.468  14.981 -0.6984 -0.7928 -0.3313
  770MPD2    C311418   4.272   3.584  14.962  0.6647  0.2577 -0.2140
  770MPD2    C411419   4.138   3.587  14.998 -0.1814  0.0668 -0.6726
  770MPD2    C511420   4.084   3.478  15.059 -0.1809 -0.1353  0.6607
  770MPD2     H11421   4.440   3.466  14.935 -1.0497 -0.7921 -1.0686
  770MPD2    H111422   4.070   3.671  14.990 -0.0409  0.1443 -1.0551
  770MPD2    H211423   4.109   3.268  15.099  0.9779  0.7006  0.8377
  770MPD2    H311424   3.984   3.496  15.096 -0.7676  2.8483 -2.3610
  770MPD2     N11425   4.335   3.678  14.879 -0.3701 -0.3030  0.3886
  770MPD2    H511426   4.423   3.655  14.833  0.8485  2.2380  1.4388
  770MPD2    N111427   4.350   3.223  15.022  0.1174 -0.2418  0.9700
  770MPD2    H711428   4.300   3.137  15.044  0.0984 -0.4890 -0.0359
  771MPD2     C11429   0.308   1.794  13.431 -0.6170 -0.1016  0.3179
  771MPD2    C111430   0.429   1.754  13.478 -0.2761 -0.7388 -1.1584
  771MPD2    C211431   0.495   1.658  13.412 -0.2969 -0.1138 -0.5263
  771MPD2    C311432   0.461   1.617  13.288  0.4620  0.0307  0.2002
  771MPD2    C411433   0.344   1.667  13.233 -0.1180 -0.0070 -0.3361
  771MPD2    C511434   0.269   1.751  13.307 -1.0938 -0.1621  0.1299
  771MPD2     H11435   0.591   1.624  13.451  0.2440  2.4246  0.3553
  771MPD2    H111436   0.308   1.652  13.132 -0.7457 -1.4184  0.0987
  771MPD2    H211437   0.251   1.872  13.479  0.4926  0.4845  0.6932
  771MPD2    H311438   0.192   1.807  13.255 -1.4525 -0.2138  0.6011
  771MPD2     N11439   0.538   1.519  13.218 -0.0304 -0.6978  0.2969
  771MPD2    H511440   0.624   1.497  13.267 -0.4949  2.6198  2.6445
  771MPD2    N111441   0.494   1.827  13.582 -0.1855 -0.4342  0.0784
  771MPD2    H711442   0.591   1.800  13.599  0.2671  0.6212 -0.8018
  772MPD2     C11443   0.399   2.154  14.340 -0.1366  0.0145  0.1930
  772MPD2    C111444   0.328   2.158  14.222  0.5510 -0.0002 -0.4251
  772MPD2    C211445   0.186   2.175  14.227  0.4504  0.0778  0.5592
  772MPD2    C311446   0.123   2.186  14.351 -0.3616  0.5439  0.0380
  772MPD2    C411447   0.194   2.167  14.467 -0.3005 -0.2557  1.0311
  772MPD2    C511448   0.329   2.163  14.456  0.8893  0.0193  0.0948
  772MPD2     H11449   0.133   2.188  14.134 -1.6674 -1.0491  1.6163
  772MPD2    H111450   0.155   2.175  14.567  0.0937  0.7727  1.0977
  772MPD2    H211451   0.503   2.126  14.349 -0.1728 -0.1583  0.0724
  772MPD2    H311452   0.376   2.154  14.554 -0.7306  0.7397  0.9444
  772MPD2     N11453   4.720   2.220  14.362  0.4070 -0.1610  0.0102
  772MPD2    H511454   4.688   2.221  14.458  0.7925  0.3882  0.1352
  772MPD2    N111455   0.387   2.122  14.101  0.0076 -0.0543 -0.7751
  772MPD2    H711456   0.340   2.105  14.013  1.1262 -1.3062 -1.1235
  773MPD2     C11457   0.387   3.177  17.485 -0.6214 -0.3345  0.4633
  773MPD2    C111458   0.260   3.143  17.536 -0.1554 -0.7496  0.3806
  773MPD2    C211459   0.249   3.058  17.652 -0.1623 -0.4249  0.1983
  773MPD2    C311460   0.367   3.006  17.705 -0.5860 -0.3640 -0.2135
  773MPD2    C411461   0.488   3.038  17.649  0.2078  0.1146  0.0920
  773MPD2    C511462   0.500   3.128  17.541  0.1919 -0.1156  0.1170
  773MPD2     H11463   0.154   3.031  17.697 -0.3010 -0.1025  0.0979
  773MPD2    H111464   0.579   2.997  17.692  1.5027  1.3923 -1.4290
  773MPD2    H211465   0.405   3.251  17.407 -3.2179 -1.6132 -1.3631
  773MPD2    H311466   0.599   3.145  17.502  0.7698 -1.2671  1.0877
  773MPD2     N11467   0.378   2.924   0.080  0.0791 -0.4084  0.2272
  773MPD2    H511468   0.469   2.884   0.095  1.1517  2.7815  2.3017
  773MPD2    N111469   0.135   3.193  17.490  0.3176 -0.7194  0.5863
  773MPD2    H711470   0.052   3.168  17.542 -0.1870 -1.8819 -0.7915
  774MPD2     C11471   4.449   1.762  13.297  0.1889  0.1313  0.0575
  774MPD2    C111472   4.379   1.883  13.301  0.7285  0.2132 -0.2179
  774MPD2    C211473   4.461   1.998  13.309  0.2574  0.2095 -0.3278
  774MPD2    C311474   4.598   1.994  13.308 -0.1572 -0.7066 -0.7518
  774MPD2    C411475   4.663   1.874  13.298 -0.1965 -0.1674  0.0348
  774MPD2    C511476   4.588   1.757  13.294  1.0210 -0.1942  0.1019
  774MPD2     H11477   4.410   2.093  13.314 -0.6543 -0.1678 -2.2234
  774MPD2    H111478   0.036   1.875  13.307 -0.3431  1.4274  1.6915
  774MPD2    H211479   4.397   1.668  13.300  0.6034 -0.0346  1.8241
  774MPD2    H311480   4.642   1.663  13.295 -0.0552 -0.8326 -0.8813
  774MPD2     N11481   4.661   2.118  13.329 -0.2237  0.2593  0.2680
  774MPD2    H511482   4.602   2.200  13.335  0.3394  0.4061  3.5718
  774MPD2    N111483   4.244   1.881  13.317 -0.0072 -0.2644 -0.3926
  774MPD2    H711484   4.192   1.797  13.342  2.0700 -1.6367 -0.6561
  775MPD2     C11485   0.595   3.589  15.352  1.3498 -0.9960  0.1168
  775MPD2    C111486   0.647   3.691  15.433 -0.3381 -0.5146  0.1918
  775MPD2    C211487   0.720   3.792  15.376  0.0007 -0.0542  0.2263
  775MPD2    C311488   0.733   3.797  15.236 -0.4773  0.1779 -0.1761
  775MPD2    C411489   0.673   3.700  15.157 -0.6513 -0.3385 -0.2415
  775MPD2    C511490   0.610   3.598  15.218  0.2097 -0.1401 -0.0068
  775MPD2     H11491   0.773   3.867  15.433 -1.9321  0.6135  1.1549
  775MPD2    H111492   0.681   3.708  15.049 -1.3466  0.5773 -0.2319
  775MPD2    H211493   0.523   3.517  15.389  0.2323  0.3365  0.4994
  775MPD2    H311494   0.573   3.517  15.156  0.6736  0.2461 -0.7907
  775MPD2     N11495   0.801   3.897  15.167  0.0946 -0.3098 -0.3599
  775MPD2    H511496   0.812   3.886  15.067  0.8935 -0.9244 -0.2063
  775MPD2    N111497   0.638   3.700  15.578  0.2452 -0.0176  0.5070
  775MPD2    H711498   0.659   3.788  15.625  1.6510 -1.0451  1.8167
  776MPD2     C11499   0.158   3.933  11.848  0.1395 -0.6642 -0.1937
  776MPD2    C111500   0.122   3.893  11.720 -0.3275  0.3824  0.1233
  776MPD2    C211501   0.157   3.978  11.610  0.6337  0.4161  0.7490
  776MPD2    C311502   0.230   4.092  11.638 -0.1690  0.4349 -0.2177
  776MPD2    C411503   0.274   4.121  11.764  0.5479  0.9010  0.2274
  776MPD2    C511504   0.235   4.047  11.870 -0.0439  0.1842 -0.2757
  776MPD2     H11505   0.115   3.953  11.513 -0.3665  0.0116  1.2934
  776MPD2    H111506   0.350   4.195  11.787 -1.1145  2.2558  1.2699
  776MPD2    H211507   0.139   3.868  11.932 -0.4383  2.1530  1.8388
  776MPD2    H311508   0.263   4.069  11.972 -0.1571  0.8987 -0.3982
  776MPD2     N11509   0.273   4.183  11.540  0.3521  0.0109 -0.8527
  776MPD2    H511510   0.336   4.256  11.571  1.1062 -0.4109 -1.3855
  776MPD2    N111511   0.046   3.778  11.707 -0.3149  0.0901 -0.4356
  776MPD2    H711512   0.016   3.731  11.791  0.1129  1.1304  0.2921
  777MPD2     C11513   4.594   1.960   0.470 -0.6093  0.1592  0.1068
  777MPD2    C111514   4.632   1.883   0.582  0.1932  1.1295  0.0890
  777MPD2    C211515   4.619   1.749   0.567 -0.3184 -0.4543  0.2790
  777MPD2    C311516   4.552   1.692   0.456 -0.5937  0.0593  0.1287
  777MPD2    C411517   4.522   1.765   0.349  0.1524  0.2401  0.3296
  777MPD2    C511518   4.550   1.897   0.355  0.7213 -0.3716 -0.6284
  777MPD2     H11519   4.642   1.675   0.644 -0.2256 -1.7054 -0.9616
  777MPD2    H111520   4.475   1.718   0.263  1.0723 -0.0835  0.0062
  777MPD2    H211521   4.609   2.068   0.467  3.3704 -0.3822  0.7486
  777MPD2    H311522   4.547   1.957   0.265 -0.6890 -1.5878 -1.3860
  777MPD2     N11523   4.536   1.551   0.465 -0.0388 -0.2394 -0.2449
  777MPD2    H511524   4.579   1.505   0.545  0.4720  1.3085  0.3564
  777MPD2    N111525   4.687   1.950   0.693 -0.3865 -0.2009  0.1957
  777MPD2    H711526   4.668   2.050   0.701  0.6739  0.2182 -2.3961
  778MPD2     C11527   0.932   1.475  14.653 -0.0406 -0.6092  0.2051
  778MPD2    C111528   0.993   1.361  14.696 -0.2076  0.1018 -0.3380
  778MPD2    C211529   1.100   1.323  14.624 -0.1453 -0.6856 -0.2012
  778MPD2    C311530   1.160   1.396  14.522  0.4486 -0.0231 -0.7565
  778MPD2    C411531   1.102   1.512  14.489  0.2465 -0.2625  0.0955
  778MPD2    C511532   0.995   1.556  14.557 -0.5965  0.5816 -0.0388
  778MPD2     H11533   1.147   1.231  14.656 -0.1825 -0.9153 -0.8109
  778MPD2    H111534   1.139   1.577  14.410  2.3813 -0.2552  1.1026
  778MPD2    H211535   0.852   1.521  14.710  0.0765 -1.9487  1.4584
  778MPD2    H311536   0.960   1.652  14.523  0.8157  0.7073 -1.1285
  778MPD2     N11537   1.278   1.350  14.463 -0.2248  0.1117  0.4024
  778MPD2    H511538   1.334   1.274  14.503  0.3019 -0.1231 -0.7968
  778MPD2    N111539   0.930   1.281  14.794  0.3253  0.2658  0.5872
  778MPD2    H711540   0.968   1.187  14.801 -1.6477 -0.6244 -0.5272
  779MPD2     C11541   0.658   0.406  14.069 -0.2244  0.9175  0.1663
  779MPD2    C111542   0.793   0.420  14.082 -0.6568  1.0274  0.6890
  779MPD2    C211543   0.843   0.548  14.093 -0.0907  0.0533 -0.4169
  779MPD2    C311544   0.770   0.664  14.079  0.1263 -1.5190 -0.7476
  779MPD2    C411545   0.633   0.645  14.069  0.1069  0.0132  0.8437
  779MPD2    C511546   0.586   0.516  14.063 -0.4525 -0.5700 -0.0680
  779MPD2     H11547   0.950   0.564  14.098  0.1166 -1.2445 -0.5517
  779MPD2    H111548   0.556   0.721  14.082 -0.3504 -0.1632 -0.8538
  779MPD2    H211549   0.597   0.317  14.075  0.6897  0.3844  1.7465
  779MPD2    H311550   0.480   0.494  14.062 -0.4691 -0.4407 -1.0049
  779MPD2     N11551   0.852   0.786  14.089 -0.1188  0.4433 -0.2495
  779MPD2    H511552   0.950   0.762  14.085  0.1007  1.7421 -2.7557
  779MPD2    N111553   0.877   0.308  14.089  0.1409  0.3412 -0.3427
  779MPD2    H711554   0.978   0.315  14.093  0.0909  0.0948  1.5217
  780MPD2     C11555   1.410   0.783   0.852  0.0541 -0.2955  0.8409
  780MPD2    C111556   1.315   0.793   0.756  0.1272 -0.4648 -0.7123
  780MPD2    C211557   1.351   0.814   0.625 -0.3629 -0.4381  0.0441
  780MPD2    C311558   1.488   0.807   0.587 -0.1016 -0.3225  0.7480
  780MPD2    C411559   1.581   0.797   0.683 -0.4599  0.2811  0.8379
  780MPD2    C511560   1.537   0.793   0.813 -0.4808 -0.9968 -0.5211
  780MPD2     H11561   1.274   0.817   0.549  1.2352  1.5631 -1.5308
  780MPD2    H111562   1.688   0.806   0.669 -0.6310 -1.1697 -1.3788
  780MPD2    H211563   1.391   0.765   0.958  0.0973  1.2929  1.1233
  780MPD2    H311564   1.615   0.803   0.887 -0.2743  0.4024 -0.9379
  780MPD2     N11565   1.521   0.820   0.451  0.7242 -0.3642 -0.0979
  780MPD2    H511566   1.444   0.832   0.386  0.5599  0.8227  0.3329
  780MPD2    N111567   1.187   0.790   0.804 -0.2191  0.1304  0.1820
  780MPD2    H711568   1.174   0.790   0.905 -2.4435 -0.5479 -0.1159
  781MPD2     C11569   2.900   2.013  11.769  0.6782 -0.7320 -0.6010
  781MPD2    C111570   2.918   1.970  11.900  0.0725  0.5102  0.3215
  781MPD2    C211571   3.013   1.875  11.927  0.3538 -0.9270  0.5930
  781MPD2    C311572   3.100   1.826  11.831  0.0821 -0.2577  0.0679
  781MPD2    C411573   3.085   1.878  11.705  0.0969 -0.1179 -0.0994
  781MPD2    C511574   2.983   1.971  11.671 -0.0848  0.1949  0.2920
  781MPD2     H11575   3.033   1.852  12.031  0.7003 -0.3639  0.6482
  781MPD2    H111576   3.134   1.839  11.616  0.1594 -0.8449  0.2531
  781MPD2    H211577   2.832   2.090  11.735  2.4840  0.5847 -1.2717
  781MPD2    H311578   2.964   2.008  11.571  0.4440 -0.0978  0.0785
  781MPD2     N11579   3.186   1.718  11.851 -0.6398  0.8221  0.4819
  781MPD2    H511580   3.250   1.690  11.777  0.6186  0.1654  1.8035
  781MPD2    N111581   2.835   2.019  12.003  0.1798  0.5292 -0.1835
  781MPD2    H711582   2.866   1.999  12.098 -1.3806  0.2855  0.2705
  782MPD2     C11583   4.707   2.881  10.106  0.5003  0.0094 -0.0806
  782MPD2    C111584   0.115   2.877  10.089  0.1217 -0.9190 -0.4066
  782MPD2    C211585   0.180   2.991  10.133  0.1533 -0.0933  0.7368
  782MPD2    C311586   0.112   3.105  10.183 -0.3481  0.1148  0.0347
  782MPD2    C411587   4.711   3.104  10.177 -0.1690 -0.3540  0.1053
  782MPD2    C511588   4.641   3.000  10.126 -0.2098  0.0703  0.3480
  782MPD2     H11589   0.287   2.993  10.143 -0.0568  1.5865  2.6154
  782MPD2    H111590   4.652   3.191  10.202 -1.5007 -1.6055  1.2799
  782MPD2    H211591   4.651   2.794  10.074  2.0774 -0.9471 -0.2300
  782MPD2    H311592   4.533   3.003  10.124 -0.1748  0.6678 -0.5761
  782MPD2     N11593   0.187   3.215  10.240 -0.2777 -0.5570  0.4557
  782MPD2    H511594   0.287   3.217  10.224 -0.2253 -0.0898  0.8568
  782MPD2    N111595   0.183   2.765  10.056 -0.0411  0.1453 -0.5423
  782MPD2    H711596   0.136   2.676  10.068  1.3008 -0.2329  2.0171
  783MPD2     C11597   0.055   2.297  10.724 -0.1937 -0.0979 -0.6365
  783MPD2    C111598   0.043   2.428  10.687  0.3592  0.3466 -0.4225
  783MPD2    C211599   0.112   2.474  10.580 -0.6637  0.0523  0.0827
  783MPD2    C311600   0.188   2.386  10.503  0.2681  0.0973  0.6089
  783MPD2    C411601   0.182   2.249  10.533  0.3774 -0.0514 -0.9468
  783MPD2    C511602   0.124   2.212  10.648 -0.0082  0.2156  0.2465
  783MPD2     H11603   0.108   2.579  10.552 -0.0680 -0.5709 -2.3233
  783MPD2    H111604   0.218   2.172  10.467  1.2779 -1.8426  1.6225
  783MPD2    H211605   0.013   2.257  10.815  1.0802 -0.4195 -0.1826
  783MPD2    H311606   0.125   2.104  10.663 -0.5471  0.0286 -1.0515
  783MPD2     N11607   0.241   2.437  10.381  0.0509  0.3305  0.4047
  783MPD2    H511608   0.247   2.537  10.365  0.0057  0.3244  0.3489
  783MPD2    N111609   4.690   2.504  10.764  0.4152  0.6273 -0.7718
  783MPD2    H711610   4.652   2.460  10.847  1.0355  2.9238  0.7237
  784MPD2     C11611   2.944   3.572   0.659 -0.2132  0.0158  0.0713
  784MPD2    C111612   2.974   3.706   0.685 -0.2431  1.0345 -0.8083
  784MPD2    C211613   2.881   3.802   0.654 -0.5290 -0.0045  0.5563
  784MPD2    C311614   2.754   3.763   0.615  0.2724 -0.0040 -0.0408
  784MPD2    C411615   2.721   3.628   0.608  0.5107  0.2812  0.9030
  784MPD2    C511616   2.822   3.532   0.619 -0.1704 -0.2326 -0.4666
  784MPD2     H11617   2.899   3.908   0.644 -0.0047 -0.0276  1.2940
  784MPD2    H111618   2.619   3.597   0.589  0.4079  0.2542  1.5010
  784MPD2    H211619   3.014   3.491   0.674 -0.5252 -0.4467 -0.9272
  784MPD2    H311620   2.810   3.429   0.586  0.1584 -1.1191  2.1560
  784MPD2     N11621   2.664   3.860   0.566  0.0542 -0.6037  0.1904
  784MPD2    H511622   2.704   3.946   0.529  0.9584 -1.6136 -1.2000
  784MPD2    N111623   3.100   3.752   0.720 -0.0309  0.0953 -0.8855
  784MPD2    H711624   3.101   3.853   0.734  2.5830 -0.2100  1.1604
  785MPD2     C11625   3.573   0.856  10.112  0.0680  0.0861  0.5261
  785MPD2    C111626   3.495   0.960  10.078 -0.1924 -0.3913  0.9149
  785MPD2    C211627   3.354   0.949  10.068 -0.1061  0.4619  0.1393
  785MPD2    C311628   3.299   0.820  10.060 -0.4720  0.1488 -0.0125
  785MPD2    C411629   3.381   0.713  10.098 -0.5630  0.4609 -0.5521
  785MPD2    C511630   3.515   0.731  10.118  0.2581  0.1965 -0.0005
  785MPD2     H11631   3.287   1.033  10.059 -0.8888 -0.2710 -0.9314
  785MPD2    H111632   3.339   0.614  10.113  0.8633  0.1534  1.3394
  785MPD2    H211633   3.680   0.860  10.127  0.2561 -0.3525 -0.6440
  785MPD2    H311634   3.572   0.642  10.143 -0.6946 -0.9055 -1.7273
  785MPD2     N11635   3.156   0.804  10.071  1.1508 -0.4073  0.1708
  785MPD2    H511636   3.105   0.889  10.093  1.2418 -0.6279  1.2041
  785MPD2    N111637   3.563   1.088  10.074 -0.2478 -0.2234 -0.0269
  785MPD2    H711638   3.663   1.099  10.086  0.0078 -0.8314 -1.5323
  786MPD2     C11639   1.352   4.133  14.425 -0.5031 -0.7049  0.0201
  786MPD2    C111640   1.433   4.213  14.343 -0.3500 -0.5100  0.0508
  786MPD2    C211641   1.482   4.336  14.382  0.4294 -0.1049 -0.4658
  786MPD2    C311642   1.445   4.384  14.506 -0.5024 -0.2631  0.3833
  786MPD2    C411643   1.356   4.313  14.582  0.1649  0.4734  0.1835
  786MPD2    C511644   1.319   4.189  14.547 -0.5090 -0.0484 -0.5795
  786MPD2     H11645   1.555   4.386  14.320  2.7204 -3.5608 -0.5366
  786MPD2    H111646   1.329   4.350  14.680  1.6454  0.1038  0.7334
  786MPD2    H211647   1.322   4.030  14.412 -0.3207 -1.0416  2.2981
  786MPD2    H311648   1.273   4.124  14.620  3.1230 -1.8173  0.1376
  786MPD2     N11649   1.530   4.479  14.573 -0.0941  0.5638  0.8881
  786MPD2    H511650   1.512   4.488  14.672 -2.2806  0.2605  0.5113
  786MPD2    N111651   1.468   4.165  14.218 -0.1246  0.8522  0.1416
  786MPD2    H711652   1.533   4.225  14.167  0.6605 -2.0320 -2.2026
  787MPD2     C11653   1.992   3.735  14.161  0.4686 -0.4494 -0.5519
  787MPD2    C111654   1.944   3.734  14.031 -0.9700 -0.7772  0.2521
  787MPD2    C211655   2.015   3.665  13.931  0.4974 -0.1016 -0.6644
  787MPD2    C311656   2.133   3.600  13.961  0.4686 -0.0534 -0.3789
  787MPD2    C411657   2.185   3.609  14.088  0.2190  0.3954 -1.0773
  787MPD2    C511658   2.116   3.674  14.188 -0.8380 -0.2827 -0.8292
  787MPD2     H11659   1.989   3.667  13.826  1.1617  0.6530 -0.8191
  787MPD2    H111660   2.289   3.579  14.103 -0.4048 -0.8261  0.8320
  787MPD2    H211661   1.935   3.787  14.237 -0.1001  0.0353 -1.3221
  787MPD2    H311662   2.158   3.681  14.287  2.0756 -0.0986 -2.0853
  787MPD2     N11663   2.207   3.546  13.855  0.2978  0.2291  0.0015
  787MPD2    H511664   2.166   3.560  13.763 -0.0081 -2.5386 -0.2606
  787MPD2    N111665   1.832   3.814  14.002 -0.1884 -0.7868 -0.1936
  787MPD2    H711666   1.810   3.875  14.081  1.2307  1.3632 -1.4530
  788MPD2     C11667   4.076   3.225   0.689 -0.9210 -0.3363 -0.0602
  788MPD2    C111668   3.945   3.191   0.655 -0.4244  0.7491 -0.5022
  788MPD2    C211669   3.848   3.291   0.621 -0.0581  0.5932 -0.0973
  788MPD2    C311670   3.894   3.421   0.625  0.5072  0.8892 -0.0090
  788MPD2    C411671   4.026   3.451   0.654 -0.3642 -0.1511 -0.8492
  788MPD2    C511672   4.122   3.356   0.697  0.3969  0.7481  0.3835
  788MPD2     H11673   3.748   3.265   0.589  0.2305 -1.4998  0.7120
  788MPD2    H111674   4.062   3.553   0.659  0.2730 -0.3262 -1.9927
  788MPD2    H211675   4.143   3.142   0.710 -1.2135 -0.1346  1.6911
  788MPD2    H311676   4.228   3.372   0.714  0.6153 -0.6490  0.3794
  788MPD2     N11677   3.814   3.527   0.577  0.8679 -0.1662 -0.7359
  788MPD2    H511678   3.854   3.620   0.583 -1.9599  1.0020  0.0806
  788MPD2    N111679   3.916   3.055   0.644 -0.7288  0.3109 -0.0666
  788MPD2    H711680   3.998   2.997   0.631 -0.9918 -0.0501 -0.1144
  789MPD2     C11681   3.826   2.872  16.727 -0.6807 -1.4285  0.1542
  789MPD2    C111682   3.743   2.840  16.616  0.6977  0.5469 -0.1639
  789MPD2    C211683   3.624   2.914  16.602  0.3067 -0.1841 -0.4752
  789MPD2    C311684   3.579   3.000  16.704  0.1080  0.2929 -0.1531
  789MPD2    C411685   3.653   3.018  16.820 -0.3108  0.1962 -0.3526
  789MPD2    C511686   3.778   2.960  16.826 -0.4621  0.5333  0.0543
  789MPD2     H11687   3.568   2.900  16.510 -0.2826  2.6594 -0.5295
  789MPD2    H111688   3.606   3.081  16.895  0.7517 -0.7566  1.0963
  789MPD2    H211689   3.921   2.823  16.745  0.3439  0.9765  1.2871
  789MPD2    H311690   3.833   2.976  16.917  1.7978 -2.5729 -0.7779
  789MPD2     N11691   3.459   3.073  16.692  0.2362  0.2634 -0.3517
  789MPD2    H511692   3.437   3.126  16.776  0.5498  1.0102 -0.7399
  789MPD2    N111693   3.790   2.768  16.504  0.2563  0.4082  0.0325
  789MPD2    H711694   3.726   2.762  16.425  0.2137 -0.3000  0.1233
  790MPD2     C11695   4.575   4.397  13.170  0.3981 -0.5057 -0.4093
  790MPD2    C111696   4.685   4.328  13.122 -0.2608 -0.3005 -0.4319
  790MPD2    C211697   4.667   4.237  13.013 -0.6289 -0.0995 -0.2231
  790MPD2    C311698   4.541   4.203  12.966 -0.1582  0.0445  0.4685
  790MPD2    C411699   4.431   4.284  13.014 -0.4684  0.0148  0.0775
  790MPD2    C511700   4.457   4.378  13.111 -0.0549 -0.3062 -0.5611
  790MPD2     H11701   0.014   4.179  12.972  0.4948  1.4563 -0.1612
  790MPD2    H111702   4.331   4.269  12.975 -0.8489  4.7791 -0.7025
  790MPD2    H211703   4.590   4.478  13.240  1.0845 -0.8357 -0.1802
  790MPD2    H311704   4.379   4.441  13.152  0.3166 -0.7974  0.9074
  790MPD2     N11705   4.526   4.095  12.878  1.3464 -0.3498 -0.1527
  790MPD2    H511706   4.605   4.048  12.835 -0.8710 -3.0064 -1.3062
  790MPD2    N111707   0.071   4.340  13.197 -0.0900 -0.4947 -0.3868
  790MPD2    H711708   0.071   4.414  13.268  1.5722  0.1894 -1.0963
  791MPD2     C11709   3.825   3.796  12.604  0.4329  0.4879  0.1230
  791MPD2    C111710   3.900   3.699  12.659  0.4493  0.1237 -0.1167
  791MPD2    C211711   3.847   3.568  12.668 -0.1178 -0.0245 -0.1825
  791MPD2    C311712   3.714   3.545  12.628  0.6819  0.1187  0.4914
  791MPD2    C411713   3.646   3.649  12.561 -0.2069  0.6441 -0.8167
  791MPD2    C511714   3.699   3.778  12.556 -0.3891  0.0455  0.5325
  791MPD2     H11715   3.907   3.485  12.703 -1.4738 -0.7499  0.4336
  791MPD2    H111716   3.550   3.636  12.511  0.0311 -0.5749 -0.9676
  791MPD2    H211717   3.876   3.885  12.567 -0.8308  1.0319 -0.2814
  791MPD2    H311718   3.647   3.858  12.504  1.8099  2.2144  1.7056
  791MPD2     N11719   3.648   3.421  12.636  0.3642 -0.3279 -0.0022
  791MPD2    H511720   3.553   3.426  12.602  0.0109 -0.2640  0.9913
  791MPD2    N111721   4.032   3.743  12.679  0.3768  0.4285 -0.2069
  791MPD2    H711722   4.051   3.840  12.655  0.8951  0.5775  0.8185
  792MPD2     C11723   4.638   3.925  11.316  0.1074  0.8705 -0.0832
  792MPD2    C111724   4.651   3.891  11.179 -0.6205  0.3411 -0.6435
  792MPD2    C211725   4.550   3.821  11.124 -0.6951 -0.1243  0.0846
  792MPD2    C311726   4.436   3.790  11.198  0.1216 -0.1750 -0.1877
  792MPD2    C411727   4.425   3.826  11.329 -0.3584 -0.0078 -0.6411
  792MPD2    C511728   4.520   3.903  11.386 -0.4613  1.0999 -0.0940
  792MPD2     H11729   4.557   3.788  11.021 -0.0720 -1.7364  0.6588
  792MPD2    H111730   4.343   3.802  11.395 -1.5964  0.1707 -2.1159
  792MPD2    H211731   4.715   3.992  11.353 -1.0947  4.0326 -3.2819
  792MPD2    H311732   4.513   3.937  11.488  0.5068 -0.4998  0.4926
  792MPD2     N11733   4.321   3.721  11.151  0.5303  0.0263  0.1804
  792MPD2    H511734   4.250   3.703  11.221  0.7278  1.5011  0.7789
  792MPD2    N111735   0.027   3.938  11.116  0.0138 -0.5631 -0.1220
  792MPD2    H711736   0.096   3.977  11.178  0.0900 -0.6349 -0.1617
  793MPD2     C11737   3.834   3.636  10.240 -0.3317  0.4529 -0.1845
  793MPD2    C111738   3.962   3.590  10.281 -0.0672 -0.1772 -0.5046
  793MPD2    C211739   4.003   3.611  10.412  0.4177  0.5011 -0.6102
  793MPD2    C311740   3.926   3.679  10.504  0.8144 -0.1814  0.7072
  793MPD2    C411741   3.806   3.731  10.458 -0.2101 -0.7728 -0.9827
  793MPD2    C511742   3.759   3.705  10.330  0.2217 -0.3514  0.1555
  793MPD2     H11743   4.092   3.559  10.445 -0.1576  1.1540  2.0096
  793MPD2    H111744   3.726   3.778  10.515 -0.9797 -3.2903  0.0409
  793MPD2    H211745   3.790   3.622  10.142 -2.8659  1.8921  0.7404
  793MPD2    H311746   3.663   3.747  10.300  1.8025  2.7925 -0.4601
  793MPD2     N11747   3.967   3.670  10.633 -0.4643 -0.5370  0.3506
  793MPD2    H511748   4.054   3.622  10.652  0.0769 -0.3898 -1.7370
  793MPD2    N111749   4.043   3.506  10.198 -0.0990  1.2999 -0.0851
  793MPD2    H711750   4.127   3.469  10.240 -0.3710  1.4328  0.5832
  794MPD2     C11751   4.481   3.853  17.021  0.8198  0.5184  0.3573
  794MPD2    C111752   4.393   3.751  17.056  0.2289  0.3367 -0.3574
  794MPD2    C211753   4.267   3.757  17.004 -0.0432 -0.2096  0.6461
  794MPD2    C311754   4.232   3.872  16.927 -0.3262  0.3601 -0.1815
  794MPD2    C411755   4.315   3.974  16.902 -0.8584 -0.3630  0.2591
  794MPD2    C511756   4.443   3.962  16.947  0.3336 -0.1718  1.0077
  794MPD2     H11757   4.192   3.680  17.025 -1.8954  0.6773 -2.7125
  794MPD2    H111758   4.289   4.052  16.832 -0.6956 -0.7760 -0.2637
  794MPD2    H211759   4.580   3.855  17.066  0.0721 -1.3636  2.0859
  794MPD2    H311760   4.514   4.041  16.925 -0.5041 -0.6548 -3.4491
  794MPD2     N11761   4.111   3.899  16.864  0.3485  0.8169 -0.4453
  794MPD2    H511762   4.083   3.995  16.844  1.1671  1.1527  0.0376
  794MPD2    N111763   4.431   3.629  17.123 -0.1674 -0.1336  0.1075
  794MPD2    H711764   4.361   3.556  17.134 -0.6936  0.3422 -0.0455
  795MPD2     C11765   2.092   0.592  13.418 -0.2938 -0.1229 -0.3775
  795MPD2    C111766   2.141   0.499  13.329 -0.4926 -0.1888 -0.4541
  795MPD2    C211767   2.243   0.410  13.361 -0.2978 -0.1268 -0.0877
  795MPD2    C311768   2.301   0.421  13.487 -0.1319  0.0141  0.5803
  795MPD2    C411769   2.255   0.514  13.573 -0.0334  0.0857 -0.4528
  795MPD2    C511770   2.158   0.605  13.538  0.6435  0.0698 -0.1029
  795MPD2     H11771   2.289   0.340  13.292 -2.0641  2.2309 -3.6395
  795MPD2    H111772   2.285   0.530  13.675 -1.8831 -1.6602  0.3629
  795MPD2    H211773   2.009   0.655  13.387  3.0030  3.4164 -1.9723
  795MPD2    H311774   2.126   0.683  13.606  0.7905  0.2514 -0.2418
  795MPD2     N11775   2.398   0.328  13.539 -0.0810 -0.1609 -0.3459
  795MPD2    H511776   2.418   0.245  13.484  2.6749  1.7081 -2.1619
  795MPD2    N111777   2.095   0.495  13.194  0.1590 -0.0559 -0.3630
  795MPD2    H711778   2.125   0.416  13.137 -2.6671 -1.9629  0.8089
  796MPD2     C11779   1.898   2.225  15.522 -0.6385  0.2866  0.5641
  796MPD2    C111780   1.852   2.306  15.626  0.0465 -0.4083 -0.2853
  796MPD2    C211781   1.789   2.426  15.590  0.0691 -0.1529 -0.2558
  796MPD2    C311782   1.781   2.466  15.458 -0.1395  0.5913  0.1557
  796MPD2    C411783   1.822   2.383  15.357  0.1975  0.0190 -0.2081
  796MPD2    C511784   1.880   2.265  15.391  0.2810  0.3175  0.5518
  796MPD2     H11785   1.761   2.489  15.673  2.0373  0.4329 -0.0411
  796MPD2    H111786   1.817   2.413  15.253  1.4710 -2.9576 -1.1113
  796MPD2    H211787   1.958   2.137  15.542 -1.3738 -0.4596 -0.5279
  796MPD2    H311788   1.920   2.196  15.318 -2.2040  0.6980 -1.1720
  796MPD2     N11789   1.722   2.592  15.430 -0.0731  0.0181  0.2128
  796MPD2    H511790   1.687   2.635  15.515 -0.3684  1.6205 -0.7173
  796MPD2    N111791   1.879   2.259  15.758  0.7460  0.9972 -0.5635
  796MPD2    H711792   1.927   2.170  15.750 -1.2157  0.0571 -1.9210
  797MPD2     C11793   2.834   2.062  17.405  0.0140 -0.6090 -0.2417
  797MPD2    C111794   2.907   2.163  17.342 -0.6445  0.9777  0.1747
  797MPD2    C211795   2.859   2.214  17.223  0.0562  0.0978  0.9289
  797MPD2    C311796   2.742   2.168  17.169  0.4051  0.8207 -0.5504
  797MPD2    C411797   2.675   2.064  17.225  0.3806 -0.2639  0.0457
  797MPD2    C511798   2.719   2.016  17.344  0.4732 -0.1128 -0.2603
  797MPD2     H11799   2.913   2.299  17.182  0.8633  0.3871  2.5900
  797MPD2    H111800   2.592   2.025  17.168  0.0381 -0.4475  0.6785
  797MPD2    H211801   2.865   2.025  17.502 -1.6698 -1.0174  0.1258
  797MPD2    H311802   2.665   1.942  17.403  0.1403  1.2051  1.1066
  797MPD2     N11803   2.716   2.218  17.041 -0.0310  0.0348  0.1986
  797MPD2    H511804   2.785   2.283  17.004 -0.9680  0.8811 -0.0776
  797MPD2    N111805   3.008   2.235  17.404  0.2127  0.3235 -0.9518
  797MPD2    H711806   3.026   2.320  17.351  1.5455  1.3827  1.1676
  798MPD2     C11807   2.897   2.883  17.072  0.3425  0.1153 -0.4870
  798MPD2    C111808   2.931   2.751  17.038 -0.3716  0.1211 -0.2862
  798MPD2    C211809   3.017   2.678  17.117  0.1541 -0.0239 -0.3737
  798MPD2    C311810   3.074   2.736  17.228 -0.1979 -0.2915 -0.3369
  798MPD2    C411811   3.042   2.870  17.250 -0.1391  0.5187 -0.3555
  798MPD2    C511812   2.965   2.941  17.171 -0.3401 -0.2279 -0.2739
  798MPD2     H11813   3.051   2.579  17.089  3.7258  0.6046  1.7242
  798MPD2    H111814   3.070   2.927  17.338  0.8437 -0.9326  0.2792
  798MPD2    H211815   2.828   2.942  17.013 -3.0901 -0.8751  2.4910
  798MPD2    H311816   2.923   3.034  17.207  2.6857  0.7067  0.8679
  798MPD2     N11817   3.140   2.652  17.318 -0.4329  0.0192  0.9712
  798MPD2    H511818   3.156   2.557  17.286 -1.1851 -0.0921  0.9299
  798MPD2    N111819   2.854   2.689  16.934 -0.2645  0.1761 -1.3154
  798MPD2    H711820   2.793   2.750  16.882 -0.0367  0.5108 -1.1883
  799MPD2     C11821   2.172   3.092  14.325  0.1345  0.1707 -0.2511
  799MPD2    C111822   2.100   3.014  14.245  0.4402  0.0522  0.4386
  799MPD2    C211823   2.008   3.069  14.155 -0.9621  0.0633  0.2337
  799MPD2    C311824   1.997   3.209  14.135  0.0892 -0.1666  0.2257
  799MPD2    C411825   2.075   3.279  14.217  0.9168 -0.4933 -0.8479
  799MPD2    C511826   2.163   3.230  14.307 -0.4632  0.8371 -0.1120
  799MPD2     H11827   1.952   3.003  14.089 -0.1053 -0.7457  0.3114
  799MPD2    H111828   2.078   3.385  14.197  0.9352 -0.5558 -1.1842
  799MPD2    H211829   2.254   3.064  14.390  0.8570  1.6365 -0.5027
  799MPD2    H311830   2.224   3.304  14.357  0.4776 -0.4315  0.6334
  799MPD2     N11831   1.911   3.282  14.048 -0.4779 -0.2237  0.1774
  799MPD2    H511832   1.918   3.382  14.063 -1.2376  0.0109 -0.9911
  799MPD2    N111833   2.114   2.872  14.231  0.0339  0.0500  0.5192
  799MPD2    H711834   2.067   2.821  14.156 -0.7043  0.7143  0.5350
  800MPD2     C11835   1.875   4.435  13.824 -0.4928  0.2958  0.0715
  800MPD2    C111836   2.005   4.389  13.819 -0.3571 -0.8420 -0.9660
  800MPD2    C211837   2.037   4.278  13.746  0.4222  0.3763 -0.1506
  800MPD2    C311838   1.944   4.212  13.671  0.0127 -0.3049  0.0095
  800MPD2    C411839   1.815   4.267  13.670 -0.2534  0.8855  0.0489
  800MPD2    C511840   1.782   4.371  13.744  0.1767 -0.3527  0.5297
  800MPD2     H11841   2.137   4.235  13.750  0.3695  0.2706  0.0239
  800MPD2    H111842   1.743   4.234  13.597  0.0290 -0.1253  0.2288
  800MPD2    H211843   1.834   4.496  13.904 -2.2065  0.3782 -0.8710
  800MPD2    H311844   1.678   4.400  13.749  0.1444  0.0324 -2.1890
  800MPD2     N11845   1.992   4.106  13.593 -0.0243  0.2755  0.4003
  800MPD2    H511846   2.090   4.085  13.607 -0.0064  0.0155 -0.0979
  800MPD2    N111847   2.087   4.455  13.915  0.1636  0.6131 -0.7906
  800MPD2    H711848   2.048   4.508  13.992  0.6946  1.5331 -1.1556
  801MPD2     C11849   2.215   0.438  13.952  0.1646  0.5588 -0.0844
  801MPD2    C111850   2.141   0.331  13.996 -0.2653  0.3341  0.3956
  801MPD2    C211851   2.006   0.352  14.031  0.2605 -0.5724 -0.3531
  801MPD2    C311852   1.944   0.474  14.018 -0.0353  0.3624  0.0179
  801MPD2    C411853   2.029   0.581  13.988  0.6063 -0.4029  0.0726
  801MPD2    C511854   2.163   0.567  13.959  0.3498  0.9778  0.5326
  801MPD2     H11855   1.952   0.262  14.058 -1.9827  0.8159 -0.1304
  801MPD2    H111856   1.998   0.685  13.984  1.4374 -0.1713 -0.2808
  801MPD2    H211857   2.318   0.443  13.917  0.1710  2.1531  0.1608
  801MPD2    H311858   2.228   0.649  13.931  2.2436 -0.6258  0.2674
  801MPD2     N11859   1.808   0.484  14.048  0.4912 -0.0127 -0.0514
  801MPD2    H511860   1.760   0.573  14.040 -1.9577 -1.2727  0.6438
  801MPD2    N111861   2.188   0.200  14.009  0.1077  0.1499 -0.1871
  801MPD2    H711862   2.115   0.133  14.031  0.1718  0.8458  2.1628
  802MPD2     C11863   1.823   1.945  17.535  0.0565 -1.3205 -0.0680
  802MPD2    C111864   1.823   1.855  17.642  0.6266 -0.1352  0.3688
  802MPD2    C211865   1.899   1.738  17.629  0.2964  0.2007  0.8779
  802MPD2    C311866   1.945   1.700  17.504  0.5287  0.8038  0.8123
  802MPD2    C411867   1.935   1.788  17.395 -0.4286  0.2337  0.4222
  802MPD2    C511868   1.875   1.907  17.413  0.7693  0.4747  0.2737
  802MPD2     H11869   1.904   1.666  17.710 -3.6752 -1.5224 -0.3897
  802MPD2    H111870   1.960   1.769  17.291  0.6288 -0.8376  0.8688
  802MPD2    H211871   1.775   2.042  17.542  1.1080 -0.9502  2.0970
  802MPD2    H311872   1.872   1.970  17.324 -0.9610  0.0807  0.0644
  802MPD2     N11873   2.014   1.574  17.499  0.4877  0.2868 -0.6885
  802MPD2    H511874   2.035   1.535  17.590  0.8021  0.8697 -0.5112
  802MPD2    N111875   1.774   1.892   0.028  0.0310  0.0588  0.7456
  802MPD2    H711876   1.786   1.817   0.096 -1.9936 -3.2728 -2.5512
  803MPD2     C11877   2.570   3.602  11.520 -0.4022 -0.0767  0.4801
  803MPD2    C111878   2.657   3.706  11.562 -0.5605 -0.3907  0.3250
  803MPD2    C211879   2.672   3.736  11.698 -0.2930 -0.4292  0.5259
  803MPD2    C311880   2.611   3.656  11.791 -0.2982 -0.4026 -0.0369
  803MPD2    C411881   2.506   3.571  11.747 -0.4653 -0.1717 -0.2736
  803MPD2    C511882   2.487   3.546  11.613  0.8445 -1.0242  0.6427
  803MPD2     H11883   2.750   3.808  11.718 -0.1751  0.0911 -1.7738
  803MPD2    H111884   2.455   3.499  11.809  0.8279 -1.3559 -0.5873
  803MPD2    H211885   2.560   3.571  11.416 -1.5988  1.2346  0.2003
  803MPD2    H311886   2.426   3.459  11.591  0.7062 -0.6212 -0.5956
  803MPD2     N11887   2.630   3.670  11.932  0.3968  0.3390  0.2582
  803MPD2    H511888   2.567   3.611  11.985 -1.3410  2.5270  0.6147
  803MPD2    N111889   2.736   3.777  11.466 -0.3416  0.5637  0.2933
  803MPD2    H711890   2.797   3.846  11.507 -1.4839  1.6797  0.1176
  804MPD2     C11891   2.150   0.532  16.346 -0.0366 -0.0200  0.2391
  804MPD2    C111892   2.165   0.521  16.482 -0.0641  0.4822 -0.9098
  804MPD2    C211893   2.276   0.570  16.552 -0.1492 -0.3243 -0.3046
  804MPD2    C311894   2.375   0.636  16.480  0.3211  0.7029 -0.1474
  804MPD2    C411895   2.356   0.660  16.342 -0.6699 -0.9397 -0.4116
  804MPD2    C511896   2.249   0.600  16.281  0.0194  0.9957 -0.0756
  804MPD2     H11897   2.291   0.557  16.658  1.4618 -0.2429 -0.5306
  804MPD2    H111898   2.426   0.711  16.276 -1.2399 -0.3171 -0.5247
  804MPD2    H211899   2.062   0.494  16.295 -0.9776 -0.0224  1.8537
  804MPD2    H311900   2.237   0.615  16.174 -0.0572 -1.0472 -0.3513
  804MPD2     N11901   2.481   0.695  16.559 -0.2843 -0.4426 -0.6198
  804MPD2    H511902   2.481   0.675  16.659  2.2585  3.1331  0.1036
  804MPD2    N111903   2.073   0.443  16.545 -0.1852  1.0373 -0.1556
  804MPD2    H711904   1.994   0.422  16.485 -1.8222  1.0288  1.9710
  805MPD2     C11905   1.023   3.617  15.136 -0.1283 -0.1724 -0.0684
  805MPD2    C111906   1.132   3.648  15.054 -0.0215  0.0707  0.0924
  805MPD2    C211907   1.241   3.714  15.107  0.1326 -0.5104  0.6509
  805MPD2    C311908   1.245   3.752  15.239  0.5800 -0.4477  0.1543
  805MPD2    C411909   1.142   3.719  15.319  0.1714  0.1724 -0.4665
  805MPD2    C511910   1.032   3.652  15.267 -0.1236 -0.1920 -0.1366
  805MPD2     H11911   1.319   3.738  15.036  0.3381 -2.7985  0.0934
  805MPD2    H111912   1.153   3.746  15.424 -1.2652  4.1653 -1.3336
  805MPD2    H211913   0.933   3.564  15.106  0.8229 -0.7962 -1.7963
  805MPD2    H311914   0.950   3.631  15.334 -0.0513  0.3645  0.1265
  805MPD2     N11915   1.352   3.830  15.278 -0.0576  0.0274  0.2504
  805MPD2    H511916   1.427   3.838  15.210 -1.6890  0.5520 -1.4790
  805MPD2    N111917   1.131   3.610  14.918  0.1967 -0.4075  0.3210
  805MPD2    H711918   1.211   3.641  14.865 -0.7220  1.5075  0.0613
  806MPD2     C11919   1.536   3.453   0.692 -0.2376 -0.1109 -0.6113
  806MPD2    C111920   1.667   3.489   0.661  0.2996 -0.5780 -0.3457
  806MPD2    C211921   1.695   3.539   0.537 -0.1227 -0.5753  0.8700
  806MPD2    C311922   1.600   3.562   0.441  0.0008 -0.8602  0.2625
  806MPD2    C411923   1.472   3.536   0.479  0.5835  0.7042 -0.6695
  806MPD2    C511924   1.433   3.480   0.602 -0.3289  0.2567 -0.8413
  806MPD2     H11925   1.794   3.560   0.497 -0.3487 -0.3392  0.4333
  806MPD2    H111926   1.395   3.560   0.405 -0.3630  3.9530  1.3610
  806MPD2    H211927   1.510   3.409   0.788 -1.2314  0.4513 -0.6302
  806MPD2    H311928   1.329   3.468   0.628 -0.0858  0.1608  0.0685
  806MPD2     N11929   1.641   3.617   0.318  0.0995 -0.2203 -0.2089
  806MPD2    H511930   1.740   3.631   0.301  0.3927 -1.2474  0.6647
  806MPD2    N111931   1.765   3.470   0.756 -0.0688  0.0065  0.2099
  806MPD2    H711932   1.727   3.412   0.830  0.4288  0.3716  0.7423
  807MPD2     C11933   1.877   3.282   1.477  0.1910  0.2915 -0.1134
  807MPD2    C111934   1.802   3.273   1.357 -0.1138 -0.1817  0.5269
  807MPD2    C211935   1.669   3.236   1.363  0.4119 -0.2022 -0.5955
  807MPD2    C311936   1.600   3.216   1.481 -0.2490 -0.9401  0.6341
  807MPD2    C411937   1.667   3.241   1.600 -0.4381 -0.1055  0.2994
  807MPD2    C511938   1.803   3.267   1.593 -0.4422  0.2532 -0.8291
  807MPD2     H11939   1.623   3.221   1.266  0.4142  0.1101 -0.6429
  807MPD2    H111940   1.621   3.223   1.697 -0.1235  0.6422  0.5917
  807MPD2    H211941   1.982   3.311   1.486  0.6323 -0.7619 -1.8480
  807MPD2    H311942   1.856   3.276   1.687 -1.0823 -1.0075 -0.3387
  807MPD2     N11943   1.465   3.164   1.479 -0.5798 -0.0285  0.1297
  807MPD2    H511944   1.435   3.131   1.388  1.5523 -0.4023 -0.4586
  807MPD2    N111945   1.860   3.308   1.231 -0.7314  0.3331  0.1889
  807MPD2    H711946   1.804   3.299   1.147 -1.6760  0.1901  0.8300
  808MPD2     C11947   2.173   4.067   9.561  0.2465 -0.4447  0.1811
  808MPD2    C111948   2.209   4.169   9.650 -0.7047  0.1107  0.2839
  808MPD2    C211949   2.304   4.260   9.616  0.0437  0.6282  0.1612
  808MPD2    C311950   2.370   4.248   9.493  0.3091  0.6882  1.5180
  808MPD2    C411951   2.334   4.144   9.403  0.3847 -0.0490  0.1735
  808MPD2    C511952   2.231   4.057   9.441 -0.5562  0.0093  0.1372
  808MPD2     H11953   2.333   4.335   9.688 -0.5574  0.9364  0.0830
  808MPD2    H111954   2.394   4.119   9.316 -0.6598 -4.0837  0.6207
  808MPD2    H211955   2.099   3.995   9.594 -0.2222  0.2609  0.6822
  808MPD2    H311956   2.206   3.971   9.379  0.2744 -0.8741  1.0073
  808MPD2     N11957   2.471   4.336   9.441 -0.2698  0.3413  0.2003
  808MPD2    H511958   2.531   4.309   9.364 -0.5093 -2.1942  0.8928
  808MPD2    N111959   2.151   4.180   9.781 -0.0207  0.1001  0.9824
  808MPD2    H711960   2.173   4.262   9.838 -0.1870  1.5039 -0.9664
  809MPD2     C11961   2.923   4.321   8.687  0.0832 -0.4215  0.5609
  809MPD2    C111962   2.949   4.449   8.737 -0.0652 -0.3759  0.2733
  809MPD2    C211963   2.897   4.483   8.861 -0.5019 -0.5984 -0.2295
  809MPD2    C311964   2.806   4.403   8.936  0.8873  0.1221  0.6682
  809MPD2    C411965   2.794   4.270   8.891  0.1694  0.9134  0.0543
  809MPD2    C511966   2.856   4.231   8.771 -0.1539  0.4996  0.6413
  809MPD2     H11967   2.929   4.579   8.901 -0.1634 -0.1647 -1.5210
  809MPD2    H111968   2.725   4.196   8.930 -0.2680  0.3639 -1.7140
  809MPD2    H211969   2.961   4.285   8.593 -0.1514 -0.4385  0.4707
  809MPD2    H311970   2.833   4.132   8.732 -1.9188  0.8018  0.9031
  809MPD2     N11971   2.743   4.442   9.052  0.1488 -0.3158 -0.0766
  809MPD2    H511972   2.706   4.366   9.107 -0.1806 -0.3432 -0.3345
  809MPD2    N111973   3.039   4.537   8.671 -0.1833 -0.4358 -0.3110
  809MPD2    H711974   3.064   4.618   8.728  1.3057 -0.2827 -1.1818
  810MPD2     C11975   1.686   4.073  10.837 -0.4015 -0.2636 -0.1465
  810MPD2    C111976   1.721   4.072  10.707  0.1537  0.9102 -0.7061
  810MPD2    C211977   1.746   4.190  10.637  0.1319  0.2890 -0.4782
  810MPD2    C311978   1.735   4.315  10.694  0.5251  0.2007 -0.2922
  810MPD2    C411979   1.705   4.321  10.826  0.2879  0.3308  0.0447
  810MPD2    C511980   1.680   4.201  10.898 -0.8074 -0.4206  0.7875
  810MPD2     H11981   1.759   4.176  10.530  2.2924 -0.7665 -0.0767
  810MPD2    H111982   1.689   4.415  10.879  0.9548  0.9696 -0.8819
  810MPD2    H211983   1.672   3.985  10.898  1.0273  1.0229  2.0763
  810MPD2    H311984   1.658   4.198  11.004  0.2390 -0.5749  1.0024
  810MPD2     N11985   1.722   4.437  10.627  0.2561  0.1728  0.7918
  810MPD2    H511986   1.699   4.523  10.675 -0.4955  0.6082 -0.3359
  810MPD2    N111987   1.741   3.955  10.634  0.0644  0.2333  0.2186
  810MPD2    H711988   1.804   3.951  10.555  1.1368  0.9347  1.0434
  811MPD2     C11989   1.267   3.734  10.023  0.5826 -0.0271  0.6937
  811MPD2    C111990   1.365   3.810  10.080  0.7911 -0.7929 -0.1445
  811MPD2    C211991   1.389   3.940  10.044  0.2299  0.0443 -0.8842
  811MPD2    C311992   1.327   4.002   9.939  0.4320 -0.2424  0.7834
  811MPD2    C411993   1.229   3.923   9.885  0.9135  0.5088 -0.0653
  811MPD2    C511994   1.197   3.795   9.929 -0.4029 -0.1510 -0.1485
  811MPD2     H11995   1.468   3.995  10.093 -1.5779  0.2567  1.7890
  811MPD2    H111996   1.170   3.963   9.804 -0.0106 -0.0977  0.3105
  811MPD2    H211997   1.246   3.639  10.071 -3.4111  0.2509 -0.5316
  811MPD2    H311998   1.108   3.742   9.896 -0.7970  0.5800 -0.2596
  811MPD2     N11999   1.356   4.139   9.908  0.4339 -0.4244 -0.4547
  811MPD2    H512000   1.424   4.190   9.964 -0.8372  0.7109  0.0716
  811MPD2    N112001   1.438   3.741  10.182  0.3765  0.7047 -0.6580
  811MPD2    H712002   1.426   3.640  10.188 -4.4004  1.4188  2.1785
  812MPD2     C12003   0.941   3.916  11.918 -0.0573 -0.0420  0.0333
  812MPD2    C112004   0.847   3.946  12.015 -1.2519 -0.8800  0.5763
  812MPD2    C212005   0.777   3.844  12.067  0.1018  0.0051 -0.4221
  812MPD2    C312006   0.817   3.708  12.060 -0.5091 -0.1580 -0.2295
  812MPD2    C412007   0.920   3.678  11.971  0.5641  0.5509 -0.7586
  812MPD2    C512008   0.978   3.783  11.891  0.5680  0.8528  0.9002
  812MPD2     H12009   0.694   3.865  12.133 -0.5329 -1.3105 -0.7890
  812MPD2    H112010   0.971   3.583  11.960 -1.0119 -0.1534 -1.9049
  812MPD2    H212011   0.996   3.990  11.861  3.1553 -0.9844  1.9203
  812MPD2    H312012   1.070   3.758  11.840  0.2871 -1.2825  1.4731
  812MPD2     N12013   0.752   3.619  12.142  0.5277 -0.7008 -0.2142
  812MPD2    H512014   0.690   3.658  12.212 -0.6298  0.4878 -1.8852
  812MPD2    N112015   0.833   4.082  12.054  0.0296  0.4584  0.2257
  812MPD2    H712016   0.897   4.154  12.024  0.0800  0.3912  0.1710
  813MPD2     C12017   4.329   0.947  12.599 -0.1637  0.5207 -0.4713
  813MPD2    C112018   4.402   1.022  12.685 -0.0891  0.2688  0.5965
  813MPD2    C212019   4.351   1.048  12.808 -0.3702  0.2179 -0.6654
  813MPD2    C312020   4.233   0.991  12.849  0.5360  0.2579  0.0870
  813MPD2    C412021   4.155   0.916  12.764 -0.0831 -0.0116  0.4170
  813MPD2    C512022   4.207   0.898  12.632  0.0843 -0.2411 -0.2348
  813MPD2     H12023   4.405   1.115  12.875 -0.5586 -0.1975 -0.0948
  813MPD2    H112024   4.057   0.886  12.797 -0.1625 -2.0065 -1.6554
  813MPD2    H212025   4.353   0.943  12.493 -0.3249 -1.0897 -0.4491
  813MPD2    H312026   4.150   0.846  12.555  0.8918 -0.3268 -0.7857
  813MPD2     N12027   4.186   1.020  12.986 -0.4504 -0.3194  0.0795
  813MPD2    H512028   4.226   1.100  13.035 -0.4842 -0.4126  0.2592
  813MPD2    N112029   4.530   1.073  12.653 -0.3412  0.4470  0.1560
  813MPD2    H712030   4.577   1.124  12.727 -0.5041 -0.5836  0.9717
  814MPD2     C12031   0.553   2.198  11.763 -0.3535  0.1508  0.3385
  814MPD2    C112032   0.529   2.289  11.665 -0.5680 -0.1669 -0.1564
  814MPD2    C212033   0.614   2.401  11.655 -0.2592  0.0386  0.4147
  814MPD2    C312034   0.708   2.439  11.755 -0.1437 -0.0978 -0.5378
  814MPD2    C412035   0.723   2.347  11.857  0.6964  0.0615 -0.3665
  814MPD2    C512036   0.648   2.234  11.853 -0.5537  0.0089 -0.9100
  814MPD2     H12037   0.602   2.476  11.577 -2.6331 -0.2796  0.4752
  814MPD2    H112038   0.802   2.361  11.930 -1.2913  2.9808  1.2012
  814MPD2    H212039   0.493   2.109  11.776 -0.8401  0.6365  1.3879
  814MPD2    H312040   0.660   2.160  11.932 -2.9414  0.3965 -0.1642
  814MPD2     N12041   0.769   2.565  11.766 -0.7591 -0.0748  0.4897
  814MPD2    H512042   0.821   2.583  11.852  0.2796  0.9285 -0.3443
  814MPD2    N112043   0.429   2.268  11.571 -0.1433  0.4513  0.3248
  814MPD2    H712044   0.446   2.334  11.496 -2.6359  2.2874  1.3826
  815MPD2     C12045   1.106   0.387  11.940  0.1119  0.6182 -0.2317
  815MPD2    C112046   1.015   0.368  11.839  0.1494 -0.5314  0.9962
  815MPD2    C212047   0.886   0.398  11.857  0.0702 -0.6698  0.2048
  815MPD2    C312048   0.833   0.447  11.979 -1.0003  0.3893 -0.5348
  815MPD2    C412049   0.925   0.475  12.080  0.7925 -0.8028  0.5320
  815MPD2    C512050   1.062   0.441  12.055  0.2119  0.4141 -0.3892
  815MPD2     H12051   0.817   0.381  11.775 -0.5007  1.8498  0.1735
  815MPD2    H112052   0.899   0.511  12.179 -1.2116  2.7074 -1.2721
  815MPD2    H212053   1.213   0.382  11.923  0.0971  4.0441 -1.3696
  815MPD2    H312054   1.135   0.452  12.134 -1.5427 -0.1037  1.3097
  815MPD2     N12055   0.694   0.470  11.975 -0.0830  0.3492 -0.8414
  815MPD2    H512056   0.640   0.456  11.890 -1.2506  0.9565 -0.2115
  815MPD2    N112057   1.074   0.315  11.730 -0.1110  0.1298  0.2157
  815MPD2    H712058   1.165   0.271  11.734 -1.2463 -2.0212  2.2576
  816MPD2     C12059   0.735   0.093  16.916 -0.2493  0.4984 -0.4405
  816MPD2    C112060   0.831   0.186  16.936 -0.2560 -1.2345  0.0751
  816MPD2    C212061   0.955   0.164  16.871  0.0324  0.1090  0.2189
  816MPD2    C312062   0.986   0.045  16.803 -0.2311  0.0777 -0.1392
  816MPD2    C412063   0.885   4.691  16.791  0.3543 -0.4111  0.4353
  816MPD2    C512064   0.759   4.710  16.849  0.5048 -0.2418  0.5895
  816MPD2     H12065   1.029   0.242  16.883  1.0556 -0.8750  0.3302
  816MPD2    H112066   0.895   4.604  16.728  0.7950 -0.4487  0.5582
  816MPD2    H212067   0.637   0.113  16.960 -0.5423  0.4939 -1.0921
  816MPD2    H312068   0.677   4.638  16.843  1.5216 -1.1889 -2.0128
  816MPD2     N12069   1.107   0.033  16.730  0.3764 -0.3465 -0.2303
  816MPD2    H512070   1.161   0.116  16.712 -0.3791 -0.4050 -2.7185
  816MPD2    N112071   0.788   0.308  16.997  0.6013 -0.0521 -0.0450
  816MPD2    H712072   0.690   0.314  17.022  0.4689  1.5575 -0.9637
  817MPD2     C12073   0.383   1.531   9.838  0.1703  0.0650 -0.3507
  817MPD2    C112074   0.439   1.546   9.717  0.0891  1.1540 -0.0966
  817MPD2    C212075   0.416   1.662   9.651 -0.3147  0.2911  0.1580
  817MPD2    C312076   0.329   1.763   9.700  0.1204 -0.3857  0.3313
  817MPD2    C412077   0.255   1.731   9.813 -0.0939 -0.4937 -0.1575
  817MPD2    C512078   0.292   1.622   9.885  0.2103  0.4804 -0.1705
  817MPD2     H12079   0.466   1.675   9.555 -0.2811 -1.2780 -0.0298
  817MPD2    H112080   0.182   1.799   9.858 -1.2410 -1.0980 -1.0891
  817MPD2    H212081   0.400   1.441   9.895 -0.4390  1.4724  2.0843
  817MPD2    H312082   0.247   1.605   9.982 -0.7597  0.9287 -0.5426
  817MPD2     N12083   0.310   1.874   9.616 -0.4023  0.0357 -0.2567
  817MPD2    H512084   0.364   1.876   9.530  1.4568 -1.4241  0.8964
  817MPD2    N112085   0.520   1.450   9.656  0.5344  0.0446  0.0488
  817MPD2    H712086   0.562   1.465   9.565  1.3343 -1.2890  0.1910
  818MPD2     C12087   4.078   1.697   9.357  0.8832 -0.2816 -1.1642
  818MPD2    C112088   4.109   1.583   9.428 -0.2658 -0.4509  0.9480
  818MPD2    C212089   4.224   1.513   9.398 -0.1421 -0.6610  0.0828
  818MPD2    C312090   4.306   1.546   9.297 -0.4697 -0.0909  0.1344
  818MPD2    C412091   4.269   1.654   9.221 -0.0685  0.4296  0.3133
  818MPD2    C512092   4.163   1.727   9.253  0.2297  0.3008  0.0790
  818MPD2     H12093   4.260   1.428   9.454 -2.1899 -1.0055  0.8841
  818MPD2    H112094   4.333   1.681   9.138 -1.2182  0.4547 -0.5653
  818MPD2    H212095   3.991   1.757   9.384  0.4994 -0.6041 -1.6759
  818MPD2    H312096   4.144   1.813   9.189 -0.8299  0.4719  0.6246
  818MPD2     N12097   4.419   1.465   9.274  0.5522 -0.1115 -0.6975
  818MPD2    H512098   4.416   1.372   9.315 -0.6627  0.0001 -0.5214
  818MPD2    N112099   4.026   1.550   9.540  0.6475 -0.3662 -0.3156
  818MPD2    H712100   3.951   1.609   9.575  0.7604 -1.1098  1.2269
  819MPD2     C12101   1.999   3.343  15.285  0.3489 -0.2815  0.1838
  819MPD2    C112102   2.058   3.229  15.245 -0.3181 -0.8061 -1.0275
  819MPD2    C212103   2.166   3.190  15.327  0.0293  0.0248 -0.3466
  819MPD2    C312104   2.203   3.255  15.452  0.0410  0.3632  0.5336
  819MPD2    C412105   2.125   3.366  15.484 -0.4398 -0.1473 -0.1774
  819MPD2    C512106   2.029   3.418  15.399 -0.5981 -0.5309 -0.3659
  819MPD2     H12107   2.225   3.106  15.291 -0.9758 -0.9239  0.2496
  819MPD2    H112108   2.141   3.423  15.575 -0.0795 -1.2909  0.4789
  819MPD2    H212109   1.919   3.381  15.223 -0.2589 -0.8040  0.6487
  819MPD2    H312110   1.993   3.516  15.428 -0.0375 -0.1033 -1.0994
  819MPD2     N12111   2.309   3.206  15.534  0.3062  0.3488 -0.6197
  819MPD2    H512112   2.377   3.144  15.492 -0.8666  0.7182 -3.0919
  819MPD2    N112113   2.016   3.156  15.130  0.0010  0.6890  0.3080
  819MPD2    H712114   1.930   3.189  15.085 -1.0090 -1.8413  0.3840
  820MPD2     C12115   1.533   3.244  14.276 -0.2725  0.3755  0.2434
  820MPD2    C112116   1.527   3.303  14.398 -0.0424 -0.2338  0.2000
  820MPD2    C212117   1.609   3.252  14.499 -0.1041 -0.2126 -0.0695
  820MPD2    C312118   1.709   3.159  14.478  0.2715 -0.3682 -0.6361
  820MPD2    C412119   1.700   3.092  14.356 -0.5618 -0.8554  0.6458
  820MPD2    C512120   1.626   3.143  14.256 -1.0241  1.0644 -1.0213
  820MPD2     H12121   1.600   3.292  14.599  0.7104  0.3776 -0.2313
  820MPD2    H112122   1.764   3.007  14.334  1.7946  1.1163 -0.1152
  820MPD2    H212123   1.467   3.276  14.195  0.2134 -1.3291 -0.8226
  820MPD2    H312124   1.623   3.096  14.158  0.4472 -0.2982 -0.4121
  820MPD2     N12125   1.792   3.105  14.575  0.7495  0.1459  0.2841
  820MPD2    H512126   1.837   3.019  14.545  0.6750  0.2070 -0.0090
  820MPD2    N112127   1.417   3.391  14.427 -0.1324 -0.0278 -0.3835
  820MPD2    H712128   1.352   3.420  14.354 -2.2202 -2.0920  0.6545
  821MPD2     C12129   2.226   4.192  12.821 -0.3299 -0.1395 -0.2906
  821MPD2    C112130   2.315   4.126  12.909  0.0495 -0.0765  0.4029
  821MPD2    C212131   2.451   4.134  12.884 -0.4454 -1.0496  0.0039
  821MPD2    C312132   2.494   4.232  12.791 -0.1679  0.4793 -0.0741
  821MPD2    C412133   2.408   4.291  12.701 -0.8353 -0.1866 -0.1781
  821MPD2    C512134   2.273   4.264  12.720  0.1253  0.4580  0.0182
  821MPD2     H12135   2.523   4.088  12.951 -1.7831 -2.8089  0.2378
  821MPD2    H112136   2.435   4.358  12.621 -4.1177 -0.7168 -1.7113
  821MPD2    H212137   2.118   4.182  12.831 -0.5737  0.4467 -2.3620
  821MPD2    H312138   2.203   4.313  12.654  1.4472  0.9944 -0.9680
  821MPD2     N12139   2.631   4.278  12.780 -0.0874 -0.2849 -0.1511
  821MPD2    H512140   2.652   4.351  12.712 -0.6721 -0.2504 -0.2953
  821MPD2    N112141   2.272   4.066  13.023 -0.0985  0.1112 -0.2501
  821MPD2    H712142   2.337   4.011  13.079 -2.0148 -0.7616  1.1362
  822MPD2     C12143   3.079   0.001  15.707  0.0834  0.0528  0.2917
  822MPD2    C112144   3.080   0.015  15.842  0.0581  0.5651 -0.7640
  822MPD2    C212145   3.012   0.126  15.887  0.2448 -0.0947 -0.3358
  822MPD2    C312146   2.966   0.222  15.798  0.0715 -0.1237  0.2468
  822MPD2    C412147   2.972   0.202  15.665  0.5436  1.1939 -0.6440
  822MPD2    C512148   3.029   0.087  15.617 -0.2413  0.3934  0.1919
  822MPD2     H12149   3.001   0.140  15.994  0.5886 -0.0228 -0.3109
  822MPD2    H112150   2.916   0.266  15.598  2.0142 -0.1226 -3.0793
  822MPD2    H212151   3.132   4.655  15.657  0.9800  0.1224  1.1315
  822MPD2    H312152   3.036   0.071  15.510 -0.1240 -0.4529  0.3199
  822MPD2     N12153   2.922   0.340  15.859 -0.2811 -0.0229 -0.0672
  822MPD2    H512154   2.921   0.346  15.961 -0.2638  2.2539 -0.1941
  822MPD2    N112155   3.128   4.657  15.938  0.3499 -0.0826  0.0199
  822MPD2    H712156   3.108   4.677  16.035  0.0140  1.6727 -0.3988
  823MPD2     C12157   2.368   0.306  16.204  0.1319 -0.1207  0.0155
  823MPD2    C112158   2.494   0.340  16.251  0.7137 -0.1849 -0.5314
  823MPD2    C212159   2.544   0.273  16.358  0.4072 -0.7128  0.7744
  823MPD2    C312160   2.473   0.181  16.428 -0.6041  0.0129 -0.2267
  823MPD2    C412161   2.338   0.175  16.402  0.2352 -0.5813  0.3876
  823MPD2    C512162   2.290   0.234  16.291 -0.5013 -0.6228  0.2143
  823MPD2     H12163   2.645   0.299  16.388  0.4563 -0.6200  0.5352
  823MPD2    H112164   2.267   0.131  16.471 -1.2004  2.9686  1.1826
  823MPD2    H212165   2.329   0.354  16.115  2.6526  1.4330 -0.2294
  823MPD2    H312166   2.186   0.235  16.260 -0.0530 -1.5652 -1.2867
  823MPD2     N12167   2.532   0.095  16.530 -0.1418  0.5102 -0.7624
  823MPD2    H512168   2.476   0.015  16.555  1.0999  0.7344  2.7590
  823MPD2    N112169   2.566   0.439  16.178  0.3394  0.6781 -0.4643
  823MPD2    H712170   2.520   0.477  16.096  1.6428  0.4404 -1.3079
  824MPD2     C12171   3.568   3.913  15.954  0.1067 -0.3160 -1.1585
  824MPD2    C112172   3.447   3.953  15.897 -0.6669 -0.0186  0.1520
  824MPD2    C212173   3.405   3.886  15.776 -0.4305  0.5570  0.1724
  824MPD2    C312174   3.486   3.790  15.716 -0.4476 -0.3277 -0.1459
  824MPD2    C412175   3.601   3.757  15.782 -1.0416  0.5116  0.2764
  824MPD2    C512176   3.645   3.815  15.897 -0.1704  0.7783  0.1467
  824MPD2     H12177   3.318   3.915  15.718 -0.5454  1.9539  1.0442
  824MPD2    H112178   3.661   3.673  15.747 -2.8237 -0.3133 -0.8041
  824MPD2    H212179   3.603   3.967  16.042 -0.1219 -0.4227 -1.0009
  824MPD2    H312180   3.742   3.800  15.943 -0.6256 -0.4466  0.6752
  824MPD2     N12181   3.442   3.737  15.596 -0.0829  0.4749 -0.3206
  824MPD2    H512182   3.367   3.772  15.538  0.1474  0.3019 -0.7256
  824MPD2    N112183   3.367   4.066  15.939  0.0351  0.0728  0.1933
  824MPD2    H712184   3.300   4.105  15.874  1.2668  2.0875  0.1439
  825MPD2     C12185   3.984   3.769  15.290  0.4880 -0.0326  0.3953
  825MPD2    C112186   3.868   3.830  15.232  0.6546  0.0131  0.1210
  825MPD2    C212187   3.864   3.967  15.210  0.1184 -0.2754  0.4241
  825MPD2    C312188   3.971   4.044  15.247  0.5302 -0.0961  0.3333
  825MPD2    C412189   4.088   3.981  15.299 -0.1968  0.5927 -0.3866
  825MPD2    C512190   4.092   3.851  15.324 -0.1826 -0.3965  0.1783
  825MPD2     H12191   3.779   4.019  15.168  0.3014  0.6467  1.1620
  825MPD2    H112192   4.175   4.037  15.332  0.9831 -1.1821 -0.4907
  825MPD2    H212193   3.980   3.668  15.327  2.7393 -0.5079 -0.6361
  825MPD2    H312194   4.174   3.800  15.376  0.2920 -0.2410 -0.4188
  825MPD2     N12195   3.976   4.185  15.236 -0.0917  0.4832 -0.2734
  825MPD2    H512196   4.058   4.229  15.277  1.1344 -2.5769  0.5284
  825MPD2    N112197   3.749   3.748  15.200 -0.0854  0.0456 -1.6022
  825MPD2    H712198   3.751   3.650  15.227  0.1299 -0.1651 -2.4064
  826MPD2     C12199   3.719   3.301  13.324 -1.0863 -0.2884 -0.4237
  826MPD2    C112200   3.801   3.408  13.347  0.1196  0.1680 -0.2175
  826MPD2    C212201   3.744   3.529  13.384  0.0033 -0.2547 -0.4578
  826MPD2    C312202   3.603   3.537  13.377 -0.4682  0.5024 -0.5547
  826MPD2    C412203   3.524   3.426  13.355 -0.8019  0.4499 -0.3366
  826MPD2    C512204   3.581   3.312  13.320 -0.0251 -0.2934  0.2348
  826MPD2     H12205   3.801   3.614  13.419  1.5307 -1.1409 -0.7626
  826MPD2    H112206   3.416   3.418  13.351 -0.8315 -0.4861  2.4581
  826MPD2    H212207   3.752   3.205  13.286 -0.3295  0.1491 -0.8685
  826MPD2    H312208   3.514   3.230  13.297 -0.1458 -0.0133 -0.4176
  826MPD2     N12209   3.540   3.662  13.400  0.5181 -0.5972 -0.7597
  826MPD2    H512210   3.440   3.660  13.417  0.7428 -0.6020  0.5147
  826MPD2    N112211   3.940   3.386  13.348  0.2782 -0.6843 -0.7866
  826MPD2    H712212   3.974   3.292  13.332  1.7067 -0.2646 -0.2237
  827MPD2     C12213   4.665   0.123   9.563  0.0027 -0.1080 -0.7101
  827MPD2    C112214   4.644   0.018   9.643  0.4121  0.3437 -0.5015
  827MPD2    C212215   4.545   4.662   9.611 -0.6713  0.5827  0.4608
  827MPD2    C312216   4.475   4.669   9.494 -0.0237 -0.2718 -0.0271
  827MPD2    C412217   4.491   0.043   9.415 -0.1240 -0.2793  0.3660
  827MPD2    C512218   4.589   0.137   9.444 -0.0558  0.4740 -0.3511
  827MPD2     H12219   4.516   4.585   9.682  0.3152  0.0852  0.3160
  827MPD2    H112220   4.442   0.054   9.319  0.8754 -1.9880 -0.3292
  827MPD2    H212221   0.004   0.199   9.583 -1.6071  0.4673  2.8652
  827MPD2    H312222   4.605   0.222   9.379  0.8143  1.1175  0.7136
  827MPD2     N12223   4.367   4.574   9.475 -0.2196  0.2990 -0.6183
  827MPD2    H512224   4.364   4.494   9.537 -0.4038 -0.2419 -1.3293
  827MPD2    N112225   4.710   0.027   9.769  0.2420  0.2153 -1.0510
  827MPD2    H712226   0.047   0.098   9.779 -0.0480  0.1322  1.7202
  828MPD2     C12227   3.044   4.723  11.964 -0.4574  0.1325 -0.1267
  828MPD2    C112228   2.913   4.709  11.914 -0.0706 -0.2634 -0.3406
  828MPD2    C212229   2.896   4.683  11.775  0.6798 -0.0286 -0.0448
  828MPD2    C312230   3.010   4.668  11.695  0.5537 -0.6610  0.0701
  828MPD2    C412231   3.135   4.674  11.751 -0.1687  0.2480 -0.0770
  828MPD2    C512232   3.151   4.702  11.885 -0.2660  0.5012  0.5174
  828MPD2     H12233   2.798   4.687  11.729  0.7566 -0.6051 -0.2491
  828MPD2    H112234   3.223   4.669  11.687  0.3554 -3.5205  0.9233
  828MPD2    H212235   3.059   0.015  12.068  0.7846 -0.6893 -0.0844
  828MPD2    H312236   3.251   4.726  11.921  0.0335 -0.4682  0.3367
  828MPD2     N12237   3.000   4.638  11.559  0.0800  0.0931  0.4078
  828MPD2    H512238   3.087   4.620  11.509 -0.4376 -0.9860 -0.0992
  828MPD2    N112239   2.802   4.722  11.993  0.0464  0.1296 -0.2284
  828MPD2    H712240   2.715   4.703  11.943 -1.2391 -1.0769  2.4505
  829MPD2     C12241   2.079   0.241  11.660  0.5715  0.3001 -0.1518
  829MPD2    C112242   2.052   0.263  11.793 -0.3209 -0.7777 -0.2380
  829MPD2    C212243   2.143   0.237  11.889 -0.2400  0.7134  0.0182
  829MPD2    C312244   2.261   0.183  11.845  0.2336 -0.8568 -0.3848
  829MPD2    C412245   2.295   0.173  11.705  0.0393 -0.4157 -0.7096
  829MPD2    C512246   2.201   0.197  11.613 -0.1428 -0.7515  0.4466
  829MPD2     H12247   2.107   0.237  11.991 -0.3204  2.8825 -0.0197
  829MPD2    H112248   2.394   0.142  11.673  1.2684  1.1717  1.5986
  829MPD2    H212249   1.998   0.246  11.587 -1.9055 -1.5649  2.4659
  829MPD2    H312250   2.211   0.190  11.505 -0.9870  1.4945  0.2205
  829MPD2     N12251   2.351   0.131  11.940  0.4837 -0.6228  0.5025
  829MPD2    H512252   2.420   0.068  11.899 -0.7962 -1.4019 -0.4666
  829MPD2    N112253   1.933   0.330  11.814  0.4573  0.2367  0.6312
  829MPD2    H712254   1.882   0.337  11.727  2.6766 -1.2325 -0.7917
  830MPD2     C12255   3.088   2.898  15.635  0.1495  0.5971 -0.1577
  830MPD2    C112256   2.989   2.975  15.568 -0.1597  0.1073 -0.1582
  830MPD2    C212257   3.017   3.024  15.447 -0.2445 -0.6093 -0.0941
  830MPD2    C312258   3.118   2.968  15.368  0.0404  0.2634  0.2593
  830MPD2    C412259   3.216   2.897  15.431 -0.2715 -0.4677 -0.7011
  830MPD2    C512260   3.201   2.861  15.563  0.1278 -0.3410  0.5781
  830MPD2     H12261   2.962   3.110  15.409 -0.9461 -0.3667  1.4597
  830MPD2    H112262   3.307   2.869  15.378  1.0214  0.7428  0.8659
  830MPD2    H212263   3.083   2.867  15.739 -0.7350 -1.9537 -0.9476
  830MPD2    H312264   3.279   2.804  15.611  0.0511 -1.2384 -0.3744
  830MPD2     N12265   3.143   3.008  15.233  0.1963 -0.8333 -0.1625
  830MPD2    H512266   3.238   2.997  15.199  0.1232 -2.1980  0.0706
  830MPD2    N112267   2.875   3.017  15.641 -0.2979 -0.0480  0.2972
  830MPD2    H712268   2.864   2.978  15.734 -5.5637  0.6032 -0.0547
  831MPD2     C12269   3.303   0.456  16.111 -0.2782 -0.2336 -0.0758
  831MPD2    C112270   3.296   0.319  16.092 -0.3125 -0.8753 -0.2359
  831MPD2    C212271   3.195   0.247  16.156  0.3462 -0.1580 -1.1294
  831MPD2    C312272   3.087   0.314  16.214 -0.3354 -0.7883 -0.0931
  831MPD2    C412273   3.090   0.452  16.225 -0.1581  0.3425 -0.3175
  831MPD2    C512274   3.198   0.521  16.179  0.0788 -0.0453  0.2223
  831MPD2     H12275   3.208   0.140  16.151  0.9247 -0.1400 -0.0885
  831MPD2    H112276   3.020   0.516  16.277  2.4323  2.9627 -0.0700
  831MPD2    H212277   3.387   0.513  16.075 -0.9926  0.9258  0.1094
  831MPD2    H312278   3.207   0.625  16.209  0.2776  0.4864 -1.6598
  831MPD2     N12279   2.965   0.258  16.251 -0.4143  0.4711  0.3139
  831MPD2    H512280   2.892   0.319  16.287  0.7516  0.5625  2.5073
  831MPD2    N112281   3.385   0.258  15.999  0.7059 -0.2415  0.4321
  831MPD2    H712282   3.428   0.317  15.929 -3.5505  2.1418 -0.1304
  832MPD2     C12283   1.841   1.412  17.163  0.6412 -0.0337  0.0107
  832MPD2    C112284   1.805   1.496  17.060 -0.2048  0.1227 -0.5120
  832MPD2    C212285   1.676   1.490  17.002 -0.2449 -0.1450 -0.1610
  832MPD2    C312286   1.592   1.380  17.033 -0.4758 -0.3682  0.1665
  832MPD2    C412287   1.640   1.284  17.122  0.3757  0.3444  0.2096
  832MPD2    C512288   1.766   1.304  17.178 -0.6545 -0.2119  0.6163
  832MPD2     H12289   1.646   1.545  16.914  0.7165  0.2905 -0.2070
  832MPD2    H112290   1.570   1.206  17.148  0.5936 -0.1911 -0.7963
  832MPD2    H212291   1.934   1.423  17.219  1.0091 -0.2480 -0.5551
  832MPD2    H312292   1.795   1.237  17.259  1.5024  1.3108  1.1248
  832MPD2     N12293   1.465   1.361  16.959  0.1570 -0.5314  0.8838
  832MPD2    H512294   1.415   1.274  16.973  1.9354 -1.5584  0.7040
  832MPD2    N112295   1.901   1.598  17.036 -0.6588  0.1067 -0.2749
  832MPD2    H712296   1.984   1.600  17.094 -1.3556 -0.1546  0.7553
  833MPD2     C12297   3.495   2.915  12.187  0.3087  0.7910 -0.7616
  833MPD2    C112298   3.428   2.961  12.073 -0.1491 -0.4703  0.1001
  833MPD2    C212299   3.459   2.893  11.951 -1.1452 -0.6911 -0.4797
  833MPD2    C312300   3.568   2.809  11.936 -0.0527  0.4581  0.5127
  833MPD2    C412301   3.641   2.779  12.047 -0.3132 -0.5698 -0.0263
  833MPD2    C512302   3.604   2.832  12.170 -0.3237  0.0206  0.9404
  833MPD2     H12303   3.399   2.916  11.864 -0.7510  0.0333 -0.5624
  833MPD2    H112304   3.730   2.717  12.041 -0.1099 -0.1691 -1.3182
  833MPD2    H212305   3.493   2.964  12.284 -0.4134  2.4521 -1.6108
  833MPD2    H312306   3.667   2.813  12.256 -1.3992 -0.4844  1.6096
  833MPD2     N12307   3.607   2.757  11.812  0.0613  0.3218  0.4683
  833MPD2    H512308   3.677   2.684  11.819 -0.1568  0.2071  1.3957
  833MPD2    N112309   3.322   3.053  12.070  0.4604  0.2077 -0.2412
  833MPD2    H712310   3.275   3.060  11.980 -1.1692  0.9525  0.6605
  834MPD2     C12311   3.736   1.868  11.387 -0.1877 -0.0557  0.8519
  834MPD2    C112312   3.660   1.924  11.288  1.2427  0.5019 -0.1523
  834MPD2    C212313   3.627   2.053  11.297  0.2138  0.1863 -0.2786
  834MPD2    C312314   3.653   2.130  11.409 -0.1277  0.2900 -0.0756
  834MPD2    C412315   3.736   2.076  11.501  0.1913  0.1292 -0.9803
  834MPD2    C512316   3.776   1.944  11.496 -0.4194  0.4105  0.7816
  834MPD2     H12317   3.561   2.092  11.220  1.7539  0.4257 -1.5004
  834MPD2    H112318   3.767   2.123  11.594 -2.8340 -1.6785  0.9471
  834MPD2    H212319   3.754   1.761  11.387 -0.1523 -0.0340  2.8304
  834MPD2    H312320   3.834   1.907  11.580  0.3254 -2.0315 -0.8006
  834MPD2     N12321   3.619   2.271  11.414 -0.6439  0.8905  0.4144
  834MPD2    H512322   3.591   2.315  11.327  1.8151  0.5457 -0.5497
  834MPD2    N112323   3.638   1.842  11.181 -1.1265 -0.3581  0.1105
  834MPD2    H712324   3.636   1.740  11.190 -5.3481 -0.3069 -0.2383
  835MPD2     C12325   4.006   0.126  10.776 -0.5754 -0.6055  0.4482
  835MPD2    C112326   3.977   0.210  10.886 -0.1545  0.0002 -0.3905
  835MPD2    C212327   4.075   0.241  10.976 -0.2382 -0.9259 -0.5482
  835MPD2    C312328   4.192   0.166  10.984 -0.6620  0.6191 -0.0278
  835MPD2    C412329   4.219   0.092  10.878  0.0198 -0.0296 -0.3001
  835MPD2    C512330   4.127   0.067  10.774  0.6434 -0.1495  0.4912
  835MPD2     H12331   4.046   0.316  11.049  1.0284 -0.6710 -0.3046
  835MPD2    H112332   4.313   0.040  10.864 -0.4995 -0.8668 -0.6840
  835MPD2    H212333   3.929   0.092  10.708  0.0942 -1.1004 -0.0708
  835MPD2    H312334   4.164   0.004  10.693 -0.0457  1.2578 -0.9242
  835MPD2     N12335   4.275   0.164  11.100 -0.4434 -0.0677  0.1980
  835MPD2    H512336   4.331   0.080  11.112  0.4432  0.7064  1.6416
  835MPD2    N112337   3.854   0.270  10.899 -0.2752 -0.5568  0.4462
  835MPD2    H712338   3.854   0.346  10.966  0.0590  0.4195 -0.6556
  836MPD2     C12339   3.936   4.493  11.750 -0.0916 -0.6695  0.2854
  836MPD2    C112340   3.939   4.625  11.714  0.0942 -0.2530 -1.0017
  836MPD2    C212341   3.837   4.708  11.763  0.2029  0.2437  0.9617
  836MPD2    C312342   3.750   4.660  11.859  0.0757 -0.1307 -0.4419
  836MPD2    C412343   3.746   4.525  11.886  0.1799  0.5264 -0.2856
  836MPD2    C512344   3.838   4.438  11.822  0.2287 -0.1182  0.3583
  836MPD2     H12345   3.836   0.076  11.732 -0.3627 -0.3187 -0.8790
  836MPD2    H112346   3.685   4.476  11.961  0.2647 -1.8933 -1.7903
  836MPD2    H212347   4.010   4.419  11.722 -0.1213 -1.3618  2.0438
  836MPD2    H312348   3.851   4.335  11.851 -1.7026  0.1169  2.0043
  836MPD2     N12349   3.651   0.009  11.920  0.9386  0.1704  0.2283
  836MPD2    H512350   3.586   4.705  11.987  0.1198 -1.1004 -1.3168
  836MPD2    N112351   4.056   4.667  11.641 -0.2353  0.1025 -0.1706
  836MPD2    H712352   4.134   4.603  11.639  0.0683  0.4858 -0.5313
  837MPD2     C12353   1.840   4.723  10.115 -0.6420 -0.4776 -0.2471
  837MPD2    C112354   1.754   0.027  10.006  0.1133 -0.5640 -0.3930
  837MPD2    C212355   1.784   0.145   9.947  0.3140  0.4817  1.1134
  837MPD2    C312356   1.895   0.220   9.975 -0.2829  0.4405  0.6943
  837MPD2    C412357   1.969   0.190  10.090 -0.1050  0.4228  0.1826
  837MPD2    C512358   1.940   0.074  10.158  0.7988 -0.0902  0.0440
  837MPD2     H12359   1.734   0.168   9.853  1.7083 -2.1965 -0.2630
  837MPD2    H112360   2.068   0.231  10.108 -0.4092  1.0518  0.4139
  837MPD2    H212361   1.818   4.629  10.166  1.2675 -1.0302 -0.4507
  837MPD2    H312362   1.993   0.048  10.248  0.3125 -2.8512 -0.4629
  837MPD2     N12363   1.929   0.331   9.891  0.0805 -0.1933  0.0561
  837MPD2    H512364   1.867   0.331   9.810 -0.3235  0.2856  0.3667
  837MPD2    N112365   1.664   4.678   9.935 -0.5166  0.4333  0.4949
  837MPD2    H712366   1.616   4.711   9.851 -0.7819  0.2419  0.5707
  838MPD2     C12367   4.633   3.025  11.478  0.3587  0.2773 -0.6437
  838MPD2    C112368   4.678   2.945  11.580  1.1495 -0.3349 -0.2478
  838MPD2    C212369   4.599   2.845  11.628 -0.0093  0.2858  0.4166
  838MPD2    C312370   4.463   2.833  11.580  0.4693  0.1788  0.4173
  838MPD2    C412371   4.424   2.922  11.480 -0.4504 -0.7367  0.4388
  838MPD2    C512372   4.509   3.008  11.424  0.5816  0.2365 -0.1304
  838MPD2     H12373   4.646   2.777  11.699  0.1510 -0.0760 -0.0348
  838MPD2    H112374   4.327   2.919  11.433 -0.6698  0.6924  0.8043
  838MPD2    H212375   4.699   3.106  11.451 -0.4921  2.3402  3.4019
  838MPD2    H312376   4.484   3.073  11.341 -0.1588 -1.5720 -1.3297
  838MPD2     N12377   4.381   2.736  11.641 -0.4790 -0.3975  0.8446
  838MPD2    H512378   4.415   2.701  11.730 -1.3648 -0.4916  1.1524
  838MPD2    N112379   0.077   2.942  11.629 -0.7761 -0.3140 -0.8045
  838MPD2    H712380   0.105   2.875  11.699 -1.4015 -1.3403 -1.5357
  839MPD2     C12381   4.644   2.303  11.635 -0.7558  0.1321 -0.6327
  839MPD2    C112382   4.651   2.353  11.509 -0.6835  0.2516 -0.3411
  839MPD2    C212383   0.018   2.443  11.479  0.6290  0.2831  0.6090
  839MPD2    C312384   0.102   2.484  11.579 -0.0414 -0.1482  0.4471
  839MPD2    C412385   0.094   2.429  11.705 -0.2759 -0.5215 -0.4909
  839MPD2    C512386   4.728   2.345  11.736 -0.2146 -0.2391 -0.2837
  839MPD2     H12387   0.027   2.477  11.377  1.0381 -0.1904  0.4860
  839MPD2    H112388   0.156   2.468  11.786  0.1293  0.7833 -1.4212
  839MPD2    H212389   4.567   2.232  11.664 -0.2240 -0.2483 -0.1283
  839MPD2    H312390   4.716   2.299  11.833  0.6886  0.5772  0.2046
  839MPD2     N12391   0.203   2.583  11.563  0.2976 -0.6578 -0.0101
  839MPD2    H512392   0.267   2.612  11.636 -1.0687  1.4934  0.3396
  839MPD2    N112393   4.552   2.323  11.408  0.1410 -0.1499  0.2175
  839MPD2    H712394   4.575   2.353  11.314 -0.1956 -0.6044 -0.0056
  840MPD2     C12395   0.370   0.495   9.891 -0.4976  0.2585  0.6115
  840MPD2    C112396   0.367   0.425  10.009  0.2403 -0.1245 -0.5246
  840MPD2    C212397   0.437   0.485  10.119 -0.1244 -0.0268  0.5158
  840MPD2    C312398   0.511   0.608  10.106 -0.4463 -0.0609  0.6104
  840MPD2    C412399   0.509   0.666   9.983 -0.5909 -0.0909 -0.6742
  840MPD2    C512400   0.452   0.606   9.871 -0.0750  0.2166  0.1820
  840MPD2     H12401   0.433   0.445  10.220  0.8610  2.4266  1.5174
  840MPD2    H112402   0.553   0.764   9.970 -0.6103 -0.1313 -1.0330
  840MPD2    H212403   0.312   0.455   9.808  0.0020 -2.0229  1.3576
  840MPD2    H312404   0.466   0.656   9.776 -2.4209  0.1233 -0.2116
  840MPD2     N12405   0.577   0.683  10.204  0.1157  0.3344 -0.5133
  840MPD2    H512406   0.617   0.772  10.177  0.5952  0.3508  0.2718
  840MPD2    N112407   0.283   0.313  10.022  0.0362  0.9479  0.2036
  840MPD2    H712408   0.218   0.283   9.950 -2.2221  0.7856  2.3033
  841MPD2     C12409   4.229   0.528  14.630  0.9868 -1.1078  0.1858
  841MPD2    C112410   4.269   0.405  14.680  0.1153  0.3146 -0.5014
  841MPD2    C212411   4.344   0.400  14.796  0.4805  0.2192 -0.3974
  841MPD2    C312412   4.372   0.514  14.868 -0.2326 -0.0035 -0.7297
  841MPD2    C412413   4.313   0.635  14.832 -0.3809  0.1825  0.5419
  841MPD2    C512414   4.248   0.639  14.707  0.6436  0.7333  0.0339
  841MPD2     H12415   4.364   0.301  14.836 -2.3484 -0.1591  0.0626
  841MPD2    H112416   4.324   0.729  14.884  0.5789  1.2725 -1.6403
  841MPD2    H212417   4.170   0.538  14.540  4.0746 -0.7120 -1.8017
  841MPD2    H312418   4.200   0.733  14.680 -0.2784 -0.3213 -2.0147
  841MPD2     N12419   4.453   0.496  14.983  0.0481  0.1867  0.1725
  841MPD2    H512420   4.490   0.406  15.012 -1.5397 -0.4187  0.3108
  841MPD2    N112421   4.234   0.279  14.626  0.0314 -0.0081 -0.0025
  841MPD2    H712422   4.260   0.206  14.692  0.0871  1.1021  1.2209
  842MPD2     C12423   1.017   1.585  16.956 -0.3357 -0.2283 -0.0650
  842MPD2    C112424   0.903   1.504  16.939  0.0347  0.3346  0.8946
  842MPD2    C212425   0.877   1.410  17.032 -0.1178 -0.5661  1.0254
  842MPD2    C312426   0.936   1.414  17.156 -0.3866 -0.1986 -0.3326
  842MPD2    C412427   1.047   1.490  17.176 -0.1107  0.2790 -0.3871
  842MPD2    C512428   1.085   1.577  17.072  0.1722  0.4773 -0.2555
  842MPD2     H12429   0.794   1.341  17.017 -0.8942  0.0744  2.4310
  842MPD2    H112430   1.110   1.481  17.263 -0.5171  1.2839  0.0078
  842MPD2    H212431   1.040   1.662  16.885  2.1528  0.8387  1.9040
  842MPD2    H312432   1.172   1.641  17.085 -0.4866  1.7005 -1.8504
  842MPD2     N12433   0.883   1.354  17.267 -0.4566 -0.0139 -0.0310
  842MPD2    H512434   0.911   1.389  17.358  0.2508  1.4419 -0.8201
  842MPD2    N112435   0.824   1.527  16.826 -0.3485  0.1532  0.5797
  842MPD2    H712436   0.867   1.578  16.749  0.3411  1.6178  1.9473
  843MPD2     C12437   2.510   2.595  17.253 -0.6245  0.4449 -0.2315
  843MPD2    C112438   2.452   2.668  17.354 -0.0449  0.2638  0.1079
  843MPD2    C212439   2.527   2.752  17.429 -0.7453 -0.7679 -0.8945
  843MPD2    C312440   2.669   2.758  17.413  0.1591  0.1977  0.3987
  843MPD2    C412441   2.725   2.668  17.326 -0.4317  0.0810  0.2240
  843MPD2    C512442   2.645   2.603  17.234  0.5055 -0.3753  0.0663
  843MPD2     H12443   2.481   2.813  17.506  1.5311  0.2021 -0.3025
  843MPD2    H112444   2.833   2.656  17.319 -0.2956  0.0470  2.3508
  843MPD2    H212445   2.450   2.531  17.189 -1.8128 -1.1507  2.4645
  843MPD2    H312446   2.685   2.536  17.159 -1.1714 -0.0071 -1.1672
  843MPD2     N12447   2.758   2.835  17.492  0.0930  0.0467 -0.5462
  843MPD2    H512448   2.858   2.825  17.487  0.1001 -1.4805  2.5134
  843MPD2    N112449   2.313   2.657  17.372 -0.0171 -0.0925  0.2097
  843MPD2    H712450   2.272   2.583  17.316 -0.2161  0.2958 -0.1560
  844MPD2     C12451   1.086   0.887  16.525  0.1220  0.0189  0.0837
  844MPD2    C112452   1.124   0.961  16.416 -0.8828 -0.4507 -0.0648
  844MPD2    C212453   1.230   1.049  16.420 -0.2105 -0.2439 -0.0765
  844MPD2    C312454   1.302   1.067  16.536  0.5804  0.1075 -0.0359
  844MPD2    C412455   1.278   0.977  16.640  0.4664 -0.6226  0.5394
  844MPD2    C512456   1.167   0.895  16.637  0.3508  1.1199 -0.5769
  844MPD2     H12457   1.242   1.119  16.338  2.1987 -0.1178  0.3914
  844MPD2    H112458   1.328   0.996  16.734 -0.7138  0.3992  0.9552
  844MPD2    H212459   0.991   0.835  16.530  0.5596 -0.8857 -1.1560
  844MPD2    H312460   1.133   0.843  16.727 -1.0718 -1.9629 -2.9033
  844MPD2     N12461   1.403   1.166  16.541 -0.6109  0.4242  0.1096
  844MPD2    H512462   1.405   1.228  16.461  0.2706 -0.4908 -0.5777
  844MPD2    N112463   1.068   0.947  16.287  0.2342 -0.1222  0.4579
  844MPD2    H712464   1.097   1.018  16.220  1.4734  0.1817  1.3120
  845MPD2     C12465   1.447   2.120  16.733 -0.0321  0.2733 -0.1407
  845MPD2    C112466   1.539   2.070  16.829  0.7926  0.0358 -0.6208
  845MPD2    C212467   1.593   1.940  16.806 -0.3437  0.0608 -0.7798
  845MPD2    C312468   1.560   1.869  16.690  0.3960  0.4824  0.6456
  845MPD2    C412469   1.479   1.929  16.601  0.2071  0.3187  0.5582
  845MPD2    C512470   1.418   2.046  16.627  0.5238 -0.6406 -0.4225
  845MPD2     H12471   1.656   1.896  16.883  0.4669  1.0524 -0.8753
  845MPD2    H112472   1.453   1.877  16.509 -0.5682 -1.1983  1.6265
  845MPD2    H212473   1.398   2.216  16.748 -2.1484 -0.7116 -0.7171
  845MPD2    H312474   1.356   2.076  16.544 -1.8408  1.0167  1.9343
  845MPD2     N12475   1.616   1.741  16.661  0.1833  0.3477  0.0119
  845MPD2    H512476   1.680   1.712  16.735 -0.8815 -1.7083  0.1225
  845MPD2    N112477   1.573   2.143  16.945  0.0409 -0.4753 -0.8997
  845MPD2    H712478   1.521   2.229  16.959 -0.6629 -1.2147  1.0009
  846MPD2     C12479   2.704   1.891  13.802  0.3745 -0.2154  0.1697
  846MPD2    C112480   2.600   1.964  13.742  0.5109  0.1994  0.8940
  846MPD2    C212481   2.496   2.013  13.823  0.3258  0.1865  0.0429
  846MPD2    C312482   2.480   1.987  13.955 -0.3346  0.8867  0.9685
  846MPD2    C412483   2.577   1.908  14.017  0.2889 -0.5356 -0.4685
  846MPD2    C512484   2.684   1.868  13.942  0.1016 -0.2309 -0.4745
  846MPD2     H12485   2.424   2.070  13.765 -0.5009 -0.8181  0.0690
  846MPD2    H112486   2.573   1.878  14.121  0.1856  1.5198  0.1273
  846MPD2    H212487   2.799   1.860  13.762  0.6487  1.1678 -0.2651
  846MPD2    H312488   2.763   1.818  13.996 -1.1857 -1.1563  0.5697
  846MPD2     N12489   2.376   2.043  14.027  0.4612 -0.2643  0.2791
  846MPD2    H512490   2.305   2.082  13.966  0.8487 -0.5636 -0.3735
  846MPD2    N112491   2.597   1.995  13.601  0.1067  0.8827 -0.1758
  846MPD2    H712492   2.534   2.069  13.570 -1.4774 -0.0947  0.7333
  847MPD2     C12493   2.368   3.281  14.934 -0.8109 -0.4864 -0.7622
  847MPD2    C112494   2.407   3.243  14.807  0.2684  0.0223  0.5481
  847MPD2    C212495   2.450   3.116  14.798  0.4760 -0.4495  0.3420
  847MPD2    C312496   2.467   3.026  14.903  0.1066  0.5736  0.2353
  847MPD2    C412497   2.406   3.068  15.022  0.0341 -0.4503  0.2221
  847MPD2    C512498   2.366   3.196  15.039 -0.2904 -0.0122 -0.0989
  847MPD2     H12499   2.484   3.081  14.701  2.4348 -1.1740  1.2735
  847MPD2    H112500   2.398   2.999  15.105 -3.2347  0.0859  0.3557
  847MPD2    H212501   2.339   3.385  14.942  1.7195  0.1978 -0.3394
  847MPD2    H312502   2.329   3.243  15.130 -0.8752  1.9461 -1.3475
  847MPD2     N12503   2.533   2.904  14.887  0.1398  0.1393 -0.2679
  847MPD2    H512504   2.577   2.888  14.797 -1.3124  0.0955 -0.9804
  847MPD2    N112505   2.425   3.326  14.696  0.5045 -0.1457  0.4013
  847MPD2    H712506   2.477   3.288  14.617  0.2593  0.0125  0.1651
  848MPD2     C12507   0.979   1.715  16.332  0.2433 -0.5160  0.3279
  848MPD2    C112508   1.095   1.749  16.394  0.3396  0.0713 -0.4237
  848MPD2    C212509   1.157   1.860  16.343 -0.4495 -0.9510 -0.6152
  848MPD2    C312510   1.106   1.927  16.237 -0.6520 -0.2645  0.5011
  848MPD2    C412511   0.993   1.886  16.171  0.2038 -0.6985  0.0601
  848MPD2    C512512   0.925   1.774  16.226 -0.7034  0.9759  0.4421
  848MPD2     H12513   1.254   1.891  16.381 -0.2914 -2.2266 -0.0041
  848MPD2    H112514   0.958   1.938  16.083 -1.5890  0.0815  1.2196
  848MPD2    H212515   0.921   1.629  16.364 -0.3595  0.3192  1.4880
  848MPD2    H312516   0.830   1.743  16.183  0.1658 -0.6074 -0.3267
  848MPD2     N12517   1.168   2.046  16.173 -0.4089  0.2309  0.2532
  848MPD2    H512518   1.101   2.090  16.111  0.9322 -0.0475 -1.3975
  848MPD2    N112519   1.149   1.670  16.492  0.4256  0.3453 -0.8273
  848MPD2    H712520   1.250   1.677  16.503  0.4004 -0.6484  0.0636
  849MPD2     C12521   4.596   1.169  14.206 -0.1143 -0.9442  0.3035
  849MPD2    C112522   4.719   1.124  14.151  0.9181  0.0123  0.1841
  849MPD2    C212523   0.053   1.020  14.211  0.1843 -0.3554  0.7324
  849MPD2    C312524   0.015   0.983  14.338  0.3711  0.0116  0.2370
  849MPD2    C412525   4.643   1.031  14.394 -0.5796  0.2932  0.5048
  849MPD2    C512526   4.562   1.121  14.331  0.3522 -0.0435 -0.2879
  849MPD2     H12527   0.135   0.976  14.156  0.8988  3.0550 -0.9781
  849MPD2    H112528   4.613   0.998  14.493  2.0709  0.8293  1.4789
  849MPD2    H212529   4.527   1.242  14.165  0.8173 -0.9260 -1.2304
  849MPD2    H312530   4.465   1.148  14.370  0.8801  0.1572  0.8735
  849MPD2     N12531   0.106   0.890  14.394 -0.3286  0.5581 -0.4052
  849MPD2    H512532   0.185   0.867  14.336 -0.6754 -2.4996  0.3187
  849MPD2    N112533   0.029   1.167  14.023  0.0576  0.1448 -0.2635
  849MPD2    H712534   0.109   1.114  13.990 -0.2858 -0.7508  0.3374
  850MPD2     C12535   2.903   3.897  14.307  0.1504  0.0381  0.1422
  850MPD2    C112536   2.849   3.987  14.402  0.1661  1.1829 -0.1383
  850MPD2    C212537   2.939   4.038  14.499  0.7006  0.5599 -0.2812
  850MPD2    C312538   3.069   3.995  14.509  0.7865  0.7592  0.3848
  850MPD2    C412539   3.119   3.909  14.408  0.2656 -0.2386  0.6252
  850MPD2    C512540   3.040   3.870  14.299  0.7800 -0.0243 -0.3968
  850MPD2     H12541   2.900   4.106  14.574 -0.2993 -0.5168  0.1778
  850MPD2    H112542   3.223   3.878  14.412 -0.4970 -2.8908 -0.1932
  850MPD2    H212543   2.842   3.862  14.224  0.1170 -1.0054  0.6133
  850MPD2    H312544   3.093   3.814  14.222  0.8134 -1.3514  0.5786
  850MPD2     N12545   3.162   4.024  14.609 -0.5446  0.1390  0.0796
  850MPD2    H512546   3.259   4.003  14.586 -0.2429  0.2062  1.3057
  850MPD2    N112547   2.723   4.032  14.374 -0.4827 -0.1619 -0.3700
  850MPD2    H712548   2.706   4.025  14.274 -0.1212 -0.5464 -0.4049
  851MPD2     C12549   3.038   3.931  15.099  0.1650 -0.5227 -0.3026
  851MPD2    C112550   2.959   3.870  15.003 -0.0409 -0.4925 -0.4855
  851MPD2    C212551   2.991   3.741  14.964 -0.1675  0.4246 -0.2240
  851MPD2    C312552   3.104   3.679  15.014 -0.0079  0.1940 -0.3479
  851MPD2    C412553   3.180   3.734  15.113  0.2196  0.0012 -0.4275
  851MPD2    C512554   3.145   3.862  15.151  0.3601 -0.1067  0.2016
  851MPD2     H12555   2.936   3.683  14.891 -1.3652  1.6766 -0.3245
  851MPD2    H112556   3.264   3.681  15.157 -1.7698 -3.0818 -0.3318
  851MPD2    H212557   3.019   4.031  15.135 -2.7024 -0.4613 -1.9233
  851MPD2    H312558   3.203   3.912  15.228 -1.0240 -0.5433  1.5216
  851MPD2     N12559   3.114   3.543  14.968  0.0748  0.1111 -0.3945
  851MPD2    H512560   3.039   3.516  14.905 -0.8798  2.2605 -0.1588
  851MPD2    N112561   2.849   3.941  14.956  0.1586  0.1874  0.0240
  851MPD2    H712562   2.839   4.039  14.980  0.4355 -0.0436  1.0729
  852MPD2     C12563   2.474   1.099  10.067  0.2488  0.2909  1.0579
  852MPD2    C112564   2.583   1.139  10.141  0.5524 -0.0329 -0.1045
  852MPD2    C212565   2.586   1.272  10.176 -0.7309  0.2800  0.1851
  852MPD2    C312566   2.492   1.364  10.143  0.8238  0.4756 -0.3604
  852MPD2    C412567   2.392   1.329  10.060 -0.3073  0.2243  0.4667
  852MPD2    C512568   2.383   1.196  10.030  1.0683  0.2564  0.0877
  852MPD2     H12569   2.665   1.303  10.244 -1.5047 -0.2840  1.3409
  852MPD2    H112570   2.318   1.393  10.013 -0.8883 -1.0231 -0.3361
  852MPD2    H212571   2.460   0.993  10.047  1.2795 -0.0906  2.3742
  852MPD2    H312572   2.298   1.163   9.972  0.2208 -0.8243  1.9550
  852MPD2     N12573   2.520   1.499  10.170 -0.0958 -0.2026  0.6172
  852MPD2    H512574   2.596   1.508  10.237 -0.6622  3.6817  0.7296
  852MPD2    N112575   2.679   1.052  10.194  0.0054  0.4581  0.2940
  852MPD2    H712576   2.757   1.100  10.238 -0.1227  0.4704  0.5053
  853MPD2     C12577   0.084   1.256  12.162  0.1598 -0.8113 -0.3341
  853MPD2    C112578   4.714   1.345  12.162 -0.4978  0.0230  0.0214
  853MPD2    C212579   4.633   1.363  12.043 -0.0901 -0.7271 -0.0325
  853MPD2    C312580   4.670   1.292  11.925  0.2283 -0.0429 -0.4324
  853MPD2    C412581   0.050   1.216  11.924  0.3081  0.0614 -0.2923
  853MPD2    C512582   0.111   1.192  12.041 -0.3282  0.1238  0.8310
  853MPD2     H12583   4.546   1.427  12.046  0.7406  0.3705  0.4994
  853MPD2    H112584   0.082   1.160  11.837  2.7611  3.1227 -1.4020
  853MPD2    H212585   0.151   1.232  12.245  0.3139  0.5023 -0.0768
  853MPD2    H312586   0.201   1.132  12.036 -1.7136 -1.9546  1.3013
  853MPD2     N12587   4.609   1.313  11.800 -0.5514 -0.0741  0.1959
  853MPD2    H512588   4.640   1.255  11.723  1.0519 -1.1188  1.6329
  853MPD2    N112589   4.696   1.412  12.290  0.2337  0.4098 -0.4657
  853MPD2    H712590   0.026   1.390  12.365  0.4278 -0.1400 -0.7911
  854MPD2     C12591   1.842   2.049  12.393  0.1038 -0.7558 -0.3256
  854MPD2    C112592   1.750   2.001  12.302 -0.2643  0.4507 -0.0843
  854MPD2    C212593   1.645   1.926  12.347 -0.9152 -0.0942  0.1003
  854MPD2    C312594   1.640   1.886  12.482 -0.1800 -0.2600 -0.1770
  854MPD2    C412595   1.720   1.952  12.573 -0.1778 -0.0591 -0.2877
  854MPD2    C512596   1.825   2.031  12.524 -0.8785  0.6214 -0.5006
  854MPD2     H12597   1.569   1.884  12.281  0.1194 -0.2032 -1.0307
  854MPD2    H112598   1.718   1.937  12.680 -1.0898  2.5892  0.0579
  854MPD2    H212599   1.928   2.102  12.353  0.2025 -1.3033 -0.8351
  854MPD2    H312600   1.905   2.082  12.576 -0.3994  0.7710 -1.3925
  854MPD2     N12601   1.545   1.805  12.545 -0.6939  0.0913  0.3965
  854MPD2    H512602   1.567   1.791  12.643 -2.6915 -1.8732  0.5571
  854MPD2    N112603   1.759   2.030  12.164 -0.0122 -0.0314 -0.2454
  854MPD2    H712604   1.834   2.094  12.142 -0.5273  0.7926  0.4060
  855MPD2     C12605   1.641   1.543  13.339 -0.3406 -0.6989 -0.0050
  855MPD2    C112606   1.641   1.421  13.277 -0.3144  0.7351  0.1722
  855MPD2    C212607   1.601   1.417  13.144 -0.0629  0.0816  0.6202
  855MPD2    C312608   1.562   1.533  13.078  0.1722 -0.4860 -0.5421
  855MPD2    C412609   1.563   1.653  13.140  0.1283 -0.2934 -0.2313
  855MPD2    C512610   1.600   1.654  13.270  0.1136  0.1666  0.2336
  855MPD2     H12611   1.587   1.317  13.102  2.5917 -0.4393  0.9719
  855MPD2    H112612   1.512   1.735  13.090  1.8296  1.1024  0.3263
  855MPD2    H212613   1.681   1.558  13.438  0.7929 -0.4830 -0.5013
  855MPD2    H312614   1.605   1.745  13.329 -0.7694 -0.3949  1.1778
  855MPD2     N12615   1.503   1.527  12.949  0.3468  0.2659  0.0843
  855MPD2    H512616   1.494   1.619  12.909  2.3083  1.1513  1.6956
  855MPD2    N112617   1.691   1.305  13.344 -0.1538 -0.4117  0.6243
  855MPD2    H712618   1.719   1.228  13.286 -2.7383 -1.4819  0.7881
  856MPD2     C12619   3.346   2.418  13.702  0.3473  0.4154  0.0130
  856MPD2    C112620   3.386   2.528  13.779  0.8799  0.4807 -0.5391
  856MPD2    C212621   3.284   2.606  13.827  0.0075 -0.1326  0.5831
  856MPD2    C312622   3.147   2.583  13.811 -0.5716  0.7023  0.2878
  856MPD2    C412623   3.117   2.483  13.720 -0.3005 -0.2606 -0.7349
  856MPD2    C512624   3.212   2.399  13.673 -0.2272  0.9474  0.2418
  856MPD2     H12625   3.320   2.695  13.878 -1.0872  0.3854  0.4563
  856MPD2    H112626   3.012   2.460  13.705 -0.9612  0.4267  2.7337
  856MPD2    H212627   3.420   2.355  13.653 -0.2291 -0.3964  0.1850
  856MPD2    H312628   3.191   2.319  13.602  0.5490  3.4937 -2.8587
  856MPD2     N12629   3.039   2.664  13.863  0.1054  0.0428  0.4329
  856MPD2    H512630   2.949   2.651  13.818 -0.6785  1.7438  1.5089
  856MPD2    N112631   3.517   2.564  13.807 -0.7711 -0.1058 -0.0567
  856MPD2    H712632   3.531   2.639  13.873  0.0895 -0.2240 -0.1097
  857MPD2     C12633   0.454   4.434  12.441 -0.6702 -0.0766 -0.2114
  857MPD2    C112634   0.580   4.416  12.500  0.0222  0.4483  0.0431
  857MPD2    C212635   0.665   4.530  12.518  0.6183 -0.4539 -0.0916
  857MPD2    C312636   0.635   4.647  12.457  0.0898 -0.4738 -0.1013
  857MPD2    C412637   0.515   4.660  12.396  0.1742  0.6890  0.3040
  857MPD2    C512638   0.422   4.559  12.397 -0.7234 -0.4670  1.1221
  857MPD2     H12639   0.764   4.515  12.558 -0.1268 -0.3362  1.8007
  857MPD2    H112640   0.480   0.016  12.349 -1.7435 -1.0238 -1.6366
  857MPD2    H212641   0.380   4.355  12.440  0.3142 -0.9932 -0.4616
  857MPD2    H312642   0.320   4.572  12.365 -0.1339  2.1742  0.3616
  857MPD2     N12643   0.737   0.002  12.456  0.2098  0.3029  0.3257
  857MPD2    H512644   0.819   4.711  12.509 -1.7253 -1.3656  2.5234
  857MPD2    N112645   0.614   4.286  12.532  0.5294  0.0896 -0.0257
  857MPD2    H712646   0.559   4.212  12.491  1.3454  0.3281 -1.5437
  858MPD2     C12647   1.184   4.016  16.055  0.1213 -0.0431 -0.7628
  858MPD2    C112648   1.226   3.894  16.097 -0.3765 -0.5913  0.2164
  858MPD2    C212649   1.252   3.869  16.232  0.2114 -0.5652 -0.6076
  858MPD2    C312650   1.246   3.971  16.327  0.7658  0.4268 -0.4450
  858MPD2    C412651   1.188   4.092  16.283  0.5089 -0.0779  0.0345
  858MPD2    C512652   1.159   4.110  16.151  0.1585  0.4138  0.4997
  858MPD2     H12653   1.290   3.774  16.268 -1.1531 -0.5517  0.8765
  858MPD2    H112654   1.162   4.170  16.353 -1.2637  0.7515 -1.5383
  858MPD2    H212655   1.161   4.039  15.952  0.5106 -1.1063 -1.0857
  858MPD2    H312656   1.122   4.207  16.120  0.5677 -0.2923 -2.2427
  858MPD2     N12657   1.271   3.957  16.467 -0.1392  0.3441 -0.3549
  858MPD2    H512658   1.255   4.042  16.520  1.4127 -0.2432  1.0812
  858MPD2    N112659   1.225   3.799  15.994  0.1881 -0.4487  0.6252
  858MPD2    H712660   1.201   3.827  15.899  1.2408  0.5277  0.6547
  859MPD2     C12661   0.356   1.797  15.655 -0.2776 -0.2010  0.3163
  859MPD2    C112662   0.333   1.670  15.603 -0.3661 -0.4981 -0.0952
  859MPD2    C212663   0.283   1.576  15.685  0.6669 -0.3721  0.1098
  859MPD2    C312664   0.238   1.604  15.813 -0.7275  0.3183  0.7316
  859MPD2    C412665   0.241   1.731  15.858 -0.0681  0.5657 -0.3719
  859MPD2    C512666   0.294   1.824  15.777 -0.4537 -0.3854 -0.4063
  859MPD2     H12667   0.267   1.478  15.642 -0.6213  0.9813 -2.4438
  859MPD2    H112668   0.200   1.762  15.954 -2.1027 -0.6179 -0.8542
  859MPD2    H212669   0.400   1.877  15.595  0.5579 -1.5158 -0.8130
  859MPD2    H312670   0.287   1.926  15.814 -1.1806  0.2627 -2.3438
  859MPD2     N12671   0.189   1.505  15.898  0.3545  0.0887  0.2884
  859MPD2    H512672   0.169   1.530  15.995 -0.6513  0.3818  0.0064
  859MPD2    N112673   0.369   1.647  15.470  0.3650  0.0439  0.2534
  859MPD2    H712674   0.414   1.728  15.430 -0.3095 -0.6556 -1.9344
  860MPD2     C12675   2.627   0.824  11.636  0.7150 -0.7786  0.0791
  860MPD2    C112676   2.616   0.903  11.751  0.2290  0.0442  0.9685
  860MPD2    C212677   2.507   0.984  11.763 -0.8469  0.2095 -0.3138
  860MPD2    C312678   2.405   0.986  11.675  0.1026  0.5152 -0.0873
  860MPD2    C412679   2.409   0.899  11.566  0.1876  0.0876 -0.5844
  860MPD2    C512680   2.528   0.829  11.546  0.0508 -0.3600 -0.1818
  860MPD2     H12681   2.515   1.045  11.852  1.2468 -0.0047 -0.3522
  860MPD2    H112682   2.335   0.899  11.487 -1.2979  2.7309  0.8213
  860MPD2    H212683   2.717   0.767  11.617  0.8329 -1.0496  1.4505
  860MPD2    H312684   2.541   0.784  11.449 -2.8321  0.3614 -0.8973
  860MPD2     N12685   2.293   1.072  11.705 -0.3176 -0.5746 -0.0507
  860MPD2    H512686   2.310   1.146  11.773 -0.7778 -0.0891 -0.4689
  860MPD2    N112687   2.700   0.890  11.864  0.1039  0.4321 -0.1393
  860MPD2    H712688   2.692   0.956  11.941  1.0555 -1.2699  1.4229
  861MPD2     C12689   1.269   4.097  10.884 -0.3184  0.1230 -0.3990
  861MPD2    C112690   1.139   4.077  10.919 -0.4165 -0.3079 -0.0578
  861MPD2    C212691   1.041   4.121  10.837  0.2081 -0.3251  0.6275
  861MPD2    C312692   1.080   4.197  10.723 -0.2690 -0.0288 -0.0254
  861MPD2    C412693   1.214   4.211  10.688 -0.0734  0.7878  0.4653
  861MPD2    C512694   1.306   4.163  10.772  0.1899 -0.4080  0.7580
  861MPD2     H12695   0.939   4.092  10.862 -0.3887  0.4551 -0.8608
  861MPD2    H112696   1.251   4.277  10.610  2.9127  2.0744  3.0064
  861MPD2    H212697   1.352   4.057  10.942 -0.9363 -1.1049 -0.3738
  861MPD2    H312698   1.412   4.178  10.759 -0.1102  0.7657 -0.3056
  861MPD2     N12699   0.987   4.255  10.633  0.2832  0.6773  0.0538
  861MPD2    H512700   1.023   4.312  10.558 -0.3451  0.3140 -0.5201
  861MPD2    N112701   1.098   3.993  11.029 -1.2812  0.2348  0.2795
  861MPD2    H712702   1.004   3.981  11.067 -0.9491  0.6158  1.2294
  862MPD2     C12703   0.702   4.405   9.967 -0.5083 -0.5469 -0.1982
  862MPD2    C112704   0.675   4.331  10.080 -0.0885 -0.3606  0.2502
  862MPD2    C212705   0.590   4.223  10.064 -0.4648  0.7066 -0.6627
  862MPD2    C312706   0.545   4.192   9.942  0.1975 -0.6587 -0.1939
  862MPD2    C412707   0.571   4.271   9.832 -0.7010  0.1579  0.0018
  862MPD2    C512708   0.655   4.383   9.843  0.4674 -0.1454 -0.2497
  862MPD2     H12709   0.554   4.179  10.156 -0.8950  1.4130 -0.4964
  862MPD2    H112710   0.521   4.246   9.739 -0.3412  1.7868 -0.6346
  862MPD2    H212711   0.758   4.497   9.976 -2.9553  1.1496 -2.4558
  862MPD2    H312712   0.677   4.453   9.764  1.1629  0.7818  0.7609
  862MPD2     N12713   0.444   4.087   9.938 -0.1470 -0.3179 -0.6874
  862MPD2    H512714   0.435   4.040  10.028 -1.6238 -0.8425 -1.1214
  862MPD2    N112715   0.732   4.364  10.206  0.1370  0.3190 -0.0299
  862MPD2    H712716   0.719   4.292  10.276 -3.1139  1.0360  0.1095
  863MPD2     C12717   4.459   3.429  16.802 -0.3392  0.2153  0.3977
  863MPD2    C112718   4.433   3.297  16.817 -0.4683  0.2565  0.3643
  863MPD2    C212719   4.524   3.215  16.877 -0.4226  0.4668 -0.2818
  863MPD2    C312720   4.648   3.260  16.916  0.0988 -0.1791  0.5375
  863MPD2    C412721   4.683   3.399  16.899 -0.1590 -0.1847 -0.0656
  863MPD2    C512722   4.582   3.478  16.845  0.6837 -0.6163  0.5815
  863MPD2     H12723   4.499   3.111  16.896  1.6403  0.0631  0.2227
  863MPD2    H112724   0.034   3.450  16.938 -1.1674  1.3505  0.1505
  863MPD2    H212725   4.385   3.483  16.744  1.2812  1.7706 -0.2477
  863MPD2    H312726   4.616   3.580  16.831 -1.5321 -0.1759 -1.5951
  863MPD2     N12727   0.010   3.191  16.990 -0.3769  0.7532  0.3257
  863MPD2    H512728   0.097   3.235  17.017 -0.1419  0.8856 -0.6524
  863MPD2    N112729   4.318   3.247  16.754  0.9013  0.6433  0.1822
  863MPD2    H712730   4.257   3.309  16.702 -0.8276 -0.7046  0.6034
  864MPD2     C12731   0.619   4.241  16.908 -0.3360  0.3131  0.6860
  864MPD2    C112732   0.604   4.130  16.831  0.3961 -0.4494  0.2645
  864MPD2    C212733   0.653   4.134  16.700 -0.1517  0.1115 -0.7486
  864MPD2    C312734   0.682   4.257  16.642 -0.4581  0.4728  0.7822
  864MPD2    C412735   0.704   4.365  16.720 -0.4700 -0.2293 -0.3710
  864MPD2    C512736   0.671   4.353  16.848  0.0688  0.1708  0.0670
  864MPD2     H12737   0.642   4.046  16.638 -1.4786 -0.8413  0.8345
  864MPD2    H112738   0.736   4.460  16.680 -0.5297 -0.0894 -0.0844
  864MPD2    H212739   0.599   4.238  17.014  1.8771 -1.6120  1.0444
  864MPD2    H312740   0.690   4.441  16.908  2.3288 -0.9662  1.0064
  864MPD2     N12741   0.715   4.272  16.506  0.6132  0.0827 -0.2660
  864MPD2    H512742   0.741   4.366  16.477 -1.0163  0.2678 -1.1190
  864MPD2    N112743   0.549   4.015  16.897  0.5247  0.3581 -0.5068
  864MPD2    H712744   0.505   4.031  16.986  1.7322 -1.9680  0.5062
  865MPD2     C12745   0.355   4.195  15.724  0.0354 -0.0346  0.0911
  865MPD2    C112746   0.414   4.155  15.841  0.2962  0.1596  0.4623
  865MPD2    C212747   0.438   4.249  15.948 -0.1895 -0.7569 -0.3231
  865MPD2    C312748   0.423   4.385  15.918 -0.3792 -0.5705  0.1802
  865MPD2    C412749   0.353   4.419  15.803  0.2315  0.0932  0.4190
  865MPD2    C512750   0.328   4.326  15.703 -0.0007 -0.4848  0.2425
  865MPD2     H12751   0.480   4.217  16.043  1.1496 -1.1672 -1.0591
  865MPD2    H112752   0.329   4.525  15.796 -0.7717 -0.2228 -1.0064
  865MPD2    H212753   0.334   4.125  15.644 -2.0987 -0.7342  1.2712
  865MPD2    H312754   0.274   4.353  15.613 -0.9244  1.3929  1.3700
  865MPD2     N12755   0.493   4.489  15.984 -0.2447  0.2094 -0.1020
  865MPD2    H512756   0.468   4.577  15.941  1.3307  0.7715  0.1335
  865MPD2    N112757   0.431   4.016  15.852  0.5286 -0.0723 -0.1831
  865MPD2    H712758   0.396   3.959  15.776 -0.4197  0.5737 -0.2344
  866MPD2     C12759   1.918   0.012  11.196  0.4415 -0.6350 -0.3724
  866MPD2    C112760   1.901   0.045  11.063 -0.1564  0.0285 -0.2326
  866MPD2    C212761   1.784   0.009  10.999  0.2227 -0.5165 -1.5815
  866MPD2    C312762   1.688   4.670  11.058  0.3053 -0.3544  0.2450
  866MPD2    C412763   1.707   4.640  11.193  0.4819  0.3077 -0.5218
  866MPD2    C512764   1.821   4.678  11.261 -0.0771  0.1039 -0.1299
  866MPD2     H12765   1.776   0.049  10.898 -1.2879  3.8235  0.2101
  866MPD2    H112766   1.640   4.575  11.247  1.3166 -0.2178 -0.1252
  866MPD2    H212767   2.013   0.034  11.242 -1.3590 -3.3882  4.5959
  866MPD2    H312768   1.832   4.647  11.364 -2.1790  0.0367  0.0792
  866MPD2     N12769   1.558   4.633  11.002 -0.3324 -0.2607  0.2165
  866MPD2    H512770   1.514   4.567  11.065  4.5043  0.1349  4.0304
  866MPD2    N112771   1.999   0.124  11.002 -0.3030 -0.2642  0.1424
  866MPD2    H712772   2.058   0.173  11.069 -0.0411 -2.1588  1.2944
  867MPD2     C12773   3.600   4.300  16.331 -0.5852 -0.5025  0.2174
  867MPD2    C112774   3.644   4.293  16.459 -0.4681 -0.0783 -0.1472
  867MPD2    C212775   3.648   4.413  16.529  0.5594 -0.6614  0.2915
  867MPD2    C312776   3.611   4.535  16.471 -0.4535 -0.1487 -0.1655
  867MPD2    C412777   3.564   4.532  16.344 -0.0376 -0.7864  0.2916
  867MPD2    C512778   3.570   4.417  16.273 -0.4823 -0.1925  0.0296
  867MPD2     H12779   3.672   4.409  16.635  1.3192  0.0556  0.1559
  867MPD2    H112780   3.529   4.624  16.297 -1.6025 -2.5017 -1.8880
  867MPD2    H212781   3.613   4.214  16.265  1.7855 -0.5313  0.7212
  867MPD2    H312782   3.553   4.420  16.166 -1.1313 -1.3727  0.0968
  867MPD2     N12783   3.627   4.660  16.531  0.0282  0.2582  0.0078
  867MPD2    H512784   3.598   0.009  16.481  0.2601 -0.8111 -1.9447
  867MPD2    N112785   3.688   4.166  16.510  0.6285 -0.2362  0.6508
  867MPD2    H712786   3.683   4.082  16.453 -3.2981  0.7167 -0.4066
  868MPD2     C12787   0.397   3.133  12.854 -0.1771 -0.6841 -0.2686
  868MPD2    C112788   0.453   3.053  12.957  0.0431 -0.2277  0.4861
  868MPD2    C212789   0.436   3.086  13.087  0.8785  0.3369  0.4616
  868MPD2    C312790   0.389   3.215  13.117 -0.0127  0.0032 -0.7856
  868MPD2    C412791   0.348   3.302  13.019  0.0330  0.1098 -0.3080
  868MPD2    C512792   0.356   3.257  12.891  0.3474 -0.3043 -0.7701
  868MPD2     H12793   0.481   3.029  13.167  1.5134  0.8375  0.4615
  868MPD2    H112794   0.322   3.406  13.036  0.1251  0.2446 -0.9584
  868MPD2    H212795   0.416   3.107  12.750  1.9668 -2.2722  0.5111
  868MPD2    H312796   0.314   3.312  12.807 -0.9352 -0.6384 -0.3491
  868MPD2     N12797   0.379   3.253  13.253  0.0243 -0.0782 -0.2613
  868MPD2    H512798   0.419   3.184  13.316  0.6421 -0.0205 -0.5864
  868MPD2    N112799   0.537   2.943  12.919 -0.8468 -0.1278 -0.1911
  868MPD2    H712800   0.554   2.923  12.821 -0.3977 -0.4536 -0.0512
  869MPD2     C12801   1.405   1.683   0.725 -0.1390 -0.4611 -0.5057
  869MPD2    C112802   1.412   1.807   0.777  0.2285 -0.2357 -0.2926
  869MPD2    C212803   1.518   1.889   0.759 -0.4020  0.4542 -0.4144
  869MPD2    C312804   1.625   1.847   0.680 -0.6080 -0.4292 -0.8871
  869MPD2    C412805   1.613   1.720   0.617  0.1199 -0.4220  0.7060
  869MPD2    C512806   1.506   1.644   0.643  0.0851 -0.3508  0.2896
  869MPD2     H12807   1.532   1.983   0.812 -0.5576 -0.1786  0.7572
  869MPD2    H112808   1.690   1.677   0.554 -1.2994 -2.4387  0.3392
  869MPD2    H212809   1.315   1.622   0.732 -0.9265  0.6805 -0.7403
  869MPD2    H312810   1.511   1.541   0.610 -1.6510 -0.5877  0.8113
  869MPD2     N12811   1.743   1.928   0.660 -0.4770 -0.2765 -0.0331
  869MPD2    H512812   1.804   1.892   0.587  0.2753 -1.9115  1.3980
  869MPD2    N112813   1.302   1.848   0.862 -0.1543  0.0835  0.0460
  869MPD2    H712814   1.219   1.791   0.871  0.8491 -1.1723  1.4762
  870MPD2     C12815   2.534   0.299   0.713 -0.3459 -0.0685 -0.0672
  870MPD2    C112816   2.444   0.196   0.729  0.3639 -0.0700 -0.2676
  870MPD2    C212817   2.313   0.230   0.729  0.5042 -0.4423 -0.5518
  870MPD2    C312818   2.271   0.365   0.730 -0.4477  0.3654  0.0386
  870MPD2    C412819   2.359   0.470   0.721 -0.0210 -0.1776 -0.3185
  870MPD2    C512820   2.488   0.429   0.708  0.1605 -0.6861  0.1381
  870MPD2     H12821   2.240   0.149   0.736 -2.9507  2.6965 -0.5838
  870MPD2    H112822   2.336   0.576   0.725 -0.4105 -0.3005  0.5594
  870MPD2    H212823   2.641   0.283   0.702 -0.8235 -0.9865 -3.1759
  870MPD2    H312824   2.565   0.503   0.687 -0.1537 -0.3508  0.1578
  870MPD2     N12825   2.132   0.390   0.725 -0.2946 -0.2990  0.5311
  870MPD2    H512826   2.080   0.303   0.716  1.2284 -0.9816 -1.9384
  870MPD2    N112827   2.495   0.062   0.740 -0.3813  0.5116  0.5428
  870MPD2    H712828   2.594   0.053   0.724 -0.3457 -0.5068  1.3659
  871MPD2     C12829   2.835   4.285  16.273 -0.1028  0.0699 -0.5856
  871MPD2    C112830   2.876   4.287  16.404 -0.1145 -0.4322  0.7345
  871MPD2    C212831   2.970   4.191  16.440  0.0189 -0.2906  0.2405
  871MPD2    C312832   3.011   4.097  16.350 -0.2683  0.2025  0.4750
  871MPD2    C412833   2.961   4.100  16.222 -0.7200  0.2545  0.2354
  871MPD2    C512834   2.875   4.194  16.181 -0.5723  0.0101  0.3859
  871MPD2     H12835   3.020   4.189  16.537 -1.6555 -0.3546  1.1075
  871MPD2    H112836   2.985   4.022  16.150 -0.5885 -1.0086  1.6336
  871MPD2    H212837   2.757   4.349  16.233  2.3738  3.3161 -0.2768
  871MPD2    H312838   2.851   4.201  16.076 -1.8548  2.5066  0.8492
  871MPD2     N12839   3.096   3.996  16.401 -0.0069 -0.4061  0.0610
  871MPD2    H512840   3.121   4.005  16.499 -1.2160  0.0044  0.3317
  871MPD2    N112841   2.830   4.385  16.492 -0.8005  0.1059  0.5174
  871MPD2    H712842   2.752   4.441  16.461  0.3933  1.7176  0.4066
  872MPD2     C12843   3.393   1.962  13.211 -0.0153 -0.4054 -0.6467
  872MPD2    C112844   3.479   1.913  13.311  0.5500 -0.2013 -0.1143
  872MPD2    C212845   3.431   1.825  13.406 -0.3154 -0.2931  0.1561
  872MPD2    C312846   3.303   1.779  13.398 -0.5142  0.1555  0.0854
  872MPD2    C412847   3.224   1.827  13.293 -0.8062  0.2882 -0.0229
  872MPD2    C512848   3.264   1.919  13.199 -0.2983 -0.5519  0.5330
  872MPD2     H12849   3.501   1.804  13.486  0.8145 -1.6949 -1.1891
  872MPD2    H112850   3.125   1.788  13.273 -1.0389  1.6276 -1.4458
  872MPD2    H212851   3.431   2.034  13.139  0.8910  2.8533  3.0866
  872MPD2    H312852   3.209   1.966  13.118  0.3630 -0.5974  0.0679
  872MPD2     N12853   3.252   1.693  13.496  0.0874  0.4377 -0.4732
  872MPD2    H512854   3.154   1.669  13.492  0.1244 -0.0044  0.9024
  872MPD2    N112855   3.616   1.938  13.321  0.1702  0.2933  0.4583
  872MPD2    H712856   3.661   1.901  13.403  2.1909 -0.8201 -1.1485
  873MPD2     C12857   1.094   2.374   0.749  0.0947  0.0808  0.1816
  873MPD2    C112858   0.966   2.370   0.818 -0.4424 -0.3063 -1.0940
  873MPD2    C212859   0.882   2.265   0.787  0.2776 -0.3137  1.5896
  873MPD2    C312860   0.926   2.162   0.709  0.4340  0.2477  0.0407
  873MPD2    C412861   1.050   2.167   0.659 -0.2955  0.0833  0.4589
  873MPD2    C512862   1.138   2.272   0.673  0.6694  0.4323  0.6627
  873MPD2     H12863   0.785   2.260   0.836 -0.9566  0.5896 -0.7801
  873MPD2    H112864   1.089   2.076   0.613 -3.3452 -0.2021 -1.5570
  873MPD2    H212865   1.162   2.458   0.762 -0.0259  0.1962  0.0737
  873MPD2    H312866   1.239   2.264   0.635 -0.1116 -1.4138 -0.9846
  873MPD2     N12867   0.859   2.040   0.696  0.3378  0.2109 -1.3101
  873MPD2    H512868   0.901   1.967   0.640 -1.6614 -0.4933 -1.8641
  873MPD2    N112869   0.918   2.474   0.903  0.0877  0.2264 -0.5989
  873MPD2    H712870   0.827   2.468   0.946  0.6821  2.4209  0.9925
  874MPD2     C12871   0.555   1.980  16.155 -0.1897 -0.2382  0.3256
  874MPD2    C112872   0.621   1.975  16.278  0.4047  0.1753  0.2887
  874MPD2    C212873   0.720   2.070  16.302 -0.5025 -0.0270  0.1181
  874MPD2    C312874   0.755   2.152  16.190 -0.4998 -0.2182 -0.1337
  874MPD2    C412875   0.680   2.156  16.070  0.2559 -0.3417 -0.0903
  874MPD2    C512876   0.578   2.070  16.061 -0.1833 -0.1178 -0.5276
  874MPD2     H12877   0.776   2.068  16.395  0.0303  0.2944 -0.2011
  874MPD2    H112878   0.690   2.220  15.984 -4.8967  0.0446 -0.4277
  874MPD2    H212879   0.494   1.893  16.132 -0.0210 -0.2671 -0.0175
  874MPD2    H312880   0.514   2.078  15.973 -0.7190  1.7952  0.0245
  874MPD2     N12881   0.863   2.240  16.203  0.4169  0.1898 -0.0606
  874MPD2    H512882   0.892   2.263  16.298  1.1845 -1.0725  0.0200
  874MPD2    N112883   0.579   1.874  16.371  0.2475 -0.5272 -0.0535
  874MPD2    H712884   0.511   1.808  16.335  1.3856 -1.8967  0.3280
  875MPD2     C12885   1.574   0.166  14.324  0.1869 -0.2107  0.4766
  875MPD2    C112886   1.454   0.150  14.393  0.3615  0.7332 -0.0538
  875MPD2    C212887   1.454   0.171  14.527  0.0904 -0.6066 -0.6005
  875MPD2    C312888   1.566   0.202  14.599  0.2084 -0.0441  0.2641
  875MPD2    C412889   1.688   0.221  14.533  0.1892 -0.1738 -0.0767
  875MPD2    C512890   1.687   0.206  14.399  0.8610  0.1487 -0.4654
  875MPD2     H12891   1.359   0.155  14.577 -1.1826 -0.9387 -3.1269
  875MPD2    H112892   1.781   0.261  14.573 -1.2641  2.7738  0.3581
  875MPD2    H212893   1.588   0.155  14.217  0.2932 -0.1348  0.4824
  875MPD2    H312894   1.778   0.231  14.345 -0.9178  1.2625 -2.9399
  875MPD2     N12895   1.564   0.249  14.734 -0.5428 -0.4670 -0.0731
  875MPD2    H512896   1.653   0.284  14.767  0.5629 -2.0639 -1.4162
  875MPD2    N112897   1.331   0.113  14.331  0.0065 -0.2785 -0.1802
  875MPD2    H712898   1.252   0.098  14.392 -1.0008 -0.0358 -1.4177
  876MPD2     C12899   0.757   1.915  15.797 -0.3473 -0.1697  0.9481
  876MPD2    C112900   0.720   1.862  15.681 -0.9093 -0.6810  0.0224
  876MPD2    C212901   0.673   1.733  15.675 -0.1534  0.2267  0.2676
  876MPD2    C312902   0.654   1.662  15.792 -0.5247  0.4090 -0.3451
  876MPD2    C412903   0.687   1.719  15.908 -0.6086 -0.2809 -0.0498
  876MPD2    C512904   0.734   1.846  15.913 -0.0174  0.4611 -0.0205
  876MPD2     H12905   0.654   1.687  15.579 -1.1155  1.2493 -0.0378
  876MPD2    H112906   0.681   1.679  16.009  1.5239 -0.5325 -0.0228
  876MPD2    H212907   0.808   2.011  15.795 -0.8085 -0.0021 -2.3186
  876MPD2    H312908   0.763   1.887  16.009 -1.0683 -1.7458  1.2458
  876MPD2     N12909   0.606   1.529  15.779  0.2882  0.0062  0.2171
  876MPD2    H512910   0.608   1.491  15.685 -0.6186 -1.1237  0.6495
  876MPD2    N112911   0.740   1.945  15.565  0.3225 -0.1849 -0.3839
  876MPD2    H712912   0.789   2.031  15.585 -0.1014  0.5226 -2.3619
  877MPD2     C12913   0.337   1.999  14.872 -0.0773 -0.3126 -0.2065
  877MPD2    C112914   0.472   2.008  14.855 -0.6023 -0.3112 -0.5027
  877MPD2    C212915   0.524   1.945  14.742  0.4830 -0.0778  0.1375
  877MPD2    C312916   0.446   1.893  14.643  0.3850  0.6324 -1.0547
  877MPD2    C412917   0.311   1.902  14.658 -0.5979 -0.0988  0.1103
  877MPD2    C512918   0.259   1.940  14.781  0.5242  0.2824  0.3335
  877MPD2     H12919   0.632   1.933  14.737  0.2662 -2.1919  0.3299
  877MPD2    H112920   0.244   1.854  14.587  2.0569  0.6990 -2.9177
  877MPD2    H212921   0.291   2.007  14.970 -0.4061  1.2909 -0.4870
  877MPD2    H312922   0.155   1.920  14.805 -0.1641  1.1505 -1.9204
  877MPD2     N12923   0.499   1.818  14.536 -0.4430 -0.2725 -0.4791
  877MPD2    H512924   0.439   1.777  14.465 -0.5585  0.7160 -0.9562
  877MPD2    N112925   0.562   2.051  14.960 -0.0008  0.4206 -0.0060
  877MPD2    H712926   0.662   2.036  14.951 -0.1390  0.5637 -1.8117
  878MPD2     C12927   4.537   0.915  13.055  0.7398  0.4208 -0.4866
  878MPD2    C112928   4.656   0.986  13.045  1.2841 -0.4735  0.0837
  878MPD2    C212929   4.701   1.046  13.162 -0.0209 -0.0639 -0.0417
  878MPD2    C312930   4.642   1.024  13.286  0.1970  0.5035 -0.0082
  878MPD2    C412931   4.528   0.949  13.294  0.4840  0.7337 -0.0619
  878MPD2    C512932   4.481   0.891  13.180  0.1679  0.5892  0.5583
  878MPD2     H12933   0.056   1.104  13.155 -0.6436  0.6348 -2.3753
  878MPD2    H112934   4.489   0.906  13.386 -1.1075 -3.2544 -2.6055
  878MPD2    H212935   4.490   0.861  12.974  0.1777  1.1312 -0.6266
  878MPD2    H312936   4.396   0.824  13.185  0.5578 -0.0804 -1.8032
  878MPD2     N12937   4.701   1.085  13.392 -0.0905  0.6272  0.4760
  878MPD2    H512938   0.052   1.137  13.378  0.0277  0.3673  0.2445
  878MPD2    N112939   4.721   0.999  12.924  0.2716  0.5305 -0.2813
  878MPD2    H712940   4.663   0.956  12.852 -3.1564  1.3865  1.9482
  879MPD2     C12941   1.117   2.039  17.222 -0.9599  0.1209  0.0593
  879MPD2    C112942   1.058   2.159  17.197  0.4667 -0.0816 -0.3296
  879MPD2    C212943   0.969   2.164  17.086  0.4139 -0.3025 -0.1851
  879MPD2    C312944   0.912   2.051  17.034 -0.5547  0.5829  1.0380
  879MPD2    C412945   0.958   1.935  17.093 -0.1090 -0.7606 -0.5691
  879MPD2    C512946   1.066   1.927  17.177  0.1505 -0.3246  0.0892
  879MPD2     H12947   0.942   2.262  17.048  0.2580 -1.2440 -2.5049
  879MPD2    H112948   0.906   1.843  17.069 -1.8048  0.4246 -1.4712
  879MPD2    H212949   1.192   2.042  17.301  1.1375  0.6760 -1.9378
  879MPD2    H312950   1.109   1.832  17.205 -2.9796 -0.9471  2.6562
  879MPD2     N12951   0.805   2.043  16.939 -0.0125  0.0673  0.1182
  879MPD2    H512952   0.776   1.950  16.912  1.7258 -0.4174 -0.0476
  879MPD2    N112953   1.081   2.281  17.264 -0.2664  0.8057  0.3410
  879MPD2    H712954   1.046   2.361  17.213 -0.4802 -0.0881 -0.9208
  880MPD2     C12955   1.624   4.076   0.279  0.0530 -0.4361 -0.9981
  880MPD2    C112956   1.712   4.147   0.199  0.3878 -0.0908 -0.2549
  880MPD2    C212957   1.847   4.131   0.216 -0.0951  0.5953  0.1899
  880MPD2    C312958   1.904   4.045   0.306  0.3056  0.7236  0.1563
  880MPD2    C412959   1.820   3.969   0.384  0.0133  0.7860 -0.4612
  880MPD2    C512960   1.683   3.985   0.369 -0.1386 -0.0275 -0.0088
  880MPD2     H12961   1.914   4.191   0.155  0.9316 -2.8440 -2.0744
  880MPD2    H112962   1.853   3.882   0.439  1.7715  0.2712 -2.3265
  880MPD2    H212963   1.518   4.097   0.281  0.1784  0.6019 -4.4200
  880MPD2    H312964   1.621   3.919   0.427 -0.7558  0.6140  0.0546
  880MPD2     N12965   2.040   4.041   0.308 -0.1461 -0.5477  0.3658
  880MPD2    H512966   2.086   4.103   0.242  0.3017 -1.0430  0.2108
  880MPD2    N112967   1.665   4.261   0.121  0.6922 -0.0278 -0.1399
  880MPD2    H712968   1.564   4.277   0.122  0.6388 -0.3962  1.2217
  881MPD2     C12969   1.881   0.440  17.288  0.0476 -0.5486 -0.3517
  881MPD2    C112970   1.877   0.306  17.245  0.2096  0.3177 -0.0205
  881MPD2    C212971   1.828   0.213  17.334 -0.0868  0.3449 -0.2248
  881MPD2    C312972   1.799   0.238  17.466 -0.0513 -0.1634  0.8429
  881MPD2    C412973   1.824   0.369  17.514 -0.6580 -0.3775 -0.0442
  881MPD2    C512974   1.875   0.458  17.425  0.0867 -0.2397  0.2103
  881MPD2     H12975   1.828   0.110  17.298 -0.9328  0.4742 -0.6059
  881MPD2    H112976   1.817   0.392  17.620 -0.5650  1.7708 -0.4980
  881MPD2    H212977   1.919   0.518  17.224 -1.5795 -1.5102 -2.4821
  881MPD2    H312978   1.890   0.551  17.478  2.1700 -1.0924  1.0812
  881MPD2     N12979   1.753   0.135  17.551  0.7274 -0.1279  0.6050
  881MPD2    H512980   1.703   0.170  17.632 -2.6681 -3.5985  0.0191
  881MPD2    N112981   1.859   0.296  17.110  0.6107  0.1193  0.8347
  881MPD2    H712982   1.859   0.382  17.055  1.8485 -0.2268  0.2959
  882MPD2     C12983   0.374   1.568  13.748 -0.4919  0.4822  0.0021
  882MPD2    C112984   0.349   1.621  13.863  0.5984 -0.3113  0.3023
  882MPD2    C212985   0.215   1.659  13.889 -0.3386  0.4006 -0.6597
  882MPD2    C312986   0.119   1.623  13.792  0.1673 -0.3837 -0.1574
  882MPD2    C412987   0.149   1.551  13.683  0.0089  0.3393  0.5557
  882MPD2    C512988   0.278   1.529  13.662  0.3329 -0.2396 -0.0085
  882MPD2     H12989   0.192   1.696  13.988 -1.8475 -2.1325 -0.0849
  882MPD2    H112990   0.076   1.521  13.608 -0.7469  0.9518  1.0318
  882MPD2    H212991   0.473   1.541  13.714 -1.4277 -1.6161 -1.1154
  882MPD2    H312992   0.303   1.467  13.577  3.4472  0.0900  0.6383
  882MPD2     N12993   4.714   1.647  13.814 -0.1779 -0.1416  0.6133
  882MPD2    H512994   4.643   1.609  13.753 -0.6696  1.5865  0.1356
  882MPD2    N112995   0.447   1.626  13.960  0.1074 -1.0019  0.4033
  882MPD2    H712996   0.529   1.568  13.944  0.9097  0.5086 -0.8808
  883MPD2     C12997   2.403   1.919  15.946  0.2584  0.1651  0.0013
  883MPD2    C112998   2.474   1.994  15.852 -0.6743  0.7720  0.4890
  883MPD2    C212999   2.539   2.108  15.888 -0.2784 -0.2841 -1.4075
  883MPD2    C313000   2.551   2.134  16.019  0.0193  0.4608 -0.5986
  883MPD2    C413001   2.520   2.040  16.111 -0.5257  0.0187 -0.2074
  883MPD2    C513002   2.445   1.934  16.074 -0.6627 -0.4078 -0.0920
  883MPD2     H13003   2.568   2.183  15.816 -0.0651  0.4055 -0.5980
  883MPD2    H113004   2.549   2.036  16.215  3.0437 -1.7835 -1.2770
  883MPD2    H213005   2.339   1.833  15.925 -1.1473  0.6123  2.4621
  883MPD2    H313006   2.418   1.855  16.143 -0.3422 -0.7838 -0.3975
  883MPD2     N13007   2.616   2.254  16.053  0.1102  0.0026 -0.8582
  883MPD2    H513008   2.644   2.303  15.969 -0.7143 -0.6813 -1.5429
  883MPD2    N113009   2.438   1.984  15.717  0.1447 -0.2474  0.4680
  883MPD2    H713010   2.479   2.049  15.651  0.5334  0.2315  1.1864
  884MPD2     C13011   4.235   2.540  15.261 -0.0064  0.0204  0.3993
  884MPD2    C113012   4.197   2.659  15.189  0.1306  0.5871  0.5706
  884MPD2    C213013   4.063   2.687  15.181 -0.0723  0.1675 -0.3021
  884MPD2    C313014   3.966   2.600  15.219  0.0461 -0.4591 -0.2005
  884MPD2    C413015   4.004   2.483  15.285 -0.4416  0.3755  0.0812
  884MPD2    C513016   4.141   2.455  15.309  0.9596 -0.5239  0.1289
  884MPD2     H13017   4.027   2.770  15.122  1.2776 -0.9456 -2.6766
  884MPD2    H113018   3.928   2.422  15.332  1.0291 -1.3217  0.2595
  884MPD2    H213019   4.338   2.507  15.274  0.4985  0.7862 -1.5286
  884MPD2    H313020   4.157   2.361  15.360  0.5020  0.5377  2.2227
  884MPD2     N13021   3.831   2.633  15.193 -0.2837  0.7303  0.0952
  884MPD2    H513022   3.824   2.723  15.146  0.1773 -0.4747 -2.2913
  884MPD2    N113023   4.288   2.750  15.128 -0.5691 -0.0545 -0.5414
  884MPD2    H713024   4.241   2.822  15.074 -0.2316 -0.8179 -1.8688
  885MPD2     C13025   2.385   3.201   0.353 -0.4262 -0.5918 -0.4579
  885MPD2    C113026   2.484   3.122   0.298  0.6649 -0.0953 -0.7419
  885MPD2    C213027   2.479   3.094   0.164 -0.1544  0.0470 -0.3864
  885MPD2    C313028   2.370   3.134   0.077  0.0747  0.4743  0.3456
  885MPD2    C413029   2.277   3.217   0.141 -0.1030 -0.5502  0.2661
  885MPD2    C513030   2.287   3.248   0.275  0.2601 -0.8020 -0.0547
  885MPD2     H13031   2.566   3.048   0.118 -1.0599  0.5301 -2.5668
  885MPD2    H113032   2.201   3.269   0.085 -2.3105 -3.7465  0.3328
  885MPD2    H213033   2.387   3.233   0.457 -2.6401 -2.1115  0.0338
  885MPD2    H313034   2.215   3.310   0.326  0.5626 -0.4841 -0.0183
  885MPD2     N13035   2.373   3.102  17.679 -0.0220  0.3202 -0.2337
  885MPD2    H513036   2.451   3.055  17.635 -0.8017  0.3984 -1.7016
  885MPD2    N113037   2.579   3.061   0.383  0.1361  0.1200 -0.0915
  885MPD2    H713038   2.570   3.080   0.483 -0.8704 -0.8164  0.0009
  886MPD2     C13039   4.185   0.958  15.127 -0.4739  0.5085 -0.3990
  886MPD2    C113040   4.196   1.033  15.245 -0.1672 -0.2422  0.2045
  886MPD2    C213041   4.163   1.168  15.235  0.2449  0.5926  0.4369
  886MPD2    C313042   4.125   1.225  15.118 -0.3072 -0.1499  0.6908
  886MPD2    C413043   4.109   1.157  15.002 -0.2268  0.0318 -0.1292
  886MPD2    C513044   4.145   1.022  15.009  0.6694  0.9812 -0.4575
  886MPD2     H13045   4.158   1.229  15.325  1.6164 -1.2988  1.8006
  886MPD2    H113046   4.070   1.196  14.909  1.2763  0.4633 -0.5776
  886MPD2    H213047   4.219   0.856  15.116  1.3764  1.0335  0.5160
  886MPD2    H313048   4.133   0.956  14.924 -1.4160 -1.3524  1.6578
  886MPD2     N13049   4.101   1.364  15.098 -0.1715  0.1381  0.2388
  886MPD2    H513050   4.093   1.390  15.000 -0.9383 -1.7506 -0.1896
  886MPD2    N113051   4.243   0.974  15.367 -0.2225 -0.2719  0.1760
  886MPD2    H713052   4.256   1.041  15.442 -0.8856 -1.5746  1.4329
  887MPD2     C13053   4.546   1.154  16.012 -0.5479  0.8143  0.8563
  887MPD2    C113054   4.510   1.183  15.885  0.9201  0.4797 -0.1693
  887MPD2    C213055   4.521   1.316  15.843  0.2564 -1.1635  0.2651
  887MPD2    C313056   4.562   1.420  15.926 -0.0693  0.4011 -0.0177
  887MPD2    C413057   4.591   1.386  16.057  0.0980 -0.3924 -0.1201
  887MPD2    C513058   4.589   1.252  16.097  0.4184  0.0862 -0.5018
  887MPD2     H13059   4.502   1.338  15.738 -0.0129 -2.1252  0.1119
  887MPD2    H113060   4.617   1.455  16.137  0.7339  1.2270 -1.7322
  887MPD2    H213061   4.536   1.058  16.060  1.0795  0.4986  0.5833
  887MPD2    H313062   4.617   1.227  16.198 -0.9325  0.8672  0.0671
  887MPD2     N13063   4.566   1.552  15.870 -0.2034  0.2138  0.5747
  887MPD2    H513064   4.540   1.567  15.773 -0.7093  0.2415  0.7121
  887MPD2    N113065   4.473   1.080  15.789  0.1529  0.3346 -0.4809
  887MPD2    H713066   4.454   1.108  15.694 -1.9436 -0.6999 -0.3765
  888MPD2     C13067   1.487   1.002  14.965  0.1739  0.1622 -0.1719
  888MPD2    C113068   1.388   1.059  15.039 -0.3464 -0.2920 -0.5174
  888MPD2    C213069   1.342   1.184  15.010 -0.4847 -0.3554 -0.2367
  888MPD2    C313070   1.400   1.261  14.909 -0.0011  0.2336 -0.2794
  888MPD2    C413071   1.518   1.213  14.859  0.1501  0.5607 -0.2322
  888MPD2    C513072   1.557   1.084  14.884 -0.1470  0.3259 -0.0235
  888MPD2     H13073   1.256   1.232  15.055 -0.1526 -0.0621  0.0802
  888MPD2    H113074   1.571   1.268  14.782  0.3288 -0.5648 -0.9166
  888MPD2    H213075   1.526   0.903  14.988  2.3014  0.5722 -2.0743
  888MPD2    H313076   1.634   1.044  14.819 -0.1237  0.3467 -0.0089
  888MPD2     N13077   1.360   1.393  14.886 -0.2593 -0.3754 -0.6180
  888MPD2    H513078   1.295   1.424  14.958  0.0975  0.6744 -0.7446
  888MPD2    N113079   1.323   0.968  15.123  0.3353 -0.7881 -0.6519
  888MPD2    H713080   1.352   0.871  15.126 -0.0475 -0.9569 -2.1727
  889MPD2     C13081   0.649   0.782  12.383  0.3927 -0.0727  0.1215
  889MPD2    C113082   0.734   0.744  12.484 -0.2006 -0.3518 -0.5838
  889MPD2    C213083   0.727   0.802  12.610 -0.6619 -0.3382 -0.0579
  889MPD2    C313084   0.635   0.903  12.631 -0.1408  0.9025 -0.0741
  889MPD2    C413085   0.530   0.920  12.539  0.3593  0.3152  0.0887
  889MPD2    C513086   0.540   0.865  12.418  0.8570 -0.2227 -0.5998
  889MPD2     H13087   0.782   0.768  12.697  1.1493  0.4826 -0.8857
  889MPD2    H113088   0.441   0.976  12.568  0.9309  0.4314  1.6436
  889MPD2    H213089   0.645   0.727  12.290  0.5774  0.9678 -0.4933
  889MPD2    H313090   0.475   0.897  12.338  1.4191  0.2440 -0.8673
  889MPD2     N13091   0.645   0.972  12.754  0.3153 -0.3666 -0.0556
  889MPD2    H513092   0.719   0.933  12.810 -0.6323 -0.0114  1.4487
  889MPD2    N113093   0.790   0.612  12.458  0.2579  0.3891 -0.7258
  889MPD2    H713094   0.772   0.574  12.366  1.0368 -1.2625 -0.1879
  890MPD2     C13095   0.015   2.652  14.596 -0.9163 -0.2884  0.1300
  890MPD2    C113096   0.132   2.727  14.592 -0.0292 -0.4434  0.5275
  890MPD2    C213097   0.218   2.737  14.707  0.2981  0.4479  0.2655
  890MPD2    C313098   0.184   2.655  14.810  0.5161 -0.3434 -0.2343
  890MPD2    C413099   0.068   2.576  14.809 -0.8118 -0.0868 -0.4738
  890MPD2    C513100   4.713   2.580  14.707 -0.6854 -0.4644 -1.1283
  890MPD2     H13101   0.307   2.799  14.700 -0.8847  2.2395  1.3475
  890MPD2    H113102   0.041   2.508  14.890 -0.7996  0.2647 -0.1740
  890MPD2    H213103   4.681   2.646  14.513 -0.2828 -2.2382 -0.2661
  890MPD2    H313104   4.620   2.523  14.716  0.1102 -1.3627  1.5945
  890MPD2     N13105   0.263   2.669  14.928 -0.3143  0.1619  0.0803
  890MPD2    H513106   0.348   2.723  14.916 -0.2007  0.0393  0.3326
  890MPD2    N113107   0.180   2.797  14.479 -0.9171  0.2164  0.1904
  890MPD2    H713108   0.271   2.840  14.489 -0.1014 -1.6782  0.8835
  891MPD2     C13109   3.789   1.347  16.298  0.0434 -0.3122  0.4394
  891MPD2    C113110   3.683   1.289  16.356 -0.0823  0.3349  0.2422
  891MPD2    C213111   3.699   1.183  16.444 -0.1237 -0.5298  0.0563
  891MPD2    C313112   3.825   1.133  16.471 -0.1808 -0.0438  0.3816
  891MPD2    C413113   3.936   1.201  16.418 -0.4656 -0.1004  0.9957
  891MPD2    C513114   3.917   1.309  16.338  0.3294 -0.4051 -0.4052
  891MPD2     H13115   3.609   1.134  16.479  1.1150 -2.7417  0.1101
  891MPD2    H113116   4.039   1.178  16.444  0.4220 -0.3069 -2.7152
  891MPD2    H213117   3.776   1.426  16.225 -0.6648  0.0703  0.9767
  891MPD2    H313118   3.999   1.347  16.278 -0.0105 -0.6967 -1.0559
  891MPD2     N13119   3.840   1.013  16.542 -0.5864 -0.1685 -0.3612
  891MPD2    H513120   3.752   0.981  16.579  0.3598 -2.7788 -0.3780
  891MPD2    N113121   3.558   1.354  16.323  0.8697  0.0758  0.1042
  891MPD2    H713122   3.565   1.429  16.256  1.2229  0.4763  0.5870
  892MPD2     C13123   4.308   1.974  14.664 -0.5631  0.3579  0.4147
  892MPD2    C113124   4.204   1.969  14.573 -0.3889 -0.6075 -0.0579
  892MPD2    C213125   4.229   1.952  14.445  0.5553  0.5158  0.2560
  892MPD2    C313126   4.353   1.928  14.387 -0.1501 -0.8036  0.2976
  892MPD2    C413127   4.457   1.931  14.477 -0.8147  0.0095  0.0287
  892MPD2    C513128   4.434   1.965  14.610  0.5633 -0.0311  0.2491
  892MPD2     H13129   4.147   1.947  14.374  0.2980  1.7583  0.4628
  892MPD2    H113130   4.560   1.909  14.453 -1.0838 -1.2317 -0.0125
  892MPD2    H213131   4.304   1.980  14.772  2.5745 -0.1690  0.5403
  892MPD2    H313132   4.516   1.953  14.680 -0.0842 -0.5361  0.9185
  892MPD2     N13133   4.379   1.904  14.248  0.2742  0.1100 -0.2626
  892MPD2    H513134   4.476   1.891  14.223  0.2369  2.6061 -1.7100
  892MPD2    N113135   4.067   1.982  14.607  0.2325  0.4104 -0.3399
  892MPD2    H713136   3.999   1.987  14.532  1.7763 -2.2559 -1.9332
  893MPD2     C13137   1.405   1.203   0.743 -0.0457  0.4778 -0.4434
  893MPD2    C113138   1.402   1.162   0.874  0.4630  0.0323  0.5700
  893MPD2    C213139   1.277   1.113   0.920 -0.4506 -0.0036  0.2725
  893MPD2    C313140   1.159   1.132   0.845  0.3999  0.4192  0.1298
  893MPD2    C413141   1.166   1.193   0.721 -0.0709  0.7348  0.0945
  893MPD2    C513142   1.295   1.218   0.671 -0.0656  0.0758 -0.3615
  893MPD2     H13143   1.287   1.061   1.015  0.1262 -1.1485 -0.4065
  893MPD2    H113144   1.079   1.217   0.661  0.2268  0.6339 -0.3822
  893MPD2    H213145   1.503   1.233   0.709  0.2207 -2.0745 -1.8955
  893MPD2    H313146   1.297   1.258   0.571 -3.1547 -0.2964 -0.5831
  893MPD2     N13147   1.036   1.103   0.906  0.4531 -0.2007  0.5433
  893MPD2    H513148   0.950   1.140   0.867  0.2461  0.9813  2.1431
  893MPD2    N113149   1.522   1.155   0.945  0.2861 -0.1047  0.4559
  893MPD2    H713150   1.602   1.188   0.891  0.5700  2.4625  2.4779
  894MPD2     C13151   4.230   3.847   0.866 -0.3594  0.3025  0.0090
  894MPD2    C113152   4.317   3.869   0.973 -0.4736  0.4246 -0.0210
  894MPD2    C213153   4.384   3.990   0.991 -0.1382  0.4268  0.0820
  894MPD2    C313154   4.359   4.094   0.900 -0.1349  0.4706  0.4094
  894MPD2    C413155   4.275   4.065   0.799 -0.9194  0.1615 -0.4430
  894MPD2    C513156   4.223   3.948   0.773  0.4304 -0.2661 -0.1653
  894MPD2     H13157   4.441   4.013   1.080 -1.2388 -0.0929  0.9079
  894MPD2    H113158   4.237   4.135   0.726 -0.5802  0.7615 -0.0354
  894MPD2    H213159   4.172   3.760   0.841  3.0053 -1.8913 -0.1921
  894MPD2    H313160   4.171   3.938   0.678 -0.3894 -0.3497  0.2917
  894MPD2     N13161   4.412   4.227   0.925  0.2764  0.1102  0.6218
  894MPD2    H513162   4.478   4.238   1.001  0.7129  1.4411  0.0649
  894MPD2    N113163   4.316   3.762   1.062 -0.0539 -0.7297 -0.3755
  894MPD2    H713164   4.267   3.678   1.033 -0.6622 -0.6612  0.4403
  895MPD2     C13165   3.367   1.184  13.689 -1.5424 -0.2248 -0.3088
  895MPD2    C113166   3.297   1.088  13.621  0.3858 -0.0032 -0.4341
  895MPD2    C213167   3.375   0.987  13.570  0.7182 -0.2566 -0.0960
  895MPD2    C313168   3.507   0.971  13.603  0.1043  0.2374 -0.1328
  895MPD2    C413169   3.570   1.059  13.685  0.7343  0.0366 -0.5260
  895MPD2    C513170   3.499   1.168  13.733  0.1901  0.0628 -1.1581
  895MPD2     H13171   3.326   0.906  13.518  1.2768 -0.9880  0.5126
  895MPD2    H113172   3.671   1.048  13.721  0.7628  1.3160 -0.2160
  895MPD2    H213173   3.308   1.259  13.740 -0.6255 -0.1532  0.6555
  895MPD2    H313174   3.548   1.240  13.799  0.3526 -1.6973  0.6344
  895MPD2     N13175   3.576   0.855  13.568  0.2220  0.3583 -0.1038
  895MPD2    H513176   3.662   0.827  13.614  0.6320  1.6550 -0.0815
  895MPD2    N113177   3.157   1.086  13.595  0.7729  1.0444  0.1325
  895MPD2    H713178   3.126   1.008  13.538 -0.8640  0.4293  1.8710
  896MPD2     C13179   1.374   4.385   1.216 -0.3418 -0.4436  0.0773
  896MPD2    C113180   1.313   4.293   1.135  0.4044  0.2355 -0.0365
  896MPD2    C213181   1.174   4.287   1.144 -0.7979 -0.5798  0.2823
  896MPD2    C313182   1.107   4.374   1.226  0.0079 -0.3486  0.3325
  896MPD2    C413183   1.170   4.453   1.315  0.3030 -0.2135  0.2223
  896MPD2    C513184   1.308   4.458   1.310 -0.5756  0.1061  0.1315
  896MPD2     H13185   1.118   4.223   1.077  0.9703 -0.6634 -1.1008
  896MPD2    H113186   1.116   4.517   1.383  2.7643  1.5681  0.4853
  896MPD2    H213187   1.481   4.401   1.213 -0.3787 -0.4180 -1.2689
  896MPD2    H313188   1.361   4.520   1.381  0.6291 -1.2999  0.4728
  896MPD2     N13189   0.962   4.356   1.220 -0.6451  0.0926  0.5483
  896MPD2    H513190   0.932   4.268   1.179 -2.8737  0.6921  0.9013
  896MPD2    N113191   1.396   4.226   1.043 -0.1106  0.2196  0.5698
  896MPD2    H713192   1.496   4.242   1.044 -0.1789  0.6996  0.0367
  897MPD2     C13193   2.217   0.698  10.720  0.3766 -0.2392 -0.7709
  897MPD2    C113194   2.178   0.612  10.617  0.3380 -0.4849  0.1936
  897MPD2    C213195   2.055   0.551  10.619  0.4775 -0.3218 -0.2252
  897MPD2    C313196   1.981   0.556  10.736  0.1253 -0.7104  0.2336
  897MPD2    C413197   2.015   0.639  10.836  0.7851 -0.3359  1.1274
  897MPD2    C513198   2.133   0.705  10.826 -0.0322 -0.7636 -0.0587
  897MPD2     H13199   2.034   0.467  10.554 -1.4552 -0.7944  1.0107
  897MPD2    H113200   1.954   0.651  10.925 -1.3503 -2.2851 -0.0434
  897MPD2    H213201   2.312   0.750  10.725  1.0674 -1.5754 -0.0333
  897MPD2    H313202   2.149   0.785  10.897  1.8950 -1.5735  0.3936
  897MPD2     N13203   1.872   0.469  10.750 -0.4727  0.0659 -0.4904
  897MPD2    H513204   1.826   0.428  10.669 -0.0667 -2.7514  0.7179
  897MPD2    N113205   2.272   0.598  10.516  0.3179 -0.0222 -0.1298
  897MPD2    H713206   2.361   0.647  10.521 -0.0122  0.2479  2.7969
  898MPD2     C13207   3.434   1.801  17.537  0.3855 -0.3705 -0.0810
  898MPD2    C113208   3.559   1.798  17.576 -0.6423 -0.0903 -0.2317
  898MPD2    C213209   3.628   1.913  17.588  0.3347 -0.4189  0.1633
  898MPD2    C313210   3.576   2.033  17.553 -0.0425  0.2063  0.0284
  898MPD2    C413211   3.441   2.043  17.515 -0.6448  0.4262  1.1041
  898MPD2    C513212   3.370   1.918  17.513  0.0854 -0.2737  0.1885
  898MPD2     H13213   3.733   1.907  17.616  0.6664  1.5511 -0.6799
  898MPD2    H113214   3.390   2.133  17.483  1.6536  0.9871 -0.9759
  898MPD2    H213215   3.362   1.720  17.531 -1.2164  0.9475  1.5103
  898MPD2    H313216   3.267   1.907  17.483  0.3437 -0.8048 -0.5082
  898MPD2     N13217   3.665   2.141  17.549 -0.1566 -0.1707  0.3006
  898MPD2    H513218   3.759   2.133  17.586 -0.3736  1.8182  1.3256
  898MPD2    N113219   3.628   1.678  17.606  0.1236 -0.4769  0.2794
  898MPD2    H713220   3.728   1.685  17.620  0.1549 -0.3249 -0.0258
  899MPD2     C13221   0.393   2.594  17.606 -0.1619 -0.3257 -0.0629
  899MPD2    C113222   0.277   2.655  17.563 -0.4856  0.0657  0.1752
  899MPD2    C213223   0.158   2.637  17.636 -0.0670  0.0682 -0.2440
  899MPD2    C313224   0.160   2.561   0.017 -0.3271 -0.0776  0.0635
  899MPD2    C413225   0.277   2.501   0.058 -0.1177  0.3796 -0.1591
  899MPD2    C513226   0.390   2.516  17.723  1.1668  0.5476 -0.2622
  899MPD2     H13227   0.060   2.668  17.602 -1.4169 -2.0214  1.7548
  899MPD2    H113228   0.288   2.447   0.152  0.7470  1.8148  0.5684
  899MPD2    H213229   0.491   2.593  17.560 -0.3772 -0.4237 -0.5196
  899MPD2    H313230   0.484   2.471   0.013 -0.0586 -1.3219  0.8183
  899MPD2     N13231   0.052   2.537   0.102 -0.8910 -1.3227 -0.0902
  899MPD2    H513232   0.075   2.494   0.191 -0.2672  0.5023  0.6286
  899MPD2    N113233   0.273   2.736  17.446  0.0968 -0.3393  0.4214
  899MPD2    H713234   0.359   2.753  17.395  0.3631 -1.3290  0.5361
  900MPD2     C13235   4.487   3.691  12.341 -0.5544  0.1974  0.2484
  900MPD2    C113236   4.454   3.562  12.344  0.2999  0.7474 -0.2387
  900MPD2    C213237   4.320   3.525  12.353 -0.4601  0.0511 -0.5425
  900MPD2    C313238   4.221   3.615  12.350  0.3387  0.3559  0.4035
  900MPD2    C413239   4.257   3.746  12.334  0.5027 -0.2691 -0.2542
  900MPD2    C513240   4.386   3.789  12.343 -0.8510  0.1687 -0.8463
  900MPD2     H13241   4.296   3.419  12.357  0.7436 -0.1394  1.6016
  900MPD2    H113242   4.181   3.823  12.342  1.5938  0.7861 -0.0978
  900MPD2    H213243   4.590   3.724  12.332  0.1403 -2.0185  0.2406
  900MPD2    H313244   4.406   3.894  12.325 -0.2174  0.6666  2.7695
  900MPD2     N13245   4.083   3.568  12.351 -0.5258 -0.4239  0.5855
  900MPD2    H513246   4.064   3.471  12.375  0.7852 -0.5248  1.1720
  900MPD2    N113247   4.564   3.471  12.334  0.5622  0.4700 -0.1993
  900MPD2    H713248   4.656   3.504  12.308 -0.5669  1.7997 -2.4694
  901MPD2     C13249   0.344   2.610  12.776 -0.0517 -0.9800  0.0300
  901MPD2    C113250   0.291   2.582  12.652 -0.6712 -1.0504  0.1705
  901MPD2    C213251   0.231   2.680  12.579 -0.0736 -0.0067  0.0419
  901MPD2    C313252   0.215   2.812  12.621  0.1622  0.7468 -0.3753
  901MPD2    C413253   0.259   2.839  12.745 -0.4269  0.3343 -0.0146
  901MPD2    C513254   0.311   2.740  12.817 -0.6154 -0.2373 -0.3138
  901MPD2     H13255   0.174   2.656  12.490  0.1735  1.6961 -0.5819
  901MPD2    H113256   0.242   2.937  12.788  1.2592  1.0669 -1.0431
  901MPD2    H213257   0.397   2.543  12.842  3.2470  1.0006 -0.6138
  901MPD2    H313258   0.338   2.776  12.916  1.1875 -3.3561  0.3266
  901MPD2     N13259   0.149   2.901  12.541  0.4433  0.7306 -0.0927
  901MPD2    H513260   0.117   2.867  12.451  2.7343 -0.6521 -0.3960
  901MPD2    N113261   0.292   2.443  12.612 -0.5400  0.4204  0.1499
  901MPD2    H713262   0.319   2.373  12.680  2.3807  2.2431  0.8350
  902MPD2     C13263   4.132   1.684  12.025 -0.8379  0.4604 -0.3112
  902MPD2    C113264   4.008   1.642  12.041 -0.1766 -0.5026 -0.0057
  902MPD2    C213265   3.981   1.523  12.111  0.7069  0.3503  0.1815
  902MPD2    C313266   4.087   1.437  12.147 -0.0750  0.3035  1.0488
  902MPD2    C413267   4.215   1.492  12.131 -0.4423 -0.1252 -0.1418
  902MPD2    C513268   4.236   1.618  12.079 -0.6918 -0.1540 -0.1474
  902MPD2     H13269   3.879   1.485  12.117  1.3877 -1.2606  1.4334
  902MPD2    H113270   4.304   1.440  12.163 -0.9610 -0.7909  0.2241
  902MPD2    H213271   4.149   1.777  11.971 -0.9916  0.0704 -1.0211
  902MPD2    H313272   4.341   1.643  12.074 -1.1962  1.9484 -0.2946
  902MPD2     N13273   4.080   1.308  12.207 -0.3916  0.4199 -0.0720
  902MPD2    H513274   4.169   1.260  12.218  0.4204  1.8582 -0.3058
  902MPD2    N113275   3.892   1.713  11.994  0.2320 -0.2968 -0.5398
  902MPD2    H713276   3.801   1.667  11.997  0.5609 -0.8803  0.6659
  903MPD2     C13277   3.593   0.568  12.420  0.2969  0.1470 -0.0123
  903MPD2    C113278   3.577   0.679  12.338  0.1646 -0.6941 -0.6853
  903MPD2    C213279   3.454   0.697  12.285 -0.7673 -0.0431  0.1741
  903MPD2    C313280   3.346   0.608  12.305 -0.7269  0.3709 -0.0901
  903MPD2    C413281   3.366   0.498  12.387  0.3414 -0.3869 -0.0200
  903MPD2    C513282   3.496   0.475  12.438 -0.2646  0.4763  0.0401
  903MPD2     H13283   3.446   0.772  12.207 -0.5191 -1.2884 -1.0489
  903MPD2    H113284   3.282   0.444  12.431  0.2258  0.1927  0.4870
  903MPD2    H213285   3.693   0.551  12.460  0.3851  0.6241 -0.0210
  903MPD2    H313286   3.525   0.395  12.505 -2.4519  0.2225  0.6972
  903MPD2     N13287   3.216   0.621  12.247 -0.1132  0.0731  0.6472
  903MPD2    H513288   3.144   0.553  12.269 -0.9813  0.8124  0.0776
  903MPD2    N113289   3.683   0.766  12.311 -0.0589 -0.1208  0.1164
  903MPD2    H713290   3.774   0.741  12.350  1.6993  3.7252 -1.4818
  904MPD2     C13291   3.123   0.672  13.842  0.6695 -0.0143  0.3945
  904MPD2    C113292   3.106   0.676  13.980 -0.5215  0.4457 -0.5936
  904MPD2    C213293   3.220   0.703  14.053  0.3041 -0.2171  0.2840
  904MPD2    C313294   3.341   0.738  14.003  0.0353  0.6162 -0.1608
  904MPD2    C413295   3.351   0.759  13.869  0.6967  0.1515 -0.2036
  904MPD2    C513296   3.250   0.714  13.790  0.6368 -0.0083  0.0866
  904MPD2     H13297   3.216   0.695  14.161  1.9550  1.5634  0.4708
  904MPD2    H113298   3.443   0.790  13.821  0.4231  0.3704 -0.5878
  904MPD2    H213299   3.050   0.635  13.772  0.0721  1.6992  0.1195
  904MPD2    H313300   3.269   0.722  13.684 -0.1718  0.7761  0.0042
  904MPD2     N13301   3.451   0.758  14.093  0.1473  0.0441  0.3439
  904MPD2    H513302   3.435   0.736  14.191 -1.9381  0.7297  0.1563
  904MPD2    N113303   2.989   0.650  14.047  0.6951  0.1696  0.6159
  904MPD2    H713304   3.009   0.634  14.145 -0.5413  1.7539  1.1414
  905MPD2     C13305   2.761   0.361  13.468  0.3453  0.9450  0.0615
  905MPD2    C113306   2.825   0.483  13.493  0.6062  0.0356  0.5263
  905MPD2    C213307   2.963   0.494  13.467 -0.1715  0.6859 -0.3096
  905MPD2    C313308   3.032   0.378  13.421 -0.1523 -0.1730  0.7266
  905MPD2    C413309   2.963   0.265  13.386  0.8664 -0.3656 -0.1072
  905MPD2    C513310   2.830   0.252  13.424 -0.4343 -0.9525  0.1236
  905MPD2     H13311   3.018   0.585  13.485  1.5814 -0.4657  0.1550
  905MPD2    H113312   3.012   0.182  13.337  1.4597 -0.3676  0.4847
  905MPD2    H213313   2.653   0.351  13.479  0.3864  1.0027  0.5495
  905MPD2    H313314   2.765   0.165  13.413 -0.5990 -0.5818 -1.8433
  905MPD2     N13315   3.174   0.376  13.395 -0.5166  0.2006  0.0028
  905MPD2    H513316   3.214   0.283  13.384  0.0785  0.3955  0.5341
  905MPD2    N113317   2.755   0.581  13.558 -0.4822  0.0491  0.6129
  905MPD2    H713318   2.663   0.555  13.591 -0.5121 -0.3210  0.2419
  906MPD2     C13319   0.851   0.688  11.073  0.6064  0.7517  0.0090
  906MPD2    C113320   0.757   0.647  10.983  0.2783 -0.0046  0.4815
  906MPD2    C213321   0.679   0.537  11.013  0.6554 -0.0220 -0.2774
  906MPD2    C313322   0.683   0.468  11.131 -0.3591 -0.1923 -0.3652
  906MPD2    C413323   0.779   0.509  11.226 -0.0242 -0.6828  0.1003
  906MPD2    C513324   0.859   0.621  11.196 -0.0848  0.3707 -0.2110
  906MPD2     H13325   0.601   0.514  10.940  1.2307  0.6530 -1.1027
  906MPD2    H113326   0.782   0.456  11.321  1.1834 -0.8637 -0.0389
  906MPD2    H213327   0.917   0.772  11.052  3.1762 -1.1939  0.2590
  906MPD2    H313328   0.932   0.660  11.265 -2.2927 -1.0336  2.9325
  906MPD2     N13329   0.595   0.364  11.164 -0.1058 -0.4830 -0.4959
  906MPD2    H513330   0.616   0.305  11.243  0.5540 -0.3384 -0.5620
  906MPD2    N113331   0.750   0.717  10.856  0.0958 -0.5252  0.5715
  906MPD2    H713332   0.836   0.760  10.825 -1.3305  1.9214  0.0255
  907MPD2     C13333   4.226   4.717  15.648 -0.3598 -0.6551  0.2999
  907MPD2    C113334   4.243   4.588  15.591  0.3346 -0.6789 -0.3716
  907MPD2    C213335   4.341   4.504  15.643  0.0588  0.0650  0.6402
  907MPD2    C313336   4.423   4.541  15.749 -0.3878 -0.0725 -0.4187
  907MPD2    C413337   4.410   4.672  15.799  0.2282 -0.1949  0.3857
  907MPD2    C513338   4.313   0.021  15.751  0.6062 -0.0648 -0.3257
  907MPD2     H13339   4.341   4.401  15.609 -2.4947  0.8042 -1.6567
  907MPD2    H113340   4.478   4.702  15.878  1.3682 -0.9577 -0.3267
  907MPD2    H213341   4.152   0.056  15.621  0.1786 -0.7722 -1.4828
  907MPD2    H313342   4.297   0.121  15.789 -0.0701 -0.8397  1.4324
  907MPD2     N13343   4.529   4.455  15.794  0.5288  0.2775  0.1817
  907MPD2    H513344   4.534   4.366  15.745 -1.5624  1.8236 -2.8103
  907MPD2    N113345   4.161   4.550  15.482  0.5489 -0.7419 -0.6048
  907MPD2    H713346   4.173   4.452  15.456 -0.5892 -1.1455  0.4357
  908MPD2     C13347   2.483   0.263   9.527  1.0489  0.3943 -0.0179
  908MPD2    C113348   2.387   0.210   9.610 -0.6098  0.5814  0.1655
  908MPD2    C213349   2.373   0.249   9.742  0.2716 -0.1089 -0.0842
  908MPD2    C313350   2.456   0.350   9.789  0.3686 -0.0438 -0.3297
  908MPD2    C413351   2.554   0.395   9.709  0.1288  0.3694 -0.4063
  908MPD2    C513352   2.576   0.351   9.583 -0.2152  0.4275  0.6677
  908MPD2     H13353   2.302   0.203   9.810  1.2331 -1.1210  0.2321
  908MPD2    H113354   2.619   0.477   9.738  1.5664 -1.2196  0.9579
  908MPD2    H213355   2.487   0.246   9.420 -2.7572  2.3533 -0.4661
  908MPD2    H313356   2.647   0.411   9.526 -1.3328  0.0591 -1.1249
  908MPD2     N13357   2.440   0.395   9.928 -0.0110  0.3009  0.2371
  908MPD2    H513358   2.362   0.358   9.981  0.0974  3.5241  2.6216
  908MPD2    N113359   2.295   0.118   9.542  0.4221 -0.0960  1.0325
  908MPD2    H713360   2.315   0.101   9.444 -1.8483  2.3473  0.1259
  909MPD2     C13361   2.693   3.195  11.308 -0.2869  0.4232 -0.1133
  909MPD2    C113362   2.603   3.280  11.245 -0.2049 -0.0727  0.0307
  909MPD2    C213363   2.483   3.294  11.311 -0.7956  0.2126  0.0839
  909MPD2    C313364   2.456   3.230  11.429  0.2344  0.5430  0.2293
  909MPD2    C413365   2.547   3.150  11.491 -0.3755  0.2220 -0.5704
  909MPD2    C513366   2.674   3.140  11.427 -0.9126  0.0033  0.4912
  909MPD2     H13367   2.400   3.351  11.269  0.4264  1.4514 -0.6570
  909MPD2    H113368   2.518   3.096  11.581  1.8592 -0.0028  0.0160
  909MPD2    H213369   2.797   3.196  11.278 -0.8021 -0.8689 -1.9835
  909MPD2    H313370   2.748   3.070  11.466 -2.2276  0.1901  3.2884
  909MPD2     N13371   2.321   3.242  11.477  0.7695  0.5251  0.2468
  909MPD2    H513372   2.259   3.304  11.426 -0.1636 -0.4869  0.1672
  909MPD2    N113373   2.633   3.356  11.127  0.1762 -0.3229  0.5281
  909MPD2    H713374   2.563   3.420  11.090 -1.4308 -0.6376  2.9791
  910MPD2     C13375   3.825   0.411  16.013 -0.4166  0.3200 -0.1507
  910MPD2    C113376   3.827   0.332  15.902 -0.1421 -0.2043  0.8991
  910MPD2    C213377   3.752   0.367  15.793  0.9670 -0.6881  0.9758
  910MPD2    C313378   3.657   0.469  15.797  0.7875  0.4677  0.6127
  910MPD2    C413379   3.633   0.528  15.918  0.3109 -0.0175  0.2983
  910MPD2    C513380   3.721   0.504  16.023 -0.9309 -0.3396 -0.6563
  910MPD2     H13381   3.766   0.316  15.699  0.2374  3.2043 -1.2594
  910MPD2    H113382   3.569   0.613  15.941  0.2644 -0.7740  2.9395
  910MPD2    H213383   3.889   0.401  16.100  0.4885 -1.5926 -1.0400
  910MPD2    H313384   3.719   0.561  16.116 -0.5450 -0.7432 -0.3974
  910MPD2     N13385   3.573   0.506  15.685  0.4727 -0.0830 -0.1399
  910MPD2    H513386   3.495   0.564  15.714 -0.2165 -0.9321 -0.3043
  910MPD2    N113387   3.904   0.209  15.897 -0.5790 -0.1278 -0.7062
  910MPD2    H713388   3.899   0.162  15.808  0.8289 -1.0230 -0.3274
  911MPD2     C13389   1.739   1.126  16.281  0.6211  0.2324  0.2934
  911MPD2    C113390   1.823   1.228  16.317  0.0135 -0.3181  0.0387
  911MPD2    C213391   1.779   1.360  16.316 -0.4244  0.1164  0.2104
  911MPD2    C313392   1.649   1.380  16.267 -0.4416 -0.2021 -0.1907
  911MPD2    C413393   1.560   1.278  16.239  0.0028  0.0417 -0.1520
  911MPD2    C513394   1.608   1.148  16.262 -0.3019 -0.0858  0.0431
  911MPD2     H13395   1.842   1.440  16.352  0.6289 -0.4662 -0.3269
  911MPD2    H113396   1.456   1.282  16.208 -0.1004 -0.9393  0.0832
  911MPD2    H213397   1.768   1.021  16.281  2.2090  0.6686  2.1181
  911MPD2    H313398   1.546   1.061  16.245  0.6202 -0.9885  1.3282
  911MPD2     N13399   1.596   1.510  16.238  0.0078 -0.9129 -0.2729
  911MPD2    H513400   1.503   1.508  16.196  0.0361  0.5677 -0.4121
  911MPD2    N113401   1.955   1.185  16.347 -0.5911 -0.4099  0.0927
  911MPD2    H713402   1.973   1.086  16.335  0.5190 -0.2878  0.7054
  912MPD2     C13403   1.003   1.589  15.790  0.0101  0.5430 -0.1217
  912MPD2    C113404   1.089   1.542  15.884  0.4651 -0.1151  0.2166
  912MPD2    C213405   1.085   1.410  15.922  0.1078 -0.0035 -0.1501
  912MPD2    C313406   1.011   1.318  15.851  0.6617 -0.1088 -0.1163
  912MPD2    C413407   0.931   1.360  15.747 -0.6704 -0.2601 -0.1627
  912MPD2    C513408   0.935   1.491  15.711  0.6717 -0.5307  0.3410
  912MPD2     H13409   1.136   1.381  16.013 -0.4766 -1.2302 -0.2053
  912MPD2    H113410   0.857   1.301  15.695 -0.8828 -1.2372  1.2495
  912MPD2    H213411   0.997   1.694  15.762  0.2822 -0.1789 -2.9471
  912MPD2    H313412   0.873   1.532  15.632 -0.4770 -0.0878  1.4713
  912MPD2     N13413   1.001   1.192  15.904  0.2593 -0.4099 -0.5831
  912MPD2    H513414   1.040   1.171  15.995 -1.0153  1.7730  0.4553
  912MPD2    N113415   1.183   1.627  15.939 -0.0669 -0.0819 -0.7981
  912MPD2    H713416   1.179   1.721  15.900 -0.7130  0.1413 -0.1915
  913MPD2     C13417   2.474   2.189  11.609  0.1598  0.2560  0.0208
  913MPD2    C113418   2.502   2.072  11.539 -0.1637 -0.0463 -0.2921
  913MPD2    C213419   2.480   2.068  11.400  0.1319 -0.0722  0.4870
  913MPD2    C313420   2.417   2.178  11.340 -0.0477  0.5846  0.1598
  913MPD2    C413421   2.384   2.287  11.418  0.0672  0.1196 -0.1517
  913MPD2    C513422   2.418   2.295  11.543  0.6770 -0.1890  0.1091
  913MPD2     H13423   2.517   1.980  11.348 -1.5631 -1.2369  1.2447
  913MPD2    H113424   2.355   2.377  11.365 -1.4737  0.2658  0.9360
  913MPD2    H213425   2.480   2.185  11.717 -0.9888  0.2362  0.0901
  913MPD2    H313426   2.397   2.390  11.592 -1.8057 -0.9099  0.4610
  913MPD2     N13427   2.398   2.191  11.196 -0.6755 -0.0091  0.1418
  913MPD2    H513428   2.347   2.274  11.168 -1.5134 -0.8544 -0.8429
  913MPD2    N113429   2.560   1.963  11.614 -0.1909  0.2889  1.0823
  913MPD2    H713430   2.575   1.960  11.715  0.9998  1.3813  0.9262
  914MPD2     C13431   4.387   2.107  11.913  0.1680  0.4238  0.3598
  914MPD2    C113432   4.409   2.224  11.977 -0.2204  0.2984 -0.2153
  914MPD2    C213433   4.507   2.228  12.081  0.3494  0.1381 -0.1112
  914MPD2    C313434   4.599   2.129  12.099  0.1470  0.7318  0.8185
  914MPD2    C413435   4.581   2.018  12.021  0.3700  0.2277 -0.6667
  914MPD2    C513436   4.472   2.005  11.941  0.7788  0.0993 -0.5241
  914MPD2     H13437   4.528   2.325  12.125  0.3269  0.8217 -1.5785
  914MPD2    H113438   4.656   1.941  12.031 -0.2224 -0.7310 -3.6912
  914MPD2    H213439   4.304   2.091  11.846  0.3907 -1.4261  0.5244
  914MPD2    H313440   4.446   1.908  11.900 -1.0410  0.0808  0.6870
  914MPD2     N13441   4.708   2.140  12.190 -0.3455  0.5454 -0.3233
  914MPD2    H513442   4.724   2.224  12.244 -1.1403  0.0294  0.7268
  914MPD2    N113443   4.327   2.334  11.937 -0.8479  0.1828 -0.0470
  914MPD2    H713444   4.264   2.326  11.857  1.4167 -2.1906 -1.5976
  915MPD2     C13445   2.567   2.677  15.547  0.1859 -0.1966 -0.7470
  915MPD2    C113446   2.453   2.646  15.478  0.1609  0.1067  0.0321
  915MPD2    C213447   2.333   2.704  15.523 -0.4299 -0.4786 -0.2046
  915MPD2    C313448   2.321   2.779  15.642  0.8621 -0.5235  0.2471
  915MPD2    C413449   2.435   2.807  15.710 -0.0573 -0.1160 -0.2702
  915MPD2    C513450   2.556   2.761  15.658  0.0511  0.6942  0.0982
  915MPD2     H13451   2.248   2.668  15.467 -0.9218 -0.4280  0.5157
  915MPD2    H113452   2.454   2.872  15.795  0.4252 -0.5969 -0.0091
  915MPD2    H213453   2.659   2.627  15.520  0.9430 -0.5559  2.5058
  915MPD2    H313454   2.646   2.781  15.714 -1.2323  0.5437  2.2450
  915MPD2     N13455   2.193   2.830  15.673  0.0639 -0.4051  0.3012
  915MPD2    H513456   2.115   2.823  15.608  1.6660 -2.5058 -1.4221
  915MPD2    N113457   2.450   2.558  15.375 -0.2405 -0.1005 -0.6578
  915MPD2    H713458   2.357   2.547  15.336 -0.5952 -0.5037  0.3030
  916MPD2     C13459   0.807   1.111  15.387 -0.1488 -1.2639  0.1607
  916MPD2    C113460   0.711   1.033  15.457  0.7764 -0.0927  0.1962
  916MPD2    C213461   0.678   0.905  15.411 -0.1112  0.0929  0.3065
  916MPD2    C313462   0.753   0.845  15.298 -0.7363 -0.3263  0.4026
  916MPD2    C413463   0.847   0.926  15.233 -0.2011  0.1006 -0.1388
  916MPD2    C513464   0.861   1.058  15.272 -0.0279  0.1797  0.0142
  916MPD2     H13465   0.601   0.844  15.457  0.3065 -0.1545  0.6787
  916MPD2    H113466   0.888   0.895  15.138 -1.1487  0.4396 -0.6657
  916MPD2    H213467   0.825   1.213  15.421 -1.9226 -1.2343  1.0034
  916MPD2    H313468   0.921   1.126  15.212  1.1068 -2.5543 -1.9430
  916MPD2     N13469   0.725   0.715  15.260  0.3812 -0.7113 -0.1491
  916MPD2    H513470   0.656   0.663  15.313 -0.3124  1.9819  1.5464
  916MPD2    N113471   0.644   1.100  15.561  0.0650  0.2782 -0.1617
  916MPD2    H713472   0.661   1.199  15.573  1.4305 -0.2229  1.9567
  917MPD2     C13473   1.348   3.182  10.871 -0.3590  0.5322  0.0697
  917MPD2    C113474   1.210   3.188  10.863 -0.3727  0.3862  0.2346
  917MPD2    C213475   1.152   3.311  10.819 -0.0992 -0.2827  0.3978
  917MPD2    C313476   1.238   3.414  10.798  0.1528 -0.6204 -0.1079
  917MPD2    C413477   1.370   3.407  10.810 -0.1238  0.3229 -0.9243
  917MPD2    C513478   1.426   3.287  10.848  0.2513 -0.8804  0.7003
  917MPD2     H13479   1.044   3.316  10.820 -0.0066  1.5791  0.2366
  917MPD2    H113480   1.432   3.495  10.794  2.9467 -1.5791  0.5274
  917MPD2    H213481   1.382   3.086  10.908  0.6789  0.4779 -1.0165
  917MPD2    H313482   1.533   3.284  10.864  0.6435 -2.7258 -2.2967
  917MPD2     N13483   1.185   3.544  10.774 -0.3044 -0.1741 -0.0220
  917MPD2    H513484   1.251   3.622  10.779 -1.5567  0.7506  1.8807
  917MPD2    N113485   1.130   3.081  10.907  0.0513  0.2556 -0.0603
  917MPD2    H713486   1.188   3.011  10.951  0.2676 -0.5459 -1.6279
  918MPD2     C13487   1.104   3.266  11.847  0.5585 -0.2174 -0.0972
  918MPD2    C113488   1.130   3.132  11.835  0.6678  0.1490 -0.1631
  918MPD2    C213489   1.103   3.066  11.718  0.3265  0.0864  0.2677
  918MPD2    C313490   1.050   3.123  11.610 -0.1135  0.7995  0.0766
  918MPD2    C413491   1.029   3.258  11.615 -0.2278  0.7079 -0.3361
  918MPD2    C513492   1.054   3.325  11.728 -0.1363  0.0608 -0.3084
  918MPD2     H13493   1.140   2.964  11.725  0.3331  0.1416  1.0409
  918MPD2    H113494   0.991   3.315  11.531 -0.6241 -2.4917 -2.3694
  918MPD2    H213495   1.118   3.326  11.936  1.7516  0.0311 -0.4526
  918MPD2    H313496   1.045   3.433  11.724  0.8977  0.2074  1.2302
  918MPD2     N13497   1.015   3.032  11.502 -0.7619 -0.4528  0.3383
  918MPD2    H513498   1.007   2.931  11.514 -0.4955 -0.0454  3.9632
  918MPD2    N113499   1.210   3.063  11.932 -0.6716  0.1998 -0.3672
  918MPD2    H713500   1.244   2.972  11.904 -3.0010 -0.6869 -0.3703
  919MPD2     C13501   1.745   2.010  11.083 -0.5049  0.3408  0.8252
  919MPD2    C113502   1.654   1.917  11.118  0.2237  0.0007  0.5765
  919MPD2    C213503   1.532   1.906  11.047  0.7975 -0.1860  0.6170
  919MPD2    C313504   1.496   2.004  10.956  0.1510  0.0071  0.1135
  919MPD2    C413505   1.584   2.109  10.941  0.5617  0.4232 -0.0132
  919MPD2    C513506   1.707   2.114  11.001 -0.9041 -0.6262 -0.5708
  919MPD2     H13507   1.462   1.833  11.085  0.4090 -0.3017 -0.3166
  919MPD2    H113508   1.560   2.187  10.869  1.1854 -0.6094 -1.3334
  919MPD2    H213509   1.842   2.032  11.125 -0.5208 -1.6823  1.9242
  919MPD2    H313510   1.774   2.198  10.986 -0.2539 -1.3776 -1.8923
  919MPD2     N13511   1.372   2.008  10.893  0.2646 -0.9927  0.4225
  919MPD2    H513512   1.367   2.079  10.820 -2.3618 -2.1103 -0.5000
  919MPD2    N113513   1.675   1.827  11.226 -0.1609  0.2219 -0.3135
  919MPD2    H713514   1.606   1.755  11.245  0.4793  0.0331  1.3290
  920MPD2     C13515   1.309   2.362  10.072 -0.1698  0.0196 -0.3251
  920MPD2    C113516   1.171   2.348  10.073  0.0998 -0.2149 -0.0892
  920MPD2    C213517   1.111   2.304  10.189 -0.5525  0.1286  0.0429
  920MPD2    C313518   1.186   2.271  10.299 -0.6077  0.2086  0.7381
  920MPD2    C413519   1.322   2.290  10.300 -0.0992  0.6265 -0.7699
  920MPD2    C513520   1.382   2.322  10.181  0.2645 -0.1503  0.1436
  920MPD2     H13521   1.004   2.288  10.188 -0.6259  0.5740  0.3622
  920MPD2    H113522   1.386   2.295  10.387  1.1863 -0.0766 -1.6672
  920MPD2    H213523   1.370   2.372   9.982  0.3224  2.3020  0.2500
  920MPD2    H313524   1.490   2.333  10.179  0.1804  1.1214  2.1234
  920MPD2     N13525   1.123   2.221  10.419  0.4252 -0.3159  0.2505
  920MPD2    H513526   1.023   2.204  10.423  0.7180 -1.6871  1.9809
  920MPD2    N113527   1.093   2.368   9.958  0.0794  0.7838  0.2508
  920MPD2    H713528   0.996   2.339   9.967  1.2923 -3.3614 -0.1218
  921MPD2     C13529   2.881   1.434  16.752 -0.6727  0.6699 -0.7776
  921MPD2    C113530   2.861   1.433  16.619 -0.2741 -0.1711  0.4702
  921MPD2    C213531   2.738   1.389  16.565  0.0240  0.5787  0.4256
  921MPD2    C313532   2.640   1.329  16.653  0.1203  0.4640 -0.2466
  921MPD2    C413533   2.657   1.337  16.786 -0.2532  0.3530  0.4861
  921MPD2    C513534   2.779   1.398  16.833  0.4868 -0.3726  0.3104
  921MPD2     H13535   2.715   1.388  16.459 -1.1275 -1.6869  0.6883
  921MPD2    H113536   2.585   1.288  16.851 -0.8647 -0.4014 -0.7552
  921MPD2    H213537   2.971   1.463  16.806 -0.0003 -0.0526 -1.4939
  921MPD2    H313538   2.786   1.410  16.941 -0.0859 -0.4165  0.3517
  921MPD2     N13539   2.520   1.275  16.618 -0.1789 -0.1249  0.0256
  921MPD2    H513540   2.461   1.243  16.694 -1.2623  0.0945 -0.7200
  921MPD2    N113541   2.974   1.471  16.545  0.1139  0.1178  0.0307
  921MPD2    H713542   3.056   1.500  16.597 -0.2129  2.1523 -0.6117
  922MPD2     C13543   2.797   3.801  17.526 -0.2162  0.0830  0.2455
  922MPD2    C113544   2.736   3.898  17.455  0.7622  0.5246 -0.2310
  922MPD2    C213545   2.628   3.865  17.375  0.2815 -0.0737  0.1964
  922MPD2    C313546   2.590   3.734  17.362  0.0066 -0.6104 -0.4485
  922MPD2    C413547   2.645   3.639  17.449 -1.0608 -1.0499 -0.4982
  922MPD2    C513548   2.752   3.671  17.531  0.1624  0.4472  1.0640
  922MPD2     H13549   2.579   3.948  17.324  0.1756 -0.3684 -0.1826
  922MPD2    H113550   2.602   3.541  17.467 -0.8291 -0.9388  0.6596
  922MPD2    H213551   2.876   3.820  17.597  0.2436  0.1550 -0.2833
  922MPD2    H313552   2.792   3.601  17.604 -2.1047  1.8126  3.5942
  922MPD2     N13553   2.488   3.700  17.271 -0.5348 -0.3552 -0.3108
  922MPD2    H513554   2.471   3.772  17.201 -0.5393 -1.2284 -1.1981
  922MPD2    N113555   2.771   4.030  17.467 -0.0200  0.4636 -0.4608
  922MPD2    H713556   2.704   4.102  17.440 -0.4881  0.8127  1.6193
  923MPD2     C13557   0.259   1.184   9.171 -0.3795  0.0958 -0.1896
  923MPD2    C113558   0.242   1.305   9.231 -0.0998  0.8362  0.1609
  923MPD2    C213559   0.235   1.314   9.368  0.7510  0.0973 -0.2850
  923MPD2    C313560   0.235   1.201   9.450 -0.6602 -0.7176  0.3763
  923MPD2    C413561   0.243   1.077   9.387 -0.2215  0.3890 -0.2546
  923MPD2    C513562   0.256   1.072   9.249  0.0932  0.0059 -0.7899
  923MPD2     H13563   0.231   1.414   9.409 -0.2558  0.0854 -0.3554
  923MPD2    H113564   0.223   0.988   9.447  2.4016 -0.3170 -0.4228
  923MPD2    H213565   0.281   1.168   9.066  1.3082  1.8432 -0.1075
  923MPD2    H313566   0.260   0.980   9.193  0.6749 -0.4902  0.0602
  923MPD2     N13567   0.209   1.209   9.587 -0.0891  0.1351  0.3007
  923MPD2    H513568   0.209   1.122   9.641  0.0055  0.5616  0.9916
  923MPD2    N113569   0.238   1.422   9.148 -0.0392 -0.5364 -0.3033
  923MPD2    H713570   0.231   1.408   9.047  0.3865  1.7676 -0.6550
  924MPD2     C13571   4.565   3.733  15.414 -0.0134 -0.4866  0.2163
  924MPD2    C113572   4.548   3.729  15.554 -0.1220  0.1449 -0.1098
  924MPD2    C213573   4.613   3.830  15.631  0.3563 -0.4444 -0.1683
  924MPD2    C313574   4.696   3.926  15.578 -0.3596 -0.1246  0.1961
  924MPD2    C413575   4.715   3.927  15.445  0.5415 -0.2246  0.5226
  924MPD2    C513576   4.646   3.836  15.366  0.5476 -0.0601  0.3665
  924MPD2     H13577   4.589   3.829  15.737  0.8645 -0.7333 -0.0536
  924MPD2    H113578   0.033   4.003  15.389  1.1039 -1.5797 -0.8023
  924MPD2    H213579   4.505   3.675  15.345 -0.2524  0.5841 -0.4794
  924MPD2    H313580   4.660   3.824  15.259  1.2388 -2.5398  0.7377
  924MPD2     N13581   0.009   4.037  15.662 -0.5912 -0.3369  0.4158
  924MPD2    H513582   0.062   4.109  15.613 -0.3104 -1.2308 -0.5849
  924MPD2    N113583   4.452   3.638  15.611 -0.5210  0.9424 -0.0895
  924MPD2    H713584   4.395   3.580  15.549  1.7704 -2.4438  0.9740
  925MPD2     C13585   3.594   1.455  14.294  0.7165  0.3625  0.1968
  925MPD2    C113586   3.461   1.491  14.288  0.2441 -0.1195 -0.3222
  925MPD2    C213587   3.399   1.515  14.412  0.4852 -0.0574 -0.7366
  925MPD2    C313588   3.464   1.495  14.525  0.2760  0.2198  0.1873
  925MPD2    C413589   3.593   1.446  14.525  0.0457 -0.3939  0.8734
  925MPD2    C513590   3.662   1.434  14.407 -0.2085 -0.0217  0.2669
  925MPD2     H13591   3.296   1.551  14.411 -0.1272 -1.7709  2.1594
  925MPD2    H113592   3.639   1.409  14.616 -0.9351  0.1572  1.5898
  925MPD2    H213593   3.648   1.453  14.200 -0.7822 -2.9790 -0.5977
  925MPD2    H313594   3.769   1.413  14.413  0.1008  1.1598 -0.9757
  925MPD2     N13595   3.410   1.500  14.654  0.0260 -0.3806  0.0660
  925MPD2    H513596   3.463   1.477  14.737 -1.1832 -1.3784  0.5675
  925MPD2    N113597   3.393   1.512  14.165  0.3525 -0.3821 -0.1774
  925MPD2    H713598   3.299   1.548  14.181  2.4938  3.9277  2.6726
  926MPD2     C13599   2.107   0.035  13.342 -0.2217  0.3652  0.0029
  926MPD2    C113600   2.046   0.059  13.216 -0.2489  0.5209  0.1601
  926MPD2    C213601   2.124   0.094  13.113 -0.4371  0.7930  0.3101
  926MPD2    C313602   2.260   0.112  13.130 -0.0551 -0.5697  0.0485
  926MPD2    C413603   2.321   0.079  13.246 -0.3038 -0.6383 -0.3866
  926MPD2    C513604   2.245   0.048  13.354 -0.5038 -0.6973  0.4549
  926MPD2     H13605   2.087   0.110  13.012 -1.4857 -1.7446  0.2958
  926MPD2    H113606   2.429   0.080  13.253 -0.4481 -1.1566  1.7334
  926MPD2    H213607   2.057   0.011  13.435  1.8218 -1.0665  0.7301
  926MPD2    H313608   2.289   0.018  13.448  1.2294  0.0025 -0.1179
  926MPD2     N13609   2.341   0.169  13.033 -0.0739  0.8231  0.2428
  926MPD2    H513610   2.440   0.162  13.053 -0.4923  1.1917  2.5026
  926MPD2    N113611   1.901   0.042  13.188  0.8510 -0.5487 -0.1755
  926MPD2    H713612   1.866   0.074  13.099  0.5239 -0.3511  0.0265
  927MPD2     C13613   1.465   2.795  17.666 -0.2189 -0.0191 -0.1386
  927MPD2    C113614   1.526   2.910  17.665 -0.1942  0.1301 -0.1627
  927MPD2    C213615   1.605   2.944  17.555  0.5130  0.6240 -0.8190
  927MPD2    C313616   1.615   2.850  17.449 -0.1981 -0.3275 -0.9226
  927MPD2    C413617   1.542   2.735  17.447  0.3023 -0.7235  0.1369
  927MPD2    C513618   1.470   2.708  17.561 -0.2278  0.2597  0.5299
  927MPD2     H13619   1.658   3.038  17.548 -0.0706  1.0143  0.0332
  927MPD2    H113620   1.540   2.666  17.363  2.5959  0.8090 -1.1540
  927MPD2    H213621   1.399   2.758   0.003 -0.4600 -0.2688 -0.4659
  927MPD2    H313622   1.405   2.621  17.559 -1.5172  1.2733 -2.0437
  927MPD2     N13623   1.689   2.883  17.333 -0.0936  1.0453 -0.2973
  927MPD2    H513624   1.743   2.969  17.341  0.7717  0.6374 -1.7508
  927MPD2    N113625   1.503   2.997   0.030  0.6572 -0.1461 -0.2221
  927MPD2    H713626   1.432   2.969   0.097 -0.4366  1.7016 -0.6408
  928MPD2     C13627   4.646   0.977   1.159 -0.9770  0.8098  0.2548
  928MPD2    C113628   4.588   1.099   1.130 -1.3900 -0.3652  0.9676
  928MPD2    C213629   4.540   1.121   1.003  0.1373  0.2907  0.6731
  928MPD2    C313630   4.568   1.030   0.902  0.5442  0.4922 -0.0480
  928MPD2    C413631   4.640   0.915   0.933  0.0491 -0.2383  0.8008
  928MPD2    C513632   4.671   0.885   1.062 -0.1387 -0.2025 -0.8145
  928MPD2     H13633   4.500   1.219   0.980  0.3630  0.0936 -0.5497
  928MPD2    H113634   4.674   0.843   0.860  0.4973 -0.2957  1.0666
  928MPD2    H213635   4.681   0.952   1.259  0.7686 -1.9284 -1.0424
  928MPD2    H313636   4.722   0.794   1.093  0.5656 -0.0890 -1.6446
  928MPD2     N13637   4.543   1.048   0.763 -0.5716  0.3327 -0.3848
  928MPD2    H513638   4.599   0.993   0.699 -1.5843 -0.8516 -0.2631
  928MPD2    N113639   4.584   1.196   1.232 -0.1762 -0.0768 -0.4955
  928MPD2    H713640   4.635   1.177   1.318 -0.9042 -2.1734 -0.5428
  929MPD2     C13641   4.368   1.206   9.947  0.2084  0.0376  0.1035
  929MPD2    C113642   4.461   1.118   9.898  0.4419 -0.3001  0.0305
  929MPD2    C213643   4.507   1.130   9.775  0.1895  0.0039 -0.0525
  929MPD2    C313644   4.472   1.239   9.694 -0.3020  0.2671 -0.2878
  929MPD2    C413645   4.376   1.328   9.740  0.0594 -0.4864  0.0045
  929MPD2    C513646   4.326   1.312   9.870 -0.0084 -0.5312  0.2044
  929MPD2     H13647   4.580   1.064   9.731 -1.1431 -1.2323 -0.4032
  929MPD2    H113648   4.345   1.416   9.685 -2.2933 -1.8044 -0.7725
  929MPD2    H213649   4.325   1.204  10.047  1.3219  2.9814  0.6341
  929MPD2    H313650   4.263   1.389   9.913 -0.2603 -0.3456 -0.4950
  929MPD2     N13651   4.532   1.271   9.573 -0.7622  0.3798  0.0728
  929MPD2    H513652   4.516   1.365   9.538 -1.0785  0.3284  0.0838
  929MPD2    N113653   4.501   1.007   9.981  0.0123  0.0150 -0.9288
  929MPD2    H713654   4.471   1.014  10.078  1.8269 -0.2210 -0.3588
  930MPD2     C13655   1.660   2.815  13.998 -0.3197 -0.0929  0.2451
  930MPD2    C113656   1.622   2.806  13.868  0.4627 -0.7148  0.0064
  930MPD2    C213657   1.527   2.710  13.831  0.4951 -0.1448  0.0989
  930MPD2    C313658   1.476   2.615  13.922 -0.6703  0.4283  0.1890
  930MPD2    C413659   1.530   2.620  14.051 -0.1050  0.3912 -0.3243
  930MPD2    C513660   1.612   2.725  14.089 -0.2032  0.3107 -0.1243
  930MPD2     H13661   1.481   2.704  13.733 -0.1866  1.9862  0.2815
  930MPD2    H113662   1.499   2.550  14.129 -1.5732  0.1034 -1.1715
  930MPD2    H213663   1.740   2.882  14.029 -2.5223  1.6380  2.1199
  930MPD2    H313664   1.651   2.724  14.190 -0.3083 -1.6480 -0.1023
  930MPD2     N13665   1.373   2.517  13.893  0.0654  0.3223  0.1312
  930MPD2    H513666   1.345   2.463  13.974 -1.2245 -0.3418 -0.7441
  930MPD2    N113667   1.680   2.890  13.775  0.4324 -0.7862 -0.4342
  930MPD2    H713668   1.734   2.966  13.814  0.5553 -0.3099 -1.5450
  931MPD2     C13669   2.024   3.196   0.567  0.5920  0.6458 -0.3097
  931MPD2    C113670   1.895   3.160   0.608 -0.5244  0.8861 -0.2281
  931MPD2    C213671   1.882   3.103   0.735 -0.0279  0.1096 -0.9400
  931MPD2    C313672   1.996   3.093   0.818 -0.2103 -0.6632 -0.1416
  931MPD2    C413673   2.123   3.144   0.776 -0.6901 -0.0622 -0.1063
  931MPD2    C513674   2.134   3.186   0.649 -0.5583 -0.5085 -0.5097
  931MPD2     H13675   1.784   3.085   0.777  1.0826  0.6182  1.8588
  931MPD2    H113676   2.209   3.139   0.842 -2.2560  2.2872  2.1222
  931MPD2    H213677   2.039   3.227   0.464 -1.0238 -1.9051 -1.3018
  931MPD2    H313678   2.228   3.230   0.619 -1.0328  1.4557  0.8948
  931MPD2     N13679   2.002   3.038   0.954 -0.0576  0.2587 -0.2030
  931MPD2    H513680   2.086   3.054   1.009  0.4039 -2.5741 -0.1124
  931MPD2    N113681   1.780   3.180   0.523 -0.2933  0.2279 -0.2018
  931MPD2    H713682   1.807   3.217   0.432 -0.9957  1.3280  0.0328
  932MPD2     C13683   3.284   1.127  10.860  0.1272  1.0244 -0.5334
  932MPD2    C113684   3.375   1.197  10.933 -0.9425 -0.2785  0.0691
  932MPD2    C213685   3.464   1.132  11.022  0.6226  0.4040 -0.1142
  932MPD2    C313686   3.445   0.997  11.047 -0.1745 -0.2341  0.4024
  932MPD2    C413687   3.341   0.929  10.986 -0.3457 -0.1450  0.5456
  932MPD2    C513688   3.267   0.989  10.885  0.0681 -0.0757 -0.4832
  932MPD2     H13689   3.548   1.176  11.075  2.4965 -3.9593  0.5062
  932MPD2    H113690   3.318   0.825  11.006 -0.3933 -0.2027  0.1845
  932MPD2    H213691   3.231   1.172  10.776  0.7304 -0.1673 -1.5527
  932MPD2    H313692   3.205   0.925  10.823 -1.6982  0.0683  1.1217
  932MPD2     N13693   3.535   0.917  11.136 -0.1183 -0.1447  0.6760
  932MPD2    H513694   3.513   0.818  11.148  1.1793 -0.5617 -0.4403
  932MPD2    N113695   3.383   1.336  10.911 -0.0135  0.1477 -0.6046
  932MPD2    H713696   3.326   1.389  10.846  1.1601  2.2770  0.1120
  933MPD2     C13697   0.008   2.029   1.572  0.4987  0.2638  0.0992
  933MPD2    C113698   4.654   1.967   1.500  0.0455 -0.1981 -0.0059
  933MPD2    C213699   4.558   2.044   1.430 -0.3225  0.4657  0.5224
  933MPD2    C313700   4.565   2.183   1.429  0.2111  0.0332 -0.3200
  933MPD2    C413701   4.655   2.239   1.519 -0.5825  0.8590  0.6608
  933MPD2    C513702   0.011   2.160   1.585  0.7105 -1.1272  0.2230
  933MPD2     H13703   4.484   2.000   1.364  0.7867  1.0453 -1.0906
  933MPD2    H113704   4.664   2.346   1.535 -0.7022  0.3855  4.0901
  933MPD2    H213705   0.079   1.974   1.634 -0.6944 -0.3711  0.8935
  933MPD2    H313706   0.068   2.211   1.661 -0.5052  0.0776  0.3293
  933MPD2     N13707   4.482   2.256   1.346 -0.3937 -0.1782  0.0416
  933MPD2    H513708   4.430   2.202   1.277 -0.9406  0.4761 -0.0587
  933MPD2    N113709   4.654   1.827   1.501 -0.0350 -0.8491 -0.3515
  933MPD2    H713710   0.003   1.787   1.541  0.9071  2.3247  0.8447
  934MPD2     C13711   0.951   4.602   1.801 -0.3005 -0.0270 -0.1802
  934MPD2    C113712   1.012   4.506   1.726 -1.3136 -0.2418 -0.0282
  934MPD2    C213713   0.941   4.408   1.659  0.5044  0.0041  0.7242
  934MPD2    C313714   0.796   4.407   1.672 -0.5619 -0.2316 -0.0872
  934MPD2    C413715   0.737   4.501   1.752  0.8500 -0.6003 -0.0827
  934MPD2    C513716   0.816   4.591   1.814 -0.4122 -0.3290  0.3395
  934MPD2     H13717   1.001   4.348   1.593 -0.6775 -0.5833  0.1807
  934MPD2    H113718   0.630   4.494   1.766  0.5613  1.2040 -1.3919
  934MPD2    H213719   1.003   4.682   1.852  0.2325  0.0015 -0.7712
  934MPD2    H313720   0.760   4.654   1.882  1.9372  1.3415  0.7267
  934MPD2     N13721   0.714   4.309   1.612  0.1440 -0.2209  0.2110
  934MPD2    H513722   0.615   4.314   1.634 -0.2870 -1.8021 -1.3600
  934MPD2    N113723   1.150   4.503   1.703  0.2253 -0.1356 -0.2055
  934MPD2    H713724   1.180   4.437   1.632  0.4072  0.8111 -1.0129
  935MPD2     C13725   0.796   3.406   1.101 -0.3845 -0.0693 -0.1582
  935MPD2    C113726   0.679   3.465   1.060 -0.2603  0.0752 -0.3920
  935MPD2    C213727   0.634   3.579   1.134 -0.0340 -0.3108  0.0213
  935MPD2    C313728   0.713   3.633   1.238  0.7531  0.6159 -0.3299
  935MPD2    C413729   0.825   3.568   1.274 -0.6805  0.1051 -0.1454
  935MPD2    C513730   0.865   3.462   1.201  0.0376  0.2001 -0.3954
  935MPD2     H13731   0.545   3.631   1.099 -0.1811 -0.5540  0.0354
  935MPD2    H113732   0.893   3.593   1.354 -1.0420 -0.8210  0.4415
  935MPD2    H213733   0.834   3.321   1.045 -1.1898 -1.4207  1.3642
  935MPD2    H313734   0.960   3.419   1.230  0.2270  1.3346  0.6589
  935MPD2     N13735   0.677   3.742   1.327  0.1215  0.4177  0.4077
  935MPD2    H513736   0.754   3.771   1.385  0.0546  1.0533  0.1855
  935MPD2    N113737   0.595   3.411   0.963  0.0785 -0.1521  0.2847
  935MPD2    H713738   0.503   3.452   0.961 -0.4456 -1.3294  0.0932
  936MPD2     C13739   4.167   4.100  12.374  0.6149 -0.8144  0.0914
  936MPD2    C113740   4.142   4.220  12.433  0.5917 -0.2270  1.0744
  936MPD2    C213741   4.134   4.331  12.359 -0.2940  0.8252  0.1807
  936MPD2    C313742   4.164   4.331  12.223 -0.2055  0.0656  0.1992
  936MPD2    C413743   4.197   4.211  12.164 -0.4096 -0.4388 -0.4195
  936MPD2    C513744   4.204   4.094  12.244 -0.5257 -0.4362  0.0461
  936MPD2     H13745   4.112   4.427  12.405 -0.9752  1.3394 -1.2208
  936MPD2    H113746   4.222   4.213  12.058  1.5189 -0.0510  0.0329
  936MPD2    H213747   4.159   4.005  12.424 -0.3878 -0.2715  0.9617
  936MPD2    H313748   4.219   3.998  12.196  1.8362 -0.0969  0.0708
  936MPD2     N13749   4.148   4.454  12.154 -0.6065 -0.5482  0.5973
  936MPD2    H513750   4.104   4.531  12.203 -2.8106  0.0781 -2.3365
  936MPD2    N113751   4.113   4.238  12.568  0.0654 -0.2527 -0.0048
  936MPD2    H713752   4.118   4.333  12.602  2.5267  0.2420 -1.8054
  937MPD2     C13753   2.016   1.217  11.360  0.1251  0.1358 -0.2278
  937MPD2    C113754   2.105   1.310  11.428 -0.3640 -0.0140 -0.1905
  937MPD2    C213755   2.241   1.302  11.403  0.1216  0.4666  0.1573
  937MPD2    C313756   2.280   1.200  11.312 -0.5184 -0.2641  0.4109
  937MPD2    C413757   2.194   1.110  11.254  1.0166  0.1163 -0.6504
  937MPD2    C513758   2.061   1.113  11.279 -0.7936 -0.6869 -0.4106
  937MPD2     H13759   2.314   1.374  11.438 -0.4081  0.8359  0.5072
  937MPD2    H113760   2.230   1.026  11.195 -0.5108 -1.7174  1.0693
  937MPD2    H213761   1.908   1.217  11.374  0.2713 -1.3674  0.9580
  937MPD2    H313762   1.997   1.037  11.236 -0.1291 -2.5165  1.8280
  937MPD2     N13763   2.416   1.178  11.287  0.1605  0.0649  0.0630
  937MPD2    H513764   2.468   1.217  11.364 -1.0675  2.3557 -0.2415
  937MPD2    N113765   2.047   1.428  11.484 -0.2221  0.6067  0.3226
  937MPD2    H713766   2.110   1.500  11.517 -0.6632  1.1515 -0.0358
  938MPD2     C13767   4.300   3.661   0.372  0.3448  0.5041 -0.5594
  938MPD2    C113768   4.389   3.691   0.476 -0.0934 -0.2919  1.0262
  938MPD2    C213769   4.446   3.584   0.553  0.4444 -0.2902 -0.5955
  938MPD2    C313770   4.411   3.451   0.529 -0.3911 -0.7875 -0.3551
  938MPD2    C413771   4.321   3.429   0.424  0.2361  0.7484  0.0660
  938MPD2    C513772   4.262   3.531   0.355  0.0014  0.4822  0.1899
  938MPD2     H13773   4.519   3.612   0.629 -0.8624  0.8477  0.2348
  938MPD2    H113774   4.302   3.328   0.389 -2.4486  2.4598 -3.4088
  938MPD2    H213775   4.248   3.729   0.305 -0.4865  4.4175  3.9538
  938MPD2    H313776   4.184   3.501   0.287  0.6129 -2.1049  0.6175
  938MPD2     N13777   4.473   3.335   0.588  0.4758 -0.4218 -0.6422
  938MPD2    H513778   4.455   3.251   0.535  2.4278 -0.4906 -1.1902
  938MPD2    N113779   4.437   3.829   0.493  0.5236  0.1801 -0.6268
  938MPD2    H713780   4.524   3.840   0.544  0.5022  2.1048 -1.0096
  939MPD2     C13781   1.090   3.878   0.739 -0.5411  0.2003  0.5094
  939MPD2    C113782   0.985   3.967   0.714  0.4657  0.0998 -0.5550
  939MPD2    C213783   0.894   3.930   0.615 -0.3809 -0.3240  0.1934
  939MPD2    C313784   0.914   3.816   0.531  1.0017  0.5722  0.1860
  939MPD2    C413785   1.026   3.738   0.550  0.0016  0.1670 -0.4085
  939MPD2    C513786   1.108   3.772   0.657 -0.2511  0.1983  0.5557
  939MPD2     H13787   0.808   3.992   0.591  1.1339  1.7778  0.1978
  939MPD2    H113788   1.051   3.663   0.476 -1.1672 -1.2764  0.6490
  939MPD2    H213789   1.174   3.905   0.802  1.0931 -1.0137 -1.1470
  939MPD2    H313790   1.199   3.723   0.690 -0.2143 -0.3276 -0.3353
  939MPD2     N13791   0.824   3.800   0.416  0.1328  0.1508 -0.5916
  939MPD2    H513792   0.753   3.873   0.415  1.0669  1.0566  0.2774
  939MPD2    N113793   0.978   4.088   0.784  0.5849 -1.0466 -0.0094
  939MPD2    H713794   1.050   4.107   0.854  1.9867  0.5309 -1.8604
  940MPD2     C13795   3.374   0.311  13.091  0.5692 -0.6945 -0.2887
  940MPD2    C113796   3.492   0.248  13.122 -0.6222 -0.4866  0.1427
  940MPD2    C213797   3.610   0.286  13.057 -0.2690 -0.2919 -0.3340
  940MPD2    C313798   3.609   0.393  12.969 -0.7261  0.0224 -0.2768
  940MPD2    C413799   3.486   0.449  12.937 -0.6950  0.2790  0.2692
  940MPD2    C513800   3.372   0.411  13.004  0.0245  0.6344 -0.6956
  940MPD2     H13801   3.702   0.231  13.073 -0.8449 -1.4959 -1.1336
  940MPD2    H113802   3.479   0.520  12.856 -0.9699 -0.1552 -0.0879
  940MPD2    H213803   3.279   0.281  13.134  0.3951  0.5082  0.1613
  940MPD2    H313804   3.279   0.446  12.961 -1.6691  0.5342  2.8563
  940MPD2     N13805   3.727   0.425  12.894  0.3703  0.0927 -0.6516
  940MPD2    H513806   3.705   0.483  12.813 -0.5086  1.0343  0.2605
  940MPD2    N113807   3.512   0.143  13.220  0.4990  0.7748 -0.7140
  940MPD2    H713808   3.606   0.108  13.234  0.6563  1.2086 -0.7060
  941MPD2     C13809   3.387   3.624   9.477  0.4188 -0.0219  0.4124
  941MPD2    C113810   3.476   3.558   9.558 -0.5615 -0.3475 -0.9631
  941MPD2    C213811   3.429   3.501   9.675 -0.1624 -0.3013  0.1846
  941MPD2    C313812   3.295   3.520   9.714 -0.3138 -0.1670 -1.1418
  941MPD2    C413813   3.210   3.587   9.631 -0.0865  0.8460 -0.3525
  941MPD2    C513814   3.254   3.633   9.505 -0.6794  0.1108  0.2198
  941MPD2     H13815   3.504   3.445   9.730  1.5820  0.3819 -1.4804
  941MPD2    H113816   3.109   3.616   9.658 -0.4106 -3.5382  3.2072
  941MPD2    H213817   3.416   3.664   9.381  0.0842  0.2534  0.4244
  941MPD2    H313818   3.181   3.673   9.436  0.1172 -0.5191 -0.9893
  941MPD2     N13819   3.252   3.497   9.846  0.8374  0.3567 -0.4135
  941MPD2    H513820   3.159   3.534   9.861  1.1802  0.4310  1.4517
  941MPD2    N113821   3.617   3.566   9.534  0.2491 -0.0496  0.1187
  941MPD2    H713822   3.669   3.524   9.611  1.4488  0.3513 -0.4696
  942MPD2     C13823   3.561   4.540   8.538 -0.7281  0.3911 -0.0173
  942MPD2    C113824   3.621   4.590   8.651 -0.1291  0.3468  0.2897
  942MPD2    C213825   3.727   4.674   8.641  0.2263 -0.0034 -0.1754
  942MPD2    C313826   3.769   4.713   8.510 -0.6813 -0.1188 -0.0859
  942MPD2    C413827   3.716   4.654   8.394 -0.2842 -0.1561  0.5087
  942MPD2    C513828   3.612   4.567   8.411 -0.0883  0.1407 -0.2131
  942MPD2     H13829   3.774   4.707   8.733 -0.3409  1.5527 -0.4373
  942MPD2    H113830   3.744   4.676   8.291  0.2012 -1.0936  0.4412
  942MPD2    H213831   3.480   4.467   8.545  0.1463 -0.7058 -1.3288
  942MPD2    H313832   3.566   4.516   8.327 -0.6530 -1.8445  1.2790
  942MPD2     N13833   3.870   0.075   8.498 -0.1522 -0.7240 -0.2633
  942MPD2    H513834   3.900   0.085   8.402 -1.2362 -2.4935 -0.7865
  942MPD2    N113835   3.593   4.557   8.785  0.7664 -0.0165  0.0758
  942MPD2    H713836   3.658   4.592   8.855  0.5493  1.3144 -0.3895
  943MPD2     C13837   2.114   3.352  10.142  0.6599  0.4534 -0.3189
  943MPD2    C113838   2.181   3.410  10.245 -0.3294 -0.5261 -0.4497
  943MPD2    C213839   2.232   3.544  10.230 -0.1189 -0.4673  0.4301
  943MPD2    C313840   2.221   3.608  10.109 -0.2844  0.3040 -0.3953
  943MPD2    C413841   2.150   3.544  10.010 -0.1061  0.0853  0.0469
  943MPD2    C513842   2.097   3.416  10.022  0.8397  0.7610 -0.5156
  943MPD2     H13843   2.291   3.592  10.306 -0.5988  1.1926 -0.2489
  943MPD2    H113844   2.143   3.591   9.913 -1.1456  1.6378  0.8618
  943MPD2    H213845   2.056   3.260  10.144  0.9327  0.3131  1.5208
  943MPD2    H313846   2.039   3.364   9.946  0.9060 -0.7495  0.4611
  943MPD2     N13847   2.277   3.741  10.101  0.1226 -0.0244  0.2811
  943MPD2    H513848   2.330   3.780  10.178 -0.8572 -1.2905  1.5951
  943MPD2    N113849   2.203   3.340  10.364 -0.1778 -0.3954 -0.2242
  943MPD2    H713850   2.172   3.244  10.360  2.9434 -1.4699  1.5457
  944MPD2     C13851   2.639   2.524  11.172 -0.5065  0.4881  0.2699
  944MPD2    C113852   2.686   2.433  11.267 -0.3266 -0.2204  0.2565
  944MPD2    C213853   2.672   2.461  11.405  0.0066 -0.5519  0.3373
  944MPD2    C313854   2.612   2.583  11.442 -1.2014 -0.3437 -0.0828
  944MPD2    C413855   2.569   2.676  11.349  0.1568 -0.2876 -0.1926
  944MPD2    C513856   2.579   2.642  11.212  0.5474  0.5837  0.2564
  944MPD2     H13857   2.696   2.383  11.477 -2.3102 -2.6946 -1.1914
  944MPD2    H113858   2.526   2.772  11.372  0.3305 -0.4926  0.9866
  944MPD2    H213859   2.655   2.521  11.065  1.0080  0.5723  0.4985
  944MPD2    H313860   2.560   2.720  11.139  1.0686  0.4749  0.0074
  944MPD2     N13861   2.594   2.590  11.585 -1.1328  0.1424 -0.0448
  944MPD2    H513862   2.625   2.515  11.646 -0.5137 -0.1320 -0.6945
  944MPD2    N113863   2.753   2.318  11.206  0.7187  0.3714  0.3676
  944MPD2    H713864   2.742   2.311  11.105 -0.8460 -0.9446  0.6174
    1TMC1    C113865   0.000   4.136  13.583 -0.1512  0.7406 -0.3201
    1TMC1    C213866   4.663   4.118  13.468 -0.2640  0.2180 -0.5507
    1TMC1    C313867   4.674   4.001  13.403  0.3994  0.0248 -0.3691
    1TMC1    C413868   0.081   4.035  13.630  0.4689  0.3098  0.1212
    1TMC1    C513869   0.080   3.923  13.564 -0.5683 -0.3807 -0.3030
    1TMC1    C613870   0.009   3.898  13.453 -0.4197  1.1577 -0.0379
    1TMC1     C13871   0.021   4.274  13.622 -0.3806  0.8858 -0.5303
    1TMC1     O13872   0.036   4.359  13.533 -0.1345 -0.2137  0.7291
    1TMC1     H13873   4.608   4.203  13.429  1.7664  0.6206 -2.5341
    1TMC1    H113874   0.135   4.049  13.723 -0.7746 -1.6250  1.1374
    1TMC1    H213875   0.011   3.802  13.403  1.5348  0.8818  0.5879
    1TMC1    C713876   0.150   3.811  13.623  0.5016  0.5585  0.1007
    1TMC1    C813877   4.597   3.984  13.286  0.1371  0.0045 -0.0099
    1TMC1    O113878   0.260   3.823  13.686  0.0461  0.2753  0.1136
    1TMC1    O213879   4.630   3.884  13.221 -0.1882  0.2422  0.2050
    1TMC1    O313880   0.081   3.695  13.602 -0.0313  0.5538  0.1398
    1TMC1    H313881   4.732   3.712  13.556  1.3507 -0.6964 -2.8662
    1TMC1    O513882   4.471   4.008  13.323  0.0793 -0.1024 -0.0803
    1TMC1    H513883   4.452   4.073  13.394 -1.3446 -0.9268  0.3048
    2MPD2     C13884   0.174   4.606  13.977 -0.0993  0.1954 -0.1781
    2MPD2    C113885   0.090   4.517  14.041  0.3156  0.4533 -0.4146
    2MPD2    C213886   0.047   4.408  13.961  0.2252 -0.2600  0.2418
    2MPD2    C313887   0.080   4.395  13.831 -0.3129 -0.0849 -0.0994
    2MPD2    C413888   0.164   4.487  13.773  0.5935  0.3210 -0.3003
    2MPD2    C513889   0.217   4.589  13.847  0.8064 -0.6008 -0.0577
    2MPD2     H13890   4.709   4.337  13.996 -0.7012  0.9548  0.7657
    2MPD2    H113891   0.200   4.468  13.673 -0.4146  1.2774 -0.8422
    2MPD2    H213892   0.217   4.691  14.028 -0.3983  1.7616 -2.5310
    2MPD2    H313893   0.281   4.670  13.812  2.2685 -2.6481 -2.1313
    2MPD2     N13894   0.046   4.278  13.759 -0.4812  0.0797 -0.0413
    2MPD2    H513895   0.005   4.203  13.813  0.9238  1.6674  3.1800
    2MPD2    N113896   0.048   4.546  14.172  0.0140  0.1918  0.2446
    2MPD2    H713897   0.085   4.633  14.209  0.1648 -0.1707  0.9424
    3TMC2    C113898   4.682   4.505  14.386 -0.6784  0.3366 -0.1665
    3TMC2    C213899   4.629   4.411  14.470 -0.4431  0.3839  0.4926
    3TMC2    C313900   4.560   4.455  14.578  0.6503 -0.6770 -0.1877
    3TMC2    C413901   4.667   4.639  14.401  0.3350 -0.3976  0.3231
    3TMC2    C513902   4.598   4.684  14.512 -0.5539 -0.9389  0.3743
    3TMC2    C613903   4.549   4.589  14.602 -0.0586 -0.3344  0.4212
    3TMC2     C13904   4.723   4.457  14.257 -0.6513  0.4557 -0.5970
    3TMC2     O13905   4.714   4.337  14.233  0.7238  0.3682  0.5226
    3TMC2     H13906   4.643   4.304  14.455 -0.4649  0.5558 -0.7661
    3TMC2    H113907   4.715   4.715  14.340  3.5398 -1.0247  2.0413
    3TMC2    H213908   4.498   4.625  14.691 -2.1942  0.8612 -1.2772
    3TMC2    C713909   4.560   0.090  14.541 -0.3466  0.0224  0.2244
    3TMC2    C813910   4.513   4.362  14.684 -0.0543  0.2469 -0.2235
    3TMC2    O113911   4.520   0.120  14.650  0.0283  0.3021  0.1864
    3TMC2    O213912   4.509   4.403  14.796  0.7884  0.2739  0.0018
    3TMC2    O513913   4.487   4.236  14.639  0.0003 -0.6066 -0.4337
    3TMC2    H513914   4.478   4.230  14.541 -0.1304 -0.8698 -0.4062
    4TMC2    C113915   4.312   0.564  13.698  0.4315  0.5088 -0.0658
    4TMC2    C213916   4.359   0.693  13.687  0.4036  0.7864  0.1526
    4TMC2    C313917   4.458   0.733  13.779 -0.7301 -0.5548  1.0827
    4TMC2    C413918   4.353   0.486  13.807 -0.1167 -0.1484  0.2418
    4TMC2    C513919   4.444   0.536  13.899  0.8267  0.0170 -0.2909
    4TMC2    C613920   4.488   0.669  13.895 -0.6614 -0.1438  0.4550
    4TMC2     C13921   4.207   0.500  13.610 -0.3746 -1.1859 -0.2772
    4TMC2     O13922   4.208   0.377  13.613 -0.1330 -0.0253 -0.5977
    4TMC2     H13923   4.348   0.753  13.597 -1.8041  0.1221 -0.0246
    4TMC2    H113924   4.316   0.385  13.820 -0.4180  0.1917  1.9765
    4TMC2    H213925   4.578   0.693  13.950 -0.9561 -0.2149  0.9618
    4TMC2    C713926   4.479   0.457  14.015 -0.2198 -0.2608 -0.3743
    4TMC2    C813927   4.539   0.851  13.748  0.2753 -0.0541  0.0024
    4TMC2    O113928   4.450   0.339  14.011  0.3940 -0.2151 -0.0538
    4TMC2    O213929   4.608   0.904  13.836  0.5139 -0.2078 -0.4382
    4TMC2    O513930   4.592   0.815  13.628 -0.1753 -0.3369 -0.1721
    4TMC2    H513931   4.556   0.737  13.582 -0.2198  0.4207 -1.4017
    5MPD2     C13932   3.802   0.460  13.294 -0.4325 -0.5232 -0.1854
    5MPD2    C113933   3.837   0.597  13.303  0.1434  0.1709 -0.4256
    5MPD2    C213934   3.934   0.629  13.391  0.2636  0.2058 -1.3081
    5MPD2    C313935   4.007   0.533  13.461 -0.5600  0.6376  0.0418
    5MPD2    C413936   3.976   0.399  13.446  0.5526  0.2277 -0.2214
    5MPD2    C513937   3.874   0.362  13.363  0.3738  0.0831  0.3829
    5MPD2     H13938   3.973   0.730  13.391 -0.0350  0.3209 -0.8178
    5MPD2    H113939   4.022   0.319  13.503 -1.8702 -1.0523 -0.0594
    5MPD2    H213940   3.735   0.429  13.215  0.0322 -1.0374 -0.3810
    5MPD2    H313941   3.860   0.257  13.338 -0.3282  0.4587 -0.7993
    5MPD2     N13942   4.120   0.578  13.536 -0.2756  0.2282 -0.1559
    5MPD2    H513943   4.137   0.678  13.535  1.3193 -0.0367  0.6279
    5MPD2    N113944   3.783   0.683  13.211  0.0765 -0.5421 -0.0456
    5MPD2    H713945   3.728   0.647  13.134 -2.9590  2.1615  0.8632
    6MPD1     C13946   2.407   1.884  12.621 -0.8639 -0.2959 -0.5819
    6MPD1    C113947   2.368   1.755  12.590 -0.4018  0.4861  0.3644
    6MPD1    C213948   2.435   1.653  12.648 -0.2522 -0.0673 -0.0033
    6MPD1    C313949   2.557   1.673  12.727 -0.3699 -0.3911  0.4375
    6MPD1    C413950   2.588   1.805  12.759  0.3171  0.0827  0.9750
    6MPD1    C513951   2.511   1.904  12.707 -0.4643  0.0183  0.1664
    6MPD1     H13952   2.401   1.551  12.633  2.3568 -0.3783 -3.9350
    6MPD1    H113953   2.661   1.830  12.835 -0.4548 -0.0610  1.7687
    6MPD1    H213954   2.350   1.971  12.591  0.7607  1.6890  2.0772
    6MPD1    H313955   2.530   2.004  12.744  0.2178 -0.1284  0.2177
    6MPD1     N13956   2.637   1.567  12.781  0.4874 -0.3921 -0.6258
    6MPD1    H513957   2.720   1.587  12.835 -0.0220 -0.3722  0.1569
    6MPD1    N113958   2.241   1.736  12.525  0.0489 -0.1794 -0.1463
    6MPD1    H613959   2.234   1.643  12.485 -1.0665  0.2825 -1.0045
    6MPD1    H713960   2.225   1.807  12.454  3.9197 -0.7184 -1.5452
    7MPD2     C13961   3.094   0.834  12.651 -0.0067 -0.1323 -0.0780
    7MPD2    C113962   3.117   0.937  12.741  0.7445  0.4008 -0.4659
    7MPD2    C213963   3.242   0.959  12.788 -0.6821 -0.1783  0.6247
    7MPD2    C313964   3.346   0.878  12.760  0.1522  0.3159 -1.0095
    7MPD2    C413965   3.328   0.760  12.692 -0.3097  0.1620 -0.2304
    7MPD2    C513966   3.202   0.751  12.633  0.4929  0.2969  0.0425
    7MPD2     H13967   3.269   1.048  12.845 -2.1185  1.3991 -1.1219
    7MPD2    H113968   3.393   0.677  12.667  0.5291  1.2796 -1.8196
    7MPD2    H213969   3.001   0.821  12.597 -0.3900  0.5256  0.4272
    7MPD2    H313970   3.193   0.671  12.560 -0.9770 -1.1905  1.8491
    7MPD2     N13971   3.476   0.912  12.807 -0.5663  0.5328 -0.1898
    7MPD2    H513972   3.484   1.000  12.857 -1.0829  0.2452  0.3908
    7MPD2    N113973   3.019   1.036  12.778 -0.2396 -0.4922 -0.1527
    7MPD2    H713974   3.061   1.113  12.829 -0.9589  0.5885 -1.1947
    8TMC3    C113975   3.687   0.897  12.891  0.6581 -0.0761  0.1171
    8TMC3    C213976   3.727   0.823  12.993  0.1458  0.3980  0.2460
    8TMC3    C313977   3.732   0.885  13.112  0.5622  0.0100 -0.9681
    8TMC3    C413978   3.663   1.032  12.903 -0.1237  0.4965  0.3140
    8TMC3    C513979   3.663   1.088  13.021 -0.6551  0.4450  0.6449
    8TMC3    C613980   3.692   1.016  13.129 -0.5832  0.7904  0.5797
    8TMC3     C13981   3.593   0.837  12.801  0.2876 -0.2088 -0.2610
    8TMC3     O13982   3.615   0.720  12.769 -0.1473  0.2187 -0.2896
    8TMC3     H13983   3.753   0.719  12.974 -2.5522 -0.3292  0.5364
    8TMC3    H113984   3.641   1.090  12.814 -1.9575 -0.6168  0.0468
    8TMC3    H213985   3.714   1.061  13.225  1.0148  0.8345  0.1974
    8TMC3    C713986   3.541   1.170  13.027 -0.2476  0.3138 -0.2509
    8TMC3    C813987   3.785   0.821  13.234  0.1123 -0.7329 -0.2197
    8TMC3    O113988   3.461   1.150  12.932  0.4052  0.0909  0.1172
    8TMC3    O213989   3.828   0.892  13.324 -0.3918 -0.6740 -0.4334
    9TMC3    C113990   2.703   1.349  12.817  0.5717  0.1711  0.3785
    9TMC3    C213991   2.757   1.394  12.933  0.0366 -0.1691 -0.5524
    9TMC3    C313992   2.840   1.308  12.994 -0.0253  0.1008 -0.1568
    9TMC3    C413993   2.733   1.228  12.754  0.4342  0.2159  0.5613
    9TMC3    C513994   2.826   1.155  12.812  0.5583 -0.1906 -0.5043
    9TMC3    C613995   2.879   1.188  12.937 -0.1243  0.7557  0.1280
    9TMC3     C13996   2.613   1.439  12.751 -0.1977  0.6009  0.2130
    9TMC3     O13997   2.548   1.383  12.662 -0.5650 -0.2173 -0.3441
    9TMC3     H13998   2.725   1.483  12.986  0.7682 -0.5657  0.5581
    9TMC3    H113999   2.683   1.198  12.662  0.4091  1.0894  0.2904
    9TMC3    H214000   2.936   1.111  12.988 -0.1677 -0.5091 -1.7151
    9TMC3    C714001   2.885   1.048  12.735  0.8088  0.6682 -0.9486
    9TMC3    C814002   2.928   1.363  13.098 -0.5884 -0.0374  0.0655
    9TMC3    O114003   2.822   1.009  12.643  0.3156 -0.0947  0.3186
    9TMC3    O214004   2.883   1.420  13.193  0.1065  0.0063 -0.0715
   10MPD2     C14005   3.379   1.290  13.342 -0.4222 -0.0629  0.1065
   10MPD2    C114006   3.394   1.261  13.207  0.2166  0.3004 -0.2485
   10MPD2    C214007   3.280   1.283  13.127  0.2047 -0.1551 -0.2724
   10MPD2    C314008   3.161   1.330  13.171 -0.7050  0.3890  0.3472
   10MPD2    C414009   3.152   1.376  13.299  0.7706  0.4194  0.1739
   10MPD2    C514010   3.263   1.360  13.379  0.2643  0.1851 -0.3202
   10MPD2     H14011   3.279   1.249  13.024  2.0752  2.8613 -1.2813
   10MPD2    H114012   3.065   1.429  13.335  0.3924  0.3355 -0.6077
   10MPD2    H214013   3.458   1.271  13.414 -1.2773 -1.1556  0.7712
   10MPD2    H314014   3.250   1.371  13.486 -1.4842  2.5720 -0.7848
   10MPD2     N14015   3.057   1.334  13.071 -0.2439 -0.2032 -0.2016
   10MPD2    H514016   3.097   1.300  12.984 -0.1298  1.1418 -0.6779
   10MPD2    N114017   3.518   1.217  13.157 -0.1209  0.4899  0.0007
   10MPD2    H714018   3.598   1.213  13.219 -0.3619  1.7336  0.3983
   11MPD2     C14019   4.551   0.388  14.510 -0.9403 -0.1882 -0.3821
   11MPD2    C114020   4.562   0.296  14.402 -0.0105 -0.1069  0.3564
   11MPD2    C214021   4.554   0.349  14.276 -0.7913  0.1552 -0.1426
   11MPD2    C314022   4.546   0.486  14.258  0.3871  0.6801  0.1534
   11MPD2    C414023   4.551   0.571  14.361 -0.6509  0.1986 -0.0414
   11MPD2    C514024   4.541   0.521  14.489  0.1438 -0.0495 -0.1772
   11MPD2     H14025   4.543   0.280  14.193 -1.6074 -0.6544  0.6330
   11MPD2    H114026   4.540   0.677  14.341 -0.8845  0.3488  0.8710
   11MPD2    H214027   4.554   0.356  14.613  0.9455 -1.8903 -0.9471
   11MPD2    H314028   4.531   0.581  14.579  0.6046 -0.7846  0.3718
   11MPD2     N14029   4.519   0.535  14.125  0.0323 -0.1061 -0.5173
   11MPD2    H514030   4.514   0.635  14.112 -1.4654 -0.0704  0.3243
   11MPD2    N114031   4.561   0.160  14.423  0.6107 -0.5666 -0.0165
   11MPD2    H714032   4.546   0.107  14.338  0.0171  1.1718 -1.0055
    1MPD1     C14033   2.807   1.765  16.484  0.3096  0.6728 -0.6172
    1MPD1    C114034   2.890   1.836  16.408 -0.5461 -0.0265 -0.8212
    1MPD1    C214035   2.877   1.828  16.265  0.9445  0.2036 -0.2877
    1MPD1    C314036   2.772   1.752  16.207  0.8413  0.1329 -0.6431
    1MPD1    C414037   2.683   1.691  16.291  0.3775  0.5423  0.3161
    1MPD1    C514038   2.714   1.687  16.425 -0.5537  0.1235 -0.8904
    1MPD1     H14039   2.949   1.878  16.201 -0.4485  0.3542 -1.7457
    1MPD1    H114040   2.592   1.641  16.261 -0.2751  2.1868 -0.4257
    1MPD1    H214041   2.807   1.766  16.593  0.4636  2.3314 -0.6332
    1MPD1    H314042   2.655   1.626  16.492  1.1792 -3.3165 -2.4711
    1MPD1     N14043   2.751   1.730  16.067 -0.2571  0.1861  0.3461
    1MPD1    H514044   2.665   1.681  16.046 -1.3962  2.0894  0.5232
    1MPD1    N114045   2.996   1.900  16.479 -0.0552  0.3019 -0.2114
    1MPD1    H614046   2.956   1.961  16.550 -0.4302  2.1653 -2.0411
    1MPD1    H714047   3.043   1.961  16.413  2.8544  1.1878  2.6875
    2MPD1     C14048   2.905   2.190  15.069  0.5191 -0.1653 -0.2484
    2MPD1    C114049   2.877   2.054  15.054  0.3378 -0.5697 -0.4618
    2MPD1    C214050   2.839   1.988  15.165 -0.5397  0.8208  0.0733
    2MPD1    C314051   2.852   2.045  15.288 -0.1174  0.2925 -0.0507
    2MPD1    C414052   2.907   2.169  15.299 -0.7700  0.6231 -0.2432
    2MPD1    C514053   2.925   2.246  15.194  0.4940  1.2928 -0.2283
    2MPD1     H14054   2.808   1.885  15.156  0.4882  0.5766 -0.6808
    2MPD1    H114055   2.924   2.208  15.398  1.5229  0.7794 -0.7103
    2MPD1    H214056   2.925   2.257  14.987  1.7647  0.5303  0.6226
    2MPD1    H314057   2.959   2.349  15.203  2.7325  0.2432  2.9834
    2MPD1     N14058   2.817   1.961  15.400  0.6717 -0.1087 -0.1104
    2MPD1    H514059   2.772   1.873  15.377 -0.7469  0.8217 -0.9033
    2MPD1    N114060   2.837   2.015  14.930  0.6695  0.1011 -0.1424
    2MPD1    H614061   2.889   2.053  14.851  2.0455  0.4795  0.9376
    2MPD1    H714062   2.840   1.914  14.919  3.0132 -0.1077  2.3676
    3TMC3    C114063   2.820   1.850  15.617 -0.1152  0.1871  0.7597
    3TMC3    C214064   2.723   1.765  15.573  0.5877  1.0134 -0.5811
    3TMC3    C314065   2.664   1.686  15.666 -0.9081  0.0776  0.1556
    3TMC3    C414066   2.868   1.845  15.744  0.7217  0.0787  0.2359
    3TMC3    C514067   2.811   1.755  15.836 -0.1408 -0.5254  0.0357
    3TMC3    C614068   2.709   1.674  15.794  0.2980  0.4921  0.0948
    3TMC3     C14069   2.861   1.969  15.532  0.0075  0.1084  0.5539
    3TMC3     O14070   2.933   2.049  15.585 -0.2383  0.1098  0.0744
    3TMC3     H14071   2.683   1.776  15.472  2.3648 -0.5319 -1.4337
    3TMC3    H114072   2.964   1.895  15.761  0.6411 -0.4913  2.3112
    3TMC3    H214073   2.648   1.616  15.862  1.2681 -0.3561  0.2526
    3TMC3    C714074   2.845   1.780  15.971  0.1762  0.1873 -1.1976
    3TMC3    C814075   2.532   1.625  15.633 -1.6825 -0.2112 -0.0976
    3TMC3    O114076   2.948   1.848  15.982 -0.0239 -0.0178  0.1707
    3TMC3    O214077   2.463   1.613  15.730  0.3402 -0.6491  0.2293
    4MPD1     C14078   2.182   1.527  15.269  0.0930 -0.2286  0.1436
    4MPD1    C114079   2.305   1.540  15.211  0.0757  0.5010  0.1956
    4MPD1    C214080   2.413   1.555  15.292  0.8779 -0.1828  0.0884
    4MPD1    C314081   2.400   1.553  15.433 -0.1930 -0.5852 -0.6438
    4MPD1    C414082   2.275   1.532  15.494  0.5658 -0.9555 -0.1624
    4MPD1    C514083   2.164   1.519  15.410  0.3900 -0.4454 -1.1032
    4MPD1     H14084   2.507   1.570  15.240  0.1521  0.8648 -0.9202
    4MPD1    H114085   2.265   1.540  15.601 -0.4104 -3.4853 -0.0662
    4MPD1    H214086   2.096   1.538  15.205  2.0762 -0.8372 -2.6196
    4MPD1    H314087   2.066   1.512  15.454  0.4489  1.1271 -0.7213
    4MPD1     N14088   2.516   1.602  15.499  0.2320 -0.2950 -0.0188
    4MPD1    H514089   2.596   1.624  15.439  1.3456  0.8880  1.9033
    4MPD1    N114090   2.323   1.538  15.073  0.6609 -0.5504 -0.0909
    4MPD1    H614091   2.410   1.586  15.050 -0.5210  1.7062  0.1631
    4MPD1    H714092   2.247   1.573  15.014 -0.4740 -0.3159  1.5242
    1TCq1    O114093   4.510   0.780  12.308 -0.0827  0.0343 -0.0297
    1TCq1    C114094   4.619   0.779  12.231  0.4639 -0.6303  0.2239
    1TCq1    O214095   4.723   0.716  12.253  0.4388  0.3502 -0.1280
    1TCq1    C214096   4.594   0.850  12.108  0.2808 -0.8539 -0.3883
    1TCq1    C314097   4.657   0.813  11.992  0.0135 -0.2146 -0.3351
    1TCq1    C414098   4.623   0.868  11.875 -0.5562 -0.1416  0.3885
    1TCq1    C514099   4.527   0.963  11.866  0.2805 -0.6965  0.6100
    1TCq1    C614100   4.468   1.006  11.983 -0.7632  0.2187 -0.1140
    1TCq1    C714101   4.501   0.953  12.107  0.0904  0.2602 -0.9916
    1TCq1    C814102   4.349   1.093  11.983 -0.6701 -0.9597 -0.3344
    1TCq1    O414103   4.323   1.169  12.079  0.4113 -0.1631  0.1453
    1TCq1    C914104   4.668   0.811  11.751 -0.3663 -0.1709  0.6366
    1TCq1    O514105   0.029   0.729  11.763  0.1223 -0.2261 -0.1687
    1TCq1    O614106   4.612   0.847  11.643 -0.3645 -0.2511  0.3728
    1TCq1    H114107   4.425   0.801  12.264  1.1776  0.3299 -2.3153
    1TCq1    H214108   4.720   0.724  11.993 -0.4194 -0.5118  0.2927
    1TCq1    H314109   4.503   1.010  11.771  1.5841 -0.2379  0.5015
    1TCq1    H414110   4.458   1.000  12.194  0.6343 -0.0487 -0.5613
    2MPD1     C14111   3.984   1.328  11.709  0.9438  0.4299  1.0415
    2MPD1    C114112   4.000   1.195  11.666 -0.3280  0.1126 -0.2422
    2MPD1    C214113   4.115   1.124  11.704  0.2022  0.3974  0.1981
    2MPD1    C314114   4.194   1.171  11.805  0.4290 -0.7416  0.2349
    2MPD1    C414115   4.163   1.286  11.862  0.2349 -0.2234 -0.0862
    2MPD1    C514116   4.061   1.366  11.813  0.5973 -0.1462  0.4285
    2MPD1     H14117   4.137   1.023  11.671  0.9612  0.8793 -0.7524
    2MPD1    H114118   4.235   1.326  11.933 -0.5392  1.5585 -0.3079
    2MPD1    H214119   3.917   1.401  11.666 -0.2957 -0.2427  1.8320
    2MPD1    H314120   4.055   1.467  11.852 -0.5050 -0.0622  0.0277
    2MPD1     N14121   4.295   1.088  11.859  0.1992 -0.8630 -0.5722
    2MPD1    H514122   4.332   1.017  11.797 -0.2902 -2.2580  0.7423
    2MPD1    N114123   3.919   1.144  11.565 -0.3096  0.6197  0.5783
    2MPD1    H614124   3.903   1.043  11.567  1.0554  0.3534 -2.0029
    2MPD1    H714125   3.839   1.195  11.528 -0.2813  0.5843  0.4670
    1TMC1    C114126   2.358   0.186   1.115 -0.2950  0.6458  0.3174
    1TMC1    C214127   2.434   0.304   1.106  0.2941  0.3769  0.2194
    1TMC1    C314128   2.367   0.419   1.102  0.0207  0.2208  0.3992
    1TMC1    C414129   2.221   0.195   1.116  0.1543  0.0206 -0.6118
    1TMC1    C514130   2.161   0.313   1.107 -0.9924  0.3991 -0.0041
    1TMC1    C614131   2.232   0.430   1.099 -0.4047 -0.2581 -0.0449
    1TMC1     C14132   2.407   0.048   1.112  0.8490 -0.0981  0.7585
    1TMC1     O14133   2.320   4.698   1.091  0.3190 -0.3247  0.2102
    1TMC1     H14134   2.542   0.311   1.107  0.2751  0.6974 -0.2265
    1TMC1    H114135   2.159   0.107   1.115 -0.3105  0.3417 -0.1496
    1TMC1    H214136   2.177   0.523   1.092  1.5389  1.0018  1.3011
    1TMC1    C714137   2.015   0.319   1.100 -0.0354 -0.3214  0.4642
    1TMC1    C814138   2.446   0.545   1.090 -0.2890 -0.3815 -0.4379
    1TMC1    O114139   1.968   0.427   1.129 -0.6015 -0.2792 -0.1309
    1TMC1    O214140   2.528   0.562   1.000 -0.0227 -0.0267  0.1012
    1TMC1    O314141   1.971   0.249   0.995  0.4543 -0.2747  0.2024
    1TMC1    H314142   2.011   0.161   0.983  0.7426  0.0330 -1.0160
    1TMC1    O514143   2.393   0.642   1.167 -0.0847  0.5698  0.0708
    1TMC1    H514144   2.334   0.601   1.234 -1.7731  0.8731 -1.2469
    2MPD1     C14145   2.758   4.414   1.176  0.1799  0.3830  0.2983
    2MPD1    C114146   2.825   4.529   1.177  0.5873  0.7206  0.8058
    2MPD1    C214147   2.750   4.647   1.147 -0.0922 -0.0481  0.3196
    2MPD1    C314148   2.617   4.646   1.125 -0.0638 -0.2180 -0.0737
    2MPD1    C414149   2.562   4.520   1.105 -0.1251 -0.4160 -0.8565
    2MPD1    C514150   2.632   4.405   1.134 -0.2935  0.2495  0.4135
    2MPD1     H14151   2.797   0.008   1.162 -1.5440  0.2015  3.2839
    2MPD1    H114152   2.463   4.497   1.066 -0.7047  3.7819 -1.9234
    2MPD1    H214153   2.805   4.322   1.210 -1.0873 -0.2370  0.3695
    2MPD1    H314154   2.593   4.304   1.120 -0.9330  0.8508 -2.1850
    2MPD1     N14155   2.548   0.035   1.105  0.0657  0.5654  0.1498
    2MPD1    H514156   2.601   0.121   1.110 -0.4620  0.9289 -0.6270
    2MPD1    N114157   2.957   4.547   1.218  0.2345  0.7816 -0.0648
    2MPD1    H614158   2.998   4.635   1.190  1.9609  0.1012  0.3179
    2MPD1    H714159   3.016   4.467   1.194 -0.5009  0.2097  0.0162
    1MPD1     C14160   0.682   2.103  12.171 -0.1685  0.2580  0.1761
    1MPD1    C114161   0.560   2.045  12.139  0.5277  0.2212  0.3360
    1MPD1    C214162   0.533   1.913  12.157 -0.3722 -0.1836 -0.3903
    1MPD1    C314163   0.629   1.829  12.216 -0.1350  0.7051  0.1278
    1MPD1    C414164   0.755   1.890  12.234 -0.4835  0.0551  0.3086
    1MPD1    C514165   0.781   2.021  12.212  0.0547 -0.3541  0.3780
    1MPD1     H14166   0.441   1.863  12.133  0.0718 -0.5659 -1.2791
    1MPD1    H114167   0.837   1.843  12.288  0.2989  1.8884  0.7105
    1MPD1    H214168   0.695   2.210  12.161  1.0540  0.2793  1.9753
    1MPD1    H314169   0.877   2.070  12.226 -0.6202  1.0953 -0.0617
    1MPD1     N14170   0.592   1.693  12.246 -0.0592 -0.1847 -0.2895
    1MPD1    H514171   0.494   1.672  12.228 -0.2681  0.0642  0.5940
    1MPD1    N114172   0.453   2.133  12.110 -0.1433  0.0151 -0.4716
    1MPD1    H614173   0.370   2.093  12.068  0.3596 -1.0565 -0.4444
    1MPD1    H714174   0.487   2.216  12.062  1.6446 -0.9549 -0.8850
    2MPD1     C14175   0.517   1.015  10.198  0.6687 -0.5460  0.2524
    2MPD1    C114176   0.629   1.066  10.139  0.2513 -0.5590  0.5694
    2MPD1    C214177   0.730   1.124  10.217  0.6569 -0.6450  0.4695
    2MPD1    C314178   0.699   1.149  10.352 -0.1848 -0.2999 -0.6882
    2MPD1    C414179   0.585   1.102  10.409 -0.1832 -0.5997  0.9322
    2MPD1    C514180   0.495   1.034  10.328 -0.2624 -1.1060  0.3355
    2MPD1     H14181   0.823   1.157  10.172  0.0420  1.4461  0.7007
    2MPD1    H114182   0.569   1.115  10.515  0.9076  0.4504  0.9731
    2MPD1    H214183   0.441   0.969  10.136  0.2160  0.1512  0.2989
    2MPD1    H314184   0.399   1.003  10.367  0.3426 -2.0160  1.1063
    2MPD1     N14185   0.789   1.197  10.452  0.2446 -0.4386  0.1286
    2MPD1    H514186   0.756   1.201  10.548  2.4517  1.4969  0.7927
    2MPD1    N114187   0.658   1.019  10.007 -0.1951  0.1689  0.1134
    2MPD1    H614188   0.571   1.027   9.955 -0.0735 -0.0826 -0.1301
    2MPD1    H714189   0.718   1.082   9.954 -0.3960 -0.5588 -1.0004
    3MPD1     C14190   1.419   1.985  10.417  0.8150 -0.2933  0.1578
    3MPD1    C114191   1.329   1.929  10.327  0.9429 -0.2016 -0.5579
    3MPD1    C214192   1.268   1.803  10.357 -0.5999 -0.4298 -0.3070
    3MPD1    C314193   1.294   1.737  10.473  0.7764  0.0873 -0.2409
    3MPD1    C414194   1.382   1.797  10.562  0.5517  0.6474  0.4055
    3MPD1    C514195   1.449   1.914  10.529 -0.2581  0.8410  0.3925
    3MPD1     H14196   1.196   1.764  10.286 -1.4497  2.1555 -0.8878
    3MPD1    H114197   1.414   1.752  10.655  1.7817  0.5293 -0.0836
    3MPD1    H214198   1.486   2.068  10.399 -1.9593  2.0705  0.8046
    3MPD1    H314199   1.518   1.952  10.603  0.3064  3.5531 -1.5546
    3MPD1     N14200   1.234   1.614  10.496  0.4166  0.3348  0.2928
    3MPD1    H514201   1.177   1.579  10.419  2.4464 -0.9505 -0.6073
    3MPD1    N114202   1.318   1.976  10.196  0.5649 -0.1805  0.2755
    3MPD1    H614203   1.325   2.075  10.174  0.5174 -0.5819 -1.5751
    3MPD1    H714204   1.236   1.934  10.153  1.0541  0.7358 -1.5635
    4MPD2     C14205   0.958   0.953  12.208  0.0411 -0.1384 -0.2556
    4MPD2    C114206   0.828   0.982  12.166  1.0700  0.0460 -0.0434
    4MPD2    C214207   0.787   0.926  12.047 -0.1647  0.2475  0.3144
    4MPD2    C314208   0.870   0.845  11.972 -0.4552 -0.1299 -0.6925
    4MPD2    C414209   0.996   0.817  12.023  0.2003  0.0755 -0.9519
    4MPD2    C514210   1.040   0.871  12.135 -0.2975 -0.2082 -0.3599
    4MPD2     H14211   0.688   0.952  12.010 -0.0516  0.7660  0.3767
    4MPD2    H114212   1.069   0.751  11.977 -1.2293 -1.6689 -0.7260
    4MPD2    H214213   0.998   0.986  12.303 -0.5926 -0.0596 -0.0141
    4MPD2    H314214   1.142   0.848  12.162 -0.5222 -0.6697  0.0973
    4MPD2     N14215   0.822   0.801  11.850 -0.6071 -0.0665 -0.5282
    4MPD2    H514216   0.726   0.821  11.824 -0.3837  1.8023  0.1364
    4MPD2    N114217   0.743   1.065  12.236 -0.0562 -0.0761  0.2254
    4MPD2    H714218   0.651   1.074  12.194  0.3003 -0.5646 -0.6794
    5TMC3    C114219   0.661   1.242  12.350 -0.3982  0.6089  0.3176
    5TMC3    C214220   0.707   1.373  12.356 -0.2711  0.0051 -0.4712
    5TMC3    C314221   0.616   1.468  12.309 -0.7128  0.3100  0.7562
    5TMC3    C414222   0.543   1.203  12.301 -0.7245  0.7816 -0.1969
    5TMC3    C514223   0.477   1.304  12.230  0.8151 -0.2065  0.2910
    5TMC3    C614224   0.507   1.438  12.232 -0.4895  0.3240 -0.0869
    5TMC3     C14225   0.769   1.151  12.339 -0.9084 -0.8412  0.1579
    5TMC3     O14226   0.878   1.159  12.398  0.2863 -0.2516 -0.7447
    5TMC3     H14227   0.804   1.392  12.400 -0.0718 -2.9990  0.3881
    5TMC3    H114228   0.501   1.103  12.310  0.2694  0.3533 -0.3855
    5TMC3    H214229   0.466   1.510  12.162 -1.0503  1.0684  1.0083
    5TMC3    C714230   0.451   1.241  12.101 -0.8629 -0.3039 -0.1438
    5TMC3    C814231   0.674   1.598  12.306  1.1641  0.0052 -0.4036
    5TMC3    O114232   0.489   1.123  12.094  0.0850  0.5165  0.8074
    5TMC3    O214233   0.786   1.620  12.350 -0.3395  0.4484 -0.5123
    6TMC3    C114234   0.994   1.282  10.538 -0.2358 -0.2434 -0.0398
    6TMC3    C214235   1.079   1.386  10.515  0.8926 -0.0881  0.0685
    6TMC3    C314236   1.132   1.438  10.624  0.2432  0.6257 -0.5163
    6TMC3    C414237   0.983   1.205  10.651  0.1627  0.1531 -0.5328
    6TMC3    C514238   1.072   1.243  10.753 -0.4816 -0.5623 -0.5632
    6TMC3    C614239   1.134   1.363  10.740  0.0421 -0.1628 -0.1545
    6TMC3     C14240   0.914   1.244  10.423  0.6855  0.7925  0.5974
    6TMC3     O14241   0.965   1.267  10.316  0.0673 -0.1272 -0.2713
    6TMC3     H14242   1.085   1.428  10.415 -0.3487  0.0825  0.0704
    6TMC3    H114243   0.920   1.119  10.672 -0.7936  1.2800  1.2872
    6TMC3    H214244   1.186   1.402  10.827  0.1744 -1.8233  0.5107
    6TMC3    C714245   1.066   1.172  10.878 -0.1333  0.3979 -0.0076
    6TMC3    C814246   1.227   1.546  10.614  0.0124  0.4700 -0.4322
    6TMC3    O114247   0.976   1.090  10.879  0.2064  0.8143 -0.0148
    6TMC3    O214248   1.269   1.584  10.723  0.1035  0.1123  0.4214
    7MPD2     C14249   0.357   1.247  11.595 -0.1744  0.7488 -0.2870
    7MPD2    C114250   0.423   1.159  11.675  0.0603  0.5936  0.3094
    7MPD2    C214251   0.436   1.183  11.813  0.4795  0.3037 -0.2216
    7MPD2    C314252   0.389   1.300  11.874  0.5614 -0.7004 -0.6349
    7MPD2    C414253   0.337   1.391  11.789  0.3670 -0.0218 -0.5954
    7MPD2    C514254   0.312   1.359  11.654  0.4001 -0.4065 -0.1720
    7MPD2     H14255   0.486   1.110  11.875 -1.0911 -0.4800  0.1171
    7MPD2    H114256   0.298   1.487  11.822 -3.4010 -2.6391  2.5213
    7MPD2    H214257   0.348   1.241  11.487 -1.3997 -1.9420 -0.0427
    7MPD2    H314258   0.258   1.430  11.593 -0.9357 -2.1887 -1.0671
    7MPD2     N14259   0.425   1.334  12.004  0.3346 -0.4086 -0.2498
    7MPD2    H514260   0.409   1.430  12.035  1.3112  0.4617 -2.4599
    7MPD2    N114261   0.484   1.047  11.606  0.8398  0.4520 -0.1146
    7MPD2    H714262   0.474   1.049  11.505 -0.4668  0.2936  0.0161
    8TMC3    C114263   0.625   0.865  11.579 -0.3751 -0.0403 -0.0947
    8TMC3    C214264   0.689   0.935  11.475 -0.0687  0.0965 -0.5305
    8TMC3    C314265   0.818   0.903  11.461 -0.7629 -0.5345  0.4541
    8TMC3    C414266   0.687   0.760  11.643  0.8831  0.4654  0.6943
    8TMC3    C514267   0.822   0.743  11.631  0.4701 -0.4199  0.3315
    8TMC3    C614268   0.890   0.819  11.542  0.2680  0.1850 -0.5325
    8TMC3     C14269   0.546   0.944  11.665 -0.0721  0.2170 -0.2280
    8TMC3     O14270   0.559   0.911  11.783  0.5583 -0.4005  0.1227
    8TMC3     H14271   0.643   1.014  11.417 -2.3554  1.6362  3.3976
    8TMC3    H114272   0.632   0.709  11.721 -1.2530  0.7289 -0.6431
    8TMC3    H214273   0.993   0.799  11.514  0.1523 -1.9860  0.6594
    8TMC3    C714274   0.900   0.743  11.753  0.7953  0.1697 -0.4852
    8TMC3    C814275   0.892   0.980  11.355  0.2621 -0.3830 -0.0677
    8TMC3    O114276   1.020   0.737  11.742  0.2220 -0.6278  0.5751
    8TMC3    O214277   0.820   0.998  11.258 -0.2780  0.0144 -0.7046
    9MPD2     C14278   1.218   1.159  11.378 -0.1189 -0.3046 -0.5012
    9MPD2    C114279   1.101   1.097  11.312 -0.0751  0.0703 -0.4172
    9MPD2    C214280   1.079   1.118  11.176 -0.5029 -0.0065  0.6973
    9MPD2    C314281   1.170   1.192  11.106  0.6253  0.3454  0.0346
    9MPD2    C414282   1.274   1.255  11.167  0.0254  0.7314 -0.4088
    9MPD2    C514283   1.303   1.225  11.295  0.3395  0.3017  0.1786
    9MPD2     H14284   1.006   1.058  11.124 -0.2665 -1.1686  1.7201
    9MPD2    H114285   1.355   1.305  11.115 -1.4850  1.7199 -1.8333
    9MPD2    H214286   1.235   1.146  11.485  0.7982  2.2462 -0.3251
    9MPD2    H314287   1.385   1.271  11.349 -0.1984 -0.0394  1.2895
    9MPD2     N14288   1.164   1.215  10.971  0.1985 -0.2932 -0.3222
    9MPD2    H514289   1.239   1.273  10.935  0.1006 -0.0448 -0.1305
    9MPD2    N114290   1.013   1.027  11.397  0.2831  0.0721  0.7053
    9MPD2    H714291   1.041   1.007  11.492  0.1752  1.3708  1.0154
    1MPD1     C14292   1.512   0.629  16.474  0.1827 -0.4196 -0.0183
    1MPD1    C114293   1.485   0.503  16.528 -0.6431  0.5086  0.1860
    1MPD1    C214294   1.356   0.455  16.522 -0.7245  0.3970  0.2752
    1MPD1    C314295   1.257   0.540  16.471 -0.6926 -1.0167 -0.3434
    1MPD1    C414296   1.290   0.666  16.427  0.0251  0.3599  0.4047
    1MPD1    C514297   1.412   0.717  16.441  0.6659 -0.5194 -1.4273
    1MPD1     H14298   1.327   0.357  16.558  1.5063  0.4837  2.2428
    1MPD1    H114299   1.211   0.729  16.389  2.2086  2.5333 -0.4998
    1MPD1    H214300   1.610   0.673  16.462 -1.4805  2.9248 -1.4467
    1MPD1    H314301   1.423   0.823  16.419  1.1921 -0.3627 -0.4092
    1MPD1     N14302   1.119   0.504  16.455 -0.4026 -0.6753 -0.0715
    1MPD1    H514303   1.062   0.559  16.391  0.5474  1.8562  1.2900
    1MPD1    N114304   1.588   0.424  16.581 -0.0947 -0.0756  0.9278
    1MPD1    H614305   1.662   0.476  16.627  0.8234  0.6023 -1.3360
    1MPD1    H714306   1.562   0.351  16.647 -2.3950 -0.0359  0.0851
    2TMC2    C114307   0.733   0.381  16.345  0.5634 -0.6501 -0.1238
    2TMC2    C214308   0.655   0.317  16.439  0.1514 -0.0647  0.1327
    2TMC2    C314309   0.706   0.309  16.557 -0.5070 -0.2536 -0.3241
    2TMC2    C414310   0.863   0.413  16.366 -0.4238  0.6268  0.0964
    2TMC2    C514311   0.916   0.386  16.492  0.1676  0.8897  0.1227
    2TMC2    C614312   0.834   0.332  16.589 -0.7586 -0.8543  0.2013
    2TMC2     C14313   0.691   0.383  16.205 -0.2033 -0.0057 -0.7714
    2TMC2     O14314   0.723   0.471  16.128 -0.0660  0.4709  0.0401
    2TMC2     H14315   0.550   0.291  16.432  0.1001 -0.0904  1.0692
    2TMC2    H114316   0.917   0.466  16.289 -0.8286  1.3990  0.3336
    2TMC2    H214317   0.868   0.319  16.692  0.4563 -0.1255 -0.1056
    2TMC2    C714318   1.054   0.408  16.531  0.3155  0.5563 -0.6790
    2TMC2    C814319   0.609   0.286  16.664  0.0802 -0.3598  0.4524
    2TMC2    O114320   1.095   0.352  16.634 -0.9759  0.1704  0.5810
    2TMC2    O214321   0.512   0.214  16.655  0.4142  0.2359 -0.1462
    2TMC2    O514322   0.587   0.413  16.690 -0.4509 -0.7022 -0.0259
    2TMC2    H514323   0.666   0.472  16.691  0.4619 -1.8790 -2.4984
    3MPD1     C14324   0.469   0.188  15.790  0.6453  0.2110 -0.9694
    3MPD1    C114325   0.429   0.119  15.905  0.0711 -1.1685  0.4244
    3MPD1    C214326   0.497   0.135  16.021 -0.2055  0.3239  0.0363
    3MPD1    C314327   0.582   0.238  16.046  0.7203  0.1281 -0.8235
    3MPD1    C414328   0.614   0.313  15.930 -0.2978  0.2353 -0.7530
    3MPD1    C514329   0.563   0.280  15.806  0.5045 -0.4474  0.2485
    3MPD1     H14330   0.467   0.070  16.102  1.3464 -0.4996 -0.0548
    3MPD1    H114331   0.693   0.386  15.918 -0.4237  0.9267  2.5482
    3MPD1    H214332   0.420   0.179  15.694  1.4450 -2.4499 -1.1220
    3MPD1    H314333   0.601   0.340  15.724 -1.7080  0.3991 -0.1444
    3MPD1     N14334   0.631   0.264  16.173 -0.1707  0.3483 -0.2186
    3MPD1    H514335   0.612   0.205  16.254  0.8357 -0.3817 -0.5169
    3MPD1    N114336   0.333   0.015  15.888  0.5312  0.4577  0.2113
    3MPD1    H614337   0.280   0.004  15.974 -0.8685 -0.5986 -0.7926
    3MPD1    H714338   0.262   0.034  15.817  1.3416 -4.5989 -1.9486
    1TMC1    C114339   3.853   3.658  13.057 -0.4775 -0.3310  0.4682
    1TMC1    C214340   3.964   3.579  13.040  0.0440  0.0080 -0.1519
    1TMC1    C314341   3.942   3.445  13.023 -0.1668  0.7497 -0.0445
    1TMC1    C414342   3.725   3.612  13.050 -0.5148 -0.2551  0.0908
    1TMC1    C514343   3.704   3.479  13.026 -0.6992 -0.1954 -0.1714
    1TMC1    C614344   3.814   3.396  13.014  0.4359  0.1917 -0.5840
    1TMC1     C14345   3.877   3.804  13.070  0.1121  1.0823 -0.5825
    1TMC1     O14346   3.824   3.891  13.004 -0.1106 -0.0008 -0.7302
    1TMC1     H14347   4.062   3.627  13.043  0.2914 -0.3045 -3.1549
    1TMC1    H114348   3.647   3.681  13.081 -1.6089 -1.4455  0.0012
    1TMC1    H214349   3.794   3.294  12.985  2.1643 -0.1306 -0.6294
    1TMC1    C714350   3.575   3.427  13.005  0.6399  0.0139  1.4058
    1TMC1    C814351   4.059   3.375  12.973  0.2068  0.3261 -0.0248
    1TMC1    O114352   3.544   3.310  13.014 -0.1058 -0.3354  0.4361
    1TMC1    O214353   4.170   3.388  13.021  0.0796 -0.0559  0.3520
    1TMC1    O314354   3.527   3.512  12.917  0.0725  0.2015 -0.3193
    1TMC1    H314355   3.563   3.603  12.910 -0.7364  0.6820  1.9875
    1TMC1    O514356   4.030   3.278  12.887  0.2156 -0.0520 -0.2006
    1TMC1    H514357   3.937   3.279  12.857 -0.3320  0.2968  1.4803
    2MPD2     C14358   4.049   4.044  13.134 -0.4056  0.2946  0.2833
    2MPD2    C114359   4.021   3.938  13.219  0.1321  0.8617 -0.1521
    2MPD2    C214360   4.062   3.944  13.347  0.2809  0.1193  0.2353
    2MPD2    C314361   4.132   4.055  13.395 -0.2417  1.3586  0.3969
    2MPD2    C414362   4.154   4.158  13.314  0.1007 -0.2248 -0.1936
    2MPD2    C514363   4.115   4.152  13.182  0.3396 -0.5450 -0.2450
    2MPD2     H14364   4.044   3.865  13.420 -2.4066  0.5976  0.1061
    2MPD2    H114365   4.217   4.242  13.341  0.5728 -0.0378 -1.8526
    2MPD2    H214366   4.038   4.015  13.030  1.9526 -1.3469  0.5028
    2MPD2    H314367   4.144   4.238  13.122 -1.4222  0.4940  0.3774
    2MPD2     N14368   4.177   4.038  13.524  0.4491 -0.3914  0.3680
    2MPD2    H514369   4.147   3.953  13.572 -0.5575  0.8494  1.9233
    2MPD2    N114370   3.957   3.821  13.176 -0.5008  0.3648 -0.3725
    2MPD2    H714371   3.955   3.745  13.243  1.9654  1.3543  0.8160
    3TCq1    O114372   4.026   3.857  13.933 -0.3608  0.1674 -0.0242
    3TCq1    C114373   4.089   3.954  14.005  0.4043 -0.1355  0.4615
    3TCq1    O214374   4.096   3.961  14.127 -0.1263  0.1709  0.5249
    3TCq1    C214375   4.192   4.019  13.933 -1.2648  0.0848 -0.1672
    3TCq1    C314376   4.315   4.047  13.992  0.9813  0.8926  0.6162
    3TCq1    C414377   4.416   4.098  13.916 -0.1645 -0.1952 -0.4230
    3TCq1    C514378   4.408   4.119  13.782  0.4015 -0.3325  0.3841
    3TCq1    C614379   4.287   4.082  13.720  0.6504 -0.0765  0.6045
    3TCq1    C714380   4.177   4.032  13.797  0.1328 -0.6036 -0.1872
    3TCq1    C814381   4.274   4.113  13.580  0.0845 -0.1392  0.2055
    3TCq1    O414382   4.367   4.168  13.522 -0.2590  0.7456 -0.0270
    3TCq1    C914383   4.542   4.097  13.984  0.1014  0.6157  0.1548
    3TCq1    O514384   4.646   4.073  13.915 -0.2922  0.2147 -0.1044
    3TCq1    O614385   4.541   4.078  14.109  0.1299 -0.0769 -0.5460
    3TCq1    H114386   4.066   3.842  13.845 -3.6067  2.2198 -1.8384
    3TCq1    H214387   4.318   4.027  14.098  2.8125 -0.1925  0.3659
    3TCq1    H314388   4.497   4.159  13.736  0.9563 -2.1155 -0.0854
    3TCq1    H414389   4.085   4.009  13.746  0.9627 -0.1846 -1.8868
    1MPD2     C14390   2.951   0.470  14.858  0.2252  0.5837 -0.5805
    1MPD2    C114391   2.923   0.345  14.802  0.7492  0.1523  0.3231
    1MPD2    C214392   3.029   0.254  14.782 -0.7698  0.7190 -0.2558
    1MPD2    C314393   3.159   0.291  14.816 -0.0206  0.5359  0.4112
    1MPD2    C414394   3.185   0.418  14.865  0.3190 -0.6045 -0.6651
    1MPD2    C514395   3.083   0.507  14.883 -0.0100 -0.3669 -0.5608
    1MPD2     H14396   3.023   0.158  14.733 -2.5188  1.2978 -1.1699
    1MPD2    H114397   3.285   0.446  14.896 -0.3033  1.1961 -0.2695
    1MPD2    H214398   2.869   0.540  14.866 -1.7640 -1.9985  1.5700
    1MPD2    H314399   3.105   0.610  14.907  0.2684 -1.1100  2.3618
    1MPD2     N14400   3.278   0.211  14.794  0.1326  0.0720  1.0055
    1MPD2    H514401   3.360   0.231  14.849  1.9688  0.8564 -2.0274
    1MPD2    N114402   2.797   0.315  14.752 -0.6253 -0.7725  0.8064
    1MPD2    H714403   2.722   0.383  14.758  1.1394  1.0916  1.8966
    2TMC3    C114404   2.625   0.190  14.657 -0.3187  0.2806 -0.2786
    2TMC3    C214405   2.573   0.073  14.638  0.7649  0.4356  0.0640
    2TMC3    C314406   2.502   0.033  14.530  0.2831  0.8247 -0.1865
    2TMC3    C414407   2.591   0.292  14.570 -0.0950 -0.3292 -0.4867
    2TMC3    C514408   2.508   0.259  14.468  0.4486  0.6575 -0.6729
    2TMC3    C614409   2.467   0.131  14.437 -0.3032 -0.6857  0.1531
    2TMC3     C14410   2.758   0.192  14.708 -0.0765  0.1177 -0.5798
    2TMC3     O14411   2.815   0.084  14.711  0.5230  0.2708 -0.0273
    2TMC3     H14412   2.601   4.725  14.702 -0.0317 -0.7357 -1.1231
    2TMC3    H114413   2.649   0.384  14.575  2.2668 -1.7908 -1.1707
    2TMC3    H214414   2.426   0.104  14.340  4.4085 -1.7596 -1.5123
    2TMC3    C714415   2.465   0.354  14.371 -0.4426 -0.5480 -0.9659
    2TMC3    C814416   2.573   4.655  14.468  0.0247  1.0720 -0.6078
    2TMC3    O114417   2.353   0.342  14.321 -0.4518 -0.5337  0.1429
    2TMC3    O214418   2.517   4.578  14.390  0.2220  0.4994  0.2556
    3TCq1    O114419   2.861   1.407  14.651  0.2009 -0.5168 -0.1173
    3TCq1    C114420   2.865   1.423  14.516 -0.2383 -0.7228  0.1905
    3TCq1    O214421   2.809   1.511  14.455 -0.2252 -0.3371  0.1749
    3TCq1    C214422   2.889   1.285  14.489  0.3433  0.7540  0.8994
    3TCq1    C314423   2.985   1.221  14.552 -0.1662  0.2404 -0.6804
    3TCq1    C414424   2.999   1.088  14.520 -0.5212  0.5547  0.1059
    3TCq1    C514425   2.919   1.021  14.435 -0.6910 -0.1768 -0.9255
    3TCq1    C614426   2.815   1.088  14.377  0.2890  0.6888 -0.1078
    3TCq1    C714427   2.799   1.222  14.399  0.2482  0.0863 -0.2450
    3TCq1    C814428   2.701   1.019  14.316 -0.1506 -0.5398  0.3566
    3TCq1    O414429   2.606   1.093  14.284 -0.0827  0.2880  0.3182
    3TCq1    C914430   3.087   1.011  14.603 -0.1313  0.4378  0.4266
    3TCq1    O514431   3.049   0.898  14.634  0.1151 -0.0304  0.0666
    3TCq1    O614432   3.166   1.086  14.671 -0.1744 -0.4811 -0.3013
    3TCq1    H114433   2.899   1.318  14.668  2.8756  0.8486  1.1034
    3TCq1    H214434   3.054   1.269  14.621 -0.4092 -0.2821 -0.0707
    3TCq1    H314435   2.944   0.917  14.419  1.1688  0.3977 -1.7569
    3TCq1    H414436   2.722   1.283  14.353  2.2781  3.1425  0.4191
    4MPD2     C14437   2.540   0.821  14.166  0.1635  0.4450  0.3702
    4MPD2    C114438   2.639   0.789  14.248 -0.0063 -0.1757 -0.5650
    4MPD2    C214439   2.656   0.655  14.291 -0.1472  0.8965 -0.0209
    4MPD2    C314440   2.545   0.573  14.284  0.1374 -0.7120  0.8002
    4MPD2    C414441   2.434   0.611  14.208  0.1607  0.3475 -0.8900
    4MPD2    C514442   2.447   0.732  14.141 -0.1412  0.3762 -0.6222
    4MPD2     H14443   2.736   0.620  14.355 -2.1829 -0.7256  1.6310
    4MPD2    H114444   2.347   0.547  14.194 -0.0958  0.5581 -0.2832
    4MPD2    H214445   2.532   0.919  14.120  0.7906  0.1806 -0.3066
    4MPD2    H314446   2.370   0.758  14.069  0.2689  2.0281 -0.4642
    4MPD2     N14447   2.554   0.456  14.359 -0.1914  0.5291  0.9405
    4MPD2    H514448   2.645   0.434  14.397  1.3037  0.4679 -2.7305
    4MPD2    N114449   2.717   0.882  14.312 -0.5848 -0.1426  0.4235
    4MPD2    H714450   2.780   0.849  14.384  0.6119 -0.9771 -1.0119
    5TMC2    C114451   3.377   4.535  14.613  0.6810 -0.2953 -0.3771
    5TMC2    C214452   3.420   4.489  14.732 -0.0862 -0.0441 -0.3333
    5TMC2    C314453   3.441   4.580  14.828  0.2422  0.2860 -0.0889
    5TMC2    C414454   3.372   4.671  14.587  0.2308  0.1432 -0.0938
    5TMC2    C514455   3.387   0.024  14.692 -0.1857 -0.3884 -0.1097
    5TMC2    C614456   3.423   4.719  14.812  1.6515 -0.4053 -0.4082
    5TMC2     C14457   3.271   4.465  14.545  0.0419 -0.2885  0.8560
    5TMC2     O14458   3.279   4.346  14.522  0.4780 -0.7304 -0.4953
    5TMC2     H14459   3.431   4.384  14.760 -0.3482 -0.1598 -0.6688
    5TMC2    H114460   3.348   4.700  14.486  0.4622 -3.7046 -1.2767
    5TMC2    H214461   3.431   0.059  14.890 -1.8447  0.5233 -0.9270
    5TMC2    C714462   3.274   0.115  14.695 -0.4395 -0.0145  0.1940
    5TMC2    C814463   3.510   4.540  14.950  0.2601  0.4570  0.4538
    5TMC2    O114464   3.195   0.091  14.604 -0.8830  0.0489  0.1620
    5TMC2    O214465   3.569   4.434  14.961 -0.2611  0.3669  0.1496
    5TMC2    O514466   3.459   4.613  15.053 -0.1500 -0.2065 -0.1710
    5TMC2    H514467   3.378   4.667  15.035  0.0782  0.2183  0.0699
    6MPD2     C14468   2.774   4.448  14.412  0.4757 -0.2528  0.8428
    6MPD2    C114469   2.801   4.575  14.451 -0.4070  0.1092 -0.2522
    6MPD2    C214470   2.937   4.600  14.490 -0.3249 -0.0304  0.6028
    6MPD2    C314471   3.038   4.512  14.472 -0.3204  0.4343 -0.1825
    6MPD2    C414472   3.008   4.390  14.425  0.1710  0.3356 -0.1608
    6MPD2    C514473   2.881   4.361  14.387  0.2019  0.4492  0.0261
    6MPD2     H14474   2.965   4.701  14.518 -3.2038  0.9454 -0.0044
    6MPD2    H114475   3.083   4.318  14.394 -1.6659 -0.6776 -2.2769
    6MPD2    H214476   2.673   4.420  14.383  0.3538  0.8556  0.1909
    6MPD2    H314477   2.871   4.260  14.349 -1.9708 -0.0125  1.8411
    6MPD2     N14478   3.164   4.544  14.526  0.1647  0.0555 -0.8314
    6MPD2    H514479   3.176   4.634  14.571 -1.7462 -0.3755  0.5494
    6MPD2    N114480   2.709   4.675  14.476  0.7030  0.2115 -0.5087
    6MPD2    H714481   2.740   0.018  14.533 -0.4091  0.9249 -0.8814
  945NH4     N114482   2.725   2.024   8.942 -0.4968  0.3994 -0.0532
  945NH4     H214483   2.685   1.985   9.030 -0.9758  1.2610  0.1103
  945NH4     H314484   2.824   1.994   8.949 -0.5215 -0.0235 -1.5249
  945NH4     H414485   2.723   2.128   8.938 -0.9669  0.4792  2.8541
  945NH4     H514486   2.689   1.979   8.855  1.8593 -2.9906  0.7336
  946SOD     NA14487   3.150   4.344   3.257  0.0746  0.1684  0.0788
  947SOD     NA14488   4.125   0.259  15.371  0.7411 -0.0574  0.5000
  948SOD     NA14489   0.019   3.739  13.102  0.2832 -0.0631  0.3135
  949SOD     NA14490   4.396   2.662  16.363  0.0775  0.0307  0.1117
  950SOD     NA14491   3.652   4.531  11.040  0.1981 -0.0536  0.2292
  951SOD     NA14492   3.356   1.023  12.189 -0.5714 -0.1434 -0.6739
  952SOD     NA14493   3.082   2.779   1.344  0.1462  0.1734 -0.1445
  953SOL     OW14494   3.213   0.966   0.823 -0.2113  0.2530  0.9364
  953SOL    HW114495   3.219   0.877   0.787 -1.9888  0.1841  0.8115
  953SOL    HW214496   3.128   0.962   0.867 -0.4432 -0.2486  0.4504
  954SOL     OW14497   3.922   1.360  16.681 -0.5524  0.3492  0.1595
  954SOL    HW114498   4.017   1.363  16.670 -0.6300 -0.7959 -0.8986
  954SOL    HW214499   3.889   1.335  16.594 -1.2826 -0.0007  0.5377
  955SOL     OW14500   2.054   0.809   3.087  0.0888  0.4625  0.3701
  955SOL    HW114501   2.065   0.874   3.156  0.2761 -1.3237  2.0183
  955SOL    HW214502   2.045   0.863   3.008 -2.6740 -0.6763 -0.1185
  956SOL     OW14503   4.576   1.237   6.717  0.2252  0.3801 -0.1240
  956SOL    HW114504   4.486   1.222   6.689  0.4525 -1.0320 -0.1201
  956SOL    HW214505   4.559   1.290   6.794 -2.6248  0.0156 -0.5174
  957SOL     OW14506   3.687   2.910   6.656  0.2364 -0.3626 -0.2748
  957SOL    HW114507   3.612   2.967   6.672  1.1707 -0.0146  2.9848
  957SOL    HW214508   3.703   2.866   6.740  1.6201  0.7612  0.0492
  958SOL     OW14509   1.596   0.767  16.810  0.1516  0.0770 -0.6872
  958SOL    HW114510   1.599   0.818  16.891 -0.8328 -1.6534  0.4132
  958SOL    HW214511   1.511   0.724  16.804  1.1035 -2.2721  3.3533
  959SOL     OW14512   4.718   2.512   8.307  0.4250 -0.3753 -0.0437
  959SOL    HW114513   0.017   2.597   8.280 -0.9022 -0.5875 -2.4091
  959SOL    HW214514   4.623   2.513   8.290  0.2735  1.7796  0.9372
  960SOL     OW14515   3.040   0.632   7.956 -0.3222  0.5059 -0.0374
  960SOL    HW114516   2.972   0.691   7.924 -0.7914 -0.4862 -0.8563
  960SOL    HW214517   2.997   0.595   8.033  1.0397 -0.7464  0.1076
  961SOL     OW14518   0.669   3.121   7.825  0.5441 -0.3046 -0.5572
  961SOL    HW114519   0.701   3.172   7.751 -0.4208  0.3098 -0.5539
  961SOL    HW214520   0.747   3.132   7.880  0.6611  1.4881 -1.0976
  962SOL     OW14521   3.098   3.369   8.455 -0.4757  0.3453 -0.3214
  962SOL    HW114522   3.149   3.425   8.515 -1.5590  1.4471 -0.4367
  962SOL    HW214523   3.013   3.393   8.492  0.2345  1.8979  0.3252
  963SOL     OW14524   1.552   3.771   3.419  0.2731 -0.0405  0.5304
  963SOL    HW114525   1.575   3.722   3.497 -0.3900  0.3266  0.9514
  963SOL    HW214526   1.506   3.848   3.454 -1.0639  0.7411 -2.9106
  964SOL     OW14527   2.753   4.554   8.188  0.7743  0.1010  0.1547
  964SOL    HW114528   2.706   4.626   8.145  0.1600 -0.9945 -1.0148
  964SOL    HW214529   2.681   4.516   8.238  1.2190  0.9293  1.4277
  965SOL     OW14530   0.948   2.613   9.050  0.2669  0.6142 -0.4388
  965SOL    HW114531   0.955   2.610   8.954  0.4090 -0.3657 -0.3984
  965SOL    HW214532   0.855   2.593   9.063 -0.0988  1.1700 -2.1611
  966SOL     OW14533   3.604   3.512   5.105 -0.1333 -0.4924 -0.2222
  966SOL    HW114534   3.632   3.604   5.109 -0.8655 -0.1720 -2.4389
  966SOL    HW214535   3.613   3.489   5.198 -0.7366  0.1501  0.0013
  967SOL     OW14536   4.552   3.771   5.369  0.1506 -0.0625 -0.2157
  967SOL    HW114537   4.514   3.847   5.413 -0.9567 -1.9800  2.1053
  967SOL    HW214538   4.638   3.813   5.364 -1.4547  3.3351  0.3953
  968SOL     OW14539   2.396   4.537   4.943  0.1821  0.1798  0.0029
  968SOL    HW114540   2.383   4.449   4.978  1.0810  0.7597  1.8168
  968SOL    HW214541   2.354   4.528   4.858 -0.3640 -0.3905  0.3343
  969SOL     OW14542   0.231   4.143   9.523 -0.4461  0.1981 -0.0952
  969SOL    HW114543   0.144   4.137   9.564 -0.6336  0.5196 -0.4389
  969SOL    HW214544   0.290   4.101   9.585 -0.5858 -0.5933 -0.4945
  970SOL     OW14545   2.963   0.363  11.792  0.9075 -0.5805 -0.1412
  970SOL    HW114546   3.042   0.326  11.752  0.9093 -0.1257 -0.5586
  970SOL    HW214547   2.992   0.410  11.870  1.1519  1.5851 -1.5397
  971SOL     OW14548   4.698   3.704  11.965  0.4815  0.7633  0.3747
  971SOL    HW114549   4.643   3.732  12.038 -1.1483 -0.0904 -0.5295
  971SOL    HW214550   4.735   3.622  11.998 -0.2269 -0.1250 -1.0686
  972SOL     OW14551   3.838   0.579   8.369  0.3285  0.3319  0.5421
  972SOL    HW114552   3.804   0.655   8.323 -1.4647 -1.0405 -0.4099
  972SOL    HW214553   3.825   0.609   8.459 -1.8409 -0.3703  0.4609
  973SOL     OW14554   3.772   4.160   3.055 -0.3711  0.3632 -0.1927
  973SOL    HW114555   3.828   4.135   2.981 -0.0777  0.1089  0.1125
  973SOL    HW214556   3.765   4.074   3.096 -2.6507  0.6445  0.0173
  974SOL     OW14557   4.356   3.293   2.332 -0.0245  0.7920  0.1254
  974SOL    HW114558   4.427   3.285   2.395  1.9071  0.1853 -2.1279
  974SOL    HW214559   4.285   3.312   2.393 -0.7334 -0.4660 -0.3307
  975SOL     OW14560   0.907   0.053   7.709  0.4831 -0.0454  0.0550
  975SOL    HW114561   0.900   0.142   7.675  0.7156  0.8633  2.3523
  975SOL    HW214562   0.868   0.005   7.637 -0.8067 -3.3273  2.9331
  976SOL     OW14563   3.381   1.448  17.148 -0.3728 -0.6136  0.3642
  976SOL    HW114564   3.332   1.412  17.222 -0.0461 -1.8300 -0.0295
  976SOL    HW214565   3.406   1.372  17.096 -0.2449  0.1133 -0.6320
  977SOL     OW14566   1.400   2.443   4.045  0.5576 -0.5908 -0.2894
  977SOL    HW114567   1.424   2.533   4.065  2.4787 -0.8605 -1.4070
  977SOL    HW214568   1.305   2.449   4.060  1.0203  0.0108  2.4166
  978SOL     OW14569   3.843   0.962  12.613 -0.0459  0.1423  0.5515
  978SOL    HW114570   3.882   0.882  12.577  1.5148  0.0874  2.3395
  978SOL    HW214571   3.757   0.964  12.571  1.6218 -0.0509 -2.8426
  979SOL     OW14572   0.750   4.208   7.077 -0.0631  0.5640  0.9809
  979SOL    HW114573   0.751   4.304   7.084  0.3122  0.7485 -1.4246
  979SOL    HW214574   0.790   4.198   6.990 -1.4165  0.0533  0.4261
  980SOL     OW14575   2.542   4.314  15.851 -1.1877 -0.0611 -0.2185
  980SOL    HW114576   2.447   4.312  15.839 -1.3547 -0.6386  1.2605
  980SOL    HW214577   2.571   4.295  15.762 -1.6110  0.4587 -0.4684
  981SOL     OW14578   3.829   2.562   7.952 -0.0915 -0.2489 -0.5571
  981SOL    HW114579   3.877   2.620   8.011 -0.4892 -0.4587 -0.0252
  981SOL    HW214580   3.871   2.481   7.981  2.3106  2.4287  3.3994
  982SOL     OW14581   4.519   0.679   5.783 -0.2072 -0.3503 -0.3882
  982SOL    HW114582   4.463   0.659   5.858  1.8368  3.1423  2.0643
  982SOL    HW214583   4.608   0.648   5.798 -0.6298 -2.0379 -1.3149
  983SOL     OW14584   2.861   2.788   6.474 -0.5180  0.8095  0.2102
  983SOL    HW114585   2.946   2.744   6.476 -0.1389  1.5610  0.6416
  983SOL    HW214586   2.809   2.735   6.414  0.6092 -0.0002 -0.0649
  984SOL     OW14587   1.830   2.451   5.123  0.1300 -0.2485  0.0377
  984SOL    HW114588   1.785   2.438   5.207 -1.5022 -1.0599 -0.9709
  984SOL    HW214589   1.839   2.359   5.097  0.2136  0.2207 -1.5800
  985SOL     OW14590   3.387   0.264   5.006  0.2654 -0.1393  0.3827
  985SOL    HW114591   3.432   0.278   5.089 -1.1787 -3.2341  1.6939
  985SOL    HW214592   3.295   0.249   5.027  0.1612 -2.0401 -1.3415
  986SOL     OW14593   0.119   3.597   7.311  0.7089  0.0190  0.6838
  986SOL    HW114594   0.041   3.632   7.354 -0.4755 -0.1780 -1.2915
  986SOL    HW214595   0.085   3.509   7.291 -0.8255  1.1305 -1.5707
  987SOL     OW14596   3.725   1.781   1.037  0.2906  0.2449  0.1806
  987SOL    HW114597   3.810   1.826   1.040  0.6677 -0.4157 -0.7451
  987SOL    HW214598   3.758   1.693   1.056  1.1736  0.2336 -1.4002
  988SOL     OW14599   4.432   2.731  14.569 -1.1683 -0.4935 -0.4664
  988SOL    HW114600   4.484   2.811  14.562 -1.2312 -0.6305 -2.4720
  988SOL    HW214601   4.451   2.697  14.482  1.7681  0.3648 -0.1682
  989SOL     OW14602   0.171   0.928  11.441  0.1347 -0.2257  0.3720
  989SOL    HW114603   0.204   0.867  11.508 -0.8940 -1.7591 -0.5128
  989SOL    HW214604   0.246   0.974  11.405  0.2345 -0.2373  0.5628
  990SOL     OW14605   2.174   2.504   2.345  0.5419 -0.0400 -0.6052
  990SOL    HW114606   2.162   2.594   2.315  2.1463  0.6783  0.8940
  990SOL    HW214607   2.214   2.517   2.431  1.0870  0.8998 -1.0035
  991SOL     OW14608   4.015   4.242   0.821 -0.0171  0.0098 -0.7419
  991SOL    HW114609   3.977   4.319   0.862  1.7203  0.1292  0.6277
  991SOL    HW214610   4.108   4.260   0.836 -1.0846  2.9531  2.2120
  992SOL     OW14611   1.036   4.521  16.041  0.2806  0.1923  0.2623
  992SOL    HW114612   1.005   4.611  16.029 -1.1891 -0.3569 -0.0787
  992SOL    HW214613   1.040   4.506  16.135  1.5506 -0.8400  0.0369
  993SOL     OW14614   1.280   0.938   1.319  0.8611  0.0702 -0.1964
  993SOL    HW114615   1.309   0.981   1.238  0.5695 -0.7299 -0.7231
  993SOL    HW214616   1.208   0.879   1.297  0.1954  0.4913  0.8762
  994SOL     OW14617   2.250   4.611   4.686  0.0808  0.3488 -0.6137
  994SOL    HW114618   2.189   4.542   4.662 -0.7739  0.9305 -0.0858
  994SOL    HW214619   2.256   4.667   4.609  2.2042 -0.3877 -0.9965
  995SOL     OW14620   2.497   1.003  12.654  0.0887 -0.1334 -0.1155
  995SOL    HW114621   2.424   1.063  12.667  0.4970  0.6503 -1.4773
  995SOL    HW214622   2.507   0.974  12.745 -0.0215  2.1119  0.5958
  996SOL     OW14623   1.054   1.312   9.247 -0.1704 -0.3191  0.3805
  996SOL    HW114624   1.133   1.270   9.280 -0.2763  0.1334  1.2177
  996SOL    HW214625   0.985   1.278   9.305 -1.0189 -1.3833 -1.2561
  997SOL     OW14626   3.319   2.261   3.056  0.1968 -0.0599  0.1321
  997SOL    HW114627   3.309   2.203   3.131  4.3145  1.4078  1.8386
  997SOL    HW214628   3.413   2.258   3.036  0.1067  0.0382 -0.3086
  998SOL     OW14629   2.423   1.829   7.490  0.8660 -0.0620 -0.4086
  998SOL    HW114630   2.514   1.831   7.517  0.5299  0.6810  0.6439
  998SOL    HW214631   2.428   1.747   7.440 -3.8107 -0.6352  0.0284
  999SOL     OW14632   3.154   0.185   3.257  0.8537 -0.3810  0.0876
  999SOL    HW114633   3.210   0.118   3.219  2.4429  1.2259 -0.4139
  999SOL    HW214634   3.133   0.158   3.346  0.5282  0.2369  0.2040
 1000SOL     OW14635   2.006   2.719   3.802  0.6365  0.0009  0.1288
 1000SOL    HW114636   1.962   2.638   3.778 -0.1982  1.0773 -1.9121
 1000SOL    HW214637   2.093   2.688   3.827  0.6144 -0.8069 -0.8151
 1001SOL     OW14638   1.321   3.470   3.306 -0.0322  0.3154 -0.4805
 1001SOL    HW114639   1.256   3.423   3.252  0.1626  0.2600 -0.6642
 1001SOL    HW214640   1.354   3.537   3.247 -0.5564 -1.3557 -2.6959
 1002SOL     OW14641   3.370   3.898   4.470  0.1928  0.1382 -0.5339
 1002SOL    HW114642   3.344   3.915   4.560 -0.2511 -1.6275 -0.3297
 1002SOL    HW214643   3.340   3.974   4.420  0.3118  0.4037 -0.2002
 1003SOL     OW14644   1.857   1.991   9.082 -0.4794  0.0879  0.0245
 1003SOL    HW114645   1.771   2.029   9.064 -0.5627  0.9252  2.1609
 1003SOL    HW214646   1.853   1.901   9.052  0.9468  0.8254 -2.3692
 1004SOL     OW14647   0.660   4.472   7.310 -0.2906  0.1621  0.2056
 1004SOL    HW114648   0.569   4.463   7.281 -0.2013  0.0770 -0.0511
 1004SOL    HW214649   0.706   4.448   7.230 -1.5678 -2.5253  0.2431
 1005SOL     OW14650   3.563   2.624   5.966 -0.6926 -0.2919  0.0890
 1005SOL    HW114651   3.613   2.696   6.004  0.6608 -1.3122  0.2263
 1005SOL    HW214652   3.563   2.560   6.038 -0.4630 -1.5301 -0.9965
 1006SOL     OW14653   2.123   4.476   0.392 -0.4671  0.4263  0.1422
 1006SOL    HW114654   2.092   4.450   0.304  0.1169  1.2864 -0.3091
 1006SOL    HW214655   2.210   4.437   0.392 -0.4466  0.4728 -0.2304
 1007SOL     OW14656   2.585   3.530   2.663 -0.5590 -0.2685 -0.2978
 1007SOL    HW114657   2.586   3.609   2.610 -2.0875  0.6010  0.9499
 1007SOL    HW214658   2.580   3.460   2.598 -2.7359 -0.3357 -0.0586
 1008SOL     OW14659   4.657   1.642   7.452 -0.0553  0.4675 -0.3189
 1008SOL    HW114660   4.589   1.708   7.434  1.3563  1.0315 -3.6455
 1008SOL    HW214661   4.608   1.560   7.445 -0.2647  0.5183  0.6294
 1009SOL     OW14662   3.377   3.464   6.479  0.0368 -0.6243  0.0907
 1009SOL    HW114663   3.308   3.482   6.416 -0.0540 -0.7002  0.1689
 1009SOL    HW214664   3.344   3.517   6.552 -1.6551 -0.3231 -0.9145
 1010SOL     OW14665   0.725   3.743   2.629  0.5739  0.8356  0.4063
 1010SOL    HW114666   0.774   3.776   2.554  1.4304  0.7088  0.9062
 1010SOL    HW214667   0.790   3.755   2.698  0.4083 -2.5866  1.1550
 1011SOL     OW14668   3.706   2.796   1.233 -0.1816 -0.1529  0.7376
 1011SOL    HW114669   3.634   2.761   1.286 -1.2368 -0.8946 -1.1664
 1011SOL    HW214670   3.781   2.758   1.278 -2.8560 -1.4843  4.0894
 1012SOL     OW14671   2.343   0.629   5.758 -0.3684  0.0321  0.3509
 1012SOL    HW114672   2.322   0.591   5.673  1.1321 -0.0430  0.0200
 1012SOL    HW214673   2.252   0.647   5.782 -0.7768 -1.5317 -0.0530
 1013SOL     OW14674   1.644   4.443   5.941  0.2508 -0.3483 -0.1192
 1013SOL    HW114675   1.660   4.379   6.010  0.1214  0.8942  1.0661
 1013SOL    HW214676   1.651   4.528   5.985 -1.0695  0.0372 -0.6549
 1014SOL     OW14677   2.434   1.715   9.210  0.2982  0.3459 -0.2149
 1014SOL    HW114678   2.441   1.619   9.217  0.7998  0.4226  0.3696
 1014SOL    HW214679   2.381   1.738   9.287 -0.5348 -4.2705  0.6015
 1015SOL     OW14680   1.582   3.983   3.777  0.6897  0.0073  0.5618
 1015SOL    HW114681   1.648   3.973   3.709 -0.1753 -1.0602 -0.1168
 1015SOL    HW214682   1.497   3.972   3.735  0.0079 -0.5481  2.0712
 1016SOL     OW14683   3.601   3.171   4.016  0.3492  0.4771  0.0384
 1016SOL    HW114684   3.647   3.092   3.989  0.2575  0.2263  0.6251
 1016SOL    HW214685   3.659   3.244   3.994  1.1682  0.2672  1.5338
 1017SOL     OW14686   1.804   3.528   6.655 -0.0713 -0.4275 -0.1857
 1017SOL    HW114687   1.744   3.454   6.668 -0.5917 -0.1133 -0.8296
 1017SOL    HW214688   1.779   3.583   6.730 -0.7113 -0.5356 -0.3174
 1018SOL     OW14689   0.450   4.327   7.138  0.2702 -0.0028 -0.2085
 1018SOL    HW114690   0.363   4.353   7.107  0.4827  1.0330  0.0668
 1018SOL    HW214691   0.428   4.270   7.212  0.7637 -0.0422 -0.0884
 1019SOL     OW14692   1.111   1.409   4.301  0.3575  0.7270 -0.1742
 1019SOL    HW114693   1.082   1.499   4.314  0.7024  0.8149 -0.0149
 1019SOL    HW214694   1.055   1.379   4.229 -1.1250 -1.6756  1.9760
 1020SOL     OW14695   4.350   4.020  10.089  0.0128  0.3711 -0.2960
 1020SOL    HW114696   4.443   4.011  10.065 -0.1225 -2.8814  0.5364
 1020SOL    HW214697   4.313   4.092  10.037 -2.4365 -0.0024  0.9456
 1021SOL     OW14698   2.878   3.245   2.486  0.2047  0.2121  0.2395
 1021SOL    HW114699   2.890   3.311   2.418  2.4161  0.6814  1.0856
 1021SOL    HW214700   2.935   3.284   2.552  1.3865  2.0103 -1.8636
 1022SOL     OW14701   0.407   1.694   2.254  0.0667 -0.3298 -0.0194
 1022SOL    HW114702   0.458   1.725   2.180  0.0782  0.9328  0.5232
 1022SOL    HW214703   0.466   1.689   2.329  1.9910  1.8759 -1.4072
 1023SOL     OW14704   0.683   2.132   4.760  0.6841 -0.0309 -0.4839
 1023SOL    HW114705   0.651   2.064   4.701  1.5277  1.4266 -2.6091
 1023SOL    HW214706   0.635   2.119   4.842  0.9968 -0.6257 -0.3974
 1024SOL     OW14707   2.688   4.517   7.530  0.2788 -0.4439 -0.1422
 1024SOL    HW114708   2.692   4.422   7.517 -0.6339 -0.3553 -1.1233
 1024SOL    HW214709   2.735   4.520   7.613 -0.5854  1.6177  0.2830
 1025SOL     OW14710   3.805   2.326  16.878 -0.1467  0.0740 -0.2118
 1025SOL    HW114711   3.760   2.323  16.962  0.0835 -0.4734 -0.1112
 1025SOL    HW214712   3.821   2.234  16.859 -2.7160 -0.1667 -1.3061
 1026SOL     OW14713   0.861   1.480   3.345 -0.3119  0.2106  0.2502
 1026SOL    HW114714   0.911   1.491   3.426  0.8499 -2.0390 -0.1655
 1026SOL    HW214715   0.845   1.572   3.324 -0.8074  0.1317  0.3007
 1027SOL     OW14716   1.539   0.535   1.901  0.0463 -0.0961  0.2900
 1027SOL    HW114717   1.627   0.572   1.904  0.0249 -0.1700  1.8976
 1027SOL    HW214718   1.504   0.573   1.821  0.2386 -4.6330 -1.9692
 1028SOL     OW14719   0.494   4.155   7.967 -0.0982 -0.1857  0.4126
 1028SOL    HW114720   0.581   4.114   7.966  1.3888  2.9776 -2.2003
 1028SOL    HW214721   0.477   4.184   8.056  1.0111  0.2472  0.4870
 1029SOL     OW14722   4.609   4.459   7.273 -0.1179  0.2283 -0.3560
 1029SOL    HW114723   4.667   4.525   7.311  0.3678 -0.8615  0.7725
 1029SOL    HW214724   4.669   4.386   7.281 -1.8895 -1.1535  0.3226
 1030SOL     OW14725   1.952   4.404  16.240 -0.2958  0.4741  0.3038
 1030SOL    HW114726   1.860   4.425  16.223 -0.3622  0.8684  1.1600
 1030SOL    HW214727   1.950   4.364  16.326  2.2854 -1.4558 -0.5505
 1031SOL     OW14728   2.587   1.694   6.790 -0.2436 -0.3011  0.1615
 1031SOL    HW114729   2.514   1.704   6.851  0.1022  2.2067  0.1666
 1031SOL    HW214730   2.551   1.722   6.705  0.2925  0.5640  0.2286
 1032SOL     OW14731   4.287   4.346   4.163 -0.3974  1.0759 -0.2421
 1032SOL    HW114732   4.330   4.298   4.234 -0.7556  3.2617  1.4139
 1032SOL    HW214733   4.328   4.432   4.168  0.6101  0.5444  0.7589
 1033SOL     OW14734   2.139   4.511   5.292 -0.2261  0.2511  0.2385
 1033SOL    HW114735   2.119   4.511   5.198  0.3561  0.1719  0.1111
 1033SOL    HW214736   2.050   4.518   5.326  0.4669 -1.5079  2.3609
 1034SOL     OW14737   0.672   0.644   6.594  0.0124  0.5294 -0.3378
 1034SOL    HW114738   0.623   0.631   6.675  1.8542 -0.0726  0.6735
 1034SOL    HW214739   0.755   0.687   6.615  1.2556 -0.1600 -3.7191
 1035SOL     OW14740   1.334   2.808   4.847 -0.4840 -0.1118  0.2833
 1035SOL    HW114741   1.346   2.813   4.942  0.6164 -0.6979  0.1728
 1035SOL    HW214742   1.426   2.803   4.821 -0.2666  1.7347  0.6563
 1036SOL     OW14743   2.590   2.853   6.763 -0.1171  0.4246  0.1848
 1036SOL    HW114744   2.540   2.927   6.799 -0.5053 -0.7369  2.0445
 1036SOL    HW214745   2.608   2.884   6.674 -0.0152  0.2291  0.1380
 1037SOL     OW14746   0.594   2.403   6.423  0.1569 -0.9564 -0.2830
 1037SOL    HW114747   0.555   2.346   6.357  0.8462  0.3153 -1.7959
 1037SOL    HW214748   0.675   2.354   6.438  0.2869 -0.7700 -0.3834
 1038SOL     OW14749   2.479   3.343   7.704 -0.1255 -0.4211  0.1119
 1038SOL    HW114750   2.551   3.321   7.762 -0.4135 -1.7436 -0.0294
 1038SOL    HW214751   2.441   3.422   7.742  1.7213 -0.6312  2.3924
 1039SOL     OW14752   2.392   0.162   5.003 -0.4508 -0.1815  0.3924
 1039SOL    HW114753   2.365   0.229   5.066 -1.4386 -0.0066 -0.2225
 1039SOL    HW214754   2.318   0.104   4.983  0.7134 -1.6131  0.1659
 1040SOL     OW14755   3.220   4.223   9.103 -0.1504 -0.0464  0.0787
 1040SOL    HW114756   3.223   4.165   9.026 -2.8431  0.5291 -0.4714
 1040SOL    HW214757   3.209   4.168   9.180 -0.3074 -0.7094 -0.4134
 1041SOL     OW14758   0.505   3.351   4.093  0.3816 -0.7663  0.9263
 1041SOL    HW114759   0.542   3.274   4.136 -2.1651 -2.4954  0.0727
 1041SOL    HW214760   0.446   3.316   4.026 -2.3559  1.2182  2.2906
 1042SOL     OW14761   3.786   2.327   4.331  0.0668 -0.1202 -0.2831
 1042SOL    HW114762   3.786   2.261   4.261  0.8545  0.3570 -0.7419
 1042SOL    HW214763   3.806   2.411   4.291  2.4779  0.4753  2.1715
 1043SOL     OW14764   3.357   1.387   9.097  0.3188  0.0014 -0.2982
 1043SOL    HW114765   3.356   1.475   9.134  1.5282  0.3898 -1.1816
 1043SOL    HW214766   3.272   1.347   9.112  0.4966  0.0691  0.8293
 1044SOL     OW14767   2.312   3.679   6.131  0.1193  0.2102  0.3818
 1044SOL    HW114768   2.319   3.640   6.219 -0.9823  0.9234  0.7889
 1044SOL    HW214769   2.238   3.739   6.142  1.5108  1.6383  1.8692
 1045SOL     OW14770   2.195   4.687  13.691 -0.1393 -0.5340 -0.5377
 1045SOL    HW114771   2.272   4.688  13.633 -1.0495  0.9851 -1.7295
 1045SOL    HW214772   2.165   4.596  13.689 -0.2294 -0.4940 -1.1922
 1046SOL     OW14773   3.656   2.162   2.601  0.0530 -0.1540 -0.0410
 1046SOL    HW114774   3.650   2.198   2.690 -0.4080 -1.2938  0.3902
 1046SOL    HW214775   3.646   2.246   2.556 -4.5651 -0.5865  0.1736
 1047SOL     OW14776   2.294   2.230   2.317  0.2671 -0.0078 -0.1319
 1047SOL    HW114777   2.248   2.313   2.323  1.1373  0.4678  0.0201
 1047SOL    HW214778   2.303   2.206   2.409 -1.4715 -0.9687 -0.2274
 1048SOL     OW14779   4.138   1.272   3.325 -0.5032  0.2993 -0.1589
 1048SOL    HW114780   4.198   1.337   3.288 -0.0885 -1.5913 -2.8072
 1048SOL    HW214781   4.065   1.329   3.350  0.2413  0.5283  1.4695
 1049SOL     OW14782   1.982   4.020   7.041 -0.4009 -0.5212  0.2891
 1049SOL    HW114783   1.994   3.941   7.094 -0.9965  0.5269  1.9643
 1049SOL    HW214784   2.036   4.072   7.101  0.6166  0.6672 -1.6402
 1050SOL     OW14785   0.618   1.941   2.929 -0.3284 -0.0144  0.2590
 1050SOL    HW114786   0.639   2.032   2.950  1.0591 -0.2211 -0.2286
 1050SOL    HW214787   0.638   1.933   2.836  0.2125 -0.9966  0.4605
 1051SOL     OW14788   4.043   1.161  17.054 -0.6333 -0.8690  0.3600
 1051SOL    HW114789   3.984   1.197  16.988  1.3337 -0.2333 -1.0787
 1051SOL    HW214790   3.980   1.123  17.114 -0.5212  0.2104  1.1661
 1052SOL     OW14791   2.623   2.136  17.628  0.0588 -0.1859 -0.2342
 1052SOL    HW114792   2.584   2.166  17.546 -0.1450  0.2886  0.0335
 1052SOL    HW214793   2.575   2.054  17.636 -1.5096  0.7559  0.0043
 1053SOL     OW14794   0.860   0.490  10.396 -0.2691  0.0002 -0.2808
 1053SOL    HW114795   0.827   0.483  10.485  1.6983 -0.7283  0.3877
 1053SOL    HW214796   0.815   0.420  10.349 -3.1242  0.7869  1.3108
 1054SOL     OW14797   0.751   4.022  14.505 -0.0849  0.6041  0.3208
 1054SOL    HW114798   0.716   3.936  14.528 -0.8334  0.7566 -0.2379
 1054SOL    HW214799   0.726   4.026  14.413  2.0202 -0.5073 -0.3096
 1055SOL     OW14800   2.934   3.852   7.001  0.0533 -0.1392 -0.3907
 1055SOL    HW114801   2.954   3.854   6.907 -0.1676 -0.7426 -0.4529
 1055SOL    HW214802   2.862   3.789   7.009  0.7542 -1.2970 -3.1242
 1056SOL     OW14803   2.090   0.459  11.208 -0.0541  0.0121  0.2334
 1056SOL    HW114804   2.002   0.431  11.235 -0.4282 -0.2723 -1.2502
 1056SOL    HW214805   2.141   0.459  11.289 -2.3280  1.6328  1.6626
 1057SOL     OW14806   1.581   0.729  11.059  0.1704  0.0435  0.0685
 1057SOL    HW114807   1.507   0.759  11.005  0.2524 -1.2071 -0.7421
 1057SOL    HW214808   1.604   0.800  11.119 -0.2061 -1.7550  2.3477
 1058SOL     OW14809   4.361   0.603  13.269 -0.4229 -0.2926  0.1557
 1058SOL    HW114810   4.270   0.602  13.301 -1.0096  1.5094 -1.4612
 1058SOL    HW214811   4.334   0.616  13.178 -0.7788  2.6564  0.6989
 1059SOL     OW14812   2.797   2.324  14.164  0.1077  0.1010 -0.6770
 1059SOL    HW114813   2.702   2.331  14.167 -0.0720 -2.4262 -0.7389
 1059SOL    HW214814   2.812   2.361  14.076 -2.2076  3.8634  0.5234
 1060SOL     OW14815   1.999   3.806   4.035 -0.1640 -0.3723 -0.4503
 1060SOL    HW114816   2.037   3.757   3.962  0.4626  1.2593 -1.2237
 1060SOL    HW214817   2.069   3.872   4.041 -0.4353 -0.2500  1.1888
 1061SOL     OW14818   0.684   1.686   4.726  0.8923  0.3054 -0.2549
 1061SOL    HW114819   0.769   1.718   4.694  0.3261  0.2015 -1.8509
 1061SOL    HW214820   0.638   1.765   4.698  0.3976  0.1487  0.1281
 1062SOL     OW14821   3.331   3.593   7.988 -0.0442  0.4075 -0.1228
 1062SOL    HW114822   3.307   3.626   8.075  1.2158 -1.0013  0.7644
 1062SOL    HW214823   3.294   3.505   7.990 -1.5464  1.0554  0.1981
 1063SOL     OW14824   3.115   0.223  17.347 -0.7905 -0.3599 -0.8655
 1063SOL    HW114825   3.124   0.133  17.377  1.2585 -0.3613 -1.4828
 1063SOL    HW214826   3.198   0.261  17.376 -1.7362 -0.7431  2.2494
 1064SOL     OW14827   4.474   3.172  13.151 -0.0763  0.0368 -0.1740
 1064SOL    HW114828   4.487   3.091  13.101  1.2186 -1.6477  2.9425
 1064SOL    HW214829   4.511   3.152  13.236 -0.1331 -0.4512 -0.2608
 1065SOL     OW14830   2.199   0.053  16.056  0.0439 -0.0508 -0.1148
 1065SOL    HW114831   2.184   0.143  16.025 -1.4351  0.0244  0.8148
 1065SOL    HW214832   2.113   0.024  16.087  0.4800  0.9671  2.0888
 1066SOL     OW14833   1.248   1.776   8.927 -0.0643  0.2051  0.2062
 1066SOL    HW114834   1.216   1.698   8.881 -0.2998  0.0795  0.5822
 1066SOL    HW214835   1.273   1.741   9.013 -2.1414 -1.7569  0.0055
 1067SOL     OW14836   4.482   3.289  10.412  0.3273 -0.6263 -0.0506
 1067SOL    HW114837   4.552   3.247  10.462 -0.9363 -1.1589  1.2388
 1067SOL    HW214838   4.539   3.347  10.361 -1.2386  1.3953  0.5144
 1068SOL     OW14839   0.338   4.112  12.436  0.0166 -0.4398 -0.4772
 1068SOL    HW114840   0.345   4.062  12.354  0.4627 -1.7584  0.3722
 1068SOL    HW214841   0.247   4.096  12.462  0.0125  1.4630  0.6826
 1069SOL     OW14842   1.359   0.605   6.846  0.1664  0.0876  0.5903
 1069SOL    HW114843   1.436   0.608   6.904  0.2710 -1.8259  0.5728
 1069SOL    HW214844   1.338   0.697   6.836  0.5727  0.0661 -0.5228
 1070SOL     OW14845   3.350   2.366   5.961 -0.4484  0.0392  0.9822
 1070SOL    HW114846   3.382   2.410   5.882  0.9197  0.9764  2.0623
 1070SOL    HW214847   3.432   2.351   6.009 -0.9583  0.1833  1.9039
 1071SOL     OW14848   3.473   1.740   6.582 -0.3566 -0.3766 -0.0195
 1071SOL    HW114849   3.543   1.725   6.646 -0.4678  2.9126  0.9220
 1071SOL    HW214850   3.394   1.734   6.635 -1.3443 -1.2314 -1.6166
 1072SOL     OW14851   4.229   3.528   5.489  0.4372 -0.1053  0.0841
 1072SOL    HW114852   4.186   3.462   5.544 -0.4715  2.0499  1.9739
 1072SOL    HW214853   4.247   3.597   5.554  1.0836 -0.4622  0.2838
 1073SOL     OW14854   0.410   3.919   5.487 -0.0230  0.3529 -0.7211
 1073SOL    HW114855   0.353   3.996   5.494 -1.2870 -0.7555  1.2769
 1073SOL    HW214856   0.407   3.896   5.580  1.5255 -0.7149 -0.9425
 1074SOL     OW14857   3.368   3.850   8.711  0.2803  0.3435 -0.5192
 1074SOL    HW114858   3.294   3.900   8.677 -0.4185  0.6181  1.4054
 1074SOL    HW214859   3.423   3.855   8.632 -0.5568  2.8816 -0.9271
 1075SOL     OW14860   3.540   4.262   2.127  0.3869 -0.4337  0.1188
 1075SOL    HW114861   3.554   4.173   2.159  0.3024 -0.6259 -0.3879
 1075SOL    HW214862   3.579   4.326   2.187 -2.1893 -1.1923  2.6435
 1076SOL     OW14863   3.560   0.944  16.742 -0.4474  0.0682  0.1590
 1076SOL    HW114864   3.483   0.990  16.708 -0.5939  0.0641  0.4853
 1076SOL    HW214865   3.586   0.980  16.826  1.6088  3.2245 -1.8230
 1077SOL     OW14866   2.473   2.288  17.372  0.0194  0.6428  0.2627
 1077SOL    HW114867   2.417   2.215  17.400 -0.9430  1.2065 -0.1904
 1077SOL    HW214868   2.438   2.310  17.285 -0.8237  0.0606  0.4518
 1078SOL     OW14869   3.420   3.708  10.161 -0.1879 -0.0266 -0.0822
 1078SOL    HW114870   3.394   3.762  10.235 -3.4520 -1.4174 -0.2378
 1078SOL    HW214871   3.343   3.701  10.106  0.2695  0.3858 -0.7831
 1079SOL     OW14872   2.325   4.297  17.631 -0.4473  0.2037  0.6157
 1079SOL    HW114873   2.260   4.362  17.606 -0.1322 -0.1895 -1.2450
 1079SOL    HW214874   2.409   4.343  17.634  0.0934 -0.7313  0.1120
 1080SOL     OW14875   3.073   1.118  17.599 -0.7569  0.1627 -0.2441
 1080SOL    HW114876   3.053   1.174  17.524  2.0927  1.5001  0.0056
 1080SOL    HW214877   3.021   1.148  17.674 -0.6395 -2.0268  0.7243
 1081SOL     OW14878   0.937   2.716   7.236  0.1653 -0.3139 -0.0995
 1081SOL    HW114879   0.963   2.632   7.273  0.4415  0.0179  0.4713
 1081SOL    HW214880   0.894   2.768   7.304  0.4377  0.9653 -0.9077
 1082SOL     OW14881   0.658   2.083   8.105  0.8572 -0.2294 -0.0639
 1082SOL    HW114882   0.700   2.042   8.181 -1.0423  0.6032  1.4528
 1082SOL    HW214883   0.636   2.171   8.135 -2.4688 -1.4771  1.1811
 1083SOL     OW14884   2.469   4.134   1.746 -0.2930  0.5292  0.2494
 1083SOL    HW114885   2.405   4.205   1.732  0.6205  0.8707 -2.0975
 1083SOL    HW214886   2.538   4.160   1.685 -0.1887  0.3559  0.2931
 1084SOL     OW14887   3.650   4.605  12.199 -0.3111  0.2312  0.4336
 1084SOL    HW114888   3.630   4.512  12.211 -3.7107  0.7956 -1.0576
 1084SOL    HW214889   3.743   4.607  12.224  0.1859 -1.4050 -1.2042
 1085SOL     OW14890   0.358   4.527   9.303 -0.0863 -0.2593 -0.2084
 1085SOL    HW114891   0.405   4.534   9.386 -0.3928  0.2092 -0.0721
 1085SOL    HW214892   0.408   4.460   9.257 -0.1223 -0.1818 -0.3625
 1086SOL     OW14893   4.586   3.538   6.486 -0.0378 -0.2294  0.3861
 1086SOL    HW114894   4.671   3.578   6.502 -0.6545  0.4485  1.9720
 1086SOL    HW214895   4.566   3.550   6.393 -1.5237 -0.9429  0.6150
 1087SOL     OW14896   1.768   0.351   1.424 -0.6737 -0.2654  0.1510
 1087SOL    HW114897   1.726   0.309   1.499  1.1932  0.1098  1.4085
 1087SOL    HW214898   1.838   0.289   1.403 -0.1336 -0.4474  2.5063
 1088SOL     OW14899   1.531   1.007   9.716 -0.7382  0.0607  0.1368
 1088SOL    HW114900   1.506   0.914   9.718 -1.5642  0.3335  1.9154
 1088SOL    HW214901   1.607   1.008   9.774  0.1535  2.1453 -1.0811
 1089SOL     OW14902   1.104   3.476   9.301  0.4897  0.1390  0.1459
 1089SOL    HW114903   1.197   3.455   9.289  0.2487 -0.1106 -1.2047
 1089SOL    HW214904   1.091   3.529   9.223  0.6087  1.3573  0.9564
 1090SOL     OW14905   1.348   1.385  15.693  0.0158 -0.3500 -0.0797
 1090SOL    HW114906   1.272   1.335  15.663 -0.0238 -1.5281  1.9831
 1090SOL    HW214907   1.317   1.475  15.683 -3.3254 -1.3950  0.8877
 1091SOL     OW14908   3.099   4.437   5.517 -0.3079 -0.3374 -0.7928
 1091SOL    HW114909   3.018   4.489   5.514 -1.8533 -2.4951  3.6738
 1091SOL    HW214910   3.163   4.482   5.462 -0.8952  2.2163  0.6108
 1092SOL     OW14911   3.906   1.305   6.320 -0.3480  0.0431 -0.2375
 1092SOL    HW114912   3.894   1.350   6.237 -2.2993 -0.9912 -0.5031
 1092SOL    HW214913   3.997   1.331   6.333 -0.0324 -1.8103  1.3359
 1093SOL     OW14914   3.835   0.316   6.118 -0.3011 -0.0212 -0.3677
 1093SOL    HW114915   3.853   0.241   6.061 -1.5143 -0.2498 -0.4451
 1093SOL    HW214916   3.776   0.360   6.056 -0.9292  0.8550  0.8531
 1094SOL     OW14917   3.371   0.953   7.240  0.6547 -0.6154  0.1838
 1094SOL    HW114918   3.336   0.924   7.324 -1.0590  0.2454 -0.2351
 1094SOL    HW214919   3.346   1.045   7.249 -1.9243 -1.4296  1.3221
 1095SOL     OW14920   1.711   1.011   2.331  0.1442  0.6338 -0.0267
 1095SOL    HW114921   1.686   1.087   2.383  0.8004  0.7139  0.1763
 1095SOL    HW214922   1.667   0.937   2.374 -0.7834  1.1465 -0.1071
 1096SOL     OW14923   1.414   1.794  11.882  0.0571  0.1852  0.4595
 1096SOL    HW114924   1.372   1.711  11.908  0.4479  0.0663  0.7184
 1096SOL    HW214925   1.396   1.852  11.956  2.4592  1.1538  0.2609
 1097SOL     OW14926   2.293   1.841   2.085 -0.4868  0.2285  0.5294
 1097SOL    HW114927   2.316   1.923   2.041  1.4722 -0.3007  0.5847
 1097SOL    HW214928   2.359   1.825   2.152 -1.5153  1.9013  1.9750
 1098SOL     OW14929   0.682   3.807   4.718 -0.0409 -0.0591  0.3813
 1098SOL    HW114930   0.596   3.769   4.730 -0.4705  0.8144  0.0922
 1098SOL    HW214931   0.665   3.852   4.635 -0.2394 -3.0613 -1.2202
 1099SOL     OW14932   0.316   3.938   4.161  0.5563 -0.6728 -0.1557
 1099SOL    HW114933   0.350   3.965   4.247 -0.6508 -1.6946  0.6488
 1099SOL    HW214934   0.303   4.022   4.118  0.1586  0.1808  1.6331
 1100SOL     OW14935   2.512   3.468   9.456  0.0656  0.5337 -0.3082
 1100SOL    HW114936   2.458   3.472   9.535 -1.6601 -1.7936 -1.3460
 1100SOL    HW214937   2.456   3.436   9.385  0.5680 -3.1640  0.9350
 1101SOL     OW14938   2.051   3.011   3.623 -0.4964  0.3199 -0.3462
 1101SOL    HW114939   2.108   2.933   3.623 -1.6909 -0.5452  1.2188
 1101SOL    HW214940   2.111   3.084   3.635 -0.2049  0.2675 -1.4931
 1102SOL     OW14941   0.491   3.905  11.668 -0.1573 -0.4256  0.2275
 1102SOL    HW114942   0.397   3.908  11.682 -0.3461  2.6494 -1.5939
 1102SOL    HW214943   0.493   3.911  11.572 -1.4590  1.2679  0.3123
 1103SOL     OW14944   0.737   2.979   6.364 -0.7601  0.6408 -0.1746
 1103SOL    HW114945   0.780   3.061   6.386  1.0964 -0.2462 -0.4697
 1103SOL    HW214946   0.787   2.919   6.421 -0.5130 -0.4989 -1.5885
 1104SOL     OW14947   2.170   0.883   9.128  0.5003  0.5811  0.3634
 1104SOL    HW114948   2.106   0.949   9.104 -0.4531 -0.1780  0.8367
 1104SOL    HW214949   2.151   0.877   9.221 -2.0957  1.4990 -0.1061
 1105SOL     OW14950   3.560   4.285  11.391  0.1692  0.3994  0.2742
 1105SOL    HW114951   3.644   4.266  11.348  0.5803  0.9841  0.8251
 1105SOL    HW214952   3.560   4.216  11.457 -2.1614  1.5461  1.4918
 1106SOL     OW14953   2.033   2.447   7.034 -0.4983  0.1329  0.1849
 1106SOL    HW114954   2.127   2.449   7.018 -0.6003 -1.8594 -0.6815
 1106SOL    HW214955   2.001   2.495   6.958 -0.8000  0.5001  0.5458
 1107SOL     OW14956   3.573   2.809   2.754  0.1271 -0.2388  0.7853
 1107SOL    HW114957   3.644   2.862   2.718  0.2999 -0.9078  0.1513
 1107SOL    HW214958   3.493   2.854   2.725  0.6189 -0.0723 -0.3174
 1108SOL     OW14959   2.602   1.948   9.449  0.1160 -0.2702 -0.0917
 1108SOL    HW114960   2.589   1.867   9.499 -1.5325 -0.0469 -0.1540
 1108SOL    HW214961   2.517   1.993   9.458  0.7193  0.0789  4.0720
 1109SOL     OW14962   4.113   0.429   3.607  0.5387  0.5254 -0.6958
 1109SOL    HW114963   4.104   0.360   3.672  0.2128 -0.1107 -1.4187
 1109SOL    HW214964   4.170   0.386   3.543  0.4171  0.1801 -0.5701
 1110SOL     OW14965   3.977   3.134  13.207 -0.6024  0.1673  0.0234
 1110SOL    HW114966   3.945   3.062  13.261 -0.1018  0.0693  0.1832
 1110SOL    HW214967   4.057   3.094  13.174 -1.0612 -0.8663  0.1785
 1111SOL     OW14968   2.296   0.659   6.065  0.2949 -0.4929  0.4306
 1111SOL    HW114969   2.274   0.679   6.156 -1.1962  0.0095 -0.0348
 1111SOL    HW214970   2.290   0.745   6.023  0.2258  0.6887  2.8091
 1112SOL     OW14971   0.682   0.866   3.087 -1.0819  0.1324  0.9642
 1112SOL    HW114972   0.725   0.813   3.020 -3.9527 -0.9168 -0.0689
 1112SOL    HW214973   0.750   0.928   3.113  0.5768 -0.7122 -1.4129
 1113SOL     OW14974   1.996   2.951   8.308  0.3655  0.1289 -0.5769
 1113SOL    HW114975   1.992   2.981   8.399  0.8266  1.3842 -0.9690
 1113SOL    HW214976   1.980   2.857   8.304  1.1026 -0.1228  2.8296
 1114SOL     OW14977   3.719   1.928   4.872 -0.2920 -0.0693  0.7879
 1114SOL    HW114978   3.809   1.955   4.851 -0.5383 -0.6040 -0.9447
 1114SOL    HW214979   3.693   1.895   4.786 -1.0902 -0.4510  1.1818
 1115SOL     OW14980   4.511   0.423   3.767 -0.1305 -0.1046  0.1135
 1115SOL    HW114981   4.435   0.473   3.797 -1.2051 -0.7893 -1.4544
 1115SOL    HW214982   4.511   0.453   3.677  1.7289 -0.6694 -0.0780
 1116SOL     OW14983   3.645   1.159   1.404 -0.0911 -0.1754 -0.3701
 1116SOL    HW114984   3.569   1.152   1.463 -1.6967  1.4925 -2.2308
 1116SOL    HW214985   3.716   1.179   1.464 -2.3500  0.6497  2.0152
 1117SOL     OW14986   1.043   0.379   6.261  0.2086  0.3209 -0.0301
 1117SOL    HW114987   0.969   0.319   6.268 -1.2159  2.1380  0.5143
 1117SOL    HW214988   1.009   0.459   6.221 -0.5541  0.8395  1.6594
 1118SOL     OW14989   0.567   0.330  13.285  0.1053  0.2829 -0.4149
 1118SOL    HW114990   0.473   0.309  13.285 -0.1447  1.3742  0.1530
 1118SOL    HW214991   0.575   0.403  13.223  0.5089  0.3332 -0.3047
 1119SOL     OW14992   3.656   2.845   5.576 -0.1335 -0.3721 -1.1870
 1119SOL    HW114993   3.701   2.854   5.660  0.9937  0.8651 -1.9389
 1119SOL    HW214994   3.676   2.928   5.534  0.5114  0.4259  0.6821
 1120SOL     OW14995   0.449   3.116   6.148  0.0433  0.2187 -0.0315
 1120SOL    HW114996   0.519   3.176   6.172  1.4177 -1.1903 -0.4913
 1120SOL    HW214997   0.475   3.046   6.209  2.8066 -0.2248 -1.7227
 1121SOL     OW14998   0.148   2.210   8.742 -0.0359  0.2980  0.4858
 1121SOL    HW114999   0.065   2.168   8.721  0.1492  0.5105 -0.6391
 1121SOL    HW215000   0.174   2.161   8.820 -1.0545 -2.1709 -0.7354
 1122SOL     OW15001   2.538   4.572   3.725  0.2661  0.0102 -0.1531
 1122SOL    HW115002   2.599   4.532   3.663 -0.0810  1.6271 -1.5311
 1122SOL    HW215003   2.501   4.641   3.670 -1.9169 -0.2090  1.0433
 1123SOL     OW15004   4.460   1.387  15.059  0.6936  0.5453  0.3552
 1123SOL    HW115005   4.534   1.388  14.998 -0.7633 -0.2960 -1.4296
 1123SOL    HW215006   4.462   1.293  15.077  1.9020  0.3678 -0.6748
 1124SOL     OW15007   2.976   2.283   6.447 -0.0450 -0.2328 -0.2608
 1124SOL    HW115008   2.985   2.361   6.502 -0.4719  1.3489 -2.4389
 1124SOL    HW215009   3.001   2.207   6.499  4.7382  0.3066 -1.7646
 1125SOL     OW15010   2.407   4.045   6.716 -0.3871  0.0179  0.4801
 1125SOL    HW115011   2.483   4.074   6.767 -1.7032  1.6872  1.4909
 1125SOL    HW215012   2.432   3.955   6.695  0.0314  0.3439 -0.3988
 1126SOL     OW15013   1.971   2.952   6.636  0.2309 -0.5045  0.7639
 1126SOL    HW115014   1.989   2.862   6.663 -0.7054 -1.0595 -0.4435
 1126SOL    HW215015   2.059   2.981   6.616 -0.7995  1.7267 -0.5674
 1127SOL     OW15016   0.558   2.232  11.210  0.2150  0.1409  0.1975
 1127SOL    HW115017   0.585   2.176  11.283 -0.2252  0.0496  0.2920
 1127SOL    HW215018   0.513   2.165  11.158 -0.3745  0.9594 -0.3456
 1128SOL     OW15019   3.794   0.715   5.415  0.8041  0.2594  0.6557
 1128SOL    HW115020   3.808   0.808   5.397  1.9467 -0.2558 -1.1773
 1128SOL    HW215021   3.853   0.679   5.349 -0.5045  1.3455 -1.1145
 1129SOL     OW15022   0.076   2.284  14.965  0.1444  0.1609  1.0399
 1129SOL    HW115023   0.030   2.247  15.040  1.8931 -1.2331  1.4282
 1129SOL    HW215024   0.118   2.364  14.999 -0.0135  0.5831  0.2562
 1130SOL     OW15025   2.317   1.053  10.821  0.1715  0.1405 -0.6303
 1130SOL    HW115026   2.381   1.101  10.768 -1.0648  3.0409  0.4711
 1130SOL    HW215027   2.365   0.977  10.855  0.2685 -0.7566 -2.7417
 1131SOL     OW15028   3.448   2.140   4.820  0.3233 -0.1337 -0.0636
 1131SOL    HW115029   3.453   2.052   4.858  0.5244  0.6599  1.7688
 1131SOL    HW215030   3.430   2.128   4.727  2.3916  0.6231 -0.5427
 1132SOL     OW15031   3.061   4.118  10.609 -1.2132  0.0109  0.3588
 1132SOL    HW115032   2.976   4.107  10.651 -1.0946  2.1079  1.1554
 1132SOL    HW215033   3.079   4.211  10.628 -1.0713  0.5438 -2.4778
 1133SOL     OW15034   4.121   0.550  17.508  0.3122  0.0141 -0.1842
 1133SOL    HW115035   4.187   0.609  17.544 -1.4984  1.0935  1.3520
 1133SOL    HW215036   4.112   0.476  17.569 -0.0744  0.3094  0.1122
 1134SOL     OW15037   0.297   0.964  13.246 -0.8224  0.0080 -0.1459
 1134SOL    HW115038   0.250   0.966  13.163 -2.4263 -1.0174  0.7533
 1134SOL    HW215039   0.290   1.051  13.285  0.7791 -0.0877  0.3574
 1135SOL     OW15040   2.624   4.151   6.825 -0.1828 -0.0561  0.0259
 1135SOL    HW115041   2.635   4.247   6.823 -1.7641  0.0917 -0.8830
 1135SOL    HW215042   2.679   4.135   6.902  1.1597  1.3977 -0.6192
 1136SOL     OW15043   1.088   1.883   3.478 -0.0932 -0.2331  0.2551
 1136SOL    HW115044   0.997   1.909   3.462  0.6582  0.6705 -2.5124
 1136SOL    HW215045   1.100   1.890   3.573  1.8208  1.5618 -0.1159
 1137SOL     OW15046   4.707   0.643  13.072  0.2136  0.0768  0.3484
 1137SOL    HW115047   4.673   0.727  13.042 -1.9854 -0.6145  0.8576
 1137SOL    HW215048   0.041   0.621  13.010 -0.9250  1.0466 -1.2376
 1138SOL     OW15049   3.600   0.610   7.128  0.2017  0.1016 -0.2429
 1138SOL    HW115050   3.670   0.599   7.193  0.4413  0.1578 -0.4870
 1138SOL    HW215051   3.576   0.521   7.103 -2.2956  0.8309 -0.4058
 1139SOL     OW15052   3.003   3.073   7.242  0.1076  0.2900  0.7054
 1139SOL    HW115053   2.955   3.004   7.289  0.5213  0.0720  0.8012
 1139SOL    HW215054   2.983   3.050   7.151  0.6828 -1.3065  0.9886
 1140SOL     OW15055   0.946   1.984  13.228 -0.4695  0.7400 -0.4945
 1140SOL    HW115056   0.851   1.983  13.241 -0.3364  2.4918  0.7028
 1140SOL    HW215057   0.967   2.008  13.319 -0.0948 -0.9800 -0.1335
 1141SOL     OW15058   1.042   1.504   3.542  0.4425  0.0879 -0.1816
 1141SOL    HW115059   1.076   1.454   3.616 -0.9052  1.1352  1.1335
 1141SOL    HW215060   1.107   1.570   3.519  1.5006  0.1992  3.1095
 1142SOL     OW15061   2.658   3.185   5.728 -0.4484  0.4008 -0.3491
 1142SOL    HW115062   2.688   3.194   5.638 -1.3068  2.5084 -0.4147
 1142SOL    HW215063   2.604   3.106   5.731 -0.4918  0.4533  0.1982
 1143SOL     OW15064   3.192   0.368   6.810  0.5145  0.4304  0.1789
 1143SOL    HW115065   3.166   0.276   6.801  0.0306  0.5756  0.1123
 1143SOL    HW215066   3.267   0.361   6.869  0.1226 -1.9128  0.3926
 1144SOL     OW15067   1.111   3.744   7.793 -0.6003 -0.0583 -0.2015
 1144SOL    HW115068   1.178   3.759   7.860 -0.1872 -1.3396 -0.3324
 1144SOL    HW215069   1.144   3.796   7.719 -0.1301 -0.0447  0.0162
 1145SOL     OW15070   2.724   3.451   3.018 -0.1265  0.1047  0.4968
 1145SOL    HW115071   2.739   3.372   2.966  2.6941 -0.1806  1.7190
 1145SOL    HW215072   2.635   3.477   2.996 -0.2541  1.4713  2.6307
 1146SOL     OW15073   0.566   0.329   7.461 -1.2428 -0.0513 -0.1392
 1146SOL    HW115074   0.614   0.399   7.505  0.6642 -1.1615 -0.4836
 1146SOL    HW215075   0.485   0.315   7.510 -1.1127 -0.7188 -0.1129
 1147SOL     OW15076   1.826   3.764   3.367 -0.7821  0.0416  0.2714
 1147SOL    HW115077   1.735   3.734   3.368 -0.3737 -1.1603  0.8738
 1147SOL    HW215078   1.863   3.690   3.318 -2.3359 -0.7971  0.3790
 1148SOL     OW15079   1.401   1.836   7.889 -0.1379  0.3183 -0.4882
 1148SOL    HW115080   1.433   1.924   7.870  0.3048  0.5351  1.2334
 1148SOL    HW215081   1.467   1.811   7.954 -0.9203 -0.9153 -0.1782
 1149SOL     OW15082   0.902   0.011   6.078  0.0572  0.4257  0.5150
 1149SOL    HW115083   0.857   4.717   5.998 -1.8043  1.0615  1.3288
 1149SOL    HW215084   0.944   4.667   6.111  0.6031  1.3451  2.0345
 1150SOL     OW15085   2.619   3.030   6.265 -0.2969  0.4601 -0.0372
 1150SOL    HW115086   2.524   3.044   6.267  0.1259  3.4456 -1.2446
 1150SOL    HW215087   2.620   2.951   6.210 -1.5360 -0.5874  1.4304
 1151SOL     OW15088   0.292   3.208  14.866 -0.0347  0.3196 -0.0361
 1151SOL    HW115089   0.255   3.162  14.941 -0.5462  0.1902 -0.3691
 1151SOL    HW215090   0.211   3.249  14.837 -0.9549 -1.0380  0.6626
 1152SOL     OW15091   0.030   4.346   1.005 -0.7150 -0.5885  0.1462
 1152SOL    HW115092   0.027   4.343   0.910 -0.1445  3.0183  0.0073
 1152SOL    HW215093   0.058   4.258   1.032  0.7743  0.0373  0.6726
 1153SOL     OW15094   0.279   0.387  10.429  0.1079  0.1317  0.1188
 1153SOL    HW115095   0.304   0.318  10.367 -0.5741  0.2680 -0.3090
 1153SOL    HW215096   0.355   0.444  10.417  0.4121 -0.2120  0.3903
 1154SOL     OW15097   4.320   2.766   3.161  0.3143  0.4176 -0.1268
 1154SOL    HW115098   4.386   2.719   3.109 -1.2587 -1.8084 -0.0815
 1154SOL    HW215099   4.315   2.704   3.234  0.9229  0.8159  0.2619
 1155SOL     OW15100   2.071   2.694   9.295  0.3655 -0.1667 -0.5443
 1155SOL    HW115101   2.143   2.697   9.358 -0.3685 -1.5622  0.3528
 1155SOL    HW215102   2.030   2.615   9.330 -0.3132  0.2472 -0.4044
 1156SOL     OW15103   2.175   1.353   5.077  0.0077  0.0036 -0.3281
 1156SOL    HW115104   2.150   1.369   5.169 -0.7802 -0.0724 -0.5300
 1156SOL    HW215105   2.220   1.433   5.051  0.9700 -0.9622 -1.6226
 1157SOL     OW15106   3.764   2.301  10.035 -0.2656 -0.9690  0.3806
 1157SOL    HW115107   3.715   2.258   9.964  0.5925  2.8382 -2.5314
 1157SOL    HW215108   3.699   2.325  10.100 -1.2893  1.4744 -1.5235
 1158SOL     OW15109   2.097   4.090   5.232  0.2023 -0.0555 -0.0673
 1158SOL    HW115110   2.127   4.101   5.322  2.0393  1.0662 -0.8145
 1158SOL    HW215111   2.004   4.079   5.250  0.6244 -2.0684  0.8706
 1159SOL     OW15112   3.321   4.507   1.417 -0.8913 -0.0091  0.3761
 1159SOL    HW115113   3.275   4.444   1.362  0.0232  0.3001 -0.7373
 1159SOL    HW215114   3.344   4.568   1.347 -4.6012  1.4629  0.4104
 1160SOL     OW15115   4.431   2.653  16.812 -0.5187 -0.3780  0.2750
 1160SOL    HW115116   4.461   2.562  16.808 -2.0740 -0.8671 -0.5339
 1160SOL    HW215117   4.478   2.686  16.888  3.7663 -1.8635 -1.7441
 1161SOL     OW15118   2.561   1.359   0.111  0.2519 -0.1371  0.7767
 1161SOL    HW115119   2.653   1.379   0.125  0.1666  1.6848 -1.1508
 1161SOL    HW215120   2.564   1.280   0.057  0.1198  0.6275 -0.3566
 1162SOL     OW15121   1.005   3.469   8.952 -0.0182 -0.2349  0.2728
 1162SOL    HW115122   1.060   3.405   8.997  2.8339  2.7768  1.0774
 1162SOL    HW215123   1.030   3.539   9.012 -0.3594  1.0127 -1.0496
 1163SOL     OW15124   3.367   1.597  12.389  0.5427 -0.6606  0.2699
 1163SOL    HW115125   3.355   1.504  12.406 -1.8403 -0.5933 -1.1637
 1163SOL    HW215126   3.442   1.626  12.441 -1.1675 -0.1183  2.4368
 1164SOL     OW15127   4.178   2.937   4.355 -0.4077 -0.0215  0.3361
 1164SOL    HW115128   4.147   2.853   4.322  0.5564  0.9191 -2.9441
 1164SOL    HW215129   4.161   2.990   4.278 -0.9568 -1.8912 -0.8380
 1165SOL     OW15130   3.467   4.616  17.451 -0.1671  0.5234  0.0469
 1165SOL    HW115131   3.495   4.533  17.489  0.5859  1.1184  0.7788
 1165SOL    HW215132   3.487   4.669  17.528 -2.0429 -0.2848  1.0937
 1166SOL     OW15133   4.238   4.289  15.366 -0.4063 -0.0729  0.0323
 1166SOL    HW115134   4.284   4.219  15.414  2.2109  1.7782  0.2184
 1166SOL    HW215135   4.303   4.308  15.298 -2.3633 -1.7040 -2.3179
 1167SOL     OW15136   2.597   2.842   3.442  0.1335  0.0955  0.4957
 1167SOL    HW115137   2.614   2.895   3.521 -0.0583  1.9517 -0.6956
 1167SOL    HW215138   2.555   2.769   3.486 -1.0678 -0.8225 -2.1940
 1168SOL     OW15139   2.594   0.719   6.643 -0.1055 -0.6350  0.2458
 1168SOL    HW115140   2.644   0.750   6.718  1.5325  0.5218 -1.3389
 1168SOL    HW215141   2.614   0.785   6.576 -1.4561 -2.3044 -1.8214
 1169SOL     OW15142   0.073   2.446   6.547 -0.0765 -0.1852 -0.6441
 1169SOL    HW115143   0.017   2.519   6.573  1.6557  0.2523  1.9402
 1169SOL    HW215144   0.159   2.488   6.539 -0.6576  1.2018  0.3038
 1170SOL     OW15145   1.876   2.071   1.849 -0.7560  0.0534  0.5979
 1170SOL    HW115146   1.863   1.991   1.798 -1.9190  1.6136 -1.5451
 1170SOL    HW215147   1.823   2.135   1.802  0.9280  0.1962 -1.1239
 1171SOL     OW15148   2.496   1.767   8.184  0.5294 -0.5291  0.4659
 1171SOL    HW115149   2.585   1.798   8.203  0.6481 -0.7677  0.3068
 1171SOL    HW215150   2.453   1.849   8.158  1.1281 -0.8584 -1.5628
 1172SOL     OW15151   4.319   0.850   5.064  0.0122 -0.3065  0.0886
 1172SOL    HW115152   4.249   0.915   5.057  0.9513  0.7292  0.3212
 1172SOL    HW215153   4.373   0.883   5.136  1.2443  0.1731 -1.0574
 1173SOL     OW15154   2.859   3.404  11.971 -0.3932 -0.6094  0.1162
 1173SOL    HW115155   2.844   3.404  11.877  1.1158  1.8425 -0.1402
 1173SOL    HW215156   2.777   3.359  11.994  0.9926 -2.3277  1.6621
 1174SOL     OW15157   0.474   4.386   3.510  0.1183 -0.1097  0.4446
 1174SOL    HW115158   0.519   4.341   3.582  1.6904 -0.7300 -0.9189
 1174SOL    HW215159   0.443   4.309   3.463 -0.0615  0.0810  0.2514
 1175SOL     OW15160   2.313   2.805   2.189  0.3283 -0.1752 -0.1402
 1175SOL    HW115161   2.354   2.853   2.117 -0.5669 -1.3857 -1.4773
 1175SOL    HW215162   2.343   2.717   2.167  0.5133 -0.6669  2.0999
 1176SOL     OW15163   1.423   1.549  10.073  0.3286  0.6628 -0.4375
 1176SOL    HW115164   1.460   1.614  10.133 -0.0151  0.3593  0.1100
 1176SOL    HW215165   1.341   1.527  10.116  2.3766 -1.7935  2.2902
 1177SOL     OW15166   3.184   3.355   5.762  0.0797  0.2240 -0.0214
 1177SOL    HW115167   3.099   3.399   5.762  0.2040  0.4504 -4.1385
 1177SOL    HW215168   3.160   3.268   5.731 -1.0892  0.8361 -0.8288
 1178SOL     OW15169   0.167   1.528   6.816 -0.2317  0.1695 -0.3637
 1178SOL    HW115170   0.100   1.511   6.750 -2.8477  0.7457  2.1312
 1178SOL    HW215171   0.136   1.475   6.890  3.1358  0.5686  1.3528
 1179SOL     OW15172   2.220   2.172   4.368  0.0061 -0.0772  0.6076
 1179SOL    HW115173   2.215   2.081   4.397 -0.3544 -0.3200 -0.2053
 1179SOL    HW215174   2.270   2.159   4.288 -0.1253 -0.2043  0.5459
 1180SOL     OW15175   2.904   4.056   9.321 -0.0931 -0.4303  0.2114
 1180SOL    HW115176   2.929   4.147   9.306  1.4869 -0.5283  2.2462
 1180SOL    HW215177   2.825   4.069   9.374 -0.5753 -0.0852 -0.5995
 1181SOL     OW15178   0.206   3.379  11.437 -0.3780  0.4403  0.2250
 1181SOL    HW115179   0.154   3.374  11.356 -2.8660 -0.0423  1.8529
 1181SOL    HW215180   0.202   3.297  11.485  1.1614  0.5530  0.5363
 1182SOL     OW15181   0.483   3.031   4.239  0.0520 -0.1198  0.3466
 1182SOL    HW115182   0.436   3.002   4.161  0.0412 -1.4978  0.8527
 1182SOL    HW215183   0.425   3.015   4.314 -0.7502 -2.2121 -0.7133
 1183SOL     OW15184   4.308   3.491   6.319 -0.1344 -0.3300  0.0415
 1183SOL    HW115185   4.344   3.411   6.281  0.8178  0.2532 -0.2755
 1183SOL    HW215186   4.372   3.559   6.300 -0.5659  0.1283  0.2388
 1184SOL     OW15187   0.367   4.573   2.695  0.5778 -0.2223 -0.0411
 1184SOL    HW115188   0.272   4.576   2.683  0.7207  3.8080 -0.2505
 1184SOL    HW215189   0.392   4.482   2.679 -3.6903 -1.3260 -0.4850
 1185SOL     OW15190   4.278   2.971   2.656 -0.4364  0.1271 -0.0874
 1185SOL    HW115191   4.268   2.880   2.632  2.3969 -0.1753 -0.1438
 1185SOL    HW215192   4.316   3.016   2.580  0.4583 -0.0470  0.2623
 1186SOL     OW15193   3.558   0.161  13.670  0.2724 -0.5566 -0.0963
 1186SOL    HW115194   3.613   0.194  13.741  0.5997  0.4155 -0.8059
 1186SOL    HW215195   3.508   0.096  13.720 -0.9848 -0.3007 -1.0277
 1187SOL     OW15196   3.646   0.274   8.115  0.1205  0.3128  0.3758
 1187SOL    HW115197   3.630   0.324   8.196 -1.0519  0.9651 -0.2613
 1187SOL    HW215198   3.613   0.194   8.156  0.5328  0.2358  0.5608
 1188SOL     OW15199   3.900   3.717   7.865  0.0270 -0.1102  0.4447
 1188SOL    HW115200   3.948   3.801   7.862  1.5405 -0.9734  0.3352
 1188SOL    HW215201   3.841   3.720   7.789 -0.5913  0.3347  0.9457
 1189SOL     OW15202   2.798   2.112   9.562 -0.0501  0.1776 -0.0508
 1189SOL    HW115203   2.733   2.123   9.632 -2.4797 -1.8053 -1.9843
 1189SOL    HW215204   2.739   2.078   9.495 -0.0386  0.3131 -0.1297
 1190SOL     OW15205   3.545   3.736   7.945  0.3379 -0.4801  0.1752
 1190SOL    HW115206   3.534   3.722   7.851 -1.3325 -1.2411  0.4792
 1190SOL    HW215207   3.469   3.680   7.963 -0.0188 -0.1567 -0.3333
 1191SOL     OW15208   3.264   3.636  13.383 -0.2861 -0.2029  0.6200
 1191SOL    HW115209   3.260   3.557  13.329  1.0868 -0.8301  1.4295
 1191SOL    HW215210   3.182   3.680  13.359 -0.0889 -0.2192 -0.0944
 1192SOL     OW15211   0.093   2.388   2.831 -0.6258 -0.1012  0.0687
 1192SOL    HW115212   0.065   2.464   2.781 -2.7105 -0.7250  0.3087
 1192SOL    HW215213   0.094   2.417   2.922  2.6598  0.0900  0.0037
 1193SOL     OW15214   1.758   0.343   5.534  0.2454 -0.1433  0.3431
 1193SOL    HW115215   1.672   0.324   5.573 -0.9084  0.0532 -2.0790
 1193SOL    HW215216   1.803   0.262   5.558 -0.8426 -1.0867 -0.8048
 1194SOL     OW15217   3.573   0.749   4.387 -0.2195 -0.1868  0.3922
 1194SOL    HW115218   3.490   0.746   4.434  0.6322 -1.3805  1.8409
 1194SOL    HW215219   3.581   0.838   4.352 -1.6810  0.1020  0.8216
 1195SOL     OW15220   3.912   4.081   2.812  0.1033  0.1025  0.3337
 1195SOL    HW115221   3.905   4.164   2.766  1.0771  1.5481  2.8305
 1195SOL    HW215222   4.008   4.079   2.811  0.0733 -1.7461 -0.5288
 1196SOL     OW15223   0.245   3.723   2.032 -0.2790  0.2632  0.0722
 1196SOL    HW115224   0.153   3.746   2.049 -0.8840 -1.9056 -0.3249
 1196SOL    HW215225   0.251   3.756   1.942  3.2639  0.3059  0.3347
 1197SOL     OW15226   0.517   2.606  10.508  0.7802  0.5786 -0.1090
 1197SOL    HW115227   0.451   2.557  10.557 -0.4554 -0.2049 -2.6202
 1197SOL    HW215228   0.464   2.679  10.475  0.3830  0.3808  0.0919
 1198SOL     OW15229   3.494   4.062   4.912  0.0807  0.3660  0.3496
 1198SOL    HW115230   3.417   4.041   4.859 -0.8723  0.9230  1.5127
 1198SOL    HW215231   3.491   4.155   4.890 -1.2044 -0.0915 -1.4392
 1199SOL     OW15232   0.431   4.720  10.483  0.5874 -0.1473 -0.2816
 1199SOL    HW115233   0.440   4.627  10.506 -0.0722 -0.3658 -0.9069
 1199SOL    HW215234   0.379   0.015  10.558 -0.9173 -4.4805  0.4238
 1200SOL     OW15235   2.991   4.411   7.521 -0.1979  0.1588  0.2111
 1200SOL    HW115236   3.000   4.483   7.583  0.5032 -0.6467  1.0180
 1200SOL    HW215237   2.933   4.354   7.571  0.3062 -0.7446 -0.2399
 1201SOL     OW15238   1.271   3.219   7.085 -0.0574 -0.1486 -0.1446
 1201SOL    HW115239   1.326   3.157   7.037  1.9116  0.5166  1.2445
 1201SOL    HW215240   1.195   3.230   7.028  0.3098  0.0481 -0.6045
 1202SOL     OW15241   1.132   2.074   7.843 -0.5322 -0.0012 -0.0108
 1202SOL    HW115242   1.181   2.115   7.914 -0.5759  2.2023 -1.2735
 1202SOL    HW215243   1.082   2.008   7.892  1.4755 -0.5138  1.3487
 1203SOL     OW15244   2.943   3.846   9.141  0.2167 -0.2946 -0.0886
 1203SOL    HW115245   3.033   3.818   9.159  0.4089 -0.0648 -0.6849
 1203SOL    HW215246   2.934   3.915   9.207 -1.4442  0.5944 -1.2519
 1204SOL     OW15247   2.123   0.795   9.935 -0.4322 -0.2339 -0.0461
 1204SOL    HW115248   2.123   0.849  10.015  1.4688  0.4997 -0.5519
 1204SOL    HW215249   2.041   0.750   9.956 -0.8133  1.8354  2.9897
 1205SOL     OW15250   4.319   2.663   8.575 -0.0071  0.9037  0.1224
 1205SOL    HW115251   4.244   2.640   8.630 -0.6296 -0.9242 -1.4851
 1205SOL    HW215252   4.299   2.754   8.552  1.1378  1.3254  0.8021
 1206SOL     OW15253   0.470   0.645   2.437  0.4955  0.0738 -0.2143
 1206SOL    HW115254   0.390   0.658   2.386  0.0754 -2.6139 -0.2445
 1206SOL    HW215255   0.533   0.706   2.399 -0.6437 -0.3700 -2.8313
 1207SOL     OW15256   2.019   3.750   9.273 -0.5505  0.0505  0.1207
 1207SOL    HW115257   2.030   3.708   9.187  1.1246 -0.3643  0.5405
 1207SOL    HW215258   1.947   3.697   9.308 -0.9962  1.6659  1.6445
 1208SOL     OW15259   2.060   4.493   8.193 -0.0138 -0.2679  0.0262
 1208SOL    HW115260   1.987   4.554   8.187  1.1658  1.1040 -0.4192
 1208SOL    HW215261   2.101   4.513   8.109  1.5309 -1.6910  0.4286
 1209SOL     OW15262   0.965   4.379  15.503  0.4914 -0.1246 -0.3551
 1209SOL    HW115263   0.928   4.427  15.429 -2.2668 -1.4960  0.1561
 1209SOL    HW215264   0.941   4.436  15.576 -3.9216 -0.5320 -1.4877
 1210SOL     OW15265   2.498   3.371   3.435 -0.0245  0.1499 -0.2357
 1210SOL    HW115266   2.533   3.287   3.408  0.1745 -0.7774  2.8493
 1210SOL    HW215267   2.559   3.428   3.388 -0.6855 -0.5382 -1.8915
 1211SOL     OW15268   1.006   4.703   3.369 -0.0210  0.2234  0.0071
 1211SOL    HW115269   0.928   0.016   3.397 -0.0406 -0.4370  1.0870
 1211SOL    HW215270   1.074   0.034   3.362 -0.5644  0.7291 -0.5350
 1212SOL     OW15271   2.226   4.689  14.303 -0.1960 -0.3445  0.6006
 1212SOL    HW115272   2.180   4.654  14.379 -0.2148  0.5509  1.0010
 1212SOL    HW215273   2.318   4.678  14.327  0.3560 -0.1926 -1.3911
 1213SOL     OW15274   3.223   0.517   5.479  0.1920  0.7908  0.3306
 1213SOL    HW115275   3.308   0.547   5.512 -1.1599  2.8267  1.9016
 1213SOL    HW215276   3.169   0.581   5.524 -0.1360  1.5283 -1.1161
 1214SOL     OW15277   4.373   0.338   7.294  0.5024  1.2318  0.1315
 1214SOL    HW115278   4.399   0.310   7.382  0.8113  0.7612 -0.1062
 1214SOL    HW215279   4.364   0.252   7.252 -0.8144  0.9164  1.0692
 1215SOL     OW15280   2.462   4.166   8.985 -0.8145 -0.0520 -0.2389
 1215SOL    HW115281   2.478   4.102   8.916 -0.0302 -1.8113  1.5592
 1215SOL    HW215282   2.373   4.141   9.010 -0.3329 -2.7425 -1.2338
 1216SOL     OW15283   0.170   1.694   2.786 -0.0409  0.2989  0.0059
 1216SOL    HW115284   0.229   1.654   2.850  0.1430 -0.6927 -0.7814
 1216SOL    HW215285   0.141   1.774   2.831  0.0772  2.0720 -3.0598
 1217SOL     OW15286   3.951   2.437  17.158  0.3395 -0.0331 -0.0985
 1217SOL    HW115287   3.985   2.524  17.179 -0.1015  0.6300 -2.1346
 1217SOL    HW215288   3.913   2.448  17.071  1.6738  0.1419 -0.6441
 1218SOL     OW15289   1.981   0.506   4.761  0.3894 -0.2616 -0.4583
 1218SOL    HW115290   2.019   0.468   4.682 -1.0359 -1.4982 -0.5474
 1218SOL    HW215291   2.029   0.589   4.763  0.6261 -0.4184  0.4210
 1219SOL     OW15292   4.264   3.449   5.799 -0.1215 -0.2071 -0.5245
 1219SOL    HW115293   4.325   3.402   5.742 -0.8550 -1.9501  0.1078
 1219SOL    HW215294   4.180   3.444   5.755 -0.4913 -0.3178  0.1829
 1220SOL     OW15295   0.285   2.614   6.749  0.1624  0.3019  0.3222
 1220SOL    HW115296   0.366   2.633   6.702  0.1657 -1.6884 -0.4782
 1220SOL    HW215297   0.224   2.677   6.712  0.2741  0.6949  0.8121
 1221SOL     OW15298   3.633   3.206   9.808  0.1420 -0.5445 -0.0568
 1221SOL    HW115299   3.548   3.205   9.766 -0.2812 -0.6817  0.8028
 1221SOL    HW215300   3.643   3.120   9.850 -0.6344 -0.7118 -0.2250
 1222SOL     OW15301   3.241   3.853   9.937 -0.0013  0.2054  0.4333
 1222SOL    HW115302   3.243   3.916  10.009  0.6270  0.6297  0.0348
 1222SOL    HW215303   3.159   3.807   9.959 -1.7807  2.5038 -1.4777
 1223SOL     OW15304   4.718   3.439   1.908  0.5642 -0.1937  0.0590
 1223SOL    HW115305   4.714   3.355   1.862 -0.8970  0.3575 -0.8138
 1223SOL    HW215306   0.004   3.411   1.997  0.8874 -2.4563 -0.7092
 1224SOL     OW15307   3.764   3.303   3.687 -0.6805 -0.5208 -0.3772
 1224SOL    HW115308   3.698   3.325   3.621 -1.8175  1.1760  1.3034
 1224SOL    HW215309   3.734   3.356   3.761  0.6818  1.0028 -0.9296
 1225SOL     OW15310   0.926   0.330   7.608 -0.6637 -0.3872  0.7369
 1225SOL    HW115311   0.948   0.407   7.556 -0.1424 -0.0430  1.4663
 1225SOL    HW215312   0.861   0.364   7.670 -0.1682 -1.2518  1.7500
 1226SOL     OW15313   1.399   1.494   4.872  0.0498  0.6126 -0.0196
 1226SOL    HW115314   1.371   1.526   4.957 -1.8702  0.6223 -0.6632
 1226SOL    HW215315   1.491   1.475   4.891 -0.4561 -0.6905  1.1340
 1227SOL     OW15316   0.430   1.030   8.219 -0.1584 -0.1296 -0.4896
 1227SOL    HW115317   0.342   0.994   8.229  0.6827 -3.0274 -3.3808
 1227SOL    HW215318   0.436   1.062   8.129 -1.1920  0.4267 -0.3618
 1228SOL     OW15319   3.689   3.770   5.148  0.1866 -0.1158 -0.3696
 1228SOL    HW115320   3.779   3.778   5.116  0.5489 -0.6820  0.5080
 1228SOL    HW215321   3.683   3.828   5.223 -0.4068 -0.2811 -0.2928
 1229SOL     OW15322   1.435   2.574   2.054  0.0578 -0.2398 -0.0898
 1229SOL    HW115323   1.449   2.608   1.966  0.2241  1.7995  0.7379
 1229SOL    HW215324   1.339   2.569   2.062  0.1430  0.8484  1.4769
 1230SOL     OW15325   0.085   0.657   1.336 -0.0457 -0.5440  0.1124
 1230SOL    HW115326   0.040   0.666   1.420  0.5956 -1.1000  0.5189
 1230SOL    HW215327   0.008   0.638   1.283  1.2281 -2.4383 -1.0389
 1231SOL     OW15328   1.425   4.123   6.907  0.4649 -0.2667 -0.5051
 1231SOL    HW115329   1.395   4.199   6.957 -1.8202 -1.2559 -0.3996
 1231SOL    HW215330   1.519   4.117   6.923  0.5324 -1.1037 -1.2054
 1232SOL     OW15331   0.339   3.942   2.723  0.5846  0.6571  0.0386
 1232SOL    HW115332   0.419   3.987   2.749  0.6083 -0.5003  1.9819
 1232SOL    HW215333   0.370   3.874   2.664  0.3222 -0.2084  0.8949
 1233SOL     OW15334   0.184   2.281   2.604 -0.2199 -0.0068  0.3206
 1233SOL    HW115335   0.158   2.189   2.610 -0.2382 -0.0340 -0.1378
 1233SOL    HW215336   0.166   2.307   2.694 -0.7197  1.6716 -0.2728
 1234SOL     OW15337   0.095   0.795   3.487 -0.1432  0.0136  0.4103
 1234SOL    HW115338   0.089   0.762   3.577  1.0955  0.8067  0.7912
 1234SOL    HW215339   0.124   0.716   3.442 -1.3778 -1.3555  2.0262
 1235SOL     OW15340   0.126   1.446  17.701 -0.4450 -0.0079 -0.3744
 1235SOL    HW115341   0.057   1.417   0.020  0.0131 -0.9116 -0.2832
 1235SOL    HW215342   0.088   1.477  17.619  0.3117 -0.2138 -0.8032
 1236SOL     OW15343   2.137   0.950   9.690  0.1328  0.5103  1.4466
 1236SOL    HW115344   2.046   0.952   9.662 -0.2500 -1.2702  2.5400
 1236SOL    HW215345   2.122   0.916   9.779  0.4849 -0.3912  1.1637
 1237SOL     OW15346   0.044   3.544   3.532 -0.2000  0.1742  0.3008
 1237SOL    HW115347   4.707   3.482   3.522  0.4862 -0.5136 -0.4531
 1237SOL    HW215348   4.733   3.625   3.508 -2.1925 -1.0261  0.0937
 1238SOL     OW15349   1.062   3.569   4.131  0.1384 -0.3285  0.1561
 1238SOL    HW115350   0.998   3.640   4.125  0.8380  0.0447 -3.2365
 1238SOL    HW215351   1.134   3.617   4.090 -0.3736 -1.6369 -2.2950
 1239SOL     OW15352   0.661   2.874   1.600 -0.1425  0.4626  0.4328
 1239SOL    HW115353   0.725   2.819   1.645 -0.4480 -1.0664 -1.0094
 1239SOL    HW215354   0.649   2.953   1.653 -2.7561 -1.3085  2.5205
 1240SOL     OW15355   0.985   4.142  14.539 -0.2733 -0.1292 -0.1258
 1240SOL    HW115356   0.907   4.087  14.540 -0.1560 -0.3070 -0.7352
 1240SOL    HW215357   1.045   4.082  14.493 -1.3384 -0.4316 -1.1148
 1241SOL     OW15358   3.554   3.443   3.538 -0.0141  0.0228  0.6155
 1241SOL    HW115359   3.463   3.470   3.551 -0.4554 -1.3789  0.4906
 1241SOL    HW215360   3.565   3.460   3.445  2.4833 -2.9045  0.3954
 1242SOL     OW15361   0.803   0.754  13.259  0.1331  0.2049 -0.3123
 1242SOL    HW115362   0.889   0.766  13.297 -0.5291  1.0110  0.9278
 1242SOL    HW215363   0.750   0.738  13.337 -0.5075 -1.4485 -1.0795
 1243SOL     OW15364   3.557   4.015   1.283 -0.2923 -0.6350  0.4922
 1243SOL    HW115365   3.471   4.007   1.240  0.1483  0.5135 -0.6031
 1243SOL    HW215366   3.584   3.923   1.285 -2.5966 -1.3326 -0.2702
 1244SOL     OW15367   2.117   3.271  12.738  0.4708 -0.0651  0.4558
 1244SOL    HW115368   2.091   3.285  12.647  2.4248 -0.1296 -0.1158
 1244SOL    HW215369   2.088   3.182  12.757  1.1514 -0.6388 -1.1739
 1245SOL     OW15370   0.847   3.871  11.135  0.6565  0.1062  0.4171
 1245SOL    HW115371   0.878   3.781  11.142  0.1791 -0.0788  0.1877
 1245SOL    HW215372   0.793   3.873  11.214 -0.6066  1.8913 -0.4749
 1246SOL     OW15373   1.966   3.287   6.940 -0.5129 -0.1147  0.5041
 1246SOL    HW115374   2.003   3.304   6.854 -0.9859  2.8682  0.9159
 1246SOL    HW215375   2.003   3.363   6.984 -1.7629  0.5983  0.3007
 1247SOL     OW15376   3.408   1.783  16.529  0.2775 -0.0389 -0.2752
 1247SOL    HW115377   3.437   1.760  16.440  1.3533  4.9864 -1.2388
 1247SOL    HW215378   3.420   1.877  16.538  0.1822  0.0036 -0.5622
 1248SOL     OW15379   3.130   2.624   3.260 -0.5424  0.2172 -0.0266
 1248SOL    HW115380   3.162   2.573   3.186 -1.6871 -1.3793  0.6055
 1248SOL    HW215381   3.194   2.604   3.328 -0.2577  0.8352 -0.1122
 1249SOL     OW15382   4.540   2.468   5.598  0.2273 -0.5016 -0.1465
 1249SOL    HW115383   4.572   2.380   5.579 -1.1360 -0.8298 -0.9161
 1249SOL    HW215384   4.612   2.529   5.580 -0.4144  0.8140  1.6730
 1250SOL     OW15385   2.358   1.602   2.804 -0.1042  0.1693 -0.2341
 1250SOL    HW115386   2.400   1.677   2.847  0.7051 -1.4755  1.8688
 1250SOL    HW215387   2.275   1.629   2.765  0.2804  1.3573 -0.2326
 1251SOL     OW15388   1.669   0.977   7.704 -0.1435  1.2183  0.3670
 1251SOL    HW115389   1.747   1.031   7.717 -0.6804  1.6728  1.6759
 1251SOL    HW215390   1.672   0.947   7.613  2.2595 -0.1694  0.9177
 1252SOL     OW15391   2.971   2.533  12.124  0.4711 -0.2195  0.8199
 1252SOL    HW115392   3.006   2.488  12.047 -0.3456  0.8454 -0.1706
 1252SOL    HW215393   2.960   2.464  12.190 -0.3099 -1.3789 -0.5467
 1253SOL     OW15394   0.467   0.251   7.219 -0.3714 -0.0800 -0.1314
 1253SOL    HW115395   0.385   0.295   7.200 -1.9312 -2.4676  1.0280
 1253SOL    HW215396   0.492   0.289   7.303  2.9171  1.4540 -1.7822
 1254SOL     OW15397   4.190   0.016  16.690 -0.1007  0.2990  0.0979
 1254SOL    HW115398   4.141   4.720  16.766  2.6197 -1.7052  1.0227
 1254SOL    HW215399   4.249   0.082  16.728  0.1067  1.4625 -2.2456
 1255SOL     OW15400   1.042   1.829  13.020  0.4454  0.3177 -0.0436
 1255SOL    HW115401   1.053   1.867  13.107  2.7055  1.5190 -0.8520
 1255SOL    HW215402   0.954   1.791  13.022  0.8926 -0.5935  2.2556
 1256SOL     OW15403   3.144   4.719  13.951  0.3997 -0.1762 -0.0044
 1256SOL    HW115404   3.083   4.726  14.025  0.7030 -1.9016  0.3996
 1256SOL    HW215405   3.098   0.042  13.891  1.1156 -1.4173 -1.7583
 1257SOL     OW15406   4.618   3.495   8.445  0.6741  0.3937 -0.2425
 1257SOL    HW115407   4.641   3.564   8.382 -0.2161  1.4370  0.5667
 1257SOL    HW215408   4.706   3.458   8.451  0.7137 -0.1817 -4.0297
 1258SOL     OW15409   3.199   0.119   7.321 -0.0127  0.3294 -0.1747
 1258SOL    HW115410   3.149   0.064   7.260  1.8387 -0.8833 -0.5981
 1258SOL    HW215411   3.173   0.206   7.290  1.2561  0.6103 -0.4423
 1259SOL     OW15412   4.415   2.500  13.257 -0.0601 -0.1596 -0.5690
 1259SOL    HW115413   4.447   2.421  13.214  0.6231 -1.1791  1.7890
 1259SOL    HW215414   4.344   2.454  13.302  1.3252 -0.3177  1.4326
 1260SOL     OW15415   0.865   2.846   4.317  0.1642  0.6171  0.2160
 1260SOL    HW115416   0.887   2.884   4.402 -0.8827  0.1707  0.6786
 1260SOL    HW215417   0.942   2.790   4.307 -0.5234 -0.5948  1.8749
 1261SOL     OW15418   4.084   2.684   9.998  0.2645 -0.3973  0.4623
 1261SOL    HW115419   4.149   2.626  10.036  0.6260 -0.4214 -0.1926
 1261SOL    HW215420   4.116   2.698   9.909 -0.7531  0.0579  0.1625
 1262SOL     OW15421   2.638   0.917  12.958  0.2626  0.1800  0.4381
 1262SOL    HW115422   2.581   0.989  12.984 -0.2384 -0.0810  0.0633
 1262SOL    HW215423   2.690   0.904  13.038 -2.1446  0.3805  2.0178
 1263SOL     OW15424   1.621   2.346   9.345  0.0722 -0.9013  0.0007
 1263SOL    HW115425   1.633   2.437   9.320 -0.8051 -0.6309  0.5590
 1263SOL    HW215426   1.659   2.307   9.266 -0.4707  0.2762 -0.8434
 1264SOL     OW15427   1.523   1.456   3.652 -0.0295  0.2689 -0.0908
 1264SOL    HW115428   1.467   1.389   3.615  0.7950 -0.8490  0.6939
 1264SOL    HW215429   1.573   1.482   3.575 -1.4533  3.8649  0.1850
 1265SOL     OW15430   4.627   1.738  17.033  0.1861 -0.1391  0.0206
 1265SOL    HW115431   4.710   1.770  17.068  0.1925 -1.1492  0.9303
 1265SOL    HW215432   4.565   1.779  17.094 -0.2252  2.9928 -2.5147
 1266SOL     OW15433   3.097   2.301  14.110 -0.1590  0.1448  0.0926
 1266SOL    HW115434   3.004   2.315  14.131 -0.8446 -0.3830 -2.5121
 1266SOL    HW215435   3.111   2.376  14.053 -2.8863  0.6788  0.0914
 1267SOL     OW15436   3.039   3.515  15.856 -0.0113  0.0021  0.4933
 1267SOL    HW115437   2.992   3.589  15.895  1.6909  1.3086  0.0741
 1267SOL    HW215438   3.127   3.541  15.884 -0.1030  0.2412  0.5618
 1268SOL     OW15439   4.032   3.824   3.962  0.5046  0.7377  0.0849
 1268SOL    HW115440   4.082   3.805   3.883 -0.1610  0.2452 -0.2178
 1268SOL    HW215441   4.085   3.892   4.004  0.6744  2.3170 -2.6871
 1269SOL     OW15442   3.891   2.430   8.666  0.4118 -0.1771 -0.7921
 1269SOL    HW115443   3.969   2.438   8.611  0.5979  1.2020 -0.3213
 1269SOL    HW215444   3.826   2.450   8.599 -1.4243  0.5654  1.2250
 1270SOL     OW15445   0.256   0.512   8.025  0.0770 -0.2599  0.0695
 1270SOL    HW115446   0.279   0.603   8.007  0.3036 -0.3693 -0.1946
 1270SOL    HW215447   0.231   0.476   7.940  2.1409 -0.8748 -0.2891
 1271SOL     OW15448   1.188   0.910   8.984 -0.7287 -0.3994  0.2854
 1271SOL    HW115449   1.154   0.851   9.052  0.8288 -0.1176  1.2949
 1271SOL    HW215450   1.162   0.870   8.901  2.7440  1.6947 -1.7944
 1272SOL     OW15451   4.147   2.567   1.498 -0.4133  0.0286 -0.5462
 1272SOL    HW115452   4.225   2.596   1.545 -1.9731  2.1965  0.7489
 1272SOL    HW215453   4.115   2.491   1.547 -0.1823 -0.2873 -0.8875
 1273SOL     OW15454   0.997   3.579   7.602 -0.1778 -0.2600  0.0626
 1273SOL    HW115455   0.944   3.551   7.677  3.3372 -0.6566  2.4238
 1273SOL    HW215456   1.043   3.646   7.653 -1.8524  1.4381 -0.6746
 1274SOL     OW15457   4.193   1.187   7.556 -0.1044  0.1141 -0.3939
 1274SOL    HW115458   4.103   1.186   7.526 -0.4632 -0.5161  0.7122
 1274SOL    HW215459   4.211   1.102   7.596  1.1160 -0.2650 -1.7386
 1275SOL     OW15460   1.740   4.342  17.070 -0.6142 -0.5016 -0.2227
 1275SOL    HW115461   1.735   4.375  16.980 -1.7924  0.4217  0.1730
 1275SOL    HW215462   1.777   4.421  17.108  0.3721 -0.2723 -1.6583
 1276SOL     OW15463   3.853   3.467  14.564 -1.0563 -0.0359 -0.6455
 1276SOL    HW115464   3.907   3.400  14.523 -3.9095 -2.2567 -0.7473
 1276SOL    HW215465   3.912   3.543  14.560  0.2691 -0.8975  2.8377
 1277SOL     OW15466   1.817   2.259   6.431 -0.2292 -0.0627  0.7947
 1277SOL    HW115467   1.850   2.291   6.515 -1.2395  3.6442 -0.2387
 1277SOL    HW215468   1.858   2.173   6.442  1.5809  0.8281  0.9478
 1278SOL     OW15469   1.950   0.737   4.249  0.2474  0.3218  0.0121
 1278SOL    HW115470   1.960   0.815   4.305  4.0152  1.0290 -1.6629
 1278SOL    HW215471   2.021   0.754   4.187 -0.1857  3.2024  0.2975
 1279SOL     OW15472   1.593   0.098   4.575  0.4806 -0.0311  0.5046
 1279SOL    HW115473   1.565   0.124   4.663 -0.0298 -1.8440  0.8722
 1279SOL    HW215474   1.579   0.004   4.575 -0.5065  0.1198  1.2829
 1280SOL     OW15475   0.148   4.036  13.970 -0.2089 -0.5892  0.1302
 1280SOL    HW115476   0.055   4.048  13.950  0.0862  0.4939 -0.6225
 1280SOL    HW215477   0.138   4.098  14.042 -1.6881 -1.3917  0.6020
 1281SOL     OW15478   0.717   1.801  17.300  0.2799  0.1619  0.1435
 1281SOL    HW115479   0.785   1.791  17.367  0.5879 -1.4562 -0.4267
 1281SOL    HW215480   0.637   1.761  17.334  1.0875 -1.8319 -0.3604
 1282SOL     OW15481   4.411   2.158   8.185 -0.4442 -0.4301 -0.0843
 1282SOL    HW115482   4.360   2.154   8.266  1.1613 -0.1245  0.9341
 1282SOL    HW215483   4.347   2.128   8.120 -0.3636  0.0320 -0.3763
 1283SOL     OW15484   1.098   2.651   4.323 -1.4050  0.3759 -0.0475
 1283SOL    HW115485   1.090   2.623   4.414  0.4146  0.9244  0.2893
 1283SOL    HW215486   1.152   2.730   4.329 -1.0483  0.1845 -0.7997
 1284SOL     OW15487   4.518   4.677   3.244 -0.9322 -0.4550  0.0491
 1284SOL    HW115488   4.450   0.009   3.235 -2.4158 -2.0265 -0.3606
 1284SOL    HW215489   4.499   4.617   3.172 -0.1573 -1.1264  0.4084
 1285SOL     OW15490   2.529   1.795   5.786  0.2434 -0.2080 -0.1292
 1285SOL    HW115491   2.548   1.872   5.734 -0.7676  0.9413  1.2021
 1285SOL    HW215492   2.492   1.838   5.863  0.9975  1.4270 -0.6983
 1286SOL     OW15493   0.011   2.443   3.497  0.7702 -0.0612 -0.1667
 1286SOL    HW115494   4.713   2.405   3.415 -0.9922  2.4419 -0.5950
 1286SOL    HW215495   0.042   2.368   3.547  1.6917 -0.0756 -0.7698
 1287SOL     OW15496   1.499   1.203   4.714  0.1288  0.2244  0.1697
 1287SOL    HW115497   1.517   1.263   4.642  2.9017 -0.0269  0.6872
 1287SOL    HW215498   1.428   1.150   4.676  1.2549  1.0330 -3.0400
 1288SOL     OW15499   2.179   1.306   6.255  0.0583  0.5330 -0.1188
 1288SOL    HW115500   2.193   1.400   6.243  1.8600 -0.5942 -6.6703
 1288SOL    HW215501   2.196   1.295   6.349  0.1693  0.0350 -0.1948
 1289SOL     OW15502   3.490   1.761   0.591  0.2925  0.4994  0.3573
 1289SOL    HW115503   3.512   1.689   0.650  0.1184 -1.0409 -1.4586
 1289SOL    HW215504   3.458   1.822   0.658 -0.7265  0.9929 -0.5724
 1290SOL     OW15505   1.624   2.457   5.686  0.0089  0.2426  0.2970
 1290SOL    HW115506   1.609   2.531   5.744  0.1831  0.5916 -0.1084
 1290SOL    HW215507   1.717   2.440   5.676 -0.2800  0.4108 -2.6375
 1291SOL     OW15508   4.693   1.701  11.177 -0.0944 -0.0457 -0.1766
 1291SOL    HW115509   0.024   1.715  11.110  1.1010 -0.5703  0.8864
 1291SOL    HW215510   4.662   1.789  11.196  0.5139  0.4347 -1.4141
 1292SOL     OW15511   0.305   3.687  15.035  0.3226  1.1206 -0.5901
 1292SOL    HW115512   0.299   3.612  15.094 -0.7274 -0.9226 -3.3329
 1292SOL    HW215513   0.345   3.647  14.958  1.6791 -1.0720  1.2534
 1293SOL     OW15514   0.455   0.178   4.671  0.4905  0.6422  0.1502
 1293SOL    HW115515   0.380   0.229   4.640 -0.5642 -1.1902 -0.2930
 1293SOL    HW215516   0.405   0.096   4.676 -0.5065  1.2493  0.3307
 1294SOL     OW15517   3.547   1.540  15.117  0.4501  0.1795 -0.0642
 1294SOL    HW115518   3.470   1.584  15.154 -0.0502  0.0868 -1.0009
 1294SOL    HW215519   3.527   1.448  15.100 -2.4700  0.4201  2.1079
 1295SOL     OW15520   0.382   2.311   8.181  0.3736 -0.0186  0.0254
 1295SOL    HW115521   0.290   2.286   8.190  0.1486  0.7174 -0.2149
 1295SOL    HW215522   0.391   2.389   8.236 -0.8395  1.7128 -2.2086
 1296SOL     OW15523   1.713   1.883   9.365 -0.1049  0.5478 -0.0063
 1296SOL    HW115524   1.798   1.846   9.345 -0.5021 -0.8872  0.9104
 1296SOL    HW215525   1.738   1.963   9.412  2.2730 -0.8114  1.0418
 1297SOL     OW15526   0.454   3.889  11.407  0.1810 -0.3895 -0.0223
 1297SOL    HW115527   0.471   3.924  11.319  0.8220 -0.8500 -0.0799
 1297SOL    HW215528   0.372   3.846  11.385 -0.1817 -0.5021  1.5748
 1298SOL     OW15529   0.080   0.848  14.897 -0.0306  0.5689  0.7499
 1298SOL    HW115530   0.009   0.896  14.940 -0.5147  0.5210  0.0078
 1298SOL    HW215531   0.049   0.855  14.807 -1.6883 -1.6166  1.1471
 1299SOL     OW15532   1.557   0.583   7.026 -0.1701  0.9725 -0.1732
 1299SOL    HW115533   1.561   0.489   7.045  0.3798  0.8228 -1.0435
 1299SOL    HW215534   1.651   0.597   7.012  0.4042 -2.9505 -0.2042
 1300SOL     OW15535   2.304   1.001   6.400 -0.5037  0.6236 -0.2516
 1300SOL    HW115536   2.292   1.066   6.470  0.8336 -0.7985  1.2906
 1300SOL    HW215537   2.384   1.044   6.371 -1.7775  2.0784 -1.6295
 1301SOL     OW15538   1.353   3.120  11.512 -0.2313 -0.3800 -0.0482
 1301SOL    HW115539   1.384   3.128  11.421  0.6663 -0.7526  0.2235
 1301SOL    HW215540   1.280   3.180  11.523  1.5501  1.6795  0.5878
 1302SOL     OW15541   3.006   1.284   3.018 -0.1331 -0.0680  1.0647
 1302SOL    HW115542   3.020   1.260   3.110 -0.5540 -0.5199  1.0043
 1302SOL    HW215543   3.069   1.226   2.975  0.4858  1.2574  0.1552
 1303SOL     OW15544   3.641   1.215  11.755  0.3841 -0.2357 -0.1827
 1303SOL    HW115545   3.730   1.183  11.742 -0.0667 -0.8155 -1.8676
 1303SOL    HW215546   3.609   1.210  11.665  2.3551  0.0185 -0.8992
 1304SOL     OW15547   0.615   3.583   8.516 -0.1720  0.1929  0.8276
 1304SOL    HW115548   0.696   3.531   8.517 -0.7982 -0.8172 -1.1084
 1304SOL    HW215549   0.658   3.668   8.512 -0.7673  0.4319 -0.4716
 1305SOL     OW15550   1.750   0.004   6.814 -0.4345 -0.4031 -0.2910
 1305SOL    HW115551   1.788   0.057   6.743  2.0848 -0.0782  1.3187
 1305SOL    HW215552   1.832   4.722   6.859 -0.5248 -0.8548 -0.3032
 1306SOL     OW15553   2.572   3.463   8.689 -0.4764 -0.3422  0.1654
 1306SOL    HW115554   2.581   3.542   8.636 -1.2882  0.4417  1.1921
 1306SOL    HW215555   2.490   3.437   8.647  0.2236 -1.1159 -0.7010
 1307SOL     OW15556   0.479   2.477  16.788  0.4399  0.0055  0.3144
 1307SOL    HW115557   0.417   2.506  16.721  0.6899  0.7203  0.3920
 1307SOL    HW215558   0.526   2.556  16.814 -0.4699 -0.1375  2.4523
 1308SOL     OW15559   4.567   1.147   5.218 -0.6314 -0.1644 -0.0854
 1308SOL    HW115560   4.658   1.124   5.237 -0.6370  0.3876  0.6091
 1308SOL    HW215561   4.569   1.144   5.122  0.6816 -0.5613 -0.0462
 1309SOL     OW15562   1.107   2.761   7.705 -0.5360  0.0315  0.8965
 1309SOL    HW115563   1.024   2.715   7.701 -0.1280 -0.5456 -0.7499
 1309SOL    HW215564   1.118   2.781   7.612  1.0367 -2.5768  0.5203
 1310SOL     OW15565   1.676   1.550   3.994 -0.2019 -0.1070 -0.7422
 1310SOL    HW115566   1.741   1.559   3.924  0.7233 -0.7275  0.0373
 1310SOL    HW215567   1.682   1.458   4.020  0.0385  0.0989 -0.0557
 1311SOL     OW15568   1.990   3.695   2.645 -0.4846 -0.3444 -0.0211
 1311SOL    HW115569   2.085   3.710   2.649 -0.3280 -1.4819  0.5671
 1311SOL    HW215570   2.000   3.602   2.624 -1.8361 -0.5709  0.3388
 1312SOL     OW15571   3.234   4.044  12.126  0.0855 -0.6620 -0.8995
 1312SOL    HW115572   3.308   4.013  12.178 -0.1990  2.0254  1.1416
 1312SOL    HW215573   3.262   4.026  12.037  0.0648  0.4996 -1.1420
 1313SOL     OW15574   3.843   0.613   7.960 -0.4317 -0.2247  0.1305
 1313SOL    HW115575   3.756   0.600   7.998 -0.3681 -0.8048  0.0804
 1313SOL    HW215576   3.870   0.522   7.970  2.0664  0.6413  1.2722
 1314SOL     OW15577   3.118   2.245   5.279 -0.2550 -0.3661  0.3684
 1314SOL    HW115578   3.034   2.255   5.233  0.9247  0.4055 -1.6162
 1314SOL    HW215579   3.174   2.313   5.242 -2.3155  0.2869 -1.5605
 1315SOL     OW15580   4.721   0.868   0.636 -0.1270 -0.1136  0.4456
 1315SOL    HW115581   4.678   0.783   0.640  0.4215 -0.2738  2.6718
 1315SOL    HW215582   0.074   0.861   0.599 -0.9035 -0.9398 -1.2468
 1316SOL     OW15583   2.414   3.760   5.668  0.7842  0.2794 -0.2411
 1316SOL    HW115584   2.388   3.835   5.722  0.2680  0.6900 -1.0522
 1316SOL    HW215585   2.509   3.771   5.678  0.7128 -1.0067  1.6922
 1317SOL     OW15586   3.338   1.452   5.523 -0.0852  0.2231 -0.0885
 1317SOL    HW115587   3.351   1.369   5.477 -1.0155  0.5553 -0.9492
 1317SOL    HW215588   3.427   1.470   5.552  0.9546 -0.5430 -2.8533
 1318SOL     OW15589   2.654   0.642   7.158  0.9234  0.3471 -0.5531
 1318SOL    HW115590   2.630   0.550   7.147 -2.0467  1.0957 -0.4097
 1318SOL    HW215591   2.737   0.644   7.111  2.2063  0.6568  1.7243
 1319SOL     OW15592   0.870   2.249  16.518  0.2737  0.4178  0.4834
 1319SOL    HW115593   0.941   2.190  16.545 -1.1483 -1.1368  0.7630
 1319SOL    HW215594   0.887   2.334  16.559 -1.1094  1.3572 -0.9112
 1320SOL     OW15595   2.186   1.879   9.873 -0.4271 -0.6610  0.5307
 1320SOL    HW115596   2.120   1.942   9.842 -1.0611 -1.6660 -0.1530
 1320SOL    HW215597   2.172   1.871   9.968  0.0335 -0.6529  0.6001
 1321SOL     OW15598   1.961   1.897   3.287 -0.6906 -0.2337 -0.2797
 1321SOL    HW115599   2.035   1.887   3.227  3.2222  2.0580  4.1363
 1321SOL    HW215600   1.995   1.841   3.357  0.6202 -1.3514 -1.8268
 1322SOL     OW15601   1.827   2.503  10.855 -0.6197  0.7525 -0.2338
 1322SOL    HW115602   1.789   2.575  10.805  0.0027  0.5860 -0.9448
 1322SOL    HW215603   1.892   2.554  10.903 -1.1418  0.7360  0.4891
 1323SOL     OW15604   0.269   2.495  14.192 -0.3203 -0.3234 -0.0865
 1323SOL    HW115605   0.216   2.563  14.152 -1.7282 -1.1340  0.3834
 1323SOL    HW215606   0.228   2.417  14.154 -0.0832 -0.9943  1.0150
 1324SOL     OW15607   2.227   1.038   4.192  0.3090 -0.5100  0.8397
 1324SOL    HW115608   2.153   1.053   4.134 -0.5256 -2.5268  1.3896
 1324SOL    HW215609   2.275   1.116   4.165 -1.0432 -0.2294 -0.7496
 1325SOL     OW15610   4.618   0.232  11.085 -0.1667 -0.0360 -0.0356
 1325SOL    HW115611   4.551   0.298  11.075 -3.4421 -3.4269 -0.5755
 1325SOL    HW215612   4.600   0.170  11.013  0.9679  0.2931 -0.6047
 1326SOL     OW15613   0.653   2.303   0.504  0.3777  0.3401  0.3673
 1326SOL    HW115614   0.587   2.241   0.535  1.5527 -0.1466  1.8965
 1326SOL    HW215615   0.648   2.371   0.571 -2.8898 -0.4903  0.9539
 1327SOL     OW15616   4.427   2.606   7.996  0.2659 -0.1218  0.3122
 1327SOL    HW115617   4.348   2.600   7.942  0.4176  0.5877  0.0174
 1327SOL    HW215618   4.491   2.635   7.931 -0.6719  0.6469 -0.2713
 1328SOL     OW15619   4.434   0.685   6.675 -0.3071  0.1544  0.5195
 1328SOL    HW115620   4.419   0.598   6.712 -1.0254  0.4592  0.9440
 1328SOL    HW215621   4.451   0.740   6.752  0.3353  0.5138  0.1226
 1329SOL     OW15622   3.113   3.062   2.723 -0.1737 -0.2733 -0.0268
 1329SOL    HW115623   3.145   3.006   2.652 -0.7120  1.5290 -1.7092
 1329SOL    HW215624   3.079   3.002   2.789  0.1064 -2.2216 -1.6491
 1330SOL     OW15625   0.950   2.398   7.803 -0.5012  0.1516  0.4261
 1330SOL    HW115626   0.959   2.441   7.888 -0.8589  1.1907 -0.0555
 1330SOL    HW215627   0.902   2.318   7.826 -1.2132  0.4408 -0.0398
 1331SOL     OW15628   3.670   2.438   5.124  0.2721  1.1025  0.1249
 1331SOL    HW115629   3.720   2.440   5.042 -1.1700 -0.8229 -0.8013
 1331SOL    HW215630   3.674   2.527   5.160 -0.7057  0.5323  1.6160
 1332SOL     OW15631   3.856   1.404  15.942 -1.0276 -0.0491 -0.0868
 1332SOL    HW115632   3.861   1.495  15.970  0.3458  0.0862 -0.7465
 1332SOL    HW215633   3.761   1.392  15.939 -0.4470 -4.6666 -0.6183
 1333SOL     OW15634   1.012   2.723  16.662  0.5650  0.2487  0.3399
 1333SOL    HW115635   1.034   2.767  16.744 -2.0904  0.0814  1.1459
 1333SOL    HW215636   1.101   2.725  16.626 -0.4683  0.2619 -2.1531
 1334SOL     OW15637   3.161   3.600  15.424  0.2906 -0.1986  0.3302
 1334SOL    HW115638   3.176   3.692  15.443 -0.3403  0.1890 -1.0477
 1334SOL    HW215639   3.071   3.603  15.389 -0.1466  0.1617  1.5067
 1335SOL     OW15640   4.500   2.582   9.876 -0.8110 -0.5280 -0.0728
 1335SOL    HW115641   4.434   2.625   9.820  1.0413  2.7789  0.2856
 1335SOL    HW215642   4.448   2.573   9.956  1.1548 -1.8378  1.0554
 1336SOL     OW15643   0.182   3.176   5.871 -0.0132  0.1328 -0.1300
 1336SOL    HW115644   0.143   3.124   5.942  0.0696  3.0805  2.0549
 1336SOL    HW215645   0.188   3.260   5.916 -1.4903  0.9330 -1.4518
 1337SOL     OW15646   4.311   1.918   0.090  0.3837 -0.3797 -0.1435
 1337SOL    HW115647   4.272   1.841   0.130  0.5416 -1.5403 -2.2529
 1337SOL    HW215648   4.341   1.887   0.005 -2.4044  0.5277 -1.4369
 1338SOL     OW15649   3.619   1.286   8.739 -0.0877  0.4380 -0.1605
 1338SOL    HW115650   3.646   1.221   8.674 -1.2383 -0.7414  0.5294
 1338SOL    HW215651   3.688   1.352   8.739 -1.0080  1.3802 -0.9244
 1339SOL     OW15652   1.166   0.492  12.971 -0.5278  0.5106  0.4549
 1339SOL    HW115653   1.078   0.464  12.997 -1.1370  1.4260 -0.6250
 1339SOL    HW215654   1.221   0.436  13.025  0.5533 -0.4544 -1.6400
 1340SOL     OW15655   0.302   4.639  14.284 -0.0151  0.0031 -0.4533
 1340SOL    HW115656   0.365   4.704  14.253 -1.0096  2.0684  1.9038
 1340SOL    HW215657   0.357   4.563  14.262  1.9650  1.0001  1.0334
 1341SOL     OW15658   1.707   2.251   3.011 -0.7996  0.1020  0.4116
 1341SOL    HW115659   1.624   2.282   2.975 -0.7259  1.5833  1.5166
 1341SOL    HW215660   1.671   2.175   3.058 -1.8043 -1.5400 -3.0480
 1342SOL     OW15661   0.880   3.769   1.538 -0.3879 -0.4151  0.5851
 1342SOL    HW115662   0.955   3.795   1.592 -1.0270  0.5790  0.9842
 1342SOL    HW215663   0.859   3.691   1.589 -0.6936 -0.5126  0.3093
 1343SOL     OW15664   0.864   1.581   7.595 -0.3301 -0.1917  0.5943
 1343SOL    HW115665   0.844   1.529   7.517 -1.1366 -0.9118  1.2681
 1343SOL    HW215666   0.795   1.647   7.591 -0.2418  0.0511  2.9242
 1344SOL     OW15667   0.414   2.504  10.734 -0.0467  0.4283 -0.2011
 1344SOL    HW115668   0.351   2.567  10.768 -0.5720  0.3537 -1.0663
 1344SOL    HW215669   0.347   2.437  10.722 -0.3780  0.4171  1.6478
 1345SOL     OW15670   1.281   3.455  10.218 -0.1262 -0.2013  0.1029
 1345SOL    HW115671   1.270   3.404  10.298 -0.9322 -0.0679  0.0784
 1345SOL    HW215672   1.189   3.475  10.200 -0.0544  2.2352  2.5388
 1346SOL     OW15673   1.409   4.232   5.970  0.2222  0.3662  0.1252
 1346SOL    HW115674   1.370   4.284   6.040  0.1987  0.8933 -0.2790
 1346SOL    HW215675   1.470   4.183   6.025  1.2701  4.2534  2.4287
 1347SOL     OW15676   4.224   2.742   8.268  0.0065 -0.0448 -0.1354
 1347SOL    HW115677   4.258   2.780   8.349 -1.4333  1.1957 -0.1045
 1347SOL    HW215678   4.153   2.806   8.256 -0.7046 -0.8982 -0.5106
 1348SOL     OW15679   4.730   2.548  10.046  0.0709  0.1826  0.3908
 1348SOL    HW115680   0.021   2.462  10.014  0.4309  0.1663  0.7344
 1348SOL    HW215681   4.678   2.573   9.970  0.2764  2.9124  1.1300
 1349SOL     OW15682   2.807   4.196   2.553  0.5702 -0.1223 -0.1413
 1349SOL    HW115683   2.739   4.224   2.492  0.6447 -2.2316 -1.1824
 1349SOL    HW215684   2.788   4.104   2.572  1.9540 -0.0257  1.7619
 1350SOL     OW15685   2.216   2.212   0.312  0.0792 -0.2933 -0.8062
 1350SOL    HW115686   2.277   2.245   0.378 -1.3248 -0.2001  0.4495
 1350SOL    HW215687   2.227   2.290   0.257  0.1233  0.0276 -0.3407
 1351SOL     OW15688   1.517   2.929   0.833  0.1316  0.0157  0.6319
 1351SOL    HW115689   1.526   2.989   0.759 -1.1162  0.6160  0.9566
 1351SOL    HW215690   1.592   2.957   0.885 -0.7519 -0.4132  2.1238
 1352SOL     OW15691   2.271   0.854  16.818 -0.2573 -0.2989  0.4026
 1352SOL    HW115692   2.293   0.939  16.779  0.6031 -0.6982 -0.0010
 1352SOL    HW215693   2.219   0.805  16.754  0.1987 -2.4344  1.6664
 1353SOL     OW15694   1.548   0.736  12.478 -0.0079  0.0342 -0.3491
 1353SOL    HW115695   1.510   0.823  12.467 -1.5532 -0.8058 -1.5835
 1353SOL    HW215696   1.564   0.711  12.387  0.3599 -2.1852  0.3289
 1354SOL     OW15697   3.008   2.029   4.223  0.3272 -0.1881 -0.2329
 1354SOL    HW115698   2.989   2.074   4.306 -2.6179  1.1970 -1.6908
 1354SOL    HW215699   3.071   1.964   4.254  2.0872  2.0094  0.8458
 1355SOL     OW15700   3.624   2.121   0.511 -0.5652 -0.3042 -0.2298
 1355SOL    HW115701   3.664   2.070   0.441  0.8548 -0.0344  0.3899
 1355SOL    HW215702   3.679   2.199   0.509 -0.2843 -0.4468  1.4710
 1356SOL     OW15703   1.320   2.510   7.533  0.1565 -0.3438 -0.0927
 1356SOL    HW115704   1.347   2.499   7.624 -0.6270 -0.7354  0.0901
 1356SOL    HW215705   1.380   2.578   7.503  1.9065 -1.7762  0.1199
 1357SOL     OW15706   0.705   1.964   0.082 -0.1098  0.4537  0.6166
 1357SOL    HW115707   0.698   1.869   0.090 -1.8086  0.7538  2.6684
 1357SOL    HW215708   0.716   1.990   0.173  0.2603  1.3560  0.3119
 1358SOL     OW15709   0.762   0.400  13.773  0.1273 -0.5916 -0.1736
 1358SOL    HW115710   0.762   0.362  13.861  1.6604  0.3015  0.2121
 1358SOL    HW215711   0.713   0.481  13.784  1.9650  0.7037 -1.5443
 1359SOL     OW15712   0.399   4.579   3.684 -0.3219 -0.0806  0.0238
 1359SOL    HW115713   0.342   4.525   3.737 -1.1200  1.0820  0.3463
 1359SOL    HW215714   0.433   4.512   3.625 -1.1128 -0.6249  0.1857
 1360SOL     OW15715   4.389   0.053   7.877 -0.2438  0.3629 -0.6369
 1360SOL    HW115716   4.331   0.130   7.878 -0.1958  0.4217 -1.7230
 1360SOL    HW215717   4.338   4.733   7.817 -1.0708  0.3206  0.1098
 1361SOL     OW15718   2.535   3.522   6.734  0.3083 -0.0794 -0.1723
 1361SOL    HW115719   2.552   3.448   6.676 -1.6279 -0.9582  0.3736
 1361SOL    HW215720   2.473   3.479   6.794 -0.1208 -1.9213 -1.9329
 1362SOL     OW15721   0.794   1.709  13.033 -0.2460  0.4963  0.5167
 1362SOL    HW115722   0.786   1.657  13.113  0.4622 -0.8260 -0.2801
 1362SOL    HW215723   0.715   1.763  13.036  0.4826  1.5708  0.3554
 1363SOL     OW15724   0.333   2.905   3.562  0.1258  0.0799 -0.5810
 1363SOL    HW115725   0.245   2.944   3.558 -0.4704 -1.2605 -0.4019
 1363SOL    HW215726   0.307   2.815   3.542 -2.9777  0.4979  1.6084
 1364SOL     OW15727   2.402   3.365   4.637  0.7602 -0.7622 -0.2207
 1364SOL    HW115728   2.454   3.292   4.670  1.0407  0.1962  1.4690
 1364SOL    HW215729   2.314   3.326   4.641  0.6772 -0.7117 -1.5052
 1365SOL     OW15730   1.325   0.275   2.941  0.4042  0.0227 -0.2576
 1365SOL    HW115731   1.275   0.298   2.863 -1.4249 -1.2482  0.5386
 1365SOL    HW215732   1.411   0.267   2.899  0.5583 -2.1911  0.4771
 1366SOL     OW15733   3.984   4.075  10.566 -0.0471 -0.4972 -0.0960
 1366SOL    HW115734   4.058   4.046  10.620 -0.0405 -0.3038 -0.0023
 1366SOL    HW215735   4.021   4.047  10.482 -1.4929  2.1216 -1.6229
 1367SOL     OW15736   2.117   4.182  11.073  0.6192  0.1492 -0.0652
 1367SOL    HW115737   2.067   4.262  11.060  0.5673  0.3815  1.5468
 1367SOL    HW215738   2.184   4.216  11.132  0.2612  0.7200  0.0122
 1368SOL     OW15739   1.790   0.342   2.027 -0.2587 -0.1059 -0.0874
 1368SOL    HW115740   1.801   0.430   2.063  0.9912 -0.7313  1.0850
 1368SOL    HW215741   1.843   0.338   1.948 -0.1503  0.2801 -0.0356
 1369SOL     OW15742   3.737   2.126   8.468  0.3091 -0.1815 -0.3938
 1369SOL    HW115743   3.673   2.177   8.419 -0.4280 -0.1303  0.6287
 1369SOL    HW215744   3.685   2.087   8.538 -0.0770  0.4144 -0.3485
 1370SOL     OW15745   3.960   1.796  12.909  0.5917 -0.2676  0.8441
 1370SOL    HW115746   3.914   1.794  12.993 -1.6698 -1.5982 -0.4209
 1370SOL    HW215747   4.004   1.880  12.923  2.2036 -0.9694 -0.0279
 1371SOL     OW15748   3.353   4.469  10.653 -0.6203 -0.1320  0.1687
 1371SOL    HW115749   3.271   4.428  10.680 -1.4259  1.9306  0.7834
 1371SOL    HW215750   3.352   4.465  10.557  0.5165  0.4403  0.1385
 1372SOL     OW15751   3.801   0.640   7.609  0.3426  0.3823 -0.2633
 1372SOL    HW115752   3.722   0.675   7.568 -0.5817 -0.1433  1.0560
 1372SOL    HW215753   3.851   0.718   7.633 -0.6659  0.5576  1.2682
 1373SOL     OW15754   1.209   4.113   3.781  0.5005 -0.4573  0.3377
 1373SOL    HW115755   1.185   4.072   3.864 -1.3675 -0.4507 -0.1826
 1373SOL    HW215756   1.248   4.037   3.737  0.8744 -1.1219  1.8456
 1374SOL     OW15757   1.951   3.293   7.729  0.4847  0.5821  0.0924
 1374SOL    HW115758   1.950   3.198   7.728  2.6737  0.5384  1.4956
 1374SOL    HW215759   1.891   3.308   7.656 -1.0851  0.2087  1.3137
 1375SOL     OW15760   3.045   4.048  11.848 -0.2824  0.0855 -0.1927
 1375SOL    HW115761   3.135   4.073  11.868 -1.0976  2.4084  0.5904
 1375SOL    HW215762   3.005   4.133  11.830 -3.5024 -1.8126 -1.9709
 1376SOL     OW15763   1.753   3.626   5.100  0.5890  0.5410 -0.1831
 1376SOL    HW115764   1.756   3.707   5.150 -1.0228 -0.7370  1.9990
 1376SOL    HW215765   1.684   3.580   5.148  0.5623  2.4389  1.6141
 1377SOL     OW15766   1.287   3.352   4.634  0.6428  0.6227 -0.0327
 1377SOL    HW115767   1.368   3.393   4.664  0.9907 -1.3730  1.7559
 1377SOL    HW215768   1.269   3.287   4.702 -1.6113  0.8708 -0.3966
 1378SOL     OW15769   1.621   2.788   2.152  0.2479 -0.7086 -0.9096
 1378SOL    HW115770   1.601   2.710   2.202 -1.3667  0.6454  0.5715
 1378SOL    HW215771   1.702   2.811   2.198  0.1153 -1.3822 -0.3419
 1379SOL     OW15772   3.782   2.221  17.132 -0.2692 -0.1654  0.3529
 1379SOL    HW115773   3.814   2.135  17.160 -0.8912 -0.6698 -0.4731
 1379SOL    HW215774   3.844   2.279  17.177 -0.2107 -0.0270  0.0948
 1380SOL     OW15775   4.586   3.179  16.483 -0.6578  0.0491  0.7231
 1380SOL    HW115776   4.587   3.113  16.414 -0.7890 -1.0425  1.7801
 1380SOL    HW215777   4.545   3.249  16.432 -2.6900 -0.6110  1.4688
 1381SOL     OW15778   3.571   3.476   7.454 -0.7344  0.3287  0.0386
 1381SOL    HW115779   3.498   3.414   7.455  0.0460 -0.5635  2.4437
 1381SOL    HW215780   3.555   3.536   7.382  1.1410  0.4873 -0.2439
 1382SOL     OW15781   3.199   3.988   9.275  0.0194 -0.6688 -0.6701
 1382SOL    HW115782   3.211   3.894   9.258  1.4409 -0.4076 -1.0807
 1382SOL    HW215783   3.135   3.985   9.347 -0.1820  0.3673 -0.8066
 1383SOL     OW15784   4.139   1.919   3.656  0.2322 -0.0901  0.1111
 1383SOL    HW115785   4.174   2.002   3.689  0.8434 -0.7155  1.0144
 1383SOL    HW215786   4.070   1.947   3.596  0.1625  0.3032  0.3771
 1384SOL     OW15787   1.537   0.832  11.485 -0.1192  0.4677 -0.0359
 1384SOL    HW115788   1.487   0.784  11.419 -2.4937  2.0843  0.5672
 1384SOL    HW215789   1.583   0.763  11.533 -0.8878  1.9699  2.8526
 1385SOL     OW15790   3.724   3.393   4.880  0.3260 -0.2846  0.3203
 1385SOL    HW115791   3.686   3.430   4.960  1.7500  0.4476  0.6600
 1385SOL    HW215792   3.659   3.416   4.814  2.2052  0.0425 -1.3952
 1386SOL     OW15793   3.467   2.055   6.853 -0.3995 -0.0575  0.5191
 1386SOL    HW115794   3.451   2.085   6.764 -0.7163 -1.0706  0.2426
 1386SOL    HW215795   3.377   2.067   6.886 -0.7981  2.0093 -1.3365
 1387SOL     OW15796   4.655   3.842   4.501 -0.5462 -0.0587  0.0609
 1387SOL    HW115797   4.606   3.900   4.443  0.2544  2.5372  1.9674
 1387SOL    HW215798   4.693   3.778   4.441  1.5379  2.6309 -1.4666
 1388SOL     OW15799   0.904   4.118   3.601  0.9877 -0.0016 -0.3918
 1388SOL    HW115800   0.923   4.126   3.695  0.7960  2.7784 -0.5896
 1388SOL    HW215801   0.918   4.024   3.595 -0.2476 -0.3240  1.7918
 1389SOL     OW15802   3.087   1.573   2.375  0.1336 -0.0153 -0.2566
 1389SOL    HW115803   3.089   1.501   2.438  1.0270 -0.2636 -0.5712
 1389SOL    HW215804   3.152   1.635   2.406  1.6868 -1.6369 -0.2419
 1390SOL     OW15805   1.107   2.922   7.948 -0.1384  0.1612  0.1000
 1390SOL    HW115806   1.174   2.964   7.895  0.9276 -0.7567  0.7249
 1390SOL    HW215807   1.070   2.862   7.883 -1.2992  0.1153  0.7936
 1391SOL     OW15808   0.879   2.269   3.706  0.1384  0.2216  0.3513
 1391SOL    HW115809   0.869   2.185   3.750  0.3971  0.2802  0.5216
 1391SOL    HW215810   0.820   2.329   3.752 -1.3141  0.6856 -2.1048
 1392SOL     OW15811   1.444   1.168  11.698 -0.0351  0.0299  0.3150
 1392SOL    HW115812   1.513   1.147  11.760 -0.4286 -4.6315 -0.8318
 1392SOL    HW215813   1.427   1.258  11.728 -0.0059 -0.4029  1.6433
 1393SOL     OW15814   4.724   1.492   2.893  0.1968 -0.2460 -0.6520
 1393SOL    HW115815   0.047   1.516   2.965  0.7325  1.0150 -1.5065
 1393SOL    HW215816   4.693   1.581   2.877  0.6667  0.3053  1.5587
 1394SOL     OW15817   3.718   0.710   9.428 -0.1191 -0.1478  0.3255
 1394SOL    HW115818   3.712   0.648   9.356  1.6308  1.2672 -1.0466
 1394SOL    HW215819   3.808   0.707   9.462 -0.9966  0.0785  2.6252
 1395SOL     OW15820   1.867   4.329  16.505 -0.1628  0.1371 -0.1212
 1395SOL    HW115821   1.830   4.416  16.515  2.7307  1.2234  1.1598
 1395SOL    HW215822   1.902   4.308  16.591 -0.1961 -2.9082 -0.8430
 1396SOL     OW15823   0.947   1.297   7.245  0.6506 -0.2269  0.5927
 1396SOL    HW115824   0.961   1.293   7.340  1.8020 -1.8106  0.3363
 1396SOL    HW215825   0.910   1.212   7.220  2.1932  0.0581 -2.6993
 1397SOL     OW15826   3.340   1.668   9.142  0.3009  0.2484  0.2976
 1397SOL    HW115827   3.335   1.750   9.192 -1.3402  1.2068 -1.4409
 1397SOL    HW215828   3.355   1.699   9.053 -0.7245 -0.1439 -0.0113
 1398SOL     OW15829   1.207   1.432  13.820 -0.1830  0.5395  0.0185
 1398SOL    HW115830   1.171   1.344  13.806  0.4506  0.4057 -0.7891
 1398SOL    HW215831   1.300   1.416  13.833 -0.2462 -0.3336 -0.6048
 1399SOL     OW15832   0.030   3.000   2.535  0.3870 -0.3084  0.4179
 1399SOL    HW115833   0.106   3.034   2.583  0.5362 -1.2532  0.8374
 1399SOL    HW215834   0.055   3.029   2.447  1.9113  1.6656  1.5071
 1400SOL     OW15835   2.103   4.189   3.243  0.1552 -0.0983  0.1595
 1400SOL    HW115836   2.082   4.162   3.333  2.7144  0.7520  1.0266
 1400SOL    HW215837   2.028   4.161   3.190 -0.1751 -0.1473  0.6490
 1401SOL     OW15838   1.880   2.508   3.710 -0.1058 -0.7536 -0.6657
 1401SOL    HW115839   1.839   2.478   3.629 -1.8214 -1.2111  0.3651
 1401SOL    HW215840   1.813   2.496   3.778  0.0089  2.2292 -0.0253
 1402SOL     OW15841   2.222   2.865   8.643  0.4475 -0.0160 -0.0787
 1402SOL    HW115842   2.267   2.781   8.643  0.5462  0.0408 -1.1320
 1402SOL    HW215843   2.132   2.834   8.644  1.3184 -2.6200 -1.7360
 1403SOL     OW15844   3.180   1.512   7.733  0.0365 -0.3371  0.2933
 1403SOL    HW115845   3.239   1.452   7.778  1.1663  1.0735  0.6874
 1403SOL    HW215846   3.095   1.484   7.765 -0.1934 -0.6648 -0.6008
 1404SOL     OW15847   2.636   4.189   3.512  0.5172 -0.1844 -0.3757
 1404SOL    HW115848   2.706   4.251   3.532  0.9358 -0.7729 -0.0021
 1404SOL    HW215849   2.568   4.255   3.495 -0.0789 -1.3517 -2.5266
 1405SOL     OW15850   3.639   4.516  15.241 -0.0911 -0.1832  0.3149
 1405SOL    HW115851   3.560   4.569  15.229  0.0936  0.3246  1.3441
 1405SOL    HW215852   3.647   4.469  15.158 -1.5709  0.3579 -0.1261
 1406SOL     OW15853   2.112   2.982  10.093 -0.3946  0.1546 -0.0659
 1406SOL    HW115854   2.139   3.022  10.010 -0.5019  0.8905  0.2469
 1406SOL    HW215855   2.049   2.915  10.068 -0.8011 -0.9019  3.7683
 1407SOL     OW15856   0.343   3.314   8.260 -0.0458  0.5735 -0.2503
 1407SOL    HW115857   0.376   3.262   8.187 -2.2753  0.5594 -1.2544
 1407SOL    HW215858   0.412   3.283   8.318 -1.0672 -1.1519  0.0462
 1408SOL     OW15859   0.146   1.463   0.451  0.4548  0.1754  0.0678
 1408SOL    HW115860   0.162   1.552   0.483  2.8275 -0.4619  0.6281
 1408SOL    HW215861   0.129   1.418   0.534 -3.3856  0.0445 -0.7777
 1409SOL     OW15862   2.631   1.122  17.654 -0.5415 -0.2097 -0.3816
 1409SOL    HW115863   2.725   1.108  17.663 -0.5621 -0.8589 -1.2233
 1409SOL    HW215864   2.598   1.035  17.631 -1.4300 -0.0297  0.2177
 1410SOL     OW15865   2.899   2.936   9.443  0.1675  0.0980  0.1899
 1410SOL    HW115866   2.881   2.845   9.466  0.0717  0.2151  0.5895
 1410SOL    HW215867   2.811   2.967   9.418 -0.2139 -1.4123 -0.3508
 1411SOL     OW15868   2.379   3.444   3.802  0.2301  0.3815 -0.1208
 1411SOL    HW115869   2.324   3.521   3.788  0.8737  0.7079 -0.8332
 1411SOL    HW215870   2.458   3.474   3.757  0.6914  2.9101  2.3582
 1412SOL     OW15871   2.865   0.715  14.547 -0.3584  0.1421  0.4557
 1412SOL    HW115872   2.790   0.745  14.599 -1.1930 -0.9698 -0.0981
 1412SOL    HW215873   2.931   0.776  14.577 -0.0378 -0.4679  1.0032
 1413SOL     OW15874   0.605   1.961   8.570 -0.3986 -0.1980  0.1006
 1413SOL    HW115875   0.694   1.995   8.568 -1.2722  2.0446 -0.1880
 1413SOL    HW215876   0.546   2.036   8.579 -2.4017 -1.6577 -0.6730
 1414SOL     OW15877   2.659   2.650   0.152  0.4125  0.7359  0.0474
 1414SOL    HW115878   2.572   2.681   0.124  1.5470  1.9218 -2.1299
 1414SOL    HW215879   2.704   2.733   0.168  1.1351 -0.0061  1.9589
 1415SOL     OW15880   2.649   1.895   9.174  0.3673  0.0278  0.2178
 1415SOL    HW115881   2.581   1.828   9.171  1.2442 -0.6783 -3.2328
 1415SOL    HW215882   2.621   1.933   9.258 -0.9039  2.6704 -1.3972
 1416SOL     OW15883   2.054   2.346  17.543  0.0657 -0.0760  0.0227
 1416SOL    HW115884   2.139   2.308  17.566 -0.7255 -0.2462  2.6974
 1416SOL    HW215885   2.000   2.321  17.618 -1.9020 -1.7098 -1.9343
 1417SOL     OW15886   0.051   1.757   0.085  0.2680  0.5404 -0.3732
 1417SOL    HW115887   4.718   1.693   0.064 -1.1539  1.1132  2.4941
 1417SOL    HW215888   0.022   1.832   0.032 -0.6777 -0.2953 -1.0624
 1418SOL     OW15889   3.417   1.880  17.025  0.8388  0.1276 -0.3247
 1418SOL    HW115890   3.474   1.873  16.949 -0.5789  1.8998 -1.5734
 1418SOL    HW215891   3.446   1.966  17.056 -0.2780  0.1445  0.6682
 1419SOL     OW15892   1.463   3.216  16.138  0.5364 -0.5676 -0.2597
 1419SOL    HW115893   1.471   3.247  16.228  1.0006 -0.7332 -0.2480
 1419SOL    HW215894   1.403   3.142  16.148  0.1204 -0.2169 -0.1014
 1420SOL     OW15895   2.823   2.055   4.750  0.5290 -0.0998  0.3534
 1420SOL    HW115896   2.872   2.135   4.768 -0.7096  1.5284 -3.4253
 1420SOL    HW215897   2.775   2.051   4.832  0.1208  0.6629  0.1497
 1421SOL     OW15898   1.286   4.727   5.466  0.0487 -0.3161  0.1762
 1421SOL    HW115899   1.269   4.728   5.560  1.2072  3.7911  0.3273
 1421SOL    HW215900   1.220   0.055   5.439 -0.3021 -0.5845  0.3944
 1422SOL     OW15901   4.072   3.135   1.732 -0.0865  0.0090  0.2627
 1422SOL    HW115902   4.159   3.166   1.710 -0.4721 -1.0358 -2.7077
 1422SOL    HW215903   4.095   3.045   1.755  0.4826  0.0155 -0.3062
 1423SOL     OW15904   2.826   4.698   7.363  0.2070  0.4343 -0.4446
 1423SOL    HW115905   2.750   4.648   7.395 -0.9088  0.7890 -2.5057
 1423SOL    HW215906   2.867   4.629   7.311  0.9668 -1.2885  2.4472
 1424SOL     OW15907   2.718   0.663   0.841 -0.3010 -0.3644 -0.5846
 1424SOL    HW115908   2.653   0.611   0.888 -0.7258 -1.1164 -2.0031
 1424SOL    HW215909   2.775   0.601   0.796  1.7948  0.1257  1.3485
 1425SOL     OW15910   3.459   1.101   1.593 -0.4011 -0.1318  0.3314
 1425SOL    HW115911   3.389   1.128   1.652 -1.8176 -2.3821 -0.3140
 1425SOL    HW215912   3.440   1.007   1.584 -1.4454  0.2240 -1.0102
 1426SOL     OW15913   0.597   2.679  12.113  0.2878  0.1393  0.8044
 1426SOL    HW115914   0.686   2.653  12.135  0.3198  0.3419  0.9148
 1426SOL    HW215915   0.549   2.597  12.101 -1.0426  0.9830  0.3652
 1427SOL     OW15916   4.725   1.790   6.564 -0.0014 -0.5002 -0.6342
 1427SOL    HW115917   0.001   1.696   6.581 -0.1975 -0.5130 -0.5793
 1427SOL    HW215918   4.639   1.797   6.606  0.1498 -0.1029 -0.3952
 1428SOL     OW15919   1.910   3.839   1.069 -0.7080  0.4600  0.8052
 1428SOL    HW115920   1.849   3.800   1.007 -0.5737  1.2164  0.1887
 1428SOL    HW215921   1.907   3.782   1.146 -1.5728  0.4473  0.7584
 1429SOL     OW15922   1.601   0.972  17.369  0.0190 -0.1699 -0.5407
 1429SOL    HW115923   1.586   0.877  17.377 -1.4347  0.3113  2.3754
 1429SOL    HW215924   1.545   0.977  17.292 -0.6162 -0.7043 -0.1173
 1430SOL     OW15925   3.709   3.430   5.782 -0.0938 -0.3565  0.4116
 1430SOL    HW115926   3.672   3.342   5.774 -2.2042  0.3962  1.6971
 1430SOL    HW215927   3.649   3.495   5.746 -1.6987 -2.5605 -0.8842
 1431SOL     OW15928   2.579   2.373   8.200  0.1254  0.0004  0.2725
 1431SOL    HW115929   2.586   2.305   8.133  0.8883  2.0481 -1.7439
 1431SOL    HW215930   2.620   2.331   8.275  0.6857  0.4760  0.2323
 1432SOL     OW15931   0.832   1.892  12.541 -0.0947  0.5272 -0.4499
 1432SOL    HW115932   0.810   1.845  12.460  0.8730 -1.7846  0.6360
 1432SOL    HW215933   0.925   1.909  12.530 -0.2434  2.2611  0.9408
 1433SOL     OW15934   1.914   4.607   1.224 -0.0758 -0.6673  0.2914
 1433SOL    HW115935   1.870   4.528   1.257  0.3384 -1.8610 -2.0070
 1433SOL    HW215936   1.883   4.606   1.134 -1.0907  0.6289  0.6173
 1434SOL     OW15937   3.292   1.732   1.501 -0.2566  0.6784  0.0203
 1434SOL    HW115938   3.350   1.764   1.570  0.5091 -1.6269  0.4398
 1434SOL    HW215939   3.239   1.671   1.553 -0.9198  0.9498 -0.3349
 1435SOL     OW15940   1.627   3.610  13.105 -0.1136 -0.1013 -0.2409
 1435SOL    HW115941   1.619   3.695  13.062  0.0054  0.2053  0.3363
 1435SOL    HW215942   1.537   3.579  13.104 -0.0191 -0.3009 -1.7023
 1436SOL     OW15943   1.190   2.058  16.917  0.6201  0.2121  0.3841
 1436SOL    HW115944   1.227   2.081  17.002  3.4419 -1.3694 -0.4399
 1436SOL    HW215945   1.127   2.130  16.908  0.6331  0.0252 -1.2345
 1437SOL     OW15946   0.822   4.623   0.371 -0.5732  0.5364 -0.5820
 1437SOL    HW115947   0.788   4.642   0.284  0.9203 -0.4230 -1.3699
 1437SOL    HW215948   0.779   4.539   0.384  2.1657 -0.9334 -0.8968
 1438SOL     OW15949   4.430   4.380   8.707 -0.2589 -0.2667 -0.0849
 1438SOL    HW115950   4.418   4.309   8.644  1.2703 -1.3063  0.7978
 1438SOL    HW215951   4.425   4.343   8.795 -0.9818  0.1027  0.0279
 1439SOL     OW15952   4.415   4.059   9.566 -0.0401  0.2165  0.1229
 1439SOL    HW115953   4.434   4.018   9.482  1.4399  1.9418 -0.3688
 1439SOL    HW215954   4.323   4.082   9.556  0.5159  1.9476 -0.9703
 1440SOL     OW15955   2.473   4.493   5.812 -0.4897  0.4027  0.4057
 1440SOL    HW115956   2.383   4.472   5.836 -0.4095 -0.3541  0.0339
 1440SOL    HW215957   2.502   4.560   5.875 -0.0789 -0.0321  0.6759
 1441SOL     OW15958   1.081   2.954  10.444 -0.0494  0.6834 -0.1186
 1441SOL    HW115959   1.041   2.881  10.396 -0.3541  0.1141  0.9991
 1441SOL    HW215960   1.052   3.030  10.394  0.6531  1.4973  0.7190
 1442SOL     OW15961   3.955   4.533  17.637 -0.2798  0.0964 -0.2272
 1442SOL    HW115962   3.909   4.519  17.554  1.1132 -0.3260 -0.9304
 1442SOL    HW215963   4.036   4.572  17.605 -0.0875 -0.9622 -1.0426
 1443SOL     OW15964   4.526   0.560  16.418 -0.2843 -0.2312  0.6622
 1443SOL    HW115965   4.536   0.520  16.332 -0.0954  0.4296  0.3715
 1443SOL    HW215966   4.565   0.647  16.406  0.9745 -0.8360  0.4561
 1444SOL     OW15967   4.095   3.183  14.743 -0.2639  0.2517  0.7377
 1444SOL    HW115968   4.181   3.161  14.707 -1.3978 -2.6033 -0.1754
 1444SOL    HW215969   4.061   3.101  14.778 -2.3364 -0.2753 -2.5170
 1445SOL     OW15970   2.129   0.796  15.970  0.1917 -0.5657  0.1430
 1445SOL    HW115971   2.049   0.809  16.021  0.6841 -0.9055  1.0066
 1445SOL    HW215972   2.186   0.857  16.017 -0.8847  2.1581 -2.0682
 1446SOL     OW15973   2.906   3.087   1.147 -0.0533  0.2771 -0.2543
 1446SOL    HW115974   2.873   3.168   1.108  0.8430  0.3084 -0.9553
 1446SOL    HW215975   2.850   3.023   1.102 -0.2604  0.3066 -0.0422
 1447SOL     OW15976   1.796   3.634  12.036 -0.2344  0.4060  0.1629
 1447SOL    HW115977   1.882   3.591  12.029 -1.3716 -1.9799  0.8390
 1447SOL    HW215978   1.746   3.571  11.984 -0.3470 -0.0202  0.7895
 1448SOL     OW15979   1.709   0.867  10.183  0.3863  0.2082 -0.5531
 1448SOL    HW115980   1.769   0.805  10.225 -0.5394  0.4828  1.1702
 1448SOL    HW215981   1.770   0.941  10.184  0.1441  0.3353  2.3298
 1449SOL     OW15982   2.014   3.167   9.477 -0.4089  0.1817 -0.4638
 1449SOL    HW115983   1.925   3.134   9.461 -0.0478 -1.0137 -0.0022
 1449SOL    HW215984   2.045   3.142   9.565 -1.4029  1.4829  0.2590
 1450SOL     OW15985   0.320   0.617  16.763 -0.0787 -0.2564  0.0346
 1450SOL    HW115986   0.269   0.603  16.843  0.7233 -0.4699  0.5193
 1450SOL    HW215987   0.397   0.662  16.801 -1.9950  3.1316 -0.1002
 1451SOL     OW15988   2.649   2.715   1.820  0.1122 -0.8213 -0.2137
 1451SOL    HW115989   2.675   2.646   1.881  1.9399 -0.2054 -0.2978
 1451SOL    HW215990   2.565   2.672   1.803 -0.3371 -0.2387  0.4951
 1452SOL     OW15991   2.789   1.057   8.320 -0.2791 -0.1284  0.5109
 1452SOL    HW115992   2.818   1.051   8.229  0.9330 -1.4308  0.9873
 1452SOL    HW215993   2.840   1.131   8.350  0.0272  0.4762 -1.4924
 1453SOL     OW15994   3.937   1.939  17.409  0.0915 -0.1264 -0.5113
 1453SOL    HW115995   3.900   1.875  17.470 -0.9576  1.7093  0.7688
 1453SOL    HW215996   4.025   1.957  17.442  0.6080 -0.7296 -1.5479
 1454SOL     OW15997   4.289   2.507  14.853 -0.6606  0.4102  0.7668
 1454SOL    HW115998   4.330   2.435  14.902 -0.7404 -0.1941 -0.0546
 1454SOL    HW215999   4.286   2.459  14.770  1.6036  2.5663 -0.5429
 1455SOL     OW16000   3.246   0.026  11.390  0.2272  0.5709 -0.1069
 1455SOL    HW116001   3.216   0.115  11.410  4.8650  2.3539 -1.0934
 1455SOL    HW216002   3.331   0.019  11.432 -0.4730  0.0805  1.2001
 1456SOL     OW16003   3.319   3.237   1.398 -0.6008 -0.1914  0.0726
 1456SOL    HW116004   3.361   3.164   1.352  3.5000  2.7043 -0.8028
 1456SOL    HW216005   3.302   3.290   1.321  0.5310 -1.7599 -1.2608
 1457SOL     OW16006   2.720   3.972   1.884  0.3285  0.5054 -0.0038
 1457SOL    HW116007   2.681   3.998   1.800  2.3217  1.5162 -0.6365
 1457SOL    HW216008   2.712   3.877   1.877  0.5618  0.4474  0.5465
 1458SOL     OW16009   4.712   1.129   2.064  0.0314  0.1151 -0.7838
 1458SOL    HW116010   0.066   1.128   2.030  0.7316  0.3022  1.1007
 1458SOL    HW216011   4.718   1.116   2.158 -0.0833 -2.3033 -1.0944
 1459SOL     OW16012   0.424   1.546  10.864 -0.0294 -0.3167  0.4738
 1459SOL    HW116013   0.475   1.490  10.805  0.2364  0.3744  0.0583
 1459SOL    HW216014   0.475   1.532  10.944  0.8922  0.9712  0.1027
 1460SOL     OW16015   3.220   1.194   1.714 -0.5269  0.1054 -0.2059
 1460SOL    HW116016   3.180   1.165   1.796 -1.3915  0.5093 -0.4875
 1460SOL    HW216017   3.158   1.159   1.649 -1.7091 -0.0319  0.9796
 1461SOL     OW16018   4.026   0.599   8.604  0.4110 -0.2778  0.4004
 1461SOL    HW116019   3.971   0.521   8.599 -1.4882  1.0489  0.2273
 1461SOL    HW216020   4.099   0.558   8.649  1.3606  1.6590  0.6071
 1462SOL     OW16021   0.138   1.409   2.300 -0.4568 -0.3596 -0.8591
 1462SOL    HW116022   0.115   1.385   2.390 -1.5636 -1.4352 -1.4411
 1462SOL    HW216023   0.119   1.328   2.253 -0.5333 -0.6144 -0.3887
 1463SOL     OW16024   2.348   1.637   6.964  0.1576  0.0494 -0.4452
 1463SOL    HW116025   2.363   1.696   7.038 -0.3864  1.6998 -1.6470
 1463SOL    HW216026   2.378   1.556   7.005  0.2744 -0.8304 -2.2419
 1464SOL     OW16027   2.313   3.940   1.793  0.0732  0.0312 -0.3288
 1464SOL    HW116028   2.318   3.915   1.701  1.2152  0.0966 -0.2836
 1464SOL    HW216029   2.376   4.012   1.790  0.7662 -0.7009 -3.2919
 1465SOL     OW16030   3.008   4.190   3.591  0.5394  0.0876 -0.0625
 1465SOL    HW116031   2.955   4.125   3.546 -1.4449  1.0473  0.9258
 1465SOL    HW216032   3.094   4.146   3.591  0.5592  0.1054 -2.1448
 1466SOL     OW16033   2.605   3.599  10.055  0.3085 -0.0330 -0.1367
 1466SOL    HW116034   2.615   3.612  10.149  2.0106  1.4996 -0.5277
 1466SOL    HW216035   2.696   3.572  10.041  0.7766  3.3841 -3.7759
 1467SOL     OW16036   4.087   4.096   6.412  0.5154 -0.3849 -0.3933
 1467SOL    HW116037   4.140   4.168   6.446  0.3350  0.2288 -1.4017
 1467SOL    HW216038   4.006   4.127   6.453 -1.3043 -1.7461 -3.0054
 1468SOL     OW16039   3.172   1.599   4.042  0.2952 -0.2345 -0.1122
 1468SOL    HW116040   3.224   1.671   4.006 -0.0495  0.4632  0.7937
 1468SOL    HW216041   3.102   1.657   4.072  1.3860  1.1273 -0.1988
 1469SOL     OW16042   1.382   4.707  12.283  0.4461  0.0992 -0.1470
 1469SOL    HW116043   1.471   4.677  12.265 -0.2610 -1.8433 -0.3317
 1469SOL    HW216044   1.392   0.065  12.303  0.9801 -0.2550  1.1972
 1470SOL     OW16045   2.745   1.681   5.425 -0.6072  0.4368  0.1024
 1470SOL    HW116046   2.731   1.736   5.349  1.7175  2.1895  0.9624
 1470SOL    HW216047   2.670   1.688   5.485 -1.8183  0.7834 -1.4715
 1471SOL     OW16048   3.450   4.046   3.966 -0.3366  0.9707 -0.0534
 1471SOL    HW116049   3.523   4.041   3.904  0.3807 -0.7021  0.9209
 1471SOL    HW216050   3.495   4.072   4.046  0.5493 -0.9669  0.0798
 1472SOL     OW16051   4.236   0.821   3.876  0.0989  0.2528  0.1997
 1472SOL    HW116052   4.165   0.856   3.823 -1.1726 -2.8539 -0.1529
 1472SOL    HW216053   4.211   0.867   3.956  1.2622  2.3345 -0.6580
 1473SOL     OW16054   4.186   0.726   6.891 -0.4318 -0.1106  0.5233
 1473SOL    HW116055   4.278   0.736   6.913 -0.3519 -0.9492  0.5659
 1473SOL    HW216056   4.164   0.639   6.924  0.3561 -1.4941 -2.6379
 1474SOL     OW16057   0.649   0.922   8.359 -0.2446  0.0601 -0.0105
 1474SOL    HW116058   0.571   0.928   8.303 -1.2740 -1.5341  1.2698
 1474SOL    HW216059   0.666   1.016   8.364 -2.3910  0.4178  0.6012
 1475SOL     OW16060   3.113   2.449   4.281  0.3196  0.7756 -0.2604
 1475SOL    HW116061   3.156   2.396   4.348 -0.4337  0.8178  0.2613
 1475SOL    HW216062   3.152   2.418   4.200  0.1465 -0.2834  0.0570
 1476SOL     OW16063   0.816   2.432   5.111 -0.5673  0.0594 -0.6276
 1476SOL    HW116064   0.742   2.378   5.140 -0.3535  0.7438  1.1750
 1476SOL    HW216065   0.863   2.456   5.191  0.0066  0.0146 -0.9486
 1477SOL     OW16066   2.972   2.844   3.265 -0.1035  0.2723 -0.1887
 1477SOL    HW116067   3.038   2.774   3.267 -0.5844 -0.2282 -1.4566
 1477SOL    HW216068   2.891   2.794   3.270  0.7843 -0.9634  2.0491
 1478SOL     OW16069   1.323   3.882   3.688 -0.0112 -0.1824 -0.3518
 1478SOL    HW116070   1.324   3.930   3.605  0.2525  0.6418  0.1326
 1478SOL    HW216071   1.325   3.792   3.654 -0.0276  0.3519 -1.7689
 1479SOL     OW16072   4.422   1.919  10.231  0.2677  0.0984 -0.1573
 1479SOL    HW116073   4.447   1.896  10.142 -3.5922 -0.0866 -1.1598
 1479SOL    HW216074   4.471   1.851  10.278  0.5196  0.2411 -0.2102
 1480SOL     OW16075   1.384   0.160   1.167  0.0101  0.5263  0.6921
 1480SOL    HW116076   1.299   0.118   1.178  0.5621 -1.0530 -0.9795
 1480SOL    HW216077   1.427   0.081   1.134 -3.5625 -1.1667  0.0277
 1481SOL     OW16078   4.192   4.717   1.731  0.0374  0.3494 -0.0020
 1481SOL    HW116079   4.252   4.682   1.665 -1.8271 -2.2689 -0.2760
 1481SOL    HW216080   4.248   0.033   1.790 -0.9376  1.4150  0.0074
 1482SOL     OW16081   0.165   3.497   8.411  0.2065 -0.0596 -0.3409
 1482SOL    HW116082   0.232   3.478   8.477 -0.5220  1.9731  0.9913
 1482SOL    HW216083   0.213   3.470   8.333  0.3302  1.6033 -0.8383
 1483SOL     OW16084   1.755   1.549  11.020  0.0117  0.2579 -0.2634
 1483SOL    HW116085   1.706   1.495  10.958 -3.6842  1.9367  1.1363
 1483SOL    HW216086   1.773   1.630  10.972 -2.0471 -0.4325 -2.1923
 1484SOL     OW16087   1.121   1.900  15.869 -0.0931  0.6206  0.6696
 1484SOL    HW116088   1.185   1.960  15.906  0.0448  1.4058 -0.8646
 1484SOL    HW216089   1.065   1.957  15.817 -0.1248 -2.0379 -2.1855
 1485SOL     OW16090   0.680   2.763   3.867 -0.2038  0.5070  0.1921
 1485SOL    HW116091   0.670   2.804   3.953  1.2162 -0.1337  0.6685
 1485SOL    HW216092   0.647   2.836   3.815  3.3567  1.1906 -1.1372
 1486SOL     OW16093   4.466   2.571   9.166  0.8792 -0.2254 -0.1603
 1486SOL    HW116094   4.412   2.496   9.144  0.6490 -0.2022  0.3290
 1486SOL    HW216095   4.546   2.527   9.194  1.1445 -0.8994 -1.9195
 1487SOL     OW16096   1.215   0.624   3.705 -0.0579  0.4049  0.1450
 1487SOL    HW116097   1.244   0.590   3.790 -1.8225 -0.8524  0.2335
 1487SOL    HW216098   1.202   0.717   3.726 -2.2818 -0.2676  1.8038
 1488SOL     OW16099   2.457   2.557   2.147 -0.0685 -0.0178 -0.4602
 1488SOL    HW116100   2.531   2.601   2.189  0.2604  0.2454 -1.3121
 1488SOL    HW216101   2.497   2.471   2.140  0.8458  0.5415 -2.1559
 1489SOL     OW16102   1.978   4.245   1.705 -0.9609 -0.3635  0.2672
 1489SOL    HW116103   1.996   4.155   1.731 -1.8228 -0.7666 -0.5300
 1489SOL    HW216104   1.883   4.244   1.695 -1.0910  1.6165  1.3422
 1490SOL     OW16105   1.277   0.669   3.039  0.3178  0.7213 -0.0140
 1490SOL    HW116106   1.223   0.629   3.106  0.3996  1.0070  0.2238
 1490SOL    HW216107   1.221   0.660   2.962 -1.5331  2.9669  1.0638
 1491SOL     OW16108   0.074   3.694   6.113  0.0133  0.6615  0.4897
 1491SOL    HW116109   0.017   3.770   6.112  0.5976  1.0636 -1.0160
 1491SOL    HW216110   0.136   3.720   6.045 -1.0748  4.1082  0.8533
 1492SOL     OW16111   2.876   1.020   2.703  0.3049 -0.0167 -0.2012
 1492SOL    HW116112   2.814   1.056   2.766 -0.0511 -0.1428 -0.4767
 1492SOL    HW216113   2.849   1.061   2.621  0.2633  0.4084  0.0259
 1493SOL     OW16114   3.184   0.407   1.612 -0.1199  0.4511  0.0216
 1493SOL    HW116115   3.130   0.344   1.565  0.8707 -0.5716  0.2450
 1493SOL    HW216116   3.250   0.351   1.654  0.3785 -0.2501 -1.7082
 1494SOL     OW16117   0.213   1.005   8.022 -0.3235  0.4190 -0.1061
 1494SOL    HW116118   0.129   0.964   8.043 -0.4679 -0.0198 -1.5413
 1494SOL    HW216119   0.188   1.095   8.000 -0.0275  0.4592 -0.2740
 1495SOL     OW16120   2.820   0.397   2.255  0.1579  0.0768 -0.2069
 1495SOL    HW116121   2.874   0.342   2.311 -0.9307 -0.7679  0.0285
 1495SOL    HW216122   2.867   0.480   2.263  0.3088 -0.2292  2.0689
 1496SOL     OW16123   2.580   0.799   6.333 -0.0811 -0.1050 -0.4061
 1496SOL    HW116124   2.623   0.849   6.402 -1.7256 -1.5842  1.6762
 1496SOL    HW216125   2.572   0.875   6.275 -2.3816  0.4273  0.6359
 1497SOL     OW16126   2.979   0.792  17.041  0.4419  0.7785  0.3055
 1497SOL    HW116127   3.026   0.867  17.003 -1.1892  0.9632 -1.3359
 1497SOL    HW216128   3.050   0.730  17.024 -0.4926 -0.2196  0.1506
 1498SOL     OW16129   1.294   2.199  13.061 -0.3972  0.1215 -0.0098
 1498SOL    HW116130   1.201   2.215  13.073 -0.1666  0.7437  0.9655
 1498SOL    HW216131   1.314   2.128  13.122  1.4828 -0.3057 -1.1229
 1499SOL     OW16132   2.144   4.075   1.996  0.6766  0.5370  0.1456
 1499SOL    HW116133   2.203   4.024   1.941  0.7340  1.2839 -0.4740
 1499SOL    HW216134   2.108   4.003   2.049  1.2592  1.5025  1.8526
 1500SOL     OW16135   4.075   3.387   5.081 -0.0707 -0.1815  0.7244
 1500SOL    HW116136   4.045   3.381   4.990 -0.8388  2.1164  0.8243
 1500SOL    HW216137   4.002   3.355   5.134 -0.2140  1.3071  1.4253
 1501SOL     OW16138   4.632   1.565  14.188 -0.1302  0.1366 -1.1084
 1501SOL    HW116139   4.562   1.508  14.155 -1.1845  0.9581 -0.3080
 1501SOL    HW216140   4.711   1.518  14.164  0.9256 -0.0309  2.7428
 1502SOL     OW16141   3.649   3.152   5.853 -0.3152 -0.3959  0.6530
 1502SOL    HW116142   3.677   3.133   5.943 -1.3899 -0.3857  0.9992
 1502SOL    HW216143   3.569   3.103   5.834 -0.4432  0.1374 -0.1573
 1503SOL     OW16144   0.470   3.900   8.883 -0.0211  0.9190  0.2113
 1503SOL    HW116145   0.540   3.960   8.909 -1.1715  1.5086  2.0524
 1503SOL    HW216146   0.519   3.822   8.859  1.3022  1.9366 -0.3590
 1504SOL     OW16147   0.252   0.765  11.632  0.2765  0.5041 -0.0892
 1504SOL    HW116148   0.307   0.689  11.652  0.1971  0.6555  0.6757
 1504SOL    HW216149   0.168   0.741  11.671  0.7857 -1.0864 -0.0027
 1505SOL     OW16150   3.409   2.550   8.361  0.4637 -0.4474  0.9584
 1505SOL    HW116151   3.492   2.595   8.381  0.3547 -1.2405  3.2162
 1505SOL    HW216152   3.358   2.619   8.319  0.4689 -0.5732  0.7451
 1506SOL     OW16153   2.311   3.509  12.397  0.2786 -0.4144  0.2095
 1506SOL    HW116154   2.346   3.465  12.475 -0.8129  0.2982  1.1063
 1506SOL    HW216155   2.281   3.596  12.424  0.0491  0.2216 -2.1354
 1507SOL     OW16156   4.692   0.601   2.930  0.4172  0.1822 -0.1183
 1507SOL    HW116157   4.718   0.682   2.973 -0.1657 -1.5639  3.5164
 1507SOL    HW216158   0.006   0.595   2.848 -1.3280  0.4105 -1.1736
 1508SOL     OW16159   0.178   4.259  15.167 -0.0740 -0.5149 -0.0603
 1508SOL    HW116160   0.103   4.255  15.108 -1.0035 -0.5698  1.1265
 1508SOL    HW216161   0.221   4.339  15.137  0.0368 -1.3735 -2.1939
 1509SOL     OW16162   3.041   3.570  12.584 -0.0884  0.0780 -0.0792
 1509SOL    HW116163   2.984   3.646  12.591 -0.2170 -0.3398  3.3870
 1509SOL    HW216164   3.016   3.527  12.666  2.6824  1.7507  1.6269
 1510SOL     OW16165   3.920   4.407   2.173 -0.1301  0.7850  0.1252
 1510SOL    HW116166   3.914   4.357   2.092 -2.2085 -1.1535  1.4940
 1510SOL    HW216167   3.831   4.443   2.173  0.3942  2.0669  1.0577
 1511SOL     OW16168   0.115   4.256   3.426  0.4825  0.3577 -0.1399
 1511SOL    HW116169   0.208   4.239   3.440  0.3032 -0.0067  0.6261
 1511SOL    HW216170   0.117   4.347   3.397 -1.1477  0.2742 -0.5427
 1512SOL     OW16171   3.145   1.031   6.704 -0.3239  0.3799 -0.1406
 1512SOL    HW116172   3.185   1.117   6.715  0.5957 -0.1886  0.8701
 1512SOL    HW216173   3.214   0.968   6.724 -1.7657 -0.7786  1.1964
 1513SOL     OW16174   1.414   0.712   8.224 -0.0473  0.1373  0.2183
 1513SOL    HW116175   1.475   0.656   8.177 -0.8287 -1.3291  0.9309
 1513SOL    HW216176   1.473   0.775   8.266 -0.7602  0.1179  1.2501
 1514SOL     OW16177   3.347   2.411   9.061 -0.1965  0.0003 -0.3881
 1514SOL    HW116178   3.279   2.413   8.993  0.2614  1.6162 -0.7994
 1514SOL    HW216179   3.341   2.496   9.104 -0.3845 -1.2698  2.0605
 1515SOL     OW16180   3.267   3.226  16.295 -0.9012 -0.3200  0.0913
 1515SOL    HW116181   3.323   3.293  16.335  1.6464 -1.5666 -1.3073
 1515SOL    HW216182   3.313   3.150  16.330 -1.1191 -0.4386  0.1165
 1516SOL     OW16183   1.642   1.162   1.592  0.2298 -0.0833 -0.6321
 1516SOL    HW116184   1.630   1.087   1.533  1.0594 -1.2698  0.7008
 1516SOL    HW216185   1.737   1.148   1.595  0.6314  3.1076  1.5200
 1517SOL     OW16186   4.583   3.979  11.934  0.0602  0.2762  0.5083
 1517SOL    HW116187   4.508   3.924  11.958  0.7276 -0.8679 -0.0078
 1517SOL    HW216188   4.653   3.920  11.962  1.0184  1.3525  0.3400
 1518SOL     OW16189   3.455   0.377   4.123 -0.1328 -0.3428  0.2473
 1518SOL    HW116190   3.535   0.394   4.173  0.3368  0.2639 -0.7277
 1518SOL    HW216191   3.444   0.291   4.164  1.0696 -1.0994 -1.0327
 1519SOL     OW16192   0.878   2.876  10.691  0.1604 -0.1047  0.0877
 1519SOL    HW116193   0.895   2.790  10.730 -0.1809 -1.9394 -3.7571
 1519SOL    HW216194   0.967   2.901  10.665 -0.2039 -1.4344 -2.4514
 1520SOL     OW16195   0.608   3.787  16.492 -0.4084  1.0330 -0.0637
 1520SOL    HW116196   0.603   3.777  16.587 -2.6188  1.6704 -0.1089
 1520SOL    HW216197   0.649   3.874  16.492  1.5414  0.1285  1.2633
 1521SOL     OW16198   2.192   4.203   6.660  0.2970  0.3377  0.0423
 1521SOL    HW116199   2.195   4.267   6.732 -2.6736 -1.5549  1.8486
 1521SOL    HW216200   2.280   4.164   6.658 -0.7603 -2.0359  0.0826
 1522SOL     OW16201   3.866   0.263   7.322 -0.1365  0.1980 -0.1655
 1522SOL    HW116202   3.871   0.351   7.284  0.0936  0.2902  0.0798
 1522SOL    HW216203   3.943   0.260   7.379 -0.7657 -0.2860  0.6406
 1523SOL     OW16204   1.314   0.503   9.646 -0.4269  0.4738  0.1876
 1523SOL    HW116205   1.370   0.449   9.591 -1.2382  0.4300 -0.5925
 1523SOL    HW216206   1.265   0.444   9.703 -2.6259 -0.7671 -2.9985
 1524SOL     OW16207   4.414   0.343   8.167 -0.4640  0.2904 -0.1736
 1524SOL    HW116208   4.324   0.311   8.161 -0.8715  1.4823 -0.5733
 1524SOL    HW216209   4.434   0.365   8.076  0.7972  0.2193  0.0960
 1525SOL     OW16210   3.931   4.607   5.175 -0.1292 -0.3625 -0.5523
 1525SOL    HW116211   3.886   4.565   5.248 -0.7415 -0.6525 -1.0934
 1525SOL    HW216212   3.945   4.695   5.209 -0.0997 -0.8344  0.6537
 1526SOL     OW16213   3.607   1.473  12.701 -0.2523  0.4757  0.3479
 1526SOL    HW116214   3.681   1.510  12.749 -0.4238  1.6286 -0.2945
 1526SOL    HW216215   3.644   1.468  12.613 -1.4688  2.5017 -0.2646
 1527SOL     OW16216   0.171   1.963   6.628 -0.3631  0.1870  0.4752
 1527SOL    HW116217   0.207   1.920   6.706 -2.0495 -1.0828  0.5429
 1527SOL    HW216218   0.102   1.900   6.612  1.7245 -2.0248  0.2244
 1528SOL     OW16219   2.889   1.065   4.176  0.3886  0.2652 -0.3400
 1528SOL    HW116220   2.802   1.034   4.149 -0.5474  1.0161  1.7623
 1528SOL    HW216221   2.933   1.000   4.121  1.3228  1.4119 -0.9195
 1529SOL     OW16222   2.140   3.005   4.626 -0.8154  0.4326 -0.5261
 1529SOL    HW116223   2.193   3.025   4.549 -0.1492  2.0261  0.3464
 1529SOL    HW216224   2.053   2.985   4.592 -0.9828 -0.8265  0.6235
 1530SOL     OW16225   3.530   4.305   3.786  0.5257 -0.0170  0.8174
 1530SOL    HW116226   3.435   4.302   3.798  0.7404 -2.1057  1.9783
 1530SOL    HW216227   3.546   4.236   3.722  2.0875  1.9648 -0.9142
 1531SOL     OW16228   3.990   4.324   3.087  0.0576  0.0737 -0.0546
 1531SOL    HW116229   4.060   4.261   3.107  1.6061  1.0988 -2.2062
 1531SOL    HW216230   3.915   4.266   3.071 -0.8933  0.8063  1.7338
 1532SOL     OW16231   1.208   3.370   6.633 -0.4330  0.1925  0.2135
 1532SOL    HW116232   1.174   3.295   6.682  0.1189  0.3484  0.8258
 1532SOL    HW216233   1.269   3.406   6.698 -0.1487  1.0366 -0.5286
 1533SOL     OW16234   1.040   3.353   2.433  0.0538 -0.3353 -0.3777
 1533SOL    HW116235   0.999   3.285   2.486  1.4699 -2.3756 -1.8984
 1533SOL    HW216236   1.085   3.307   2.362  0.3882 -0.5802  0.0000
 1534SOL     OW16237   2.730   2.222   7.252  0.2277  0.0709 -0.2150
 1534SOL    HW116238   2.682   2.272   7.185 -0.9956 -0.8906 -0.0477
 1534SOL    HW216239   2.662   2.203   7.316  1.3738 -0.3647  0.8702
 1535SOL     OW16240   2.953   2.373  12.336 -0.3500  0.0434 -0.1700
 1535SOL    HW116241   2.887   2.346  12.400  1.3695  0.1071  1.6169
 1535SOL    HW216242   3.036   2.386  12.380  1.3711 -1.2688 -2.9988
 1536SOL     OW16243   4.305   0.930   3.560 -0.1518  0.3819  0.8009
 1536SOL    HW116244   4.399   0.947   3.567  0.0919 -0.9443  0.7082
 1536SOL    HW216245   4.279   0.961   3.474  0.1737 -1.7726 -0.0801
 1537SOL     OW16246   1.843   0.587   6.945 -0.0022  0.1422  0.3703
 1537SOL    HW116247   1.842   0.492   6.935 -2.6518  0.5127 -3.0586
 1537SOL    HW216248   1.871   0.608   6.856 -0.6935 -1.3430 -0.1893
 1538SOL     OW16249   4.432   4.096  15.466 -0.3718  0.3227  0.7759
 1538SOL    HW116250   4.462   4.005  15.464 -0.3121  0.3567  0.0322
 1538SOL    HW216251   4.430   4.110  15.560 -0.7429 -0.0590  0.8263
 1539SOL     OW16252   0.817   4.336   8.009 -0.2228  0.0272 -0.5956
 1539SOL    HW116253   0.848   4.335   8.100  0.6425  0.6467 -0.8827
 1539SOL    HW216254   0.751   4.267   8.013 -0.0687 -0.0655  0.4796
 1540SOL     OW16255   2.105   3.041   4.913 -0.2992  0.2016  0.3548
 1540SOL    HW116256   2.103   3.007   4.824 -1.9062 -1.1138  0.8952
 1540SOL    HW216257   2.189   3.086   4.918  1.0450 -2.0094 -2.2017
 1541SOL     OW16258   3.983   3.247   8.706 -0.0018  0.9136 -0.2797
 1541SOL    HW116259   3.922   3.255   8.633 -1.6767  1.5563  1.2037
 1541SOL    HW216260   4.041   3.321   8.685  0.3507  0.5872 -0.4621
 1542SOL     OW16261   3.781   0.335   7.899 -0.1521  0.1849 -0.0211
 1542SOL    HW116262   3.716   0.363   7.835  2.0688  0.8174 -2.0064
 1542SOL    HW216263   3.728   0.321   7.977  0.8150  0.4542  0.6798
 1543SOL     OW16264   4.258   4.026   4.463  0.1004  0.0629 -0.2770
 1543SOL    HW116265   4.340   3.979   4.446  0.6350  1.1653 -0.7656
 1543SOL    HW216266   4.222   3.965   4.526  1.2153 -2.6286 -2.2273
 1544SOL     OW16267   4.553   1.514  15.557  0.0445 -0.8252  0.3239
 1544SOL    HW116268   4.529   1.515  15.465  0.9064 -3.8971  0.0449
 1544SOL    HW216269   4.628   1.456  15.548  2.3959  2.3513 -0.4918
 1545SOL     OW16270   0.134   4.245   6.048 -0.0896  0.4912 -0.1532
 1545SOL    HW116271   0.198   4.238   6.120 -1.4139  1.1682  1.0796
 1545SOL    HW216272   0.100   4.334   6.056 -0.7054 -0.0022  2.9286
 1546SOL     OW16273   3.837   0.805   1.467  0.0447 -0.1281  0.8905
 1546SOL    HW116274   3.760   0.754   1.488 -0.0643  0.0123  0.8342
 1546SOL    HW216275   3.900   0.778   1.534 -0.7216 -1.6877  0.9759
 1547SOL     OW16276   1.257   2.283   6.944 -0.6598  0.0672  0.5720
 1547SOL    HW116277   1.281   2.191   6.933  1.8621  1.1338 -2.5883
 1547SOL    HW216278   1.196   2.272   7.017 -0.7682  0.1558  0.4954
 1548SOL     OW16279   3.722   0.638   2.660 -0.2207  0.0684 -0.4532
 1548SOL    HW116280   3.779   0.686   2.600 -2.1888 -0.7320 -2.9798
 1548SOL    HW216281   3.743   0.548   2.638  1.9337  0.3040  0.6439
 1549SOL     OW16282   4.191   3.104   7.657 -0.2037 -0.3478  0.5951
 1549SOL    HW116283   4.281   3.108   7.690  0.4873 -0.0592 -1.3340
 1549SOL    HW216284   4.185   3.169   7.587  0.1252 -1.1368 -0.1618
 1550SOL     OW16285   1.254   0.821   5.381  0.6703  0.4365 -0.1997
 1550SOL    HW116286   1.165   0.846   5.356 -0.1964 -1.8612  0.5449
 1550SOL    HW216287   1.305   0.829   5.301 -0.8645  1.7037 -1.0329
 1551SOL     OW16288   0.087   4.010   5.898  0.1532 -0.2806 -0.5384
 1551SOL    HW116289   0.029   3.982   5.969 -0.4748 -1.5642 -1.5528
 1551SOL    HW216290   0.113   4.095   5.933  0.0866 -0.3965 -0.2125
 1552SOL     OW16291   0.751   0.948  13.692  0.3120 -0.1701  0.1972
 1552SOL    HW116292   0.693   0.910  13.758 -1.0779  3.8830  1.2914
 1552SOL    HW216293   0.706   0.939  13.608 -1.4964  0.4814  1.0966
 1553SOL     OW16294   3.982   1.635  13.732  0.5494  0.5489  0.0479
 1553SOL    HW116295   3.906   1.593  13.772  1.8954  0.1413  2.2136
 1553SOL    HW216296   4.006   1.697  13.801  0.0654  0.1484  0.5777
 1554SOL     OW16297   3.261   4.288   3.849  0.0603  0.0167 -0.6015
 1554SOL    HW116298   3.288   4.282   3.941  0.7009 -1.0444 -0.8490
 1554SOL    HW216299   3.177   4.243   3.853  1.2171 -2.2290 -1.4665
 1555SOL     OW16300   2.303   3.491   1.593  0.8197 -0.4730 -0.0509
 1555SOL    HW116301   2.383   3.531   1.626  0.5225 -0.4907  0.6995
 1555SOL    HW216302   2.241   3.560   1.617  1.6550  0.1195  0.4011
 1556SOL     OW16303   1.863   1.855   6.724 -0.4506  0.8261 -0.3099
 1556SOL    HW116304   1.913   1.841   6.804  1.3625 -0.2921 -1.6369
 1556SOL    HW216305   1.909   1.803   6.658  0.7320 -0.9909  1.9716
 1557SOL     OW16306   3.370   0.977   8.436  0.0800 -0.8909 -0.0922
 1557SOL    HW116307   3.380   0.894   8.482 -3.6391 -1.8586 -1.0513
 1557SOL    HW216308   3.276   0.993   8.447 -0.2345 -2.8324  0.0670
 1558SOL     OW16309   0.690   2.728  14.728 -0.3363  0.2966 -0.2098
 1558SOL    HW116310   0.695   2.742  14.633 -0.3871 -2.1033 -0.5610
 1558SOL    HW216311   0.622   2.661  14.736  0.0440  0.0125  0.5863
 1559SOL     OW16312   0.466   3.704   8.084 -0.6801 -0.2080 -0.7569
 1559SOL    HW116313   0.446   3.662   8.001  0.9246 -2.9420  0.2366
 1559SOL    HW216314   0.523   3.776   8.055  1.0869 -0.3543  2.3736
 1560SOL     OW16315   3.604   4.588   9.894  0.5353  0.2613  0.0002
 1560SOL    HW116316   3.682   4.548   9.856  0.9331  0.0222  1.0778
 1560SOL    HW216317   3.551   4.605   9.816 -0.0853  1.4676  0.6841
 1561SOL     OW16318   4.380   4.582   5.823  0.2040 -0.4303  0.0624
 1561SOL    HW116319   4.453   4.618   5.874  0.8572 -1.0881 -0.4051
 1561SOL    HW216320   4.305   4.587   5.881  0.5659  0.4596  0.4527
 1562SOL     OW16321   1.369   2.716   4.096 -0.2954 -0.5937 -0.6062
 1562SOL    HW116322   1.340   2.754   4.179 -1.6417  0.1511 -1.4294
 1562SOL    HW216323   1.368   2.781   4.027 -1.4203  1.7233  1.6047
 1563SOL     OW16324   2.183   3.110   6.589 -0.2370  0.2002  0.1160
 1563SOL    HW116325   2.259   3.127   6.645  0.7124 -1.4162 -0.6453
 1563SOL    HW216326   2.224   3.045   6.531  0.5845  0.1738  0.7246
 1564SOL     OW16327   2.789   2.046   6.042  0.6340 -0.0510  0.2165
 1564SOL    HW116328   2.703   2.006   6.055  1.5601 -1.6882  1.3337
 1564SOL    HW216329   2.846   1.980   6.083  0.9180  0.1031  0.0666
 1565SOL     OW16330   2.515   0.981   4.458 -0.0071 -0.0915  0.0604
 1565SOL    HW116331   2.596   1.018   4.422 -1.0934  0.2220 -2.0709
 1565SOL    HW216332   2.526   0.899   4.410 -0.2998 -2.1663  3.4947
 1566SOL     OW16333   3.518   2.751   3.219  0.2245  0.4098  0.1595
 1566SOL    HW116334   3.468   2.831   3.238  0.2525  0.6921 -0.9081
 1566SOL    HW216335   3.613   2.762   3.230  0.0584  1.4256  0.6227
 1567SOL     OW16336   3.284   2.091   0.152  0.3367 -0.5825 -0.3383
 1567SOL    HW116337   3.292   2.041   0.234 -2.8598 -2.1287 -0.9418
 1567SOL    HW216338   3.196   2.124   0.172  1.7276  0.7924  3.3705
 1568SOL     OW16339   2.134   0.133   2.043  0.4948  0.2361  0.2404
 1568SOL    HW116340   2.137   0.228   2.034  1.3132 -0.0357 -2.1397
 1568SOL    HW216341   2.216   0.102   2.003 -1.2315 -2.5765 -1.0938
 1569SOL     OW16342   1.620   2.414   7.220 -0.5799  0.3566 -0.4019
 1569SOL    HW116343   1.577   2.464   7.289  1.1449  1.6487 -0.2587
 1569SOL    HW216344   1.580   2.453   7.142 -1.9183 -0.9506 -0.3620
 1570SOL     OW16345   3.570   4.208   2.447 -0.4981 -0.0571 -0.5835
 1570SOL    HW116346   3.521   4.126   2.444 -0.1251 -0.3129  0.1410
 1570SOL    HW216347   3.511   4.261   2.501 -2.0199 -1.7559 -0.5754
 1571SOL     OW16348   1.131   3.281   2.949 -0.2309  0.0935  0.3631
 1571SOL    HW116349   1.114   3.220   2.877 -1.7553 -1.3217  1.9190
 1571SOL    HW216350   1.225   3.296   2.934 -0.1954 -0.1484  0.3426
 1572SOL     OW16351   4.044   4.555   1.288  0.0014  0.0409  0.2361
 1572SOL    HW116352   4.097   4.599   1.221 -0.4301 -1.7193 -1.2413
 1572SOL    HW216353   4.019   4.480   1.234  1.1472 -0.3460  0.2518
 1573SOL     OW16354   0.501   3.507   1.947  0.0701 -0.6882 -0.7080
 1573SOL    HW116355   0.430   3.483   2.006  1.1938  1.1144  1.3327
 1573SOL    HW216356   0.574   3.447   1.965  1.8392  1.1815 -1.6479
 1574SOL     OW16357   3.527   0.296  14.919 -0.1100 -0.2582  0.0088
 1574SOL    HW116358   3.601   0.303  14.980 -0.7790  2.8949  0.4639
 1574SOL    HW216359   3.551   0.362  14.854  1.5361  0.8466  1.7241
 1575SOL     OW16360   2.559   0.794   5.814  0.3145 -0.5014 -0.7853
 1575SOL    HW116361   2.511   0.876   5.803  1.3074  0.1570 -0.3000
 1575SOL    HW216362   2.492   0.727   5.801 -0.6512  0.2476  0.2925
 1576SOL     OW16363   2.820   3.841  16.670  0.3351 -0.1392  0.7467
 1576SOL    HW116364   2.858   3.760  16.704 -0.2035 -0.7736 -0.1451
 1576SOL    HW216365   2.728   3.814  16.674  0.5816 -0.9297  1.0458
 1577SOL     OW16366   1.850   4.091   5.307  0.6710  0.5041  0.3499
 1577SOL    HW116367   1.864   4.141   5.387  2.4167 -0.4068  0.6002
 1577SOL    HW216368   1.772   4.142   5.285  0.5176  0.9563  1.9573
 1578SOL     OW16369   0.960   1.149   6.686 -0.5193  0.3659  0.3727
 1578SOL    HW116370   1.055   1.153   6.695 -0.5584 -1.3793  1.7342
 1578SOL    HW216371   0.959   1.121   6.595  1.9492  0.6858  0.2554
 1579SOL     OW16372   0.419   3.319   2.797  0.1722  0.1082 -0.2366
 1579SOL    HW116373   0.428   3.385   2.866 -2.2510  0.3021 -0.1183
 1579SOL    HW216374   0.453   3.240   2.839  3.1608  1.2435 -0.5521
 1580SOL     OW16375   2.831   4.316  13.306  0.4254  0.2555  0.5324
 1580SOL    HW116376   2.872   4.353  13.384 -1.3677 -0.2963  1.7277
 1580SOL    HW216377   2.859   4.225  13.317  0.8027  0.2301 -0.6344
 1581SOL     OW16378   3.401   1.681   6.013  0.4109 -0.3326 -0.1326
 1581SOL    HW116379   3.484   1.710   5.975 -0.4195  0.0135 -1.7130
 1581SOL    HW216380   3.342   1.717   5.946  0.2192  1.5218  1.0373
 1582SOL     OW16381   3.491   3.095   5.230  0.2132  0.1751 -0.1400
 1582SOL    HW116382   3.518   3.039   5.157  3.2758  0.0750  1.0481
 1582SOL    HW216383   3.434   3.159   5.188 -3.0253 -1.7448  1.3624
 1583SOL     OW16384   1.150   0.025   5.023  0.1166 -0.0120 -0.2938
 1583SOL    HW116385   1.191   0.095   5.074  1.1771 -1.1686  0.4409
 1583SOL    HW216386   1.169   0.056   4.935  2.3449  0.2970  0.2772
 1584SOL     OW16387   2.427   4.460   7.341 -0.1911 -0.0398 -0.1561
 1584SOL    HW116388   2.496   4.496   7.396 -1.5560  1.0739  0.8201
 1584SOL    HW216389   2.453   4.495   7.256 -0.9294 -0.1480 -0.4312
 1585SOL     OW16390   0.092   2.406  15.315 -0.1049 -0.2786  0.0720
 1585SOL    HW116391   0.019   2.468  15.312  1.6213  1.7427 -0.3217
 1585SOL    HW216392   0.128   2.420  15.227 -0.1451 -0.6277  0.0018
 1586SOL     OW16393   3.571   1.873   1.508  0.2998  0.9704  0.0082
 1586SOL    HW116394   3.561   1.968   1.495 -0.3195  0.4216 -3.5424
 1586SOL    HW216395   3.664   1.869   1.486  0.1514 -1.3727 -0.1336
 1587SOL     OW16396   0.979   3.306   9.748 -0.1663  0.6647 -0.1751
 1587SOL    HW116397   0.915   3.377   9.749 -1.0651 -0.1368 -0.2965
 1587SOL    HW216398   1.028   3.329   9.669  0.9336 -0.6353  0.1156
 1588SOL     OW16399   4.215   2.529   7.783 -0.2605 -0.2038 -0.8144
 1588SOL    HW116400   4.138   2.481   7.751 -1.1828  0.2145  0.7315
 1588SOL    HW216401   4.259   2.547   7.701 -0.8259  0.5013 -0.9573
 1589SOL     OW16402   1.631   1.126  12.575  0.1286  1.2660 -0.2061
 1589SOL    HW116403   1.549   1.097  12.535 -1.4851  1.4065  3.0285
 1589SOL    HW216404   1.636   1.044  12.624 -0.5022  0.5124 -1.4097
 1590SOL     OW16405   3.009   3.267   4.963 -0.4945  0.6304  0.0802
 1590SOL    HW116406   3.030   3.337   4.901 -0.5164 -0.3207 -0.9872
 1590SOL    HW216407   2.959   3.328   5.016 -0.3917 -0.7406  1.7619
 1591SOL     OW16408   3.509   1.324   2.179 -0.3531  0.1106  0.0649
 1591SOL    HW116409   3.430   1.359   2.138  0.5610 -0.5912 -2.2909
 1591SOL    HW216410   3.513   1.235   2.145  0.7546 -0.0150  0.5303
 1592SOL     OW16411   0.692   0.009  13.527  0.0022 -0.1044 -0.0782
 1592SOL    HW116412   0.666   0.068  13.597  1.0619 -0.7548  0.8579
 1592SOL    HW216413   0.731   4.675  13.581 -1.3765  0.0973  1.1762
 1593SOL     OW16414   3.970   0.456   1.401  0.5469  0.5300  0.7549
 1593SOL    HW116415   3.948   0.461   1.494 -0.2059 -0.3688  0.6253
 1593SOL    HW216416   4.053   0.504   1.405 -0.1511  1.7322  0.6127
 1594SOL     OW16417   3.425   1.100   8.832  0.0308  0.2718 -0.8437
 1594SOL    HW116418   3.434   1.083   8.926 -2.3263  0.2119 -0.6388
 1594SOL    HW216419   3.489   1.172   8.832  0.3797 -0.0399 -1.4349
 1595SOL     OW16420   1.967   0.027   5.254 -0.4036  0.7976 -0.4910
 1595SOL    HW116421   2.059   0.051   5.263 -0.1749 -0.4764  0.5476
 1595SOL    HW216422   1.930   0.115   5.247  1.3153  1.6271  0.7932
 1596SOL     OW16423   1.776   2.546   4.851 -0.3208  0.0153 -0.7310
 1596SOL    HW116424   1.748   2.457   4.829 -0.7063  0.4373 -1.9611
 1596SOL    HW216425   1.812   2.524   4.937 -0.7001  3.0033  0.1867
 1597SOL     OW16426   3.605   3.440   6.051 -0.1077 -0.3846  0.0155
 1597SOL    HW116427   3.517   3.473   6.038  0.3300  0.0826 -1.7535
 1597SOL    HW216428   3.641   3.442   5.963  0.8137  1.3365  0.4457
 1598SOL     OW16429   1.122   1.321   5.984  0.2116  0.1143 -0.6089
 1598SOL    HW116430   1.095   1.334   6.074 -0.7067  1.4549 -1.0780
 1598SOL    HW216431   1.091   1.233   5.963  2.1297 -0.5168 -0.8547
 1599SOL     OW16432   2.630   2.329   2.425  0.3208 -0.2620 -0.2244
 1599SOL    HW116433   2.571   2.402   2.445  0.2990 -0.5862  0.8627
 1599SOL    HW216434   2.627   2.324   2.329  1.2248  0.1564 -0.2805
 1600SOL     OW16435   0.497   1.445  14.604 -0.4446 -0.0898  0.5146
 1600SOL    HW116436   0.509   1.353  14.625  0.5687  0.1808  1.1232
 1600SOL    HW216437   0.452   1.482  14.680 -0.1429 -1.0292  1.1419
 1601SOL     OW16438   4.190   2.291  17.168  0.0429 -0.5072 -0.1275
 1601SOL    HW116439   4.246   2.296  17.245 -2.2054  2.1378  1.3115
 1601SOL    HW216440   4.104   2.331  17.182 -0.4547 -1.4882 -0.3306
 1602SOL     OW16441   2.950   0.959  17.369  0.0591 -0.7065  0.3672
 1602SOL    HW116442   2.901   1.031  17.329 -0.6314 -1.9033 -0.9620
 1602SOL    HW216443   2.907   0.881  17.335  1.1080 -0.7566 -0.8615
 1603SOL     OW16444   2.214   1.638   6.729 -0.1831  0.0468  0.2912
 1603SOL    HW116445   2.158   1.568   6.764 -2.6048  0.7178 -2.2104
 1603SOL    HW216446   2.268   1.649   6.808 -1.2000  2.4241  0.6619
 1604SOL     OW16447   2.410   4.038   6.229 -0.3666 -0.4417 -0.1049
 1604SOL    HW116448   2.397   4.132   6.223 -0.7591 -0.2507  3.3620
 1604SOL    HW216449   2.486   4.031   6.287 -1.1139  0.0909  0.9447
 1605SOL     OW16450   0.065   0.370  12.946  0.6378 -0.2959  0.1172
 1605SOL    HW116451   0.143   0.425  12.934  0.2387 -0.0111 -1.1820
 1605SOL    HW216452   0.081   0.304  12.879  2.1589  2.0058 -1.8057
 1606SOL     OW16453   0.608   1.593   1.692 -0.2581  0.5713 -0.0218
 1606SOL    HW116454   0.687   1.601   1.638 -0.2090  1.0625  0.1189
 1606SOL    HW216455   0.646   1.609   1.779 -0.0146 -3.2764  0.5676
 1607SOL     OW16456   3.966   3.522   7.570 -0.2588  0.1423 -0.6979
 1607SOL    HW116457   3.915   3.449   7.605 -2.8153  3.4695  2.5735
 1607SOL    HW216458   3.892   3.578   7.546 -0.2632  0.2729 -0.3839
 1608SOL     OW16459   2.931   2.319   5.106 -0.0259 -0.2369 -0.1640
 1608SOL    HW116460   2.987   2.327   5.028 -0.2971 -1.0678 -0.4348
 1608SOL    HW216461   2.858   2.373   5.074  0.2436  0.5408  0.5231
 1609SOL     OW16462   4.635   3.265   9.060 -0.0398 -0.1226  0.4042
 1609SOL    HW116463   4.721   3.241   9.027  1.0558 -0.0248  3.1721
 1609SOL    HW216464   4.654   3.271   9.154  2.9263  1.1520 -0.3020
 1610SOL     OW16465   2.385   1.238   6.532  0.5921  0.2243  0.5108
 1610SOL    HW116466   2.470   1.238   6.487 -2.9027  1.2282 -5.9711
 1610SOL    HW216467   2.424   1.267   6.614 -0.5328  1.9647  0.4279
 1611SOL     OW16468   2.974   3.408   1.757  0.6325 -0.1641  0.1784
 1611SOL    HW116469   3.020   3.420   1.840 -1.0990 -0.3443  1.1814
 1611SOL    HW216470   2.906   3.474   1.771  0.5880 -0.2887  0.5456
 1612SOL     OW16471   3.538   1.562   0.783 -0.3672  0.0257 -0.0462
 1612SOL    HW116472   3.517   1.484   0.833 -1.0698  0.3088  0.1059
 1612SOL    HW216473   3.486   1.627   0.831  0.6037  0.7063  0.0844
 1613SOL     OW16474   2.332   2.621   5.408 -0.0582  0.0656  0.1399
 1613SOL    HW116475   2.242   2.611   5.438  0.0403  0.0384  0.4215
 1613SOL    HW216476   2.336   2.562   5.333  0.4277 -1.2759  1.2285
 1614SOL     OW16477   2.595   3.073  10.208  0.0294  0.1418 -0.5248
 1614SOL    HW116478   2.561   3.160  10.185  0.8404  1.1088  1.9765
 1614SOL    HW216479   2.520   3.022  10.236  0.3798 -0.5555 -0.8454
 1615SOL     OW16480   2.907   3.248   5.878  0.3266  0.5736  0.1627
 1615SOL    HW116481   2.865   3.226   5.962  0.9603  0.0249  0.3314
 1615SOL    HW216482   2.824   3.238   5.832 -0.6165  1.4752  1.6467
 1616SOL     OW16483   0.123   2.850   4.751  0.0178  0.2895 -0.2577
 1616SOL    HW116484   0.179   2.777   4.774 -1.6621 -0.3670  1.6921
 1616SOL    HW216485   0.052   2.839   4.814 -1.6507 -0.6910 -2.2686
 1617SOL     OW16486   2.199   3.704  16.145  0.0974 -0.3942 -0.7384
 1617SOL    HW116487   2.190   3.728  16.237  0.0205  0.2787 -0.9226
 1617SOL    HW216488   2.280   3.750  16.124  0.2363 -0.2877  0.0377
 1618SOL     OW16489   2.697   3.023   2.034  0.2031 -0.3305  0.0072
 1618SOL    HW116490   2.641   2.997   1.961  0.2028  1.4078 -0.6043
 1618SOL    HW216491   2.729   3.110   2.010  0.8179 -0.6392 -0.3056
 1619SOL     OW16492   0.931   1.448   7.917 -0.7462 -0.1456  0.3971
 1619SOL    HW116493   0.993   1.510   7.955 -2.0893 -0.3725  2.9363
 1619SOL    HW216494   0.981   1.429   7.837  1.9442 -0.5479  2.1564
 1620SOL     OW16495   2.276   3.721   7.211  0.4042 -0.0349  0.6643
 1620SOL    HW116496   2.297   3.813   7.194 -1.9769  0.9225  2.8929
 1620SOL    HW216497   2.328   3.720   7.292  1.2098 -1.3616  0.1240
 1621SOL     OW16498   3.512   0.005  17.195  0.2910 -0.8889 -0.3043
 1621SOL    HW116499   3.431   0.019  17.146  0.6493  0.6354 -0.4331
 1621SOL    HW216500   3.479   4.685  17.267  1.5932 -0.8852  0.2958
 1622SOL     OW16501   1.388   1.568   3.238  0.6013 -0.3385 -0.3485
 1622SOL    HW116502   1.318   1.519   3.194  0.8815 -1.3459  0.3354
 1622SOL    HW216503   1.339   1.604   3.312 -0.6025 -2.1315 -0.2518
 1623SOL     OW16504   4.476   3.013   6.378 -0.7851 -0.5983  0.3323
 1623SOL    HW116505   4.389   2.992   6.412 -0.8432 -0.9521 -0.0299
 1623SOL    HW216506   4.483   2.941   6.315  0.4000 -0.7992  0.6979
 1624SOL     OW16507   3.414   1.199  14.699 -0.5433  0.3345  0.1331
 1624SOL    HW116508   3.326   1.169  14.676  0.3001 -1.1421 -1.1222
 1624SOL    HW216509   3.426   1.172  14.790 -3.3693  0.9907  0.7231
 1625SOL     OW16510   3.514   4.706  11.467  0.6022 -0.0705 -0.2341
 1625SOL    HW116511   3.527   4.638  11.533  0.3025  1.4213  1.3732
 1625SOL    HW216512   3.583   0.033  11.487  1.1470 -0.1892 -1.7565
 1626SOL     OW16513   3.662   3.663   8.431  0.3304 -0.2346 -0.6226
 1626SOL    HW116514   3.585   3.635   8.381 -0.2495 -0.1967  0.2621
 1626SOL    HW216515   3.619   3.709   8.503  0.6893  1.0390 -1.2278
 1627SOL     OW16516   3.745   1.839   2.050 -0.1803  0.5484  0.4868
 1627SOL    HW116517   3.668   1.809   2.099  0.7147 -2.0680  0.2681
 1627SOL    HW216518   3.772   1.912   2.107 -2.8096  1.5962  0.4036
 1628SOL     OW16519   3.398   0.731   5.262 -0.5871 -0.5870  0.5946
 1628SOL    HW116520   3.338   0.740   5.336 -0.8218  2.2989  0.0586
 1628SOL    HW216521   3.346   0.692   5.191  0.1156  3.3571 -2.0795
 1629SOL     OW16522   3.983   1.021  17.534 -0.3238  0.1673 -0.3088
 1629SOL    HW116523   3.986   0.988  17.444 -0.6283 -0.6164 -0.0331
 1629SOL    HW216524   4.009   1.112  17.523  2.0142 -0.3797  0.6042
 1630SOL     OW16525   2.604   4.192   9.210  0.2437 -0.0975 -0.1693
 1630SOL    HW116526   2.648   4.109   9.188  3.1043  1.6125 -0.9445
 1630SOL    HW216527   2.542   4.191   9.137 -1.7722  1.7257  1.5441
 1631SOL     OW16528   3.856   2.954   1.462  0.1066  0.0866  0.1407
 1631SOL    HW116529   3.794   2.998   1.522  0.0776  2.3818 -1.5649
 1631SOL    HW216530   3.797   2.897   1.413 -1.0865 -0.3332  2.0724
 1632SOL     OW16531   3.922   0.325   3.808  0.1573  0.2421 -0.0576
 1632SOL    HW116532   3.873   0.307   3.728  0.0546  3.4673 -0.6993
 1632SOL    HW216533   3.869   0.401   3.833  0.2350  0.1384  0.4350
 1633SOL     OW16534   1.465   3.125  11.754  0.2203  0.0954 -0.2340
 1633SOL    HW116535   1.412   3.120  11.674  1.9891  2.2816 -1.5376
 1633SOL    HW216536   1.477   3.219  11.767 -0.4541 -0.0169  1.2564
 1634SOL     OW16537   2.511   3.660   1.666  0.0142  0.1396 -0.0992
 1634SOL    HW116538   2.556   3.709   1.598  0.7835  0.7880  0.8748
 1634SOL    HW216539   2.573   3.672   1.738  0.5953 -0.5192 -0.4994
 1635SOL     OW16540   1.510   1.281   7.195 -0.0358  0.4050  0.2097
 1635SOL    HW116541   1.504   1.296   7.289  1.7349 -0.7917  0.5190
 1635SOL    HW216542   1.492   1.187   7.192 -0.0454  0.4096  0.1156
 1636SOL     OW16543   4.698   3.215  14.543  0.5514 -0.3257  0.1796
 1636SOL    HW116544   4.689   3.310  14.531  0.0699 -0.2160  1.4045
 1636SOL    HW216545   0.036   3.208  14.482  0.3712  1.3403 -0.2267
 1637SOL     OW16546   4.649   1.550  17.262 -0.4568 -0.1397  0.1761
 1637SOL    HW116547   4.586   1.484  17.234  0.7735 -1.3273  0.1902
 1637SOL    HW216548   4.652   1.599  17.180 -0.8508  3.4804  2.3032
 1638SOL     OW16549   0.896   3.609   9.907  0.1310 -0.1131 -0.0173
 1638SOL    HW116550   0.885   3.661   9.827 -0.3322  0.4450  0.4198
 1638SOL    HW216551   0.835   3.650   9.968  1.8987  0.2080  1.5298
 1639SOL     OW16552   0.422   4.503   4.051  0.1291 -0.0591  0.0177
 1639SOL    HW116553   0.448   4.441   4.119 -2.4357  0.0131  1.0463
 1639SOL    HW216554   0.509   4.539   4.032 -0.2837  1.3599  0.8209
 1640SOL     OW16555   1.765   0.571   9.917 -0.4419  0.6004  0.2703
 1640SOL    HW116556   1.690   0.538   9.968  0.3732 -2.4533 -0.5529
 1640SOL    HW216557   1.837   0.559   9.979 -0.5986  0.2337  0.3825
 1641SOL     OW16558   2.122   3.393  11.289 -0.2055 -0.3312 -0.1490
 1641SOL    HW116559   2.037   3.434  11.274 -0.7285 -1.3429  0.0504
 1641SOL    HW216560   2.108   3.321  11.227 -0.8728 -0.0975 -0.2580
 1642SOL     OW16561   2.085   1.917   8.183  0.7405 -0.7429 -0.2134
 1642SOL    HW116562   2.044   1.831   8.170 -0.7570  0.2028 -1.7289
 1642SOL    HW216563   2.051   1.944   8.268 -1.9654 -0.6711 -1.3031
 1643SOL     OW16564   3.141   2.776   4.296  0.3905 -0.0970  0.3382
 1643SOL    HW116565   3.089   2.856   4.291  0.2916 -0.2001 -0.2615
 1643SOL    HW216566   3.167   2.773   4.388  0.3408  0.3301  0.3629
 1644SOL     OW16567   1.356   2.214   5.725 -0.1229 -0.2176  0.2991
 1644SOL    HW116568   1.342   2.295   5.774  0.4314 -0.6472  1.1822
 1644SOL    HW216569   1.264   2.193   5.710 -0.3390  0.1526  1.1385
 1645SOL     OW16570   3.703   3.210   2.082  0.2276 -0.4906  0.1064
 1645SOL    HW116571   3.796   3.190   2.090  0.6766  1.4994  0.0183
 1645SOL    HW216572   3.663   3.124   2.075  2.4460 -1.4767 -0.5344
 1646SOL     OW16573   0.396   4.714   7.130 -0.0050  0.7145 -0.6583
 1646SOL    HW116574   0.301   4.719   7.125  0.0247  0.6295 -1.2527
 1646SOL    HW216575   0.416   0.064   7.167  1.0712 -0.9488  2.6197
 1647SOL     OW16576   1.825   3.578  16.253  0.4174  0.1794 -0.0348
 1647SOL    HW116577   1.732   3.587  16.232  0.0553  0.2770  1.6417
 1647SOL    HW216578   1.868   3.635  16.190 -1.4548  2.0530  0.3895
 1648SOL     OW16579   1.647   1.490   5.547 -0.1948 -0.7136  0.1797
 1648SOL    HW116580   1.587   1.562   5.569  1.8156  0.8164  0.7883
 1648SOL    HW216581   1.624   1.464   5.459 -0.4332  0.4078 -0.0925
 1649SOL     OW16582   3.796   2.480   1.194  0.9570 -0.6255  0.2332
 1649SOL    HW116583   3.794   2.556   1.252 -1.0434  0.3687 -1.1474
 1649SOL    HW216584   3.801   2.521   1.108 -1.5473  0.0936  0.4177
 1650SOL     OW16585   1.627   0.176   3.634 -0.0946  0.0175 -0.5900
 1650SOL    HW116586   1.578   0.096   3.617 -0.7860  0.1960  0.5670
 1650SOL    HW216587   1.579   0.232   3.573  1.3020  2.2901  0.4264
 1651SOL     OW16588   1.565   3.386   2.295  0.2506 -0.0715 -0.1463
 1651SOL    HW116589   1.505   3.355   2.362 -0.5140 -0.0085 -0.8098
 1651SOL    HW216590   1.613   3.308   2.267  0.8316  0.9366 -1.9522
 1652SOL     OW16591   0.281   3.789   3.375  0.5594 -0.5387 -0.1861
 1652SOL    HW116592   0.193   3.821   3.397  1.0049  0.5676 -0.0131
 1652SOL    HW216593   0.333   3.832   3.443  0.2627 -0.9740  0.3261
 1653SOL     OW16594   0.590   3.661   9.984 -0.4274  0.9175  0.0426
 1653SOL    HW116595   0.557   3.608  10.056 -0.6407 -1.7873 -2.0402
 1653SOL    HW216596   0.623   3.738  10.029 -0.4767  0.8470  0.1994
 1654SOL     OW16597   0.933   4.451   4.239  0.5722 -0.0470 -0.1449
 1654SOL    HW116598   0.848   4.467   4.280  1.6046  2.9082  0.8531
 1654SOL    HW216599   0.992   4.455   4.315 -2.0021  0.4086  1.8376
 1655SOL     OW16600   1.092   1.851   0.562 -0.5383 -0.0753 -0.0575
 1655SOL    HW116601   1.181   1.835   0.530 -0.4367  0.8751 -0.2597
 1655SOL    HW216602   1.076   1.765   0.601 -1.0672 -0.2851 -0.7358
 1656SOL     OW16603   0.852   0.266   0.352 -0.7361 -0.5051 -0.7623
 1656SOL    HW116604   0.904   0.330   0.401 -0.1893 -1.6102  0.1270
 1656SOL    HW216605   0.882   0.282   0.263 -2.4309  2.3370 -0.8099
 1657SOL     OW16606   0.363   1.766   4.981  0.0041 -0.7627 -0.2478
 1657SOL    HW116607   0.354   1.683   4.935 -2.9807 -0.1751 -0.7231
 1657SOL    HW216608   0.286   1.809   4.945 -0.3110 -1.5135 -0.4571
 1658SOL     OW16609   2.279   2.637   2.600  0.2876 -0.1745  0.2598
 1658SOL    HW116610   2.300   2.607   2.689 -0.1630 -2.3273 -0.3747
 1658SOL    HW216611   2.219   2.708   2.623  1.5278  0.4334  1.6424
 1659SOL     OW16612   3.614   1.587  17.179  0.7698  0.4448  0.0530
 1659SOL    HW116613   3.667   1.508  17.183 -0.4825 -0.4102 -0.0619
 1659SOL    HW216614   3.528   1.545  17.178  1.4734 -0.9453 -1.0934
 1660SOL     OW16615   0.917   4.333   8.875  0.2294 -0.6028 -0.3520
 1660SOL    HW116616   0.866   4.403   8.834  1.6911  1.1207  0.7673
 1660SOL    HW216617   0.872   4.332   8.959  1.8587 -2.1914  0.4944
 1661SOL     OW16618   2.778   1.417   4.410  0.1548  1.1829 -0.2389
 1661SOL    HW116619   2.767   1.439   4.318 -1.5106  3.0802  0.4307
 1661SOL    HW216620   2.864   1.446   4.441  0.2029  1.0069 -0.2044
 1662SOL     OW16621   3.528   0.879   3.867 -0.4782 -0.0596  0.3300
 1662SOL    HW116622   3.510   0.973   3.860 -0.0797  0.1715  2.5355
 1662SOL    HW216623   3.540   0.865   3.773 -2.2017 -0.4669  0.1728
 1663SOL     OW16624   3.908   3.233  11.743 -0.7359  0.2936  0.0640
 1663SOL    HW116625   3.847   3.174  11.699 -0.2455 -0.7512  0.7956
 1663SOL    HW216626   3.852   3.250  11.818  2.1517  0.2150  2.2361
 1664SOL     OW16627   1.883   1.069   5.263 -0.1539 -0.1557 -0.0507
 1664SOL    HW116628   1.858   1.112   5.345 -0.2572 -1.1174  0.4254
 1664SOL    HW216629   1.930   0.992   5.295  1.0395  0.1857 -0.9631
 1665SOL     OW16630   3.730   4.164   5.213  0.4089 -0.4380  0.0382
 1665SOL    HW116631   3.738   4.215   5.132  0.6906 -1.2417 -0.4431
 1665SOL    HW216632   3.817   4.126   5.219  1.0911  1.1352  0.1902
 1666SOL     OW16633   3.502   2.521   7.468 -0.0886  0.1525  0.2064
 1666SOL    HW116634   3.427   2.473   7.433 -0.3464 -0.7262  1.9570
 1666SOL    HW216635   3.445   2.572   7.526 -0.2333  0.8774 -0.5684
 1667SOL     OW16636   2.018   4.506   0.789 -0.3432 -0.1586  0.0275
 1667SOL    HW116637   2.009   4.427   0.736  0.3047 -1.4201  1.8059
 1667SOL    HW216638   1.942   4.552   0.752  1.1564  2.6565  0.4637
 1668SOL     OW16639   2.119   0.462  12.515  0.5502  0.2690 -0.4939
 1668SOL    HW116640   2.205   0.460  12.474  0.8071 -0.2263  0.0722
 1668SOL    HW216641   2.092   0.370  12.509  0.3968  0.2267  0.9487
 1669SOL     OW16642   0.823   4.094   7.468 -0.8105 -0.7306  0.4418
 1669SOL    HW116643   0.735   4.091   7.430 -0.0398 -0.5138 -1.3623
 1669SOL    HW216644   0.832   4.008   7.509 -0.9847 -1.0724 -0.2378
 1670SOL     OW16645   1.269   3.727   7.385  0.1605 -0.5083 -0.2982
 1670SOL    HW116646   1.216   3.648   7.384 -0.1216 -0.3426  1.4166
 1670SOL    HW216647   1.231   3.772   7.309  2.2394  0.4202 -0.7892
 1671SOL     OW16648   2.678   1.954   8.290  0.5863  0.1291  0.4099
 1671SOL    HW116649   2.770   1.964   8.316  0.2998 -0.0562  1.4742
 1671SOL    HW216650   2.688   2.006   8.210  2.3011  1.2081  1.3398
 1672SOL     OW16651   0.847   2.548   3.899 -0.0742  0.2470  0.2583
 1672SOL    HW116652   0.800   2.501   3.968  0.3809  0.8933  1.0107
 1672SOL    HW216653   0.800   2.631   3.890 -1.5737 -0.5172  1.0144
 1673SOL     OW16654   1.130   1.216   7.830  0.0266 -0.6494  0.0890
 1673SOL    HW116655   1.123   1.297   7.778  0.5285 -1.5093 -1.3247
 1673SOL    HW216656   1.203   1.168   7.791 -0.0072 -0.8643  0.2979
 1674SOL     OW16657   4.317   3.232   1.676  0.6356 -0.3386 -0.0679
 1674SOL    HW116658   4.371   3.309   1.689 -0.4426  0.0657  1.9729
 1674SOL    HW216659   4.376   3.170   1.633 -2.6054 -1.5436 -2.8034
 1675SOL     OW16660   4.538   3.624  10.083 -0.1382 -0.0910 -0.0720
 1675SOL    HW116661   4.508   3.654   9.998  1.5083 -2.0184 -1.3391
 1675SOL    HW216662   4.523   3.529  10.080 -0.4158 -0.0751  0.6611
 1676SOL     OW16663   0.031   1.545   6.290  0.1992  0.1395 -0.0343
 1676SOL    HW116664   0.111   1.571   6.246  0.1764 -1.9917 -1.3486
 1676SOL    HW216665   4.721   1.629   6.287  1.2441  0.6385 -2.2257
 1677SOL     OW16666   1.375   1.413   2.913 -0.2278 -0.0215  0.2615
 1677SOL    HW116667   1.463   1.398   2.949  0.4044 -2.8970 -2.4641
 1677SOL    HW216668   1.335   1.341   2.962 -2.0861  0.5525 -0.4358
 1678SOL     OW16669   2.158   0.651   1.792  0.6478  0.5567  0.4113
 1678SOL    HW116670   2.236   0.596   1.786  0.7699  0.7571  0.1446
 1678SOL    HW216671   2.110   0.615   1.717 -0.7213  0.9386  1.1059
 1679SOL     OW16672   2.643   3.717  10.305 -0.0805 -0.1121  0.2505
 1679SOL    HW116673   2.602   3.665  10.374  0.0479 -1.6633 -0.8724
 1679SOL    HW216674   2.735   3.710  10.332  0.2937 -0.0434 -1.0294
 1680SOL     OW16675   2.248   2.769  13.041  0.2750 -0.3486 -0.1046
 1680SOL    HW116676   2.251   2.794  13.133  1.5642 -2.7407  0.4955
 1680SOL    HW216677   2.154   2.750  13.033 -0.4559  3.4734 -0.6291
 1681SOL     OW16678   3.242   1.677   2.904 -0.4580 -0.6082 -0.1140
 1681SOL    HW116679   3.271   1.701   2.993  2.7890 -2.4551 -0.6983
 1681SOL    HW216680   3.226   1.767   2.874  1.1266 -0.8632 -1.6730
 1682SOL     OW16681   3.952   3.476  15.472  0.4043 -0.4932  0.3971
 1682SOL    HW116682   3.944   3.555  15.526 -0.5871 -0.5162  0.2791
 1682SOL    HW216683   3.890   3.417  15.515 -0.1643 -0.0355  0.2197
 1683SOL     OW16684   4.103   3.901   7.844 -0.0646  0.5283 -0.0066
 1683SOL    HW116685   4.119   3.874   7.753 -1.0881  0.3998 -0.1500
 1683SOL    HW216686   4.107   3.996   7.852 -0.6056  0.5461  0.0340
 1684SOL     OW16687   1.019   1.029   3.508 -0.2291 -0.0691 -0.4151
 1684SOL    HW116688   1.055   1.115   3.488 -0.8741  0.7054  1.8029
 1684SOL    HW216689   0.945   1.048   3.565 -0.2049 -0.9054 -0.0969
 1685SOL     OW16690   0.742   0.606  14.453 -0.3585  0.4094 -0.5349
 1685SOL    HW116691   0.716   0.514  14.457  0.9393  0.0388 -0.6720
 1685SOL    HW216692   0.822   0.596  14.401  0.1047  0.0800  0.2429
 1686SOL     OW16693   4.531   3.212   6.691 -0.2867 -0.2789 -0.1439
 1686SOL    HW116694   4.472   3.266   6.639  0.9488  2.3757  1.1935
 1686SOL    HW216695   4.462   3.157   6.728  1.5665 -0.0939  3.5989
 1687SOL     OW16696   0.002   2.793  12.315  0.2691 -0.0264 -0.3052
 1687SOL    HW116697   0.056   2.775  12.238  1.8703 -1.2080  1.0967
 1687SOL    HW216698   4.670   2.727  12.300  0.4875 -0.1926 -0.5392
 1688SOL     OW16699   2.152   3.618   8.612  0.2439 -0.0481  0.1541
 1688SOL    HW116700   2.109   3.658   8.537  0.8561 -0.8886 -0.6540
 1688SOL    HW216701   2.075   3.593   8.664  0.5572 -0.8687  0.2359
 1689SOL     OW16702   2.902   2.011   7.193  0.3301  0.7138 -0.6119
 1689SOL    HW116703   2.852   2.090   7.214 -0.7123 -0.0536 -0.1880
 1689SOL    HW216704   2.981   2.059   7.167  0.9541  0.9323  1.6766
 1690SOL     OW16705   2.254   2.527   3.768 -0.3402  0.2851  0.3548
 1690SOL    HW116706   2.239   2.434   3.786 -0.5241 -0.0413 -1.5442
 1690SOL    HW216707   2.326   2.546   3.828 -1.8238  2.3224  1.4769
 1691SOL     OW16708   3.558   3.134   0.982  0.0288 -0.2848  0.6584
 1691SOL    HW116709   3.534   3.158   0.893  2.7278  1.4962  0.4103
 1691SOL    HW216710   3.643   3.176   0.988  0.0629 -0.3244  0.4548
 1692SOL     OW16711   3.629   3.948  16.292 -0.1211  0.5845  0.2756
 1692SOL    HW116712   3.602   3.868  16.336 -2.7829  0.5501 -1.4345
 1692SOL    HW216713   3.545   3.967  16.249 -1.3889 -0.6236  2.2841
 1693SOL     OW16714   4.527   1.074   8.434 -0.3635  0.3130 -0.2460
 1693SOL    HW116715   4.521   1.094   8.341 -0.9848  2.1444  0.1715
 1693SOL    HW216716   4.433   1.064   8.449 -0.0724 -1.1874  0.5500
 1694SOL     OW16717   3.346   3.510  14.110 -0.7523 -0.7006  0.2075
 1694SOL    HW116718   3.365   3.553  14.026 -0.9664 -0.3492  0.3380
 1694SOL    HW216719   3.408   3.553  14.169 -0.0003  1.5086 -2.1800
 1695SOL     OW16720   4.379   0.372   2.428 -0.0663  0.5590 -0.2294
 1695SOL    HW116721   4.412   0.344   2.514 -0.4477 -0.7303 -0.5087
 1695SOL    HW216722   4.320   0.446   2.442 -4.1704 -2.8215  0.4414
 1696SOL     OW16723   2.342   4.310  14.610  0.0029 -0.0748 -0.4214
 1696SOL    HW116724   2.327   4.227  14.565  0.3019 -0.4895  0.2509
 1696SOL    HW216725   2.257   4.343  14.640 -0.3227 -0.8589 -0.4831
 1697SOL     OW16726   1.366   1.449  17.268 -0.0995 -0.5932 -0.3003
 1697SOL    HW116727   1.431   1.487  17.210 -0.9919 -1.1589 -1.6840
 1697SOL    HW216728   1.348   1.366  17.224 -1.4785 -1.3678  1.7405
 1698SOL     OW16729   0.558   1.619   6.650 -0.4676 -0.6532  0.0252
 1698SOL    HW116730   0.649   1.648   6.652 -0.6577 -0.0564 -0.0190
 1698SOL    HW216731   0.532   1.681   6.718 -0.1688  0.4510 -0.8626
 1699SOL     OW16732   2.919   2.319   3.895  0.1485  0.6794  0.5562
 1699SOL    HW116733   2.865   2.291   3.821  2.2715 -2.4776  0.2042
 1699SOL    HW216734   2.849   2.325   3.960 -0.5312  1.8752 -0.3019
 1700SOL     OW16735   4.003   0.864  14.512 -0.3085 -0.2063  0.3190
 1700SOL    HW116736   4.094   0.852  14.539 -0.2461 -1.1794 -0.3263
 1700SOL    HW216737   4.008   0.879  14.418  0.4192 -1.7130  0.1241
 1701SOL     OW16738   2.945   2.767   4.882 -0.0120 -0.4766  0.4612
 1701SOL    HW116739   2.963   2.860   4.875 -0.8709 -0.1972  1.9271
 1701SOL    HW216740   2.871   2.759   4.943 -0.5156  1.7484  0.1127
 1702SOL     OW16741   3.383   4.391   6.837 -0.2395 -0.3397  0.1052
 1702SOL    HW116742   3.290   4.410   6.828 -0.3113 -1.2630 -1.0048
 1702SOL    HW216743   3.397   4.412   6.745  3.7944  1.3802  1.1137
 1703SOL     OW16744   4.326   0.647   2.977  0.5134  0.9249 -0.5164
 1703SOL    HW116745   4.324   0.741   2.996 -1.7305  0.5572  1.0186
 1703SOL    HW216746   4.336   0.646   2.881  0.2642 -1.9000 -0.5078
 1704SOL     OW16747   1.169   3.530   1.604 -0.7836  0.0035  0.0605
 1704SOL    HW116748   1.252   3.526   1.652 -0.8403  0.8721  0.2392
 1704SOL    HW216749   1.101   3.523   1.671 -1.7001  0.6794 -0.7887
 1705SOL     OW16750   0.868   1.164   4.364 -0.0886  0.0454  0.1047
 1705SOL    HW116751   0.935   1.182   4.430  0.2125  1.5464 -0.5989
 1705SOL    HW216752   0.887   1.076   4.332  0.8316  0.0902  0.5311
 1706SOL     OW16753   3.140   2.875  12.774  0.4432 -0.0368 -0.1659
 1706SOL    HW116754   3.122   2.942  12.839  1.7104 -0.9621  1.1214
 1706SOL    HW216755   3.136   2.792  12.822 -1.7838 -0.7207 -1.5346
 1707SOL     OW16756   2.193   4.096   0.076 -0.1788  0.0182  0.4692
 1707SOL    HW116757   2.212   4.182   0.039  1.5013  0.1943  1.7699
 1707SOL    HW216758   2.200   4.045  17.735  0.6705  0.8094  0.0466
 1708SOL     OW16759   1.240   2.840   6.235  0.2496  0.4035 -0.1207
 1708SOL    HW116760   1.262   2.845   6.142  0.8152 -2.8782 -0.1482
 1708SOL    HW216761   1.251   2.746   6.246 -0.1993  0.3450 -0.1678
 1709SOL     OW16762   4.558   0.223  15.096 -0.6155 -0.0956  0.1777
 1709SOL    HW116763   4.532   0.209  15.186  0.1713 -1.8919  0.1142
 1709SOL    HW216764   4.576   0.133  15.069 -0.5347 -0.2514  0.7506
 1710SOL     OW16765   0.186   3.045   2.898  0.4992  0.2821  0.3486
 1710SOL    HW116766   0.140   3.106   2.955  0.4302 -1.3827  2.0702
 1710SOL    HW216767   0.194   3.095   2.817  1.0885 -1.3014 -0.5717
 1711SOL     OW16768   0.135   3.651  14.730  0.1836  0.7014  0.3857
 1711SOL    HW116769   0.167   3.583  14.671  0.7649  1.4822 -0.1942
 1711SOL    HW216770   0.155   3.734  14.688 -0.2079 -0.3343 -1.8426
 1712SOL     OW16771   3.796   1.400   3.006  0.4573 -0.2396  0.5170
 1712SOL    HW116772   3.771   1.405   3.098 -0.2852  0.3272  0.2848
 1712SOL    HW216773   3.737   1.463   2.966 -0.1992 -0.9441  0.3786
 1713SOL     OW16774   1.305   3.939   4.341 -0.0270  0.3285  0.1082
 1713SOL    HW116775   1.384   3.926   4.288 -1.6045  1.3152 -2.5122
 1713SOL    HW216776   1.291   4.028   4.308 -1.6676 -0.0532 -0.1799
 1714SOL     OW16777   4.074   0.752   7.929  0.2077  0.0683  0.6406
 1714SOL    HW116778   4.121   0.767   8.010  0.6304 -0.4038  0.4785
 1714SOL    HW216779   3.990   0.714   7.956 -0.0969  0.8091  0.7371
 1715SOL     OW16780   1.029   1.918   2.654  0.0291  0.9294 -0.0559
 1715SOL    HW116781   1.006   1.883   2.741 -1.1982  1.5166 -0.1447
 1715SOL    HW216782   0.946   1.962   2.635 -0.9163 -1.5224 -1.6620
 1716SOL     OW16783   2.677   3.029   9.312  0.1403 -0.1338  0.3542
 1716SOL    HW116784   2.611   3.059   9.251  0.6883 -1.8544 -1.0837
 1716SOL    HW216785   2.713   3.112   9.344  1.2163  0.9089 -3.6587
 1717SOL     OW16786   4.454   0.028   4.403  0.0286 -1.1944 -0.3180
 1717SOL    HW116787   4.433   0.122   4.400 -1.6165 -1.5174  0.8993
 1717SOL    HW216788   4.384   4.724   4.456  0.3118 -0.5565  0.5295
 1718SOL     OW16789   3.972   0.777   9.565  0.1201  0.1616 -0.7529
 1718SOL    HW116790   4.050   0.733   9.600 -0.2709 -0.6420 -0.8816
 1718SOL    HW216791   3.930   0.800   9.647  0.5638  1.4136 -0.8811
 1719SOL     OW16792   0.061   2.618   8.818 -0.1061  0.1652  0.2651
 1719SOL    HW116793   0.009   2.617   8.738 -1.0207 -1.0442  0.8792
 1719SOL    HW216794   0.057   2.712   8.838  3.1332  0.3163  0.1535
 1720SOL     OW16795   3.440   4.001   6.704 -0.4587 -0.1942  0.4497
 1720SOL    HW116796   3.455   3.920   6.752  2.1986  0.1906  0.2464
 1720SOL    HW216797   3.365   4.037   6.753 -1.7346 -0.6863 -1.1568
 1721SOL     OW16798   4.183   0.453   3.063  0.0396  0.3562 -0.1518
 1721SOL    HW116799   4.211   0.451   3.154 -1.8794  2.7554  0.4667
 1721SOL    HW216800   4.233   0.525   3.025  1.3309 -1.5537 -2.1254
 1722SOL     OW16801   1.558   3.554   6.478 -0.5814 -0.7850 -0.0601
 1722SOL    HW116802   1.577   3.493   6.550  0.4374  1.3314  1.4823
 1722SOL    HW216803   1.626   3.534   6.414 -1.3980  1.3621 -1.6130
 1723SOL     OW16804   0.551   0.150   9.002 -0.6052 -0.2893 -0.1431
 1723SOL    HW116805   0.477   0.114   9.050 -0.0837  0.4123  1.1903
 1723SOL    HW216806   0.600   0.182   9.078 -1.9790  3.1044 -0.6906
 1724SOL     OW16807   1.043   1.773   5.002 -0.1341  0.1979  0.0137
 1724SOL    HW116808   1.004   1.848   4.958  0.1586 -0.2686 -1.0375
 1724SOL    HW216809   1.114   1.820   5.046 -2.0720  0.7970  2.4869
 1725SOL     OW16810   2.832   2.218   0.022  0.5980 -0.1822  0.3192
 1725SOL    HW116811   2.765   2.198  17.697  0.7901  0.8994 -0.2274
 1725SOL    HW216812   2.916   2.193  17.724  1.1811  2.7987 -0.3560
 1726SOL     OW16813   0.072   2.114   4.406  0.2108  0.1079 -0.4917
 1726SOL    HW116814   0.109   2.055   4.471 -0.3174 -0.4131 -0.6643
 1726SOL    HW216815   4.733   2.157   4.448  0.6128 -0.6975  1.0277
 1727SOL     OW16816   1.161   2.805   7.445  0.2482 -0.1739 -0.0677
 1727SOL    HW116817   1.240   2.759   7.416 -0.1224 -1.1272  0.4040
 1727SOL    HW216818   1.101   2.760   7.385  0.0608 -1.9122  1.4119
 1728SOL     OW16819   1.834   0.261   2.737  0.0438 -0.7249  0.3884
 1728SOL    HW116820   1.858   0.353   2.751  3.0251 -1.6636  1.3681
 1728SOL    HW216821   1.839   0.247   2.643 -0.6749  1.7610 -0.0293
 1729SOL     OW16822   3.014   3.860  11.629  0.2076  0.2829 -0.6122
 1729SOL    HW116823   3.032   3.917  11.703  1.3385 -0.5881 -0.2162
 1729SOL    HW216824   3.096   3.812  11.617  0.3059  0.6112 -1.2305
 1730SOL     OW16825   2.928   3.012   4.004  0.7777 -0.0289  0.2769
 1730SOL    HW116826   2.972   2.929   4.023  0.5073  0.1757  1.7969
 1730SOL    HW216827   2.963   3.034   3.917  0.2965  2.0181  0.6038
 1731SOL     OW16828   2.120   2.191   9.969 -0.3669  0.5968  0.8229
 1731SOL    HW116829   2.199   2.241   9.951  1.1292 -2.0471  0.0880
 1731SOL    HW216830   2.113   2.194  10.065  0.3764 -3.3594  1.0160
 1732SOL     OW16831   3.704   0.105   9.957  0.5538  0.2138 -0.0137
 1732SOL    HW116832   3.628   0.156   9.929 -1.1052 -1.8949  0.6120
 1732SOL    HW216833   3.678   0.014   9.939 -0.8909  0.3884  1.2540
 1733SOL     OW16834   0.547   3.418   1.403  0.0313 -0.4295 -0.6706
 1733SOL    HW116835   0.607   3.478   1.359  0.0696  0.8446  1.1373
 1733SOL    HW216836   0.475   3.428   1.341 -2.2243  5.7535  2.9347
 1734SOL     OW16837   3.184   2.491   2.131  0.1563 -0.3355  0.2554
 1734SOL    HW116838   3.149   2.420   2.077  1.2198 -1.3597  0.9225
 1734SOL    HW216839   3.190   2.554   2.059 -0.1672 -0.4799  0.1005
 1735SOL     OW16840   1.752   0.499   6.492  0.0752 -0.0034  0.1235
 1735SOL    HW116841   1.832   0.513   6.441  0.9066  0.2596  1.4864
 1735SOL    HW216842   1.689   0.504   6.420 -0.2926 -0.7711  0.3947
 1736SOL     OW16843   1.732   2.700   7.899 -0.2292  0.3040  0.8216
 1736SOL    HW116844   1.814   2.702   7.850  0.1190  0.6446  1.4198
 1736SOL    HW216845   1.760   2.661   7.982 -2.0041 -0.6371  0.9785
 1737SOL     OW16846   3.421   2.483   4.188  0.1566  0.6096  0.2060
 1737SOL    HW116847   3.466   2.506   4.269  1.0792 -2.1862  0.4722
 1737SOL    HW216848   3.386   2.400   4.220  3.3655 -0.9861 -0.4500
 1738SOL     OW16849   1.301   3.376   9.790 -0.0978 -0.3885 -0.2910
 1738SOL    HW116850   1.248   3.422   9.724 -1.9016  0.3840  1.7084
 1738SOL    HW216851   1.274   3.288   9.762 -0.3983 -0.1710 -0.6972
 1739SOL     OW16852   1.079   3.267   6.889  0.5837  0.1822 -0.1717
 1739SOL    HW116853   1.046   3.180   6.868  0.1820  0.4031 -0.4597
 1739SOL    HW216854   1.024   3.320   6.831  0.9192 -1.5303 -2.0572
 1740SOL     OW16855   0.234   2.046  11.930 -0.2954  0.3106  0.4057
 1740SOL    HW116856   0.236   1.951  11.945  3.4952  0.3538  0.2203
 1740SOL    HW216857   0.257   2.062  11.839 -0.0998  1.4059  0.6551
 1741SOL     OW16858   4.192   3.277   2.102 -0.0774 -0.2697  0.1942
 1741SOL    HW116859   4.242   3.234   2.171  3.6897  0.6102 -1.9886
 1741SOL    HW216860   4.272   3.309   2.060 -0.8899  2.3793  0.7248
 1742SOL     OW16861   2.148   3.451   7.537  0.3770 -1.0137 -0.1864
 1742SOL    HW116862   2.164   3.356   7.533 -0.3211 -1.2193  1.7429
 1742SOL    HW216863   2.139   3.465   7.443  0.3145 -0.2576 -0.0643
 1743SOL     OW16864   4.054   1.051  10.591 -0.2717 -0.2016  0.4654
 1743SOL    HW116865   4.150   1.051  10.595 -0.2661 -1.2925  0.4605
 1743SOL    HW216866   4.037   1.093  10.675  1.9274 -1.0991  1.3633
 1744SOL     OW16867   1.110   3.868   6.393 -0.2716  0.4736  0.5139
 1744SOL    HW116868   1.189   3.824   6.424 -0.0054  0.7101  0.1756
 1744SOL    HW216869   1.042   3.832   6.449 -0.9873  1.1872  0.1130
 1745SOL     OW16870   2.396   0.456   1.866  0.2565 -0.1110 -0.4905
 1745SOL    HW116871   2.479   0.502   1.873 -0.1405  0.4875  0.2943
 1745SOL    HW216872   2.421   0.374   1.907 -0.7388 -0.2519 -0.1506
 1746SOL     OW16873   2.430   1.155   7.154 -0.5817 -0.1963  0.2255
 1746SOL    HW116874   2.489   1.080   7.151 -1.2502 -0.6879 -0.5139
 1746SOL    HW216875   2.361   1.126   7.095 -0.5665  0.3524 -0.0671
 1747SOL     OW16876   0.114   4.391   2.670 -0.9493  0.2647 -0.5541
 1747SOL    HW116877   0.116   4.404   2.575  1.1983  0.4655 -0.4809
 1747SOL    HW216878   0.023   4.362   2.679 -1.1467  0.5762 -1.5780
 1748SOL     OW16879   2.025   0.571   8.033  0.3707  0.7416 -0.3924
 1748SOL    HW116880   2.024   0.534   8.122  0.9522  1.0079 -0.2785
 1748SOL    HW216881   1.985   0.495   7.990  0.2639  0.3573  0.3899
 1749SOL     OW16882   3.325   2.320   8.223  0.0319  0.1046  0.1707
 1749SOL    HW116883   3.264   2.364   8.165  0.1593  0.8544  0.5967
 1749SOL    HW216884   3.343   2.395   8.280 -1.1875 -0.8286  1.7783
 1750SOL     OW16885   0.722   2.927   2.634 -0.0105  0.4949 -0.8548
 1750SOL    HW116886   0.631   2.895   2.633 -0.0995  0.5786  2.5202
 1750SOL    HW216887   0.749   2.878   2.557  0.2782  2.0960 -1.7625
 1751SOL     OW16888   2.262   1.347   2.427  0.4654 -0.3923  0.8640
 1751SOL    HW116889   2.238   1.428   2.473 -2.1053 -1.8634  2.0752
 1751SOL    HW216890   2.357   1.340   2.417  0.3514 -1.0472  0.3101
 1752SOL     OW16891   0.052   1.132   6.578  0.2124 -0.5783 -0.9994
 1752SOL    HW116892   0.032   1.045   6.614  2.1282 -0.0358  1.4137
 1752SOL    HW216893   4.713   1.181   6.615  0.8957  0.0842 -0.5037
 1753SOL     OW16894   2.868   2.410   9.748 -0.2925 -0.1394  0.0156
 1753SOL    HW116895   2.794   2.465   9.722 -0.5607 -0.5331 -0.0587
 1753SOL    HW216896   2.915   2.403   9.664  0.9021  0.0037  0.6744
 1754SOL     OW16897   4.131   3.196   8.407 -0.0136 -0.5566  0.0273
 1754SOL    HW116898   4.057   3.254   8.426 -1.6914 -1.4713 -3.7723
 1754SOL    HW216899   4.186   3.260   8.362  1.8550 -0.3915  2.5134
 1755SOL     OW16900   0.859   4.518  12.780 -0.1047  0.3590 -0.5635
 1755SOL    HW116901   0.894   4.511  12.691  0.8988 -0.4487 -0.0999
 1755SOL    HW216902   0.816   4.433  12.775 -0.1881  0.3881 -0.3480
 1756SOL     OW16903   1.717   3.113  15.462  0.2282  0.0043  0.6119
 1756SOL    HW116904   1.695   3.172  15.390  0.9242 -0.2398  0.2064
 1756SOL    HW216905   1.642   3.126  15.521  0.2611 -1.4559  0.9720
 1757SOL     OW16906   1.213   1.449  10.199  0.0075 -0.0092  0.2355
 1757SOL    HW116907   1.185   1.386  10.132  2.0246 -0.0765 -0.5255
 1757SOL    HW216908   1.279   1.395  10.242 -0.4232 -0.6434  0.0904
 1758SOL     OW16909   2.232   3.718   2.789 -0.1956 -0.6570 -0.2448
 1758SOL    HW116910   2.267   3.631   2.812  1.4527  0.4069  1.3399
 1758SOL    HW216911   2.215   3.750   2.878  0.8524 -3.5561  1.0013
 1759SOL     OW16912   4.131   3.234  11.589  0.7712 -0.1112 -0.5594
 1759SOL    HW116913   4.124   3.151  11.542  1.7104 -0.5984  0.1476
 1759SOL    HW216914   4.051   3.245  11.641  1.7645 -1.5571  1.3020
 1760SOL     OW16915   2.137   0.288   3.466  0.0064 -0.4588 -0.1067
 1760SOL    HW116916   2.222   0.327   3.446  0.0594 -1.5151 -1.9302
 1760SOL    HW216917   2.087   0.344   3.407  1.4164  1.9148  0.9321
 1761SOL     OW16918   3.972   3.352  12.044 -0.1636 -0.0875 -0.1964
 1761SOL    HW116919   3.983   3.431  11.991  2.2950 -0.7953 -0.7366
 1761SOL    HW216920   4.064   3.325  12.054 -0.3608 -0.2954  1.0861
 1762SOL     OW16921   2.734   2.716   2.562 -0.3532 -0.0338 -0.5932
 1762SOL    HW116922   2.801   2.674   2.508  2.0799  0.4578  2.0710
 1762SOL    HW216923   2.654   2.685   2.520 -0.7245 -0.4747  0.4664
 1763SOL     OW16924   3.050   0.553   4.751 -0.3467 -0.2996  0.2304
 1763SOL    HW116925   3.100   0.510   4.819 -0.7891  1.1818  1.4994
 1763SOL    HW216926   3.094   0.520   4.672 -0.2542 -0.6754  0.4423
 1764SOL     OW16927   1.881   2.556   6.791  0.1635 -0.2825 -0.4735
 1764SOL    HW116928   1.954   2.618   6.780 -1.7681  2.1163  0.1196
 1764SOL    HW216929   1.872   2.524   6.701  0.2040  1.4788 -1.1221
 1765SOL     OW16930   2.615   0.206   3.091  0.2695  0.2853  0.2456
 1765SOL    HW116931   2.684   0.245   3.036 -0.1461  1.0818  0.2908
 1765SOL    HW216932   2.542   0.205   3.029  0.7011  0.5521 -0.2715
 1766SOL     OW16933   4.332   0.534  11.387 -0.5755 -0.3572 -0.6483
 1766SOL    HW116934   4.410   0.495  11.427 -0.0958  1.3841  0.1073
 1766SOL    HW216935   4.300   0.466  11.328 -0.7289 -0.0057 -0.9744
 1767SOL     OW16936   3.336   2.928   6.103  0.0137 -0.2862 -0.8846
 1767SOL    HW116937   3.368   2.899   6.018  0.9467 -0.3907 -0.4975
 1767SOL    HW216938   3.245   2.898   6.103  0.5102 -1.7890  0.4475
 1768SOL     OW16939   4.324   0.177  17.630 -0.3367  0.0134  0.4122
 1768SOL    HW116940   4.244   0.229  17.637 -1.5058 -1.4891 -1.4550
 1768SOL    HW216941   4.380   0.230  17.686 -1.2055  0.1522  1.1478
 1769SOL     OW16942   3.697   1.451  13.572  0.6303  0.3585 -0.2826
 1769SOL    HW116943   3.741   1.481  13.651 -2.1719  0.0668  1.3995
 1769SOL    HW216944   3.609   1.488  13.577  0.6489  0.1599  1.3483
 1770SOL     OW16945   0.886   1.576   5.933  0.5753 -0.5503  0.7614
 1770SOL    HW116946   0.796   1.607   5.925  1.4423  1.0048 -3.1276
 1770SOL    HW216947   0.886   1.512   5.861  2.3401 -0.5135  0.7088
 1771SOL     OW16948   0.111   2.112   6.316  0.0080 -0.7071  0.6427
 1771SOL    HW116949   0.203   2.137   6.325  0.4706 -2.3433  0.3048
 1771SOL    HW216950   0.069   2.182   6.366  1.8785  0.5964  0.4023
 1772SOL     OW16951   2.633   2.930   6.513  0.7268  0.4412 -0.3771
 1772SOL    HW116952   2.631   2.975   6.429 -0.4663  1.7598  0.3727
 1772SOL    HW216953   2.725   2.902   6.510  1.3778  2.2683  2.9838
 1773SOL     OW16954   4.221   1.265   8.638  0.2595  0.5704 -0.4243
 1773SOL    HW116955   4.298   1.287   8.690 -2.1981  1.1251  2.9692
 1773SOL    HW216956   4.237   1.316   8.558  1.9658  0.3004 -0.2453
 1774SOL     OW16957   1.501   0.311   9.851 -0.7807 -0.6889  0.1380
 1774SOL    HW116958   1.520   0.330   9.943 -0.9010 -0.0257  0.0251
 1774SOL    HW216959   1.409   0.332   9.835  0.2109  3.2355 -0.3270
 1775SOL     OW16960   1.283   2.535   2.484  0.3354  0.0318 -0.5119
 1775SOL    HW116961   1.219   2.583   2.432  1.9500  1.9877 -0.7015
 1775SOL    HW216962   1.273   2.444   2.458 -1.7823 -0.1077  0.7932
 1776SOL     OW16963   0.795   0.184   2.597 -0.1004  0.3342 -0.1385
 1776SOL    HW116964   0.762   0.095   2.599  2.7228 -0.6672  2.9161
 1776SOL    HW216965   0.721   0.228   2.639 -0.5129 -0.3996 -0.1068
 1777SOL     OW16966   0.875   3.671   7.002  0.6522  0.6736  0.6249
 1777SOL    HW116967   0.918   3.691   7.085  0.6254 -1.0286  1.0553
 1777SOL    HW216968   0.797   3.721   7.027 -0.6336 -0.9173 -0.1756
 1778SOL     OW16969   1.917   3.026   4.407 -0.6733 -0.1961  0.0091
 1778SOL    HW116970   1.990   3.077   4.372 -0.3110 -1.3896 -0.9895
 1778SOL    HW216971   1.904   2.964   4.336 -0.5436 -1.1035  0.7613
 1779SOL     OW16972   3.739   1.489   2.620 -0.1465 -0.2883 -0.7719
 1779SOL    HW116973   3.771   1.400   2.602  0.8845  0.0465 -0.5728
 1779SOL    HW216974   3.819   1.533   2.592  0.4926 -1.4109 -0.7037
 1780SOL     OW16975   2.992   3.036   4.825 -0.3957 -0.5374 -0.1065
 1780SOL    HW116976   2.986   3.107   4.889 -1.5173  1.1280 -2.0648
 1780SOL    HW216977   3.036   3.086   4.756  0.2531  0.2874  0.9050
 1781SOL     OW16978   4.529   0.889  16.712  0.3853 -0.3215  0.3089
 1781SOL    HW116979   4.590   0.922  16.646  0.4765 -1.3553 -0.1234
 1781SOL    HW216980   4.588   0.839  16.768  1.8363  0.8078 -0.2194
 1782SOL     OW16981   1.637   4.269   5.279 -0.3349 -0.4471 -0.5515
 1782SOL    HW116982   1.643   4.298   5.370 -1.8835 -0.9955 -0.2809
 1782SOL    HW216983   1.577   4.339   5.252  0.8123  1.0658  0.8473
 1783SOL     OW16984   0.704   3.803   5.693 -0.2095 -0.2326  0.0724
 1783SOL    HW116985   0.703   3.710   5.719 -3.5293  0.3355  2.1173
 1783SOL    HW216986   0.792   3.836   5.710 -0.3225 -0.4070  0.9917
 1784SOL     OW16987   3.274   0.081   9.832  0.0197 -0.5186  0.4006
 1784SOL    HW116988   3.254   0.072   9.739 -2.0116 -0.7351  0.8564
 1784SOL    HW216989   3.221   0.007   9.864 -1.4858  1.3241  2.1848
 1785SOL     OW16990   1.420   3.680   8.640  0.4736  1.0213 -0.4736
 1785SOL    HW116991   1.387   3.645   8.722  3.8862 -0.7108  0.1801
 1785SOL    HW216992   1.351   3.733   8.601  1.2748  1.3282 -1.5054
 1786SOL     OW16993   0.807   4.253   3.404  0.5031 -0.4266 -0.4278
 1786SOL    HW116994   0.889   4.255   3.354  0.4000  0.4946 -0.5595
 1786SOL    HW216995   0.847   4.204   3.476  0.6059  1.5573  0.8560
 1787SOL     OW16996   2.888   1.473   6.503 -0.0914  0.6402  0.1555
 1787SOL    HW116997   2.983   1.474   6.513 -0.0484 -0.8668 -0.1263
 1787SOL    HW216998   2.877   1.471   6.407  0.6323  1.6657  0.0577
 1788SOL     OW16999   4.477   1.396   5.278 -0.3451 -0.0448  0.4615
 1788SOL    HW117000   4.556   1.445   5.302  0.7825 -2.8308  2.5655
 1788SOL    HW217001   4.519   1.313   5.254 -3.7745 -1.3092 -1.2160
 1789SOL     OW17002   1.693   1.086   8.743 -0.0796  0.1617  0.2751
 1789SOL    HW117003   1.642   1.041   8.676 -0.7591  1.4713 -0.0885
 1789SOL    HW217004   1.780   1.073   8.705 -0.0887 -0.2964  0.4149
 1790SOL     OW17005   0.260   1.670  10.683 -0.1177  0.1349 -0.1198
 1790SOL    HW117006   0.331   1.631  10.734  1.1482  1.3796 -0.9294
 1790SOL    HW217007   0.300   1.756  10.666  0.3307 -0.1267 -0.4017
 1791SOL     OW17008   0.628   1.489   0.528  0.8050  0.4138 -0.4734
 1791SOL    HW117009   0.607   1.577   0.498  0.7927  0.6529  0.2260
 1791SOL    HW217010   0.546   1.442   0.516  1.1304 -0.8642  2.2254
 1792SOL     OW17011   3.507   1.345   5.807 -0.1284  0.0189  0.1210
 1792SOL    HW117012   3.522   1.410   5.738  2.0393 -0.7835 -0.1748
 1792SOL    HW217013   3.526   1.400   5.883  1.3358 -3.4765  2.2724
 1793SOL     OW17014   2.093   1.976   8.874  0.4635  0.0116  0.2529
 1793SOL    HW117015   2.028   1.906   8.883  0.8833 -0.7016 -2.2543
 1793SOL    HW217016   2.165   1.932   8.829 -1.2431 -1.7923 -0.7104
 1794SOL     OW17017   2.491   0.033   1.422  0.4228 -0.1402 -0.2456
 1794SOL    HW117018   2.523   4.694   1.474  0.5175  1.2125  1.6088
 1794SOL    HW217019   2.564   0.060   1.367  0.3966  0.4875  0.0313
 1795SOL     OW17020   1.251   0.448   4.811  0.1021 -0.1854 -0.3902
 1795SOL    HW117021   1.257   0.354   4.796 -1.7693 -0.6478  1.7066
 1795SOL    HW217022   1.309   0.489   4.747 -0.0092 -2.7214 -2.1063
 1796SOL     OW17023   3.288   0.773   0.032 -0.2459  0.0483 -0.5498
 1796SOL    HW117024   3.245   0.833   0.093  2.1308 -0.3361  1.4649
 1796SOL    HW217025   3.247   0.798  17.689 -1.1348  2.1603  0.5397
 1797SOL     OW17026   1.078   1.250   4.558 -0.5425  0.5571 -0.1202
 1797SOL    HW117027   1.140   1.291   4.619  2.2296 -1.4919 -1.5666
 1797SOL    HW217028   1.105   1.285   4.473  0.5971  4.0188  1.6476
 1798SOL     OW17029   0.837   1.487  15.347 -0.7769  0.2109 -0.1761
 1798SOL    HW117030   0.926   1.454  15.359 -0.6941  0.7256  0.5540
 1798SOL    HW217031   0.864   1.568  15.304  1.5615 -0.0621  0.7879
 1799SOL     OW17032   4.625   1.246   8.630 -0.1657 -0.5733  0.0082
 1799SOL    HW117033   4.641   1.206   8.715 -0.9796 -0.3172  0.2749
 1799SOL    HW217034   4.604   1.173   8.571 -2.2152 -0.2356  0.3135
 1800SOL     OW17035   3.230   2.469   9.517 -0.0745 -0.1054  0.2312
 1800SOL    HW117036   3.172   2.528   9.565  0.0099  0.2987 -0.1665
 1800SOL    HW217037   3.293   2.531   9.481 -3.8481  4.6981  1.9992
 1801SOL     OW17038   0.681   3.136   5.365 -0.1951  0.3375  0.3728
 1801SOL    HW117039   0.646   3.119   5.453 -0.1326  2.7626  0.8541
 1801SOL    HW217040   0.600   3.153   5.318 -0.3620 -0.1923  0.4733
 1802SOL     OW17041   3.558   1.092   4.499  0.1749 -0.7228 -0.3981
 1802SOL    HW117042   3.503   1.016   4.477 -1.1448  0.3382 -0.7484
 1802SOL    HW217043   3.611   1.058   4.571 -0.0148 -2.0006 -0.8614
 1803SOL     OW17044   2.015   2.739  13.887  0.2510 -0.1552 -0.0725
 1803SOL    HW117045   2.042   2.828  13.864  2.5079 -0.7443  0.2943
 1803SOL    HW217046   1.990   2.714  13.798  1.7164 -1.0593 -0.2280
 1804SOL     OW17047   1.486   1.521  10.871  0.4651  0.0759  0.1725
 1804SOL    HW117048   1.405   1.546  10.826 -0.2209 -2.2901  0.1150
 1804SOL    HW217049   1.550   1.544  10.803  1.0712  1.0846  1.0873
 1805SOL     OW17050   2.551   4.043   8.223 -0.4792 -0.3062 -0.1716
 1805SOL    HW117051   2.474   4.006   8.179  0.6817 -0.0703 -2.4276
 1805SOL    HW217052   2.527   4.043   8.315 -0.8990  0.0629 -0.2806
 1806SOL     OW17053   2.297   0.828  17.602 -0.7474 -0.1384 -0.0300
 1806SOL    HW117054   2.219   0.852  17.651 -1.5183 -0.2013 -1.2146
 1806SOL    HW217055   2.266   0.740  17.582 -1.6366  0.5635 -1.7139
 1807SOL     OW17056   0.426   3.246   3.197 -0.1015  0.3098 -0.1004
 1807SOL    HW117057   0.370   3.323   3.212 -2.1100 -1.4736  1.6693
 1807SOL    HW217058   0.510   3.264   3.239  0.8950 -1.4652 -1.3316
 1808SOL     OW17059   4.014   3.413   5.653 -0.4842 -0.4023 -0.2013
 1808SOL    HW117060   3.994   3.320   5.665 -1.4988 -0.0150  1.1881
 1808SOL    HW217061   3.938   3.460   5.690 -0.0892  0.4288 -0.4357
 1809SOL     OW17062   2.877   0.774   4.542  0.4363 -0.0411  0.2362
 1809SOL    HW117063   2.906   0.708   4.604  0.8942  0.0784  0.1530
 1809SOL    HW217064   2.878   0.728   4.458  0.0747 -0.2142  0.3291
 1810SOL     OW17065   4.459   0.856   5.310  0.4197  0.4064 -0.1224
 1810SOL    HW117066   4.460   0.790   5.379 -2.2838  0.6812  0.1774
 1810SOL    HW217067   4.540   0.828   5.268  2.1813  1.4703  2.5784
 1811SOL     OW17068   2.219   4.477   1.514  0.0432 -0.0719 -0.2732
 1811SOL    HW117069   2.198   4.524   1.434 -0.2194 -2.1084 -1.4009
 1811SOL    HW217070   2.225   4.550   1.575 -0.4735 -0.3233  0.0751
 1812SOL     OW17071   1.234   4.253   1.574 -0.0889  0.1549  0.6079
 1812SOL    HW117072   1.191   4.195   1.511  2.3153 -0.5027 -0.4371
 1812SOL    HW217073   1.249   4.194   1.648 -0.3761 -1.1666 -0.3909
 1813SOL     OW17074   0.523   0.398   8.124 -0.0560 -0.2010  0.8068
 1813SOL    HW117075   0.523   0.377   8.031  0.7349 -0.8016  0.9398
 1813SOL    HW217076   0.440   0.446   8.128 -0.7077 -1.1332 -1.2532
 1814SOL     OW17077   2.731   1.860   3.274  0.3512  0.1381 -0.0353
 1814SOL    HW117078   2.685   1.925   3.220  2.2802 -0.6070 -2.5826
 1814SOL    HW217079   2.761   1.805   3.202  2.0507  0.2528  0.5962
 1815SOL     OW17080   4.017   2.288  12.738 -0.3988 -0.2542  0.5005
 1815SOL    HW117081   3.953   2.297  12.667  0.5700  0.1166 -0.3238
 1815SOL    HW217082   4.094   2.335  12.707 -1.5367  1.6547  0.5215
 1816SOL     OW17083   0.718   0.113   8.225  0.8635  0.0522  0.3435
 1816SOL    HW117084   0.626   0.118   8.253  0.6377  0.2791 -0.4252
 1816SOL    HW217085   0.710   0.029   8.180  1.1116  0.8423 -1.2010
 1817SOL     OW17086   1.397   4.286   3.878  0.1658 -0.2250 -1.1528
 1817SOL    HW117087   1.346   4.367   3.891  0.0002 -0.1280 -2.4109
 1817SOL    HW217088   1.346   4.233   3.816 -1.7908  0.2896  0.0068
 1818SOL     OW17089   3.981   1.715  11.648  0.4278  0.3574  0.1897
 1818SOL    HW117090   4.026   1.634  11.625  0.4946  0.3017  0.5178
 1818SOL    HW217091   3.895   1.700  11.607  0.6121  3.2187 -1.1885
 1819SOL     OW17092   2.787   4.406   6.738 -0.1755 -0.1390  0.0998
 1819SOL    HW117093   2.746   4.418   6.652  0.3823 -2.3370 -0.4650
 1819SOL    HW217094   2.846   4.332   6.726  0.3158  0.0334  1.4392
 1820SOL     OW17095   1.734   4.285   2.386 -1.0441  0.0122  0.2496
 1820SOL    HW117096   1.802   4.220   2.372 -0.4515  0.9628 -1.2537
 1820SOL    HW217097   1.717   4.269   2.479  0.0933  1.3123  0.6796
 1821SOL     OW17098   0.937   3.214   5.450 -0.1511 -0.5680  0.2198
 1821SOL    HW117099   0.842   3.214   5.445 -0.1881  0.2057  0.9012
 1821SOL    HW217100   0.932   3.239   5.542 -0.1392  0.2762 -0.0127
 1822SOL     OW17101   2.328   1.269  12.247 -0.0930  0.5679  0.6275
 1822SOL    HW117102   2.327   1.364  12.231  0.2581  0.9307  2.8122
 1822SOL    HW217103   2.317   1.268  12.342  2.9975 -0.7837  0.9908
 1823SOL     OW17104   3.415   0.355  14.427  0.3465 -0.2774 -0.2716
 1823SOL    HW117105   3.493   0.410  14.424 -0.1417  0.3596 -1.0758
 1823SOL    HW217106   3.360   0.388  14.498  1.1704 -0.4052  0.4209
 1824SOL     OW17107   4.729   3.091   7.535  0.4023 -0.9739 -0.5432
 1824SOL    HW117108   0.070   3.089   7.476  1.7947  2.5445  1.1634
 1824SOL    HW217109   0.041   3.098   7.618 -1.7078  0.4262  0.5364
 1825SOL     OW17110   0.952   4.241   4.549  0.1489 -0.5827  0.4525
 1825SOL    HW117111   0.976   4.182   4.478 -0.0107 -1.0423  0.7804
 1825SOL    HW217112   0.859   4.224   4.562 -0.2202  0.0066 -1.4074
 1826SOL     OW17113   2.201   1.229   3.712 -0.2296 -1.4566 -0.5761
 1826SOL    HW117114   2.228   1.153   3.660 -1.1062  0.1316 -3.3271
 1826SOL    HW217115   2.219   1.308   3.662 -0.1008 -1.2475 -0.1966
 1827SOL     OW17116   4.006   2.820   8.674  0.1317  0.3668  0.3128
 1827SOL    HW117117   4.011   2.895   8.733 -0.7580  1.5030 -1.0199
 1827SOL    HW217118   4.033   2.741   8.720 -1.0267 -0.9359 -1.2197
 1828SOL     OW17119   4.310   2.906   3.902 -0.0383 -0.4127  0.1397
 1828SOL    HW117120   4.355   2.882   3.821  1.0094  2.9615 -0.2661
 1828SOL    HW217121   4.253   2.829   3.912 -0.2689 -0.2212  0.3246
 1829SOL     OW17122   3.348   0.086   1.520  0.5479 -0.1526  0.1457
 1829SOL    HW117123   3.440   0.062   1.525  0.6123  0.0119 -0.3044
 1829SOL    HW217124   3.351   0.131   1.436  1.4343  1.6730  1.1646
 1830SOL     OW17125   2.765   0.023   3.377  0.3998  0.8041 -0.4310
 1830SOL    HW117126   2.773   0.118   3.365 -0.9002  0.6562 -2.5280
 1830SOL    HW217127   2.834   0.005   3.440 -1.0422  0.6901  1.1237
 1831SOL     OW17128   1.280   1.132   1.822 -0.5229 -0.1092 -0.2120
 1831SOL    HW117129   1.337   1.083   1.880 -2.8466 -1.2275  1.1112
 1831SOL    HW217130   1.269   1.220   1.858  1.6076  0.3922 -0.7789
 1832SOL     OW17131   1.741   4.031   3.310 -0.1128  0.0092 -0.5034
 1832SOL    HW117132   1.687   3.953   3.297 -2.6433  1.9557 -1.6135
 1832SOL    HW217133   1.828   3.992   3.323 -0.5280 -0.6976  0.2020
 1833SOL     OW17134   1.159   4.638   7.102 -0.3986  0.6226 -0.9483
 1833SOL    HW117135   1.099   4.634   7.027 -0.5301  0.4237 -0.8337
 1833SOL    HW217136   1.096   4.666   7.169  0.8301 -0.7644  0.7760
 1834SOL     OW17137   3.020   3.341   3.037 -0.3494 -0.2835  0.1823
 1834SOL    HW117138   2.974   3.295   2.967  0.8582  3.1778 -2.9340
 1834SOL    HW217139   2.984   3.281   3.102 -0.4892  0.0688  0.4324
 1835SOL     OW17140   0.889   0.413   9.272  0.4620  0.3384 -0.1898
 1835SOL    HW117141   0.971   0.401   9.319  1.4120 -2.8201 -2.6760
 1835SOL    HW217142   0.832   0.456   9.337 -2.2108  0.8162 -2.8344
 1836SOL     OW17143   2.923   2.775   2.110 -0.4361  0.4957 -0.2236
 1836SOL    HW117144   2.923   2.850   2.169 -1.3552  0.7048 -0.4881
 1836SOL    HW217145   3.001   2.798   2.059  2.3520  0.1334  3.8894
 1837SOL     OW17146   4.298   0.875   1.744 -0.2297  0.3810  0.1190
 1837SOL    HW117147   4.225   0.853   1.686  0.4948 -0.4204 -0.4886
 1837SOL    HW217148   4.259   0.939   1.804 -1.1502 -0.5126  0.4889
 1838SOL     OW17149   0.633   3.733  14.571  0.0407 -0.2214 -0.3718
 1838SOL    HW117150   0.538   3.725  14.559 -0.1485  1.0558  0.2488
 1838SOL    HW217151   0.646   3.721  14.665  1.3534 -1.0100 -0.6612
 1839SOL     OW17152   1.507   1.201   5.003  0.4267 -0.3199 -0.3504
 1839SOL    HW117153   1.549   1.285   5.023  1.9406 -1.1163 -0.1877
 1839SOL    HW217154   1.520   1.200   4.908  0.2962  1.4788 -0.3909
 1840SOL     OW17155   0.976   4.024   7.756 -0.7139 -0.1580  0.0431
 1840SOL    HW117156   1.002   4.116   7.768 -0.7304 -0.2233  0.5580
 1840SOL    HW217157   1.062   3.998   7.722 -0.4020 -1.2815  1.7189
 1841SOL     OW17158   2.016   1.665   2.998 -0.1661  0.3240 -0.0499
 1841SOL    HW117159   2.029   1.577   2.963 -2.5000  0.5419 -1.5052
 1841SOL    HW217160   1.921   1.675   2.989  0.2055  2.7314 -1.4861
 1842SOL     OW17161   2.582   2.111   6.470 -0.4226  0.2169 -0.0014
 1842SOL    HW117162   2.530   2.081   6.395  0.4950 -0.9631 -0.1807
 1842SOL    HW217163   2.638   2.034   6.484 -0.8741  0.5493  3.6151
 1843SOL     OW17164   3.029   2.770   1.726 -0.0766 -0.0490  0.1862
 1843SOL    HW117165   2.967   2.842   1.738 -0.7625 -0.5723 -0.2317
 1843SOL    HW217166   2.979   2.700   1.767  1.5619 -1.1666  0.2655
 1844SOL     OW17167   1.066   0.694   1.349 -0.3386 -1.0883  0.2733
 1844SOL    HW117168   0.974   0.717   1.362 -0.6366 -1.3618 -1.2753
 1844SOL    HW217169   1.091   0.688   1.441 -1.3911 -0.8160  0.5835
 1845SOL     OW17170   3.816   4.314   5.002  0.3676 -0.3454 -0.3046
 1845SOL    HW117171   3.899   4.358   5.018  0.6259 -0.8164 -0.3585
 1845SOL    HW217172   3.769   4.389   4.966  1.2089  0.8341  1.0629
 1846SOL     OW17173   2.380   3.487   1.314 -0.1778 -0.2842 -0.0776
 1846SOL    HW117174   2.362   3.578   1.293 -4.6402 -1.9639 -3.5553
 1846SOL    HW217175   2.345   3.468   1.401 -0.2616  2.8390  0.5583
 1847SOL     OW17176   2.783   1.027   5.973 -0.2230  0.7677  0.2540
 1847SOL    HW117177   2.868   1.065   5.995  1.2524 -1.3786 -1.7294
 1847SOL    HW217178   2.737   1.110   5.958  2.8846  1.9789 -2.7608
 1848SOL     OW17179   4.286   2.288   7.451 -0.3339  0.4002  0.1146
 1848SOL    HW117180   4.331   2.269   7.533  1.0099 -1.2141 -1.0123
 1848SOL    HW217181   4.355   2.309   7.389 -0.0228 -0.0885  0.2969
 1849SOL     OW17182   3.644   0.161  17.380 -0.5968  0.1164 -0.7297
 1849SOL    HW117183   3.565   0.214  17.388  0.0831  0.8777  0.8747
 1849SOL    HW217184   3.599   0.101  17.319  1.6152 -0.6765 -1.5760
 1850SOL     OW17185   2.692   3.275  11.737 -0.4070 -0.2667  0.1723
 1850SOL    HW117186   2.701   3.180  11.728  1.5143 -0.0003 -0.6551
 1850SOL    HW217187   2.627   3.285  11.807 -1.5742  0.7838 -1.0651
 1851SOL     OW17188   1.222   0.372   2.699 -0.3258  0.4715  0.0512
 1851SOL    HW117189   1.180   0.324   2.628  1.0385  0.7951 -0.9795
 1851SOL    HW217190   1.291   0.407   2.643 -0.5765 -2.4802 -2.0755
 1852SOL     OW17191   2.632   3.551   2.189  0.3698  0.2517  0.1282
 1852SOL    HW117192   2.655   3.506   2.270  1.6175  1.2542  0.3340
 1852SOL    HW217193   2.591   3.628   2.227  0.2122 -0.6540  1.7900
 1853SOL     OW17194   3.987   0.108   9.959  0.0756 -0.0531  0.1815
 1853SOL    HW117195   3.892   0.105   9.945 -0.0016 -1.8191  1.0555
 1853SOL    HW217196   4.018   0.017   9.959  1.2161  0.3393  0.4943
 1854SOL     OW17197   0.685   1.204   8.291  0.2970 -0.5453  0.2324
 1854SOL    HW117198   0.686   1.205   8.195  0.8430  0.9012  0.2530
 1854SOL    HW217199   0.597   1.233   8.313  1.0734 -0.3694  3.1681
 1855SOL     OW17200   4.293   1.573  14.622  0.4248 -0.0880  0.0388
 1855SOL    HW117201   4.298   1.523  14.703  1.2239  2.3807  1.5001
 1855SOL    HW217202   4.363   1.533  14.570 -0.2475 -0.2270 -0.7676
 1856SOL     OW17203   3.103   1.126   1.979 -0.1566 -0.0851  0.0658
 1856SOL    HW117204   3.129   1.047   2.026 -1.9195 -0.0106  1.1583
 1856SOL    HW217205   3.093   1.180   2.058 -0.7044 -0.0546 -0.0245
 1857SOL     OW17206   3.578   3.935   9.437  0.0527 -0.9778 -0.4311
 1857SOL    HW117207   3.523   3.909   9.511 -0.0545  0.0841 -0.1365
 1857SOL    HW217208   3.584   3.856   9.383  2.7991 -1.0970  0.0207
 1858SOL     OW17209   4.333   1.809   6.702 -0.0689  0.6588 -0.6082
 1858SOL    HW117210   4.311   1.790   6.793  1.1223  1.8759 -0.0545
 1858SOL    HW217211   4.394   1.881   6.718  1.9171 -1.4030  1.0050
 1859SOL     OW17212   4.643   2.632   8.590  1.0049 -0.2499 -0.1682
 1859SOL    HW117213   4.554   2.664   8.603  0.6180 -1.0470 -0.8921
 1859SOL    HW217214   4.682   2.675   8.514  0.6526  2.9070  1.4750
 1860SOL     OW17215   1.019   2.522  16.962 -0.0982 -0.5744  0.0890
 1860SOL    HW117216   0.963   2.551  17.034 -1.1580 -1.5760 -0.3372
 1860SOL    HW217217   1.105   2.560  16.979 -0.2673  0.5514 -1.5480
 1861SOL     OW17218   2.456   1.474   5.271  0.5453  0.2177  0.0429
 1861SOL    HW117219   2.421   1.522   5.196 -1.2821 -0.4818  0.4379
 1861SOL    HW217220   2.516   1.414   5.228  2.7167  0.9409  2.0995
 1862SOL     OW17221   1.580   3.417  15.948 -0.0697 -0.5802 -0.5158
 1862SOL    HW117222   1.549   3.355  16.014 -1.8073  1.8365  0.9617
 1862SOL    HW217223   1.644   3.372  15.894  0.7672 -0.5381  0.4553
 1863SOL     OW17224   0.027   3.271   1.674 -0.4351 -0.6025  0.1807
 1863SOL    HW117225   0.054   3.220   1.598  0.6351  0.5319 -0.2023
 1863SOL    HW217226   0.019   3.354   1.627 -2.2167  0.5038  2.4527
 1864SOL     OW17227   0.285   2.654   4.008 -0.7885 -0.4095 -0.6154
 1864SOL    HW117228   0.278   2.636   4.102  1.0997  2.1493  0.0255
 1864SOL    HW217229   0.207   2.608   3.977 -0.5056 -0.8928 -0.6260
 1865SOL     OW17230   2.402   2.443  17.626 -0.2035  0.5833 -0.3841
 1865SOL    HW117231   2.427   2.408  17.540 -0.5479  1.1662 -0.7237
 1865SOL    HW217232   2.381   2.363  17.673  1.2136  0.8289  0.6457
 1866SOL     OW17233   0.920   0.575  10.102  0.2154  0.5748 -0.6050
 1866SOL    HW117234   0.912   0.491  10.059  0.5796  1.1558 -1.8014
 1866SOL    HW217235   0.908   0.546  10.192 -0.5416 -0.8215 -1.1650
 1867SOL     OW17236   3.341   2.770  10.993  0.1242 -0.2612 -0.3972
 1867SOL    HW117237   3.265   2.812  11.034  1.9833 -0.6009  3.3988
 1867SOL    HW217238   3.396   2.845  10.972 -0.8330  0.7783  0.8172
 1868SOL     OW17239   0.884   1.387   6.130  0.0475  0.0871  0.3127
 1868SOL    HW117240   0.887   1.471   6.085  1.1236 -0.0229  0.1811
 1868SOL    HW217241   0.793   1.390   6.161  0.0054  0.4285  0.1504
 1869SOL     OW17242   0.506   0.160   4.930  0.0612 -0.3091 -0.2289
 1869SOL    HW117243   0.508   0.171   4.835  0.5420  0.8925 -0.0806
 1869SOL    HW217244   0.428   0.106   4.938  0.7618 -0.9847  1.8672
 1870SOL     OW17245   0.232   0.288  17.510 -0.2792  0.7802 -0.2156
 1870SOL    HW117246   0.229   0.223  17.440  0.8999 -1.4080  1.7505
 1870SOL    HW217247   0.226   0.229  17.585  3.0869  1.4825  0.5885
 1871SOL     OW17248   2.014   1.672   0.702  0.6160 -0.0112  0.6949
 1871SOL    HW117249   2.048   1.586   0.679 -0.9107 -0.6848  0.9577
 1871SOL    HW217250   2.059   1.719   0.632  0.0669 -1.9962 -0.9954
 1872SOL     OW17251   3.704   2.182   4.700  0.1759 -0.4848  0.3296
 1872SOL    HW117252   3.683   2.185   4.793  1.4195 -0.0853  0.6021
 1872SOL    HW217253   3.735   2.271   4.684  1.3575 -1.0588 -0.5797
 1873SOL     OW17254   3.411   2.010   4.153  0.1795 -0.0935  0.0630
 1873SOL    HW117255   3.507   2.009   4.156  0.1982 -0.7986 -0.7146
 1873SOL    HW217256   3.393   2.099   4.184 -0.5638  0.1227 -0.9899
 1874SOL     OW17257   3.728   2.171   7.267 -0.1071 -0.3165  0.5106
 1874SOL    HW117258   3.762   2.149   7.180  1.8683  0.8682  0.9970
 1874SOL    HW217259   3.636   2.147   7.254 -0.3281  0.6246  0.3353
 1875SOL     OW17260   2.113   3.379   9.343 -0.2950 -0.0145 -0.5252
 1875SOL    HW117261   2.081   3.296   9.379  1.6876  0.6483  2.7742
 1875SOL    HW217262   2.044   3.401   9.281 -0.3952 -1.6764 -1.0300
 1876SOL     OW17263   0.129   1.874  17.198  0.2426 -0.0723 -0.5140
 1876SOL    HW117264   0.189   1.881  17.124 -1.3856  0.4539 -1.7825
 1876SOL    HW217265   0.193   1.852  17.266  0.0988  0.4440 -0.2145
 1877SOL     OW17266   1.196   2.666   3.717 -0.5738 -0.2777 -0.3716
 1877SOL    HW117267   1.157   2.583   3.745 -0.9711 -0.1793 -0.6429
 1877SOL    HW217268   1.162   2.730   3.778 -0.5063 -1.1193  0.5495
 1878SOL     OW17269   2.286   0.655   4.719  0.3936  0.0773  0.4010
 1878SOL    HW117270   2.321   0.587   4.661  1.4090  1.6523 -0.8444
 1878SOL    HW217271   2.363   0.710   4.729 -0.5724  1.5502 -0.3751
 1879SOL     OW17272   2.466   3.055  12.005  0.0487  0.5707  0.0871
 1879SOL    HW117273   2.379   3.053  11.965 -0.1161  1.2040  0.4204
 1879SOL    HW217274   2.433   3.051  12.095 -2.6803 -0.2595 -0.9389
 1880SOL     OW17275   0.892   0.495  15.507  0.1639 -0.4820 -0.2986
 1880SOL    HW117276   0.867   0.537  15.589  3.0460  1.6060 -0.5208
 1880SOL    HW217277   0.811   0.445  15.494 -0.3585  0.5792 -1.1353
 1881SOL     OW17278   2.583   0.711   8.012  0.0245 -0.0004 -0.5766
 1881SOL    HW117279   2.657   0.753   8.054 -0.8308  2.6715 -1.7162
 1881SOL    HW217280   2.558   0.649   8.081  1.3974 -0.7254 -0.7415
 1882SOL     OW17281   2.322   2.078   9.347 -0.2181 -0.2538  0.4106
 1882SOL    HW117282   2.259   2.048   9.281  0.6290 -0.5891 -0.2486
 1882SOL    HW217283   2.362   2.147   9.294  2.1470 -1.7492  0.2482
 1883SOL     OW17284   2.048   1.781   0.182 -0.2391 -0.5178  0.3038
 1883SOL    HW117285   2.043   1.876   0.185 -0.8076 -0.5063 -1.3780
 1883SOL    HW217286   2.126   1.760   0.130  0.1570 -2.2333  1.5934
 1884SOL     OW17287   3.336   3.089  16.088  0.5225  0.0246  0.5369
 1884SOL    HW117288   3.273   3.131  16.146 -0.0887  0.7797 -0.6816
 1884SOL    HW217289   3.399   3.160  16.075 -1.1975  1.7714  1.9398
 1885SOL     OW17290   1.172   1.783   8.546  0.1889 -0.3451  0.4095
 1885SOL    HW117291   1.186   1.700   8.501 -2.4153 -0.8289  0.5229
 1885SOL    HW217292   1.099   1.770   8.606 -0.9245  2.4621 -0.3033
 1886SOL     OW17293   0.677   3.611  14.811 -0.2006 -0.0243 -0.1356
 1886SOL    HW117294   0.747   3.559  14.850 -1.5783 -1.7849  0.0137
 1886SOL    HW217295   0.597   3.563  14.832  0.3148 -0.3014  1.1986
 1887SOL     OW17296   0.705   0.308  10.251 -0.0912 -0.3251  0.5995
 1887SOL    HW117297   0.627   0.360  10.230 -0.1138 -1.1544 -1.3761
 1887SOL    HW217298   0.688   0.230  10.304  2.7941 -1.6826 -0.4722
 1888SOL     OW17299   2.349   3.576   4.473 -0.6091 -0.5077  0.0742
 1888SOL    HW117300   2.279   3.616   4.525 -2.0032 -1.4196 -1.1101
 1888SOL    HW217301   2.360   3.500   4.530  1.5910 -0.0905  0.1851
 1889SOL     OW17302   1.940   2.358   1.935 -0.7301 -0.0838 -0.2884
 1889SOL    HW117303   1.959   2.276   1.981  1.3801  0.5827  0.0099
 1889SOL    HW217304   1.853   2.355   1.896 -0.3357 -1.3390 -1.0888
 1890SOL     OW17305   2.390   1.117  16.816 -0.2943  0.1769  0.9417
 1890SOL    HW117306   2.441   1.069  16.881  0.8571  1.3334  0.8887
 1890SOL    HW217307   2.332   1.158  16.881 -0.4324  0.4421  0.6521
 1891SOL     OW17308   2.588   0.340   3.836 -0.0978  0.2460 -0.0044
 1891SOL    HW117309   2.637   0.421   3.829  0.7876 -0.4624 -2.2636
 1891SOL    HW217310   2.566   0.330   3.743 -2.2450 -0.8141  0.6016
 1892SOL     OW17311   2.278   0.198  11.187  0.2711  0.2690 -0.0408
 1892SOL    HW117312   2.299   0.272  11.244 -0.9821 -0.2708  1.1432
 1892SOL    HW217313   2.284   0.121  11.243 -1.2350  0.8546  0.9435
 1893SOL     OW17314   0.333   2.982   8.578 -0.9381  0.2713 -0.1595
 1893SOL    HW117315   0.304   3.071   8.598 -1.4899 -0.2649  1.4977
 1893SOL    HW217316   0.424   2.985   8.610 -1.0289  3.2120 -0.1998
 1894SOL     OW17317   0.984   0.626   7.598  0.3295 -0.2748  0.3984
 1894SOL    HW117318   1.011   0.650   7.510 -0.9593  0.5231  0.2164
 1894SOL    HW217319   1.063   0.651   7.647  0.4267  1.4556 -0.6252
 1895SOL     OW17320   4.698   4.541  16.761 -0.1618 -0.1179 -0.2222
 1895SOL    HW117321   4.696   4.625  16.807  1.4204  0.0714 -0.5036
 1895SOL    HW217322   4.608   4.526  16.732  1.1428 -2.1590 -3.2212
 1896SOL     OW17323   4.244   2.836   7.447  0.2875 -0.1823 -0.3750
 1896SOL    HW117324   4.274   2.754   7.486 -0.1557 -0.3862 -0.4635
 1896SOL    HW217325   4.315   2.899   7.462  0.0189  0.2335 -0.8388
 1897SOL     OW17326   0.824   3.112   2.247 -0.0487 -0.1141  0.1431
 1897SOL    HW117327   0.739   3.084   2.213 -0.4174 -0.3697  1.2659
 1897SOL    HW217328   0.790   3.152   2.327  0.6264  0.3688  0.1936
 1898SOL     OW17329   1.022   1.372  12.275 -0.1854 -0.2555  0.0309
 1898SOL    HW117330   0.977   1.310  12.333 -0.9366  1.5936  1.4158
 1898SOL    HW217331   1.028   1.448  12.333  0.3980 -0.5628  0.3825
 1899SOL     OW17332   2.133   2.143   2.122 -0.4078 -0.9785  0.4709
 1899SOL    HW117333   2.202   2.151   2.057 -2.1032  1.0150 -1.0607
 1899SOL    HW217334   2.182   2.166   2.201 -0.4122 -0.4158  0.3085
 1900SOL     OW17335   3.836   0.561   3.922 -0.0709  0.1531 -0.5407
 1900SOL    HW117336   3.847   0.642   3.873 -3.2845  1.8856  1.5606
 1900SOL    HW217337   3.761   0.586   3.977  2.8227  2.7911  2.2090
 1901SOL     OW17338   4.508   2.895   4.231 -0.4894 -0.5220 -0.3255
 1901SOL    HW117339   4.591   2.853   4.209 -0.1775 -1.0209  1.8364
 1901SOL    HW217340   4.518   2.982   4.192 -0.8011 -1.0982 -1.6749
 1902SOL     OW17341   3.111   1.565  10.337  0.0389  0.1627 -0.1465
 1902SOL    HW117342   3.042   1.609  10.287 -0.5346  1.5854  1.8939
 1902SOL    HW217343   3.144   1.491  10.286 -1.0500 -0.6279  0.2867
 1903SOL     OW17344   2.204   0.794   6.955  0.2765 -0.4322 -0.2501
 1903SOL    HW117345   2.204   0.792   6.860 -2.0023  0.5212 -0.2817
 1903SOL    HW217346   2.296   0.820   6.954  0.0103  0.5132 -0.2870
 1904SOL     OW17347   4.715   3.746   1.535 -0.0948  0.3574  0.4459
 1904SOL    HW117348   0.073   3.731   1.527  0.0793  1.9804 -0.5258
 1904SOL    HW217349   4.704   3.754   1.630  0.4631 -5.4049  1.0296
 1905SOL     OW17350   1.960   2.696  11.022  0.4701  0.1393  0.7696
 1905SOL    HW117351   2.042   2.647  11.023  0.1898 -0.3397 -1.5877
 1905SOL    HW217352   1.996   2.779  10.992 -2.2755  1.4041  0.9299
 1906SOL     OW17353   0.872   1.711   5.224 -0.1033 -0.9143 -0.1623
 1906SOL    HW117354   0.878   1.699   5.129  0.1323 -3.5470  0.1783
 1906SOL    HW217355   0.932   1.785   5.231 -1.4398  0.2141 -0.5620
 1907SOL     OW17356   2.733   2.723   5.057  0.2531  0.3795  0.1072
 1907SOL    HW117357   2.668   2.793   5.053 -1.1863 -0.9542 -0.0227
 1907SOL    HW217358   2.749   2.712   5.150  0.2284 -0.2852  0.0382
 1908SOL     OW17359   4.493   1.434   3.208 -0.4919  0.5569  0.2017
 1908SOL    HW117360   4.440   1.421   3.286 -1.3581  1.2653 -0.2741
 1908SOL    HW217361   4.552   1.359   3.213  0.7277  1.5586  1.0154
 1909SOL     OW17362   4.568   0.797  16.176 -0.1684 -0.4737  0.7818
 1909SOL    HW117363   4.585   0.813  16.083 -2.9435  2.2384  0.7385
 1909SOL    HW217364   4.645   0.749  16.208 -0.5514 -2.0074 -0.5921
 1910SOL     OW17365   4.219   0.559   1.467  1.1149  0.1617  0.2182
 1910SOL    HW117366   4.225   0.501   1.543  3.3676 -0.8503 -0.7306
 1910SOL    HW217367   4.306   0.545   1.430  1.5998 -0.7343  1.6882
 1911SOL     OW17368   4.531   0.670   8.442  0.0196  0.3009  0.5082
 1911SOL    HW117369   4.454   0.709   8.399  1.1303  1.9817  0.0272
 1911SOL    HW217370   4.498   0.583   8.463  1.6465 -0.6021 -0.6987
 1912SOL     OW17371   2.944   3.782   5.749  0.0146  0.5761  0.1987
 1912SOL    HW117372   3.016   3.802   5.690 -0.5447 -1.1815 -1.0801
 1912SOL    HW217373   2.946   3.688   5.763  2.5255  0.7986  1.3375
 1913SOL     OW17374   2.549   3.808   4.965  0.3162  0.0483 -0.3633
 1913SOL    HW117375   2.481   3.857   5.011  1.3529  0.9860  0.1754
 1913SOL    HW217376   2.596   3.885   4.935  0.2466 -0.2869 -1.3147
 1914SOL     OW17377   4.534   1.094   6.964 -0.0835 -0.1451 -0.8549
 1914SOL    HW117378   4.566   1.146   7.038 -3.0210 -0.3505  0.5985
 1914SOL    HW217379   4.556   1.148   6.889  0.7448  2.6027  1.3563
 1915SOL     OW17380   3.910   0.418   6.388 -0.0368 -0.1718 -0.6765
 1915SOL    HW117381   3.828   0.468   6.393 -2.4350 -4.2265  0.2948
 1915SOL    HW217382   3.923   0.398   6.296  2.6993 -2.5669  0.2252
 1916SOL     OW17383   1.532   4.366  14.863 -0.1043 -0.2750 -0.4118
 1916SOL    HW117384   1.515   4.273  14.878  0.4087 -0.4312 -0.8197
 1916SOL    HW217385   1.499   4.408  14.942  0.2066  1.2377 -1.0806
 1917SOL     OW17386   2.609   2.993   2.534  0.3003 -0.0203  0.0444
 1917SOL    HW117387   2.569   2.984   2.447 -2.3138 -0.3720  1.2880
 1917SOL    HW217388   2.691   2.945   2.522  1.4186  1.6789  0.9762
 1918SOL     OW17389   3.948   1.043   5.179  0.0320  0.0373 -0.4603
 1918SOL    HW117390   3.971   1.036   5.086 -1.6744  0.2066 -0.8828
 1918SOL    HW217391   4.030   1.088   5.202 -0.8438  2.0689 -1.2718
 1919SOL     OW17392   1.099   1.217   3.221  0.4651  0.6911 -0.4887
 1919SOL    HW117393   1.013   1.221   3.179  0.6000 -0.7351 -0.9039
 1919SOL    HW217394   1.153   1.198   3.144  0.2662 -1.7987 -0.0235
 1920SOL     OW17395   4.404   2.175   3.911  0.5116 -0.1213 -0.1743
 1920SOL    HW117396   4.372   2.165   3.822  0.1042  4.0424 -0.4522
 1920SOL    HW217397   4.340   2.123   3.960  0.4968 -0.0819 -0.1519
 1921SOL     OW17398   1.671   2.937   6.943  0.0506  0.4690 -0.4092
 1921SOL    HW117399   1.669   2.843   6.926  0.4592  0.4157 -0.1730
 1921SOL    HW217400   1.754   2.944   6.990 -0.6364 -2.6507  1.2701
 1922SOL     OW17401   0.344   2.179   4.761  0.2838  0.1739  0.0304
 1922SOL    HW117402   0.360   2.269   4.734  0.4847  0.2812  0.4963
 1922SOL    HW217403   0.415   2.162   4.822 -0.0256 -1.2578  0.0076
 1923SOL     OW17404   1.149   3.275   3.227 -0.0426  0.2280  0.3118
 1923SOL    HW117405   1.185   3.187   3.232 -2.0491 -0.4925  1.9692
 1923SOL    HW217406   1.122   3.266   3.135 -1.0986  1.0119  0.5488
 1924SOL     OW17407   1.519   1.642   9.826  0.4276  0.1263  0.3888
 1924SOL    HW117408   1.445   1.669   9.772 -0.1402  1.4411  1.8154
 1924SOL    HW217409   1.473   1.597   9.897  0.6652 -0.8839 -0.1018
 1925SOL     OW17410   2.306   1.650   8.357  0.0320 -0.0714  0.2491
 1925SOL    HW117411   2.381   1.703   8.327  1.2040 -1.7945  0.1373
 1925SOL    HW217412   2.288   1.590   8.286 -0.3818  0.3347  0.0115
 1926SOL     OW17413   3.720   3.104   1.632 -0.2444 -0.0915  0.2621
 1926SOL    HW117414   3.778   3.167   1.675  0.4825 -1.1912  0.8852
 1926SOL    HW217415   3.636   3.142   1.659  0.4853  1.2753  0.6472
 1927SOL     OW17416   1.897   2.251   6.715 -0.3005 -0.5282 -0.6029
 1927SOL    HW117417   1.910   2.220   6.804  0.9546  1.1513 -0.2021
 1927SOL    HW217418   1.802   2.262   6.719 -0.1273  1.4481 -1.5287
 1928SOL     OW17419   0.455   4.313   1.767  0.1166 -0.0632  0.0594
 1928SOL    HW117420   0.417   4.385   1.817 -0.7835  0.1031 -0.8637
 1928SOL    HW217421   0.469   4.242   1.830 -0.8481 -2.3420 -2.2917
 1929SOL     OW17422   2.176   1.827   5.058 -0.7964  0.4636  0.2119
 1929SOL    HW117423   2.246   1.877   5.101 -0.3736  0.9949 -1.0940
 1929SOL    HW217424   2.137   1.901   5.012 -2.3942 -1.0729 -0.9211
 1930SOL     OW17425   2.459   3.565   9.844  0.1986  0.3102  0.3022
 1930SOL    HW117426   2.513   3.591   9.919  0.0373  0.5384  0.3418
 1930SOL    HW217427   2.389   3.631   9.848  1.1407  1.3009  0.6197
 1931SOL     OW17428   4.662   3.643   4.020 -0.0655 -0.5608  0.3212
 1931SOL    HW117429   4.588   3.584   4.034 -1.0745  0.3033 -1.3104
 1931SOL    HW217430   4.627   3.693   3.946  1.3968  0.8307  0.5991
 1932SOL     OW17431   1.578   1.292  10.048  0.0693 -0.1034 -0.4053
 1932SOL    HW117432   1.513   1.361  10.058  0.3022 -0.1091  1.0735
 1932SOL    HW217433   1.531   1.210  10.064  0.6653 -0.7408 -1.8804
 1933SOL     OW17434   1.640   1.317   6.911 -0.1757 -0.1035  1.0609
 1933SOL    HW117435   1.584   1.240   6.912 -1.0522  0.5296  0.0253
 1933SOL    HW217436   1.699   1.283   6.978  1.2722  2.8654  1.2854
 1934SOL     OW17437   4.211   4.600   7.712  0.2960  0.1882  0.0727
 1934SOL    HW117438   4.127   4.577   7.671  0.0148  1.5529 -0.1225
 1934SOL    HW217439   4.246   4.511   7.708  0.4173  0.2902 -1.0131
 1935SOL     OW17440   3.609   1.817  12.230  0.2253  0.1748 -0.3855
 1935SOL    HW117441   3.611   1.728  12.194 -0.6527  0.2113 -0.5177
 1935SOL    HW217442   3.529   1.812  12.282 -0.5152  1.7446 -1.3740
 1936SOL     OW17443   2.747   0.040   2.789 -0.1856  0.2663 -0.4144
 1936SOL    HW117444   2.747   0.078   2.701  0.6752  1.5173  0.1256
 1936SOL    HW217445   2.733   0.118   2.841 -0.2912  0.1436 -0.2580
 1937SOL     OW17446   4.165   0.027   8.812  0.2733 -0.3130  0.0590
 1937SOL    HW117447   4.210   4.714   8.882  0.2740 -2.2038 -1.2549
 1937SOL    HW217448   4.078   4.722   8.803 -0.6745  1.6604  0.3070
 1938SOL     OW17449   2.931   4.066  13.359 -0.3258  0.2392  0.8490
 1938SOL    HW117450   2.939   4.008  13.434 -1.2078  0.0434  0.7881
 1938SOL    HW217451   2.927   4.005  13.285 -0.4027  2.1354 -0.7286
 1939SOL     OW17452   2.420   1.513  12.118  0.5985 -0.3948  0.4801
 1939SOL    HW117453   2.473   1.591  12.102  0.8094 -0.3795  1.2998
 1939SOL    HW217454   2.387   1.495  12.030  0.2408 -0.4670  0.6313
 1940SOL     OW17455   4.323   4.104   3.703  0.8710  0.5802  0.2529
 1940SOL    HW117456   4.282   4.063   3.626  1.3424  0.9520 -0.1951
 1940SOL    HW217457   4.246   4.090   3.759  0.7787 -3.9159 -1.0057
 1941SOL     OW17458   0.598   3.789   7.695 -0.0872 -0.2013  0.5835
 1941SOL    HW117459   0.680   3.831   7.720  0.3632 -0.3307 -0.6633
 1941SOL    HW217460   0.524   3.842   7.723 -0.8896 -0.4238 -1.1240
 1942SOL     OW17461   0.667   2.871   6.841 -0.1622 -0.1534 -0.4486
 1942SOL    HW117462   0.671   2.959   6.805 -0.5687  0.8533  1.9367
 1942SOL    HW217463   0.594   2.876   6.904  1.1254 -0.9360  1.1184
 1943SOL     OW17464   0.129   1.034  16.500 -0.1111 -0.3700  0.3843
 1943SOL    HW117465   0.162   0.946  16.480 -1.4589 -1.1155  1.3649
 1943SOL    HW217466   0.039   1.023  16.469  0.7052 -1.1930 -1.6979
 1944SOL     OW17467   2.269   0.465   2.779  0.0664  0.0301 -0.6790
 1944SOL    HW117468   2.202   0.442   2.843  0.1926 -0.2847 -0.6602
 1944SOL    HW217469   2.235   0.439   2.693 -0.6830  1.3810 -0.7841
 1945SOL     OW17470   2.176   0.018   4.889  0.2953  0.5039 -0.0243
 1945SOL    HW117471   2.128   4.688   4.940 -2.9358  0.3353 -3.3303
 1945SOL    HW217472   2.221   4.691   4.831  2.3558  1.6850  0.2785
 1946SOL     OW17473   4.731   0.696   2.190 -0.4872 -0.1103 -0.3699
 1946SOL    HW117474   4.644   0.723   2.161 -0.2785 -1.2053 -2.0249
 1946SOL    HW217475   0.019   0.631   2.124  1.4399  0.1529  0.0318
 1947SOL     OW17476   0.167   2.843   5.987  0.4763 -0.0862  0.0515
 1947SOL    HW117477   0.159   2.804   5.901  0.8544 -1.2818  0.5602
 1947SOL    HW217478   0.261   2.841   6.004  0.0698  1.8770  2.6666
 1948SOL     OW17479   4.164   3.623   8.396  0.6287 -0.2758 -0.2506
 1948SOL    HW117480   4.237   3.608   8.335 -0.0596 -1.1103 -0.8579
 1948SOL    HW217481   4.102   3.665   8.336  2.2640  1.7017 -0.5906
 1949SOL     OW17482   0.663   2.284  10.947  0.1627  0.8993 -0.1531
 1949SOL    HW117483   0.657   2.283  11.043 -1.9617  0.5374 -0.2962
 1949SOL    HW217484   0.756   2.307  10.939  0.3781 -0.1741 -0.6552
 1950SOL     OW17485   1.634   3.512   7.084  0.2715 -0.1501 -0.1345
 1950SOL    HW117486   1.580   3.468   7.018 -0.4986 -0.3132  0.5975
 1950SOL    HW217487   1.628   3.601   7.050 -0.1203 -0.3862 -0.6932
 1951SOL     OW17488   4.424   1.999   5.094 -0.0965  0.5884 -0.3668
 1951SOL    HW117489   4.389   2.085   5.119  1.6589  1.5185 -1.1357
 1951SOL    HW217490   4.348   1.949   5.064 -0.1363 -0.6022  1.6683
 1952SOL     OW17491   0.643   1.466  16.335 -0.0935 -0.5627  0.2273
 1952SOL    HW117492   0.568   1.410  16.312 -0.4200 -0.0113 -0.0439
 1952SOL    HW217493   0.603   1.547  16.302 -1.4299 -1.4775 -0.4085
 1953SOL     OW17494   1.401   3.392  11.710  0.7058 -0.1106 -0.0328
 1953SOL    HW117495   1.363   3.454  11.772  2.1310  0.2000  0.5351
 1953SOL    HW217496   1.392   3.443  11.629 -0.0650 -0.8123 -0.3977
 1954SOL     OW17497   2.892   0.184  11.464  0.2317 -0.3386  0.0831
 1954SOL    HW117498   2.941   0.260  11.430 -0.1693 -0.4191 -0.6727
 1954SOL    HW217499   2.956   0.141  11.520 -0.6887 -2.0488 -0.1954
 1955SOL     OW17500   2.359   1.729   1.252  0.1808  0.5132  0.7856
 1955SOL    HW117501   2.267   1.718   1.278 -0.3511  1.8181 -0.6145
 1955SOL    HW217502   2.408   1.668   1.308  0.2741 -1.1842 -1.1562
 1956SOL     OW17503   1.670   4.715   0.524  0.2928  0.0360  0.0018
 1956SOL    HW117504   1.602   4.685   0.465  1.7407  0.2657 -1.7744
 1956SOL    HW217505   1.713   0.055   0.482  1.2556  0.3042  1.4328
 1957SOL     OW17506   1.813   2.772   5.221  1.3303  0.1678 -0.0400
 1957SOL    HW117507   1.837   2.816   5.140  0.6346  0.1918 -0.2359
 1957SOL    HW217508   1.886   2.710   5.221  2.1153  1.0937  0.0657
 1958SOL     OW17509   0.954   2.747  14.822  0.1362 -0.3206 -0.1962
 1958SOL    HW117510   0.990   2.765  14.735  2.4875  0.6078  0.9616
 1958SOL    HW217511   0.859   2.752  14.814  0.0813 -1.3087 -0.1061
 1959SOL     OW17512   3.416   1.550   4.760 -0.4446 -0.1279  0.2900
 1959SOL    HW117513   3.466   1.483   4.712  0.3563  0.5831  0.1205
 1959SOL    HW217514   3.364   1.495   4.819 -1.2441  0.1526 -0.1658
 1960SOL     OW17515   1.863   2.164   8.646 -0.5914 -0.4966  0.0366
 1960SOL    HW117516   1.904   2.115   8.575 -1.7654  0.3369 -1.2267
 1960SOL    HW217517   1.902   2.126   8.724 -2.4467  1.9484  2.1591
 1961SOL     OW17518   4.268   1.546   6.585  0.5126  0.0677 -0.7958
 1961SOL    HW117519   4.228   1.612   6.642 -0.4973 -0.1578 -1.2311
 1961SOL    HW217520   4.345   1.597   6.560 -0.2237  1.6059  0.0672
 1962SOL     OW17521   1.609   0.881   5.165  0.4347 -0.0023 -0.0137
 1962SOL    HW117522   1.636   0.909   5.077  1.0960 -0.1311  0.1481
 1962SOL    HW217523   1.560   0.800   5.149  2.6062 -0.9905 -1.6971
 1963SOL     OW17524   2.264   3.631  15.516 -0.2029 -0.5030  0.2764
 1963SOL    HW117525   2.286   3.561  15.578 -2.0799  1.1088  2.7780
 1963SOL    HW217526   2.309   3.614  15.433 -1.3069  0.6861 -0.5681
 1964SOL     OW17527   1.279   3.087   0.752  0.1322 -0.0376 -0.0288
 1964SOL    HW117528   1.325   3.044   0.824 -0.7179  1.9690  1.7350
 1964SOL    HW217529   1.187   3.068   0.770  0.0090  0.1024 -0.5060
 1965SOL     OW17530   2.405   1.927  16.666  0.6462  0.3999  0.9712
 1965SOL    HW117531   2.481   1.930  16.607  0.0792  0.5891  0.2586
 1965SOL    HW217532   2.354   1.996  16.625 -0.3788  0.1659  1.8644
 1966SOL     OW17533   2.665   1.026  12.417  0.3301  0.0368 -0.4516
 1966SOL    HW117534   2.591   1.009  12.475  0.8018 -0.0278  0.1215
 1966SOL    HW217535   2.733   1.019  12.483 -0.1030 -2.5735 -0.2972
 1967SOL     OW17536   1.112   0.599  13.781 -0.1491  0.3648  0.1293
 1967SOL    HW117537   1.116   0.521  13.837 -1.6639  1.5080  1.8494
 1967SOL    HW217538   1.191   0.581  13.730 -0.6733 -0.9078 -0.2192
 1968SOL     OW17539   0.030   3.253  13.337  0.5726 -0.2595 -0.0145
 1968SOL    HW117540   4.673   3.229  13.349  0.3846 -1.2289 -3.3454
 1968SOL    HW217541   0.062   3.178  13.287 -0.4609 -1.1800  0.7000
 1969SOL     OW17542   3.913   1.682   8.329 -0.1695  0.0610  0.0927
 1969SOL    HW117543   3.874   1.747   8.387  0.9161  2.3124 -1.6706
 1969SOL    HW217544   3.833   1.634   8.308 -1.3475  1.3985  1.5634
 1970SOL     OW17545   4.156   3.336   2.529  0.1169  0.1518  0.1380
 1970SOL    HW117546   4.153   3.423   2.570 -2.8133  0.6440 -1.0992
 1970SOL    HW217547   4.167   3.281   2.607  0.7837 -0.8865 -0.7024
 1971SOL     OW17548   3.512   2.716  17.328 -0.1033 -0.1648  0.0056
 1971SOL    HW117549   3.503   2.781  17.258  0.9462 -0.1291 -0.0948
 1971SOL    HW217550   3.582   2.758  17.379  2.1505 -2.2911 -1.2937
 1972SOL     OW17551   2.916   0.708   1.351 -1.1875  0.3981  0.7371
 1972SOL    HW117552   2.877   0.734   1.434  1.2057 -1.2168  2.3624
 1972SOL    HW217553   2.848   0.710   1.284 -0.2247  2.1448 -0.1845
 1973SOL     OW17554   3.827   1.229   1.597  0.3378 -0.0396 -0.0509
 1973SOL    HW117555   3.870   1.310   1.625 -0.6783  0.9401 -1.3150
 1973SOL    HW217556   3.905   1.175   1.580  0.8706  0.6317  0.2706
 1974SOL     OW17557   3.259   4.223   6.266  0.0536  0.1572  0.2575
 1974SOL    HW117558   3.270   4.130   6.244 -0.7198 -0.0389  0.6937
 1974SOL    HW217559   3.209   4.237   6.186 -0.1110  1.2213  0.5542
 1975SOL     OW17560   1.174   2.238  16.607  0.1613 -0.1444  0.1439
 1975SOL    HW117561   1.125   2.266  16.684 -0.8939 -0.6881 -0.3352
 1975SOL    HW217562   1.115   2.168  16.580  0.2187 -1.1005  2.5507
 1976SOL     OW17563   1.587   0.948   6.302 -0.1555  0.4748  0.4421
 1976SOL    HW117564   1.679   0.924   6.315 -0.9329 -2.9740 -0.4390
 1976SOL    HW217565   1.572   0.902   6.220 -0.4739  0.8521  0.2890
 1977SOL     OW17566   4.652   0.392   4.365  0.4214 -0.0602 -0.4377
 1977SOL    HW117567   4.730   0.370   4.417 -0.9063 -0.0381  1.5292
 1977SOL    HW217568   4.692   0.408   4.279 -1.2481 -0.1426 -1.2189
 1978SOL     OW17569   2.588   2.049   0.231  0.2626 -0.1135  0.0006
 1978SOL    HW117570   2.681   2.040   0.210  0.3904  1.2327 -0.0016
 1978SOL    HW217571   2.543   2.042   0.147  1.6923 -1.7012 -0.6423
 1979SOL     OW17572   3.197   1.207   7.366  0.0755 -0.1996 -0.1541
 1979SOL    HW117573   3.206   1.302   7.361 -0.2485 -0.0636  1.5334
 1979SOL    HW217574   3.186   1.201   7.461 -0.6269  0.6807 -0.1772
 1980SOL     OW17575   1.930   0.802  16.934 -0.7302 -0.1803  0.5444
 1980SOL    HW117576   1.867   0.804  17.006 -0.5106  1.7582  0.6619
 1980SOL    HW217577   1.970   0.888  16.947 -0.2551 -0.6739  2.4104
 1981SOL     OW17578   1.806   2.739   8.917 -0.5342  0.2716  0.1627
 1981SOL    HW117579   1.712   2.722   8.926 -0.0915 -1.4828  1.5602
 1981SOL    HW217580   1.830   2.694   8.998  2.4705  1.0893 -0.2768
 1982SOL     OW17581   4.692   2.144  15.187  0.3237  0.8466  0.0239
 1982SOL    HW117582   4.618   2.204  15.179  1.3718  2.1153 -0.2103
 1982SOL    HW217583   4.657   2.064  15.225 -0.7341  0.6795 -1.2855
 1983SOL     OW17584   3.396   2.963   4.068  0.4671  0.5746 -0.0832
 1983SOL    HW117585   3.398   2.891   4.005 -0.3395 -0.2925  0.8923
 1983SOL    HW217586   3.487   2.981   4.091  1.3802 -0.8308 -2.5267
 1984SOL     OW17587   2.501   2.817   9.380 -0.4643 -0.1503 -0.6441
 1984SOL    HW117588   2.557   2.894   9.375 -0.0259 -0.5361 -1.9099
 1984SOL    HW217589   2.431   2.838   9.318  0.5357  0.2883 -1.6173
 1985SOL     OW17590   1.333   0.057   9.496  0.1799 -0.0086  0.1322
 1985SOL    HW117591   1.258   4.733   9.481 -1.8933  2.8326 -0.7682
 1985SOL    HW217592   1.352   0.088   9.407  1.5606 -2.1331 -0.3065
 1986SOL     OW17593   1.758   0.994   9.910 -0.0413 -0.1642 -0.1560
 1986SOL    HW117594   1.721   0.991   9.999  0.8074 -2.8020  0.1260
 1986SOL    HW217595   1.762   1.090   9.907  1.5159 -0.2267  0.0076
 1987SOL     OW17596   2.634   3.585   4.383  0.6629  0.3244 -0.0724
 1987SOL    HW117597   2.541   3.605   4.399  1.1908  1.5834  1.4717
 1987SOL    HW217598   2.621   3.491   4.373  1.1545  0.0220  2.0821
 1988SOL     OW17599   2.189   1.065   7.346 -0.4440 -0.7389  0.4369
 1988SOL    HW117600   2.249   0.990   7.346  0.5652  0.0910 -0.4470
 1988SOL    HW217601   2.208   1.090   7.256  0.1674 -0.1161  0.7436
 1989SOL     OW17602   3.119   3.399   8.901 -0.0809 -0.4913  0.3934
 1989SOL    HW117603   3.049   3.378   8.963 -1.3805 -0.4548 -1.0486
 1989SOL    HW217604   3.199   3.380   8.951  0.1047  1.2358  0.7567
 1990SOL     OW17605   0.070   0.591  13.327 -0.5411  0.4207 -0.9852
 1990SOL    HW117606   0.153   0.545  13.312 -0.7925 -0.9663  2.0227
 1990SOL    HW217607   0.054   0.639  13.245 -1.0224  0.3001 -0.9625
 1991SOL     OW17608   0.714   2.204  12.519 -0.3809  0.2584 -0.4708
 1991SOL    HW117609   0.652   2.252  12.574  2.5801  3.2113  0.2523
 1991SOL    HW217610   0.682   2.114  12.511  0.8274 -0.1974 -0.1255
 1992SOL     OW17611   2.107   2.052   9.175  0.4334 -0.1153 -0.5986
 1992SOL    HW117612   2.059   1.993   9.116 -1.3650  1.4825 -0.7296
 1992SOL    HW217613   2.061   2.041   9.258 -0.2111 -2.5629 -1.2621
 1993SOL     OW17614   4.033   1.662  17.123 -0.0234 -0.2557 -0.4882
 1993SOL    HW117615   3.995   1.596  17.182 -0.5321  1.2980  0.9379
 1993SOL    HW217616   3.957   1.681  17.068  1.1517 -0.7387 -2.2849
 1994SOL     OW17617   3.213   4.094   2.313 -0.4272  0.0961  0.3487
 1994SOL    HW117618   3.180   4.080   2.402 -0.2346  0.9283  0.5503
 1994SOL    HW217619   3.129   4.081   2.269 -1.3449  0.0861  2.0691
 1995SOL     OW17620   0.753   3.441  16.800  0.1542 -0.4160 -0.5247
 1995SOL    HW117621   0.781   3.360  16.843 -0.9501  0.1812  1.3049
 1995SOL    HW217622   0.696   3.414  16.728 -1.9001  0.7990  0.6414
 1996SOL     OW17623   1.095   1.349   9.536 -0.3691 -0.3351 -0.4081
 1996SOL    HW117624   1.124   1.273   9.585  0.6001  0.6531  0.5463
 1996SOL    HW217625   1.036   1.385   9.603  0.3028  0.7104 -0.3766
 1997SOL     OW17626   0.538   4.074   8.437  0.2855 -0.4599 -0.4140
 1997SOL    HW117627   0.510   3.985   8.457  1.1300 -0.9445 -1.3240
 1997SOL    HW217628   0.590   4.100   8.513  0.1703 -2.6878  0.4333
 1998SOL     OW17629   2.947   3.454   2.079 -0.1442 -0.3530  0.0131
 1998SOL    HW117630   2.933   3.457   2.173 -2.2189  1.5577 -0.3678
 1998SOL    HW217631   3.041   3.473   2.080  0.1303 -1.6800 -0.0896
 1999SOL     OW17632   0.805   2.186  10.443 -0.2294  0.1334  0.6387
 1999SOL    HW117633   0.824   2.279  10.458 -0.3077 -0.1294  2.3094
 1999SOL    HW217634   0.711   2.186  10.462 -0.2690 -0.2959  0.4215
 2000SOL     OW17635   0.637   3.837   6.543 -0.0244  0.0743 -0.1865
 2000SOL    HW117636   0.645   3.910   6.605 -0.0596 -1.4460  1.6080
 2000SOL    HW217637   0.564   3.789   6.582  0.3342 -0.3779 -0.0785
 2001SOL     OW17638   2.689   2.288  10.879 -0.8908  0.4509  0.1400
 2001SOL    HW117639   2.622   2.331  10.826 -0.8702  0.4581  0.1197
 2001SOL    HW217640   2.760   2.353  10.883  0.5408 -1.0972  0.1315
 2002SOL     OW17641   3.807   0.825   0.640  0.4390  0.0107  0.9988
 2002SOL    HW117642   3.777   0.915   0.633  0.6272  0.0178  0.2434
 2002SOL    HW217643   3.840   0.839   0.729 -0.6043  0.1218  1.3748
 2003SOL     OW17644   2.702   4.086   5.213 -0.1199 -0.1374 -0.5453
 2003SOL    HW117645   2.673   4.163   5.163  0.9812 -0.6232 -1.9217
 2003SOL    HW217646   2.714   4.023   5.141 -1.4442 -1.1158  0.0930
 2004SOL     OW17647   2.950   3.419   5.522 -0.0432  0.5416  0.4290
 2004SOL    HW117648   2.877   3.474   5.493 -1.4175 -0.9068  1.1459
 2004SOL    HW217649   3.010   3.487   5.554  0.5303 -0.0931  0.6946
 2005SOL     OW17650   2.475   3.216   2.653  0.9519 -0.2618  0.6061
 2005SOL    HW117651   2.508   3.219   2.743  0.2292 -2.9481  0.9574
 2005SOL    HW217652   2.506   3.131   2.622 -0.7896 -0.4424 -0.6539
 2006SOL     OW17653   1.815   3.672   5.584 -0.0830 -0.3307 -0.6640
 2006SOL    HW117654   1.782   3.750   5.539 -0.9211  0.7811  1.8889
 2006SOL    HW217655   1.902   3.669   5.545  0.1570 -2.5452  0.0388
 2007SOL     OW17656   2.934   1.094   6.497 -0.3824  0.0403 -0.1568
 2007SOL    HW117657   2.938   1.059   6.408  0.2460  0.0225 -0.1232
 2007SOL    HW217658   2.989   1.028   6.540  0.8854  1.6192  0.6865
 2008SOL     OW17659   3.757   0.512  14.007  0.0722 -0.0423 -0.2429
 2008SOL    HW117660   3.786   0.421  14.010 -2.7956 -0.9907 -2.4096
 2008SOL    HW217661   3.679   0.503  13.954 -0.1324 -0.0162  0.0547
 2009SOL     OW17662   4.001   0.936  17.274 -0.2860  0.2658  0.1126
 2009SOL    HW117663   4.086   0.966  17.244 -0.8172  0.6711 -0.9755
 2009SOL    HW217664   4.023   0.843  17.286  2.1911  0.9110  0.4672
 2010SOL     OW17665   0.518   4.620   5.079 -0.5800  0.3906  0.5363
 2010SOL    HW117666   0.441   4.570   5.050  0.9768 -1.7735  0.1250
 2010SOL    HW217667   0.581   4.561   5.036 -2.3141  0.1167 -1.6679
 2011SOL     OW17668   1.742   3.866   6.203 -0.4460 -0.4745 -0.2826
 2011SOL    HW117669   1.827   3.869   6.246  0.3414 -1.5644 -1.8104
 2011SOL    HW217670   1.719   3.773   6.201 -1.8376 -0.1180 -1.3042
 2012SOL     OW17671   4.005   1.032   1.507  0.7651  0.0319  0.2046
 2012SOL    HW117672   4.064   0.985   1.566 -0.2028 -0.7154  0.5908
 2012SOL    HW217673   3.964   0.962   1.456 -0.2062  0.5326  0.3095
 2013SOL     OW17674   2.622   3.887  17.028  0.4681 -0.2938 -0.1232
 2013SOL    HW117675   2.680   3.813  17.046  1.0231  1.0561  3.5728
 2013SOL    HW217676   2.680   3.958  17.056  2.0373 -0.9652 -1.6468
 2014SOL     OW17677   0.734   2.859   8.853 -0.0842 -0.1404 -0.0384
 2014SOL    HW117678   0.817   2.846   8.808  0.1883 -0.9735  0.7156
 2014SOL    HW217679   0.682   2.872   8.773  0.4272  0.6802 -0.2431
 2015SOL     OW17680   2.581   1.690  13.071 -0.2344 -0.4940  0.0702
 2015SOL    HW117681   2.523   1.732  13.007  1.0368 -0.1291 -0.8426
 2015SOL    HW217682   2.531   1.608  13.066 -1.1946  0.0325  0.9508
 2016SOL     OW17683   2.305   2.661   8.047  0.2966  0.2521 -0.1645
 2016SOL    HW117684   2.281   2.569   8.034 -0.7740  0.2562  1.7683
 2016SOL    HW217685   2.287   2.662   8.141  1.6356  1.2186  0.0894
 2017SOL     OW17686   2.576   2.087   3.215  0.1696 -0.2637  0.1645
 2017SOL    HW117687   2.549   2.007   3.170 -1.0946  0.4575 -0.3452
 2017SOL    HW217688   2.597   2.146   3.143  0.5273  0.4039  0.8040
 2018SOL     OW17689   3.477   0.396   2.009 -0.4320 -0.1985 -0.0999
 2018SOL    HW117690   3.433   0.363   1.930 -1.2069  0.9329 -0.1387
 2018SOL    HW217691   3.485   0.310   2.052 -1.8346 -0.3472 -0.1323
 2019SOL     OW17692   1.815   4.597   0.263  0.3427  0.2311 -0.0035
 2019SOL    HW117693   1.736   4.643   0.292 -0.0641 -0.6433  0.2681
 2019SOL    HW217694   1.815   4.518   0.317 -1.5564  2.0791  2.7229
 2020SOL     OW17695   0.241   3.843   3.107  0.4585 -0.5821 -0.8022
 2020SOL    HW117696   0.249   3.813   3.198  0.8471 -1.1768 -1.0397
 2020SOL    HW217697   0.334   3.855   3.087  0.7367 -0.3428  0.6022
 2021SOL     OW17698   0.847   1.381   5.750 -0.1256  0.2916 -0.5300
 2021SOL    HW117699   0.836   1.307   5.810  1.4749  2.2101  2.1445
 2021SOL    HW217700   0.813   1.333   5.674  1.1058 -1.1314 -0.1776
 2022SOL     OW17701   3.651   3.087   3.399 -0.3321 -0.6272 -0.1236
 2022SOL    HW117702   3.591   3.106   3.327 -0.1743  1.2085  0.2327
 2022SOL    HW217703   3.687   3.003   3.372  0.7202  0.2268 -1.3313
 2023SOL     OW17704   0.713   3.912   4.465  0.7194 -0.2758  0.1231
 2023SOL    HW117705   0.760   3.850   4.411  0.0324 -1.5499  0.9841
 2023SOL    HW217706   0.667   3.965   4.400  1.3006  1.7731  1.3854
 2024SOL     OW17707   2.649   0.418   8.915  0.1848  0.1460 -0.2720
 2024SOL    HW117708   2.607   0.332   8.916  0.4691  0.0142  0.1062
 2024SOL    HW217709   2.573   0.476   8.921  2.1306  2.5714  0.5882
 2025SOL     OW17710   2.072   2.551   7.688 -0.0931  0.4814  0.4134
 2025SOL    HW117711   2.008   2.484   7.712 -1.1432  1.0742 -0.7811
 2025SOL    HW217712   2.094   2.526   7.598 -0.6972  2.7254 -0.3514
 2026SOL     OW17713   3.152   2.575   5.368 -0.1523  0.2779 -0.1326
 2026SOL    HW117714   3.233   2.548   5.412  0.0290 -0.2517 -0.7743
 2026SOL    HW217715   3.164   2.538   5.280  1.6670  0.1243  0.1798
 2027SOL     OW17716   3.906   2.409  14.561  0.2018  0.5540  0.5035
 2027SOL    HW117717   3.950   2.478  14.511 -0.8063  1.1514  0.4370
 2027SOL    HW217718   3.934   2.429  14.651 -2.3523  1.8266  1.0105
 2028SOL     OW17719   1.331   0.240   7.874 -0.6745  0.7744 -0.0172
 2028SOL    HW117720   1.294   0.154   7.852  0.3680  0.6912 -1.4518
 2028SOL    HW217721   1.345   0.234   7.968 -2.4345 -0.8114  0.1514
 2029SOL     OW17722   0.058   0.405  17.186 -0.7312 -0.4575  0.3264
 2029SOL    HW117723   0.057   0.453  17.269 -0.2047 -1.0387  0.6724
 2029SOL    HW217724   0.004   0.332  17.216  2.3482 -2.4146  1.0995
 2030SOL     OW17725   1.265   0.909   4.821  0.4343  0.2061 -0.1769
 2030SOL    HW117726   1.231   0.983   4.872 -3.1181 -1.4295 -0.1587
 2030SOL    HW217727   1.316   0.957   4.755  0.7270 -0.7371 -0.6317
 2031SOL     OW17728   1.840   0.516   5.084  0.2652 -0.2611  0.4992
 2031SOL    HW117729   1.769   0.493   5.025 -0.3699 -1.5957  1.7874
 2031SOL    HW217730   1.916   0.474   5.044  1.6030  0.5551  2.1679
 2032SOL     OW17731   3.700   1.803  13.955 -0.0954  0.0216  0.1016
 2032SOL    HW117732   3.686   1.829  14.047 -0.0731 -1.3536  0.4942
 2032SOL    HW217733   3.794   1.816  13.943  0.2648 -0.5823  2.2041
 2033SOL     OW17734   0.418   3.212  15.165  0.1167  0.6480 -0.1250
 2033SOL    HW117735   0.475   3.162  15.107  3.1667  0.7317  2.7661
 2033SOL    HW217736   0.464   3.216  15.249 -2.5231  1.2179  1.3103
 2034SOL     OW17737   1.543   2.274  15.402 -0.0969  0.1072 -0.2737
 2034SOL    HW117738   1.488   2.256  15.326  2.3353 -1.0762 -1.7874
 2034SOL    HW217739   1.530   2.369  15.399 -0.1232  0.1102 -0.0671
 2035SOL     OW17740   2.618   4.238  15.590  1.2486 -0.4129 -0.4341
 2035SOL    HW117741   2.628   4.182  15.513  1.7414 -1.4071  0.3513
 2035SOL    HW217742   2.709   4.268  15.592  0.9474  0.4052  1.4443
 2036SOL     OW17743   1.002   1.519   2.273  0.1710 -0.8913  0.0401
 2036SOL    HW117744   0.987   1.579   2.346  0.4191 -0.5616 -0.1809
 2036SOL    HW217745   0.929   1.555   2.222 -0.5021 -2.4761 -0.0869
 2037SOL     OW17746   1.498   4.591  13.776  0.5968  0.5284  0.1308
 2037SOL    HW117747   1.533   4.676  13.804  1.6847 -0.6538  2.3835
 2037SOL    HW217748   1.480   4.622  13.687 -0.5920  1.3705  0.6649
 2038SOL     OW17749   3.780   4.114   7.391  0.3742 -0.0741 -0.1951
 2038SOL    HW117750   3.741   4.191   7.351  3.3794  1.4406 -0.1826
 2038SOL    HW217751   3.834   4.074   7.322  0.3630  0.6772 -0.6349
 2039SOL     OW17752   2.511   2.448   7.610 -0.1357 -1.0983  0.0021
 2039SOL    HW117753   2.581   2.423   7.671  0.8297 -0.7160 -0.9458
 2039SOL    HW217754   2.441   2.458   7.675 -0.7782 -0.3465 -0.8111
 2040SOL     OW17755   1.367   0.297   5.061  0.2657  0.1242 -0.3677
 2040SOL    HW117756   1.321   0.381   5.050  0.5580  0.2868 -0.3595
 2040SOL    HW217757   1.405   0.311   5.148 -1.9256  0.6520  0.4968
 2041SOL     OW17758   1.312   4.076   6.664 -0.1201  0.5938 -0.3476
 2041SOL    HW117759   1.384   4.093   6.724  0.9033 -1.2532 -1.0528
 2041SOL    HW217760   1.373   4.072   6.591  0.4688  1.5919  0.0905
 2042SOL     OW17761   0.072   1.650   3.905 -0.3546 -0.5214 -0.2432
 2042SOL    HW117762   4.726   1.665   3.954  1.0731  4.0511  0.7453
 2042SOL    HW217763   0.051   1.664   3.812  1.8294  0.5940 -0.5673
 2043SOL     OW17764   4.560   3.544   2.253 -0.0781 -0.1614 -0.5552
 2043SOL    HW117765   4.467   3.535   2.231  0.0364 -0.2505 -1.0117
 2043SOL    HW217766   4.572   3.489   2.330  1.7002  0.2452 -0.5493
 2044SOL     OW17767   2.676   3.941   9.085 -0.1865  0.0400 -0.3293
 2044SOL    HW117768   2.664   3.932   8.991 -0.4311  0.0054 -0.2945
 2044SOL    HW217769   2.763   3.903   9.099 -0.1373 -0.4486 -2.0537
 2045SOL     OW17770   2.394   4.092   5.708  0.0975 -0.7031  0.1459
 2045SOL    HW117771   2.420   4.031   5.777 -0.0701  0.0184  0.8386
 2045SOL    HW217772   2.325   4.133   5.760  0.6984 -1.2473  1.3609
 2046SOL     OW17773   1.832   3.375   9.584 -0.1040 -0.6295 -0.2269
 2046SOL    HW117774   1.885   3.416   9.653 -2.9420  2.3956  0.1368
 2046SOL    HW217775   1.861   3.437   9.517 -0.3063 -1.0738 -0.7254
 2047SOL     OW17776   0.718   3.501   7.512 -0.7153 -0.0308 -0.1914
 2047SOL    HW117777   0.645   3.543   7.557  0.0902  1.1842 -0.0166
 2047SOL    HW217778   0.794   3.554   7.534 -1.0192 -0.4967  2.0187
 2048SOL     OW17779   2.385   3.486  12.957 -0.7618  0.0141  0.1471
 2048SOL    HW117780   2.380   3.571  12.913  1.1321  0.2901  0.4883
 2048SOL    HW217781   2.291   3.465  12.961 -0.4564 -2.1828 -3.5964
 2049SOL     OW17782   4.459   0.082   2.531 -0.1605 -0.1169 -0.2302
 2049SOL    HW117783   4.502   4.733   2.514  0.0094 -0.7406  3.2516
 2049SOL    HW217784   4.515   0.131   2.591 -1.8912  0.1628  1.1314
 2050SOL     OW17785   2.436   1.480  10.823  0.3290  0.2042 -0.5384
 2050SOL    HW117786   2.386   1.423  10.881 -1.0713  1.5784 -0.4002
 2050SOL    HW217787   2.425   1.565  10.867 -0.8426 -1.5688  2.6015
 2051SOL     OW17788   3.829   0.823   3.127 -0.4909  0.1916 -0.3330
 2051SOL    HW117789   3.917   0.811   3.164 -0.3642 -0.5036 -0.8604
 2051SOL    HW217790   3.810   0.917   3.133 -0.5741  0.2021 -0.7330
 2052SOL     OW17791   2.353   3.892  15.564 -0.1900 -0.1609  0.3178
 2052SOL    HW117792   2.330   3.908  15.655 -2.1522 -0.1389 -0.1872
 2052SOL    HW217793   2.306   3.809  15.558  0.5654 -0.5833  0.2649
 2053SOL     OW17794   2.410   2.940   0.882  0.4102  0.2904 -0.2530
 2053SOL    HW117795   2.337   2.882   0.863 -0.5172  1.8178 -1.3476
 2053SOL    HW217796   2.483   2.878   0.876 -0.6808 -0.9766 -0.4426
 2054SOL     OW17797   1.883   3.552   1.791  0.0556 -0.5105  0.0993
 2054SOL    HW117798   1.847   3.524   1.875  2.9008 -0.1901  1.4198
 2054SOL    HW217799   1.959   3.494   1.793  1.1031  0.8512  0.1074
 2055SOL     OW17800   3.611   1.620  16.191  0.1698  0.4615  0.3298
 2055SOL    HW117801   3.652   1.645  16.274  0.5838 -1.3300  0.6636
 2055SOL    HW217802   3.585   1.708  16.163 -0.9161 -0.2306 -0.8283
 2056SOL     OW17803   1.860   0.295  14.823 -0.1196  0.3804  0.1335
 2056SOL    HW117804   1.929   0.314  14.759  0.3449  0.6838  0.7249
 2056SOL    HW217805   1.893   0.231  14.887  0.2027  0.0616 -0.3508
 2057SOL     OW17806   2.981   0.362   2.687 -0.7210  0.1804 -0.0278
 2057SOL    HW117807   3.073   0.373   2.711 -1.1855  1.2880  1.2444
 2057SOL    HW217808   2.945   0.451   2.677  1.7706  1.1522 -0.3156
 2058SOL     OW17809   2.718   0.014   8.790 -0.5691 -0.1356 -0.0578
 2058SOL    HW117810   2.807   0.039   8.763 -0.9591 -0.2437 -1.4350
 2058SOL    HW217811   2.744   4.724   8.879 -0.2178 -0.4328 -0.2466
 2059SOL     OW17812   3.207   3.878   5.864 -0.0156  0.1556  0.1317
 2059SOL    HW117813   3.115   3.895   5.880  0.5614  1.5534  1.8948
 2059SOL    HW217814   3.215   3.907   5.773  0.6230  2.5466  0.9574
 2060SOL     OW17815   2.692   2.410  17.549 -0.4659  0.0669 -0.0267
 2060SOL    HW117816   2.672   2.377  17.462  0.3822  2.4693 -1.1417
 2060SOL    HW217817   2.612   2.393  17.598 -1.7935  0.3559 -2.0844
 2061SOL     OW17818   1.867   4.234   8.784 -0.1996 -0.0441  0.8694
 2061SOL    HW117819   1.790   4.291   8.778 -0.1985 -0.0990  0.3094
 2061SOL    HW217820   1.909   4.266   8.864  1.2718  0.2257 -0.0084
 2062SOL     OW17821   2.691   4.238   4.208 -0.0229  0.2930 -0.3099
 2062SOL    HW117822   2.735   4.225   4.124  0.0860 -1.4747  0.0240
 2062SOL    HW217823   2.662   4.329   4.210 -0.3799  0.2517 -3.8139
 2063SOL     OW17824   0.122   3.985   7.184 -0.1208  0.2075  0.2916
 2063SOL    HW117825   0.177   3.947   7.253 -0.3394 -2.9844 -1.2830
 2063SOL    HW217826   0.062   3.913   7.164 -1.4492  1.8646 -1.6701
 2064SOL     OW17827   1.262   2.765   3.091  0.0926 -0.4254 -0.8775
 2064SOL    HW117828   1.272   2.672   3.109  0.2031 -0.7191 -2.4179
 2064SOL    HW217829   1.172   2.786   3.117  1.2080  1.9672  1.0310
 2065SOL     OW17830   2.433   1.910   9.757  0.5222 -0.4762 -0.6450
 2065SOL    HW117831   2.350   1.879   9.793  1.0736  0.7717  1.6353
 2065SOL    HW217832   2.472   1.831   9.719  1.6908 -0.1028 -0.2242
 2066SOL     OW17833   3.257   2.698  14.274 -0.6902 -0.4996  0.1880
 2066SOL    HW117834   3.218   2.708  14.188  2.0973  1.6339 -0.7876
 2066SOL    HW217835   3.180   2.704  14.332 -2.4096 -0.7788 -2.0833
 2067SOL     OW17836   2.377   3.179  12.294 -0.1290  0.1526 -0.1392
 2067SOL    HW117837   2.451   3.234  12.319  0.2103  0.4627 -1.8707
 2067SOL    HW217838   2.392   3.100  12.346  0.0017 -0.0423 -0.4757
 2068SOL     OW17839   1.640   1.527   7.239  0.3907 -0.1267  0.0864
 2068SOL    HW117840   1.616   1.436   7.222 -2.3409  0.9670 -1.7537
 2068SOL    HW217841   1.575   1.553   7.304  3.6496  0.7156  3.0445
 2069SOL     OW17842   0.234   1.201   6.777  0.4938 -0.2159 -0.4496
 2069SOL    HW117843   0.189   1.175   6.698  0.9043  1.1573 -1.1372
 2069SOL    HW217844   0.320   1.158   6.779  0.3118 -0.6621 -2.6245
 2070SOL     OW17845   1.142   3.524   6.430 -0.2582 -0.2189  0.0045
 2070SOL    HW117846   1.165   3.456   6.494 -0.3415 -2.7226 -2.6376
 2070SOL    HW217847   1.215   3.586   6.436  0.0454 -0.5812  0.0874
 2071SOL     OW17848   1.610   4.623  14.135  0.2550  0.2124  0.0864
 2071SOL    HW117849   1.542   4.673  14.090 -0.3374  0.2287  1.0139
 2071SOL    HW217850   1.597   4.649  14.226  2.3708  2.0113 -0.1322
 2072SOL     OW17851   3.988   1.038   7.376 -0.0162 -0.0606 -0.1683
 2072SOL    HW117852   3.946   1.119   7.347 -3.5202 -1.1334  1.9697
 2072SOL    HW217853   4.056   1.044   7.309 -1.0502 -1.3914 -1.3424
 2073SOL     OW17854   1.950   4.436   3.445 -0.1344 -0.4798  0.7313
 2073SOL    HW117855   2.011   4.378   3.490 -0.7699 -1.4440  0.3477
 2073SOL    HW217856   1.865   4.393   3.443 -0.1325 -0.5083  1.4673
 2074SOL     OW17857   4.039   2.849   1.662 -0.5317  0.1337  0.1152
 2074SOL    HW117858   3.959   2.896   1.639 -0.2565 -0.9992 -3.0902
 2074SOL    HW217859   4.088   2.832   1.582  0.1344  1.3596  0.2617
 2075SOL     OW17860   3.860   2.090   7.008 -0.2150  0.0582  0.6277
 2075SOL    HW117861   3.954   2.093   6.994 -0.1660 -1.1305  0.6320
 2075SOL    HW217862   3.841   2.001   6.977  0.2781  0.3290 -0.4261
 2076SOL     OW17863   1.438   3.009   8.485  0.0879  0.4600  0.1661
 2076SOL    HW117864   1.511   2.994   8.425 -0.6347 -0.2010 -0.5446
 2076SOL    HW217865   1.389   2.927   8.493 -0.4264  0.3055 -4.7901
 2077SOL     OW17866   1.959   4.346   2.932  0.1476  0.4121  0.0214
 2077SOL    HW117867   1.976   4.400   3.010  1.6193  0.3646 -0.2665
 2077SOL    HW217868   1.911   4.279   2.981  0.1213 -1.0192 -1.9861
 2078SOL     OW17869   3.148   1.967   8.605 -0.3214 -0.1834 -0.0292
 2078SOL    HW117870   3.173   2.032   8.671 -0.2951 -0.6792  0.4412
 2078SOL    HW217871   3.089   2.019   8.550 -2.4915 -1.7742  0.7867
 2079SOL     OW17872   1.042   1.465   6.694  0.1397  0.4237 -1.0268
 2079SOL    HW117873   1.130   1.453   6.660  0.6242 -1.4871  0.9011
 2079SOL    HW217874   1.035   1.396   6.759 -0.8018  1.6788  0.2105
 2080SOL     OW17875   0.637   0.681   0.380 -0.0245  0.5895 -0.2894
 2080SOL    HW117876   0.556   0.640   0.351 -0.1062  1.1252 -0.8383
 2080SOL    HW217877   0.593   0.749   0.431  1.1635  0.8987  0.3481
 2081SOL     OW17878   2.545   2.858  14.205 -0.3468  0.5786 -0.2252
 2081SOL    HW117879   2.604   2.933  14.195  0.8045 -0.3623 -0.5856
 2081SOL    HW217880   2.543   2.812  14.120 -0.2391  1.2694 -0.5980
 2082SOL     OW17881   1.731   2.845   8.512 -0.1233  0.6139 -0.8410
 2082SOL    HW117882   1.709   2.903   8.439 -1.0219  0.9054 -0.3468
 2082SOL    HW217883   1.696   2.763   8.478  0.5566 -1.0700  2.4746
 2083SOL     OW17884   3.621   0.665   0.982  0.2411  0.4392 -0.4110
 2083SOL    HW117885   3.691   0.661   1.048 -1.0438  0.8909  0.9638
 2083SOL    HW217886   3.541   0.664   1.034 -0.2346  1.3698 -1.1157
 2084SOL     OW17887   0.263   0.836  16.998 -0.4856  0.0655 -0.5061
 2084SOL    HW117888   0.297   0.909  17.049  2.0816  0.3102 -2.6051
 2084SOL    HW217889   0.346   0.799  16.970  0.2749  2.4953 -1.4603
 2085SOL     OW17890   4.608   0.643   3.918 -0.0972  0.0656 -0.1376
 2085SOL    HW117891   4.614   0.596   3.835  1.6062  0.5878 -0.3213
 2085SOL    HW217892   4.571   0.576   3.975  0.0884  0.1829  0.1179
 2086SOL     OW17893   4.146   4.204  11.831 -0.8493 -0.4848 -0.1099
 2086SOL    HW117894   4.190   4.284  11.860 -2.5055 -0.4014  2.2421
 2086SOL    HW217895   4.197   4.184  11.753  0.8292  0.6305  0.7004
 2087SOL     OW17896   3.326   4.156   1.049  0.1179  0.2679  0.4822
 2087SOL    HW117897   3.414   4.195   1.046  0.7064 -1.0880  0.0210
 2087SOL    HW217898   3.292   4.182   1.135  1.3133 -1.8636  1.6026
 2088SOL     OW17899   2.435   2.488   0.701 -0.4709  0.1766  0.0392
 2088SOL    HW117900   2.475   2.505   0.615 -3.1607  0.8408 -1.0703
 2088SOL    HW217901   2.399   2.401   0.692 -0.8758  0.3519 -0.0246
 2089SOL     OW17902   3.639   0.958   7.319 -0.0317  0.0806 -0.2108
 2089SOL    HW117903   3.641   0.879   7.374  0.0659  0.3535  0.1718
 2089SOL    HW217904   3.558   0.941   7.271  0.8628  0.9162 -2.0236
 2090SOL     OW17905   3.861   1.120  10.414 -0.1845  0.1674 -0.1391
 2090SOL    HW117906   3.853   1.031  10.378 -0.5386 -0.1850  0.8037
 2090SOL    HW217907   3.935   1.108  10.473 -0.9856 -1.9814  0.4309
 2091SOL     OW17908   0.379   3.388   4.744 -0.2840  0.1332  0.6875
 2091SOL    HW117909   0.396   3.428   4.829 -1.4688  0.5163  0.7496
 2091SOL    HW217910   0.371   3.296   4.768  1.0751 -0.5154 -1.3517
 2092SOL     OW17911   0.938   3.235   7.862 -0.0315  0.2772 -0.1895
 2092SOL    HW117912   0.947   3.177   7.786  0.3336  0.6869 -0.4614
 2092SOL    HW217913   1.023   3.224   7.906 -0.0953  0.2029 -0.0834
 2093SOL     OW17914   1.521   0.195  15.687  0.0703  0.1444 -0.2179
 2093SOL    HW117915   1.485   0.212  15.600  0.8739  1.4213 -0.2875
 2093SOL    HW217916   1.577   0.121  15.665 -2.9794 -2.0488 -0.7101
 2094SOL     OW17917   4.518   1.765  16.326  0.8459  0.5123  0.3393
 2094SOL    HW117918   4.549   1.720  16.247 -0.6154  1.2239 -0.6385
 2094SOL    HW217919   4.600   1.801  16.361  1.4881 -1.4563  0.8203
 2095SOL     OW17920   4.648   1.933  17.665 -0.2577 -0.3335 -0.5030
 2095SOL    HW117921   4.635   1.895  17.579 -1.1023 -1.1054 -0.0375
 2095SOL    HW217922   4.637   2.026  17.645 -1.0256 -0.2395  0.3213
 2096SOL     OW17923   1.245   3.158   7.806 -0.5601  0.2235 -0.2302
 2096SOL    HW117924   1.338   3.180   7.798 -1.3191  3.7882  0.7038
 2096SOL    HW217925   1.230   3.123   7.718  3.2582 -1.8979 -0.0245
 2097SOL     OW17926   1.481   3.060  15.611  0.1627  0.2898 -0.4233
 2097SOL    HW117927   1.427   2.986  15.582 -0.3476  0.5140 -0.0565
 2097SOL    HW217928   1.421   3.094  15.678 -2.2233 -0.4485 -2.1605
 2098SOL     OW17929   2.045   1.774   2.169 -0.0276 -0.3199 -0.3091
 2098SOL    HW117930   2.127   1.809   2.133  0.5400 -1.2942  0.0564
 2098SOL    HW217931   1.990   1.852   2.159 -0.9262 -1.0061 -0.6814
 2099SOL     OW17932   3.680   1.431   4.997  0.4754  0.0167 -0.2395
 2099SOL    HW117933   3.676   1.526   4.991 -3.2132 -0.3262 -3.0329
 2099SOL    HW217934   3.631   1.410   5.077 -0.5500 -0.4837 -0.9967
 2100SOL     OW17935   3.293   0.985  12.418 -0.4401 -0.5174  0.0606
 2100SOL    HW117936   3.212   1.031  12.441  0.9474  2.0312 -0.1722
 2100SOL    HW217937   3.318   0.928  12.491 -1.2603 -1.2301 -0.2147
 2101SOL     OW17938   2.952   2.511   7.395 -0.2278 -0.0447 -0.5027
 2101SOL    HW117939   3.016   2.572   7.357 -1.1102  1.5078  0.4700
 2101SOL    HW217940   2.953   2.531   7.489  1.9754  1.3690 -0.8153
 2102SOL     OW17941   4.333   0.473   5.359 -0.6360 -0.2573  0.1087
 2102SOL    HW117942   4.273   0.548   5.364 -0.4807 -0.1738  0.6927
 2102SOL    HW217943   4.395   0.503   5.425 -0.8701  1.8750 -0.6437
 2103SOL     OW17944   2.166   1.672  14.907 -0.7687  0.0526 -0.3646
 2103SOL    HW117945   2.071   1.686  14.905 -0.7618  0.0768 -0.5803
 2103SOL    HW217946   2.194   1.685  14.816 -1.4861 -2.1273 -0.8989
 2104SOL     OW17947   0.108   4.013   9.276  0.1997  0.2837  0.1314
 2104SOL    HW117948   0.152   4.071   9.338  2.2659 -2.4897  1.2713
 2104SOL    HW217949   0.162   4.025   9.197  0.0862 -0.3612 -0.0417
 2105SOL     OW17950   2.013   4.723   0.458 -0.1715  0.2598 -0.6573
 2105SOL    HW117951   1.934   4.692   0.415  0.1429  0.0961 -1.1195
 2105SOL    HW217952   2.067   4.644   0.451 -1.0693 -0.5347  1.2587
 2106SOL     OW17953   3.271   2.879   5.662  0.3207  0.3210  0.1388
 2106SOL    HW117954   3.334   2.839   5.602 -3.3331 -1.3583 -2.5320
 2106SOL    HW217955   3.202   2.895   5.598  0.1783 -2.1725 -0.3248
 2107SOL     OW17956   3.847   3.919   8.764  0.1112  0.3164  0.0380
 2107SOL    HW117957   3.816   3.999   8.806  0.7523 -0.1171  1.3733
 2107SOL    HW217958   3.841   3.937   8.671  0.1331  1.1666  0.1997
 2108SOL     OW17959   2.309   1.252  12.523 -0.6048  0.4937 -0.5567
 2108SOL    HW117960   2.243   1.315  12.550 -0.7707  0.1172 -0.0902
 2108SOL    HW217961   2.391   1.296  12.547  0.8340 -1.8026 -1.2517
 2109SOL     OW17962   0.513   4.635   4.398  0.5630 -0.1548 -0.9669
 2109SOL    HW117963   0.550   4.713   4.441 -1.2588  0.5498 -0.6942
 2109SOL    HW217964   0.579   4.625   4.329  0.7002  0.1625 -0.8826
 2110SOL     OW17965   2.448   0.602  15.998 -0.4585  0.1246 -0.0955
 2110SOL    HW117966   2.445   0.690  16.034 -1.1275  0.8872 -2.0388
 2110SOL    HW217967   2.364   0.587  15.956 -0.2254  0.1365 -0.5726
 2111SOL     OW17968   4.268   4.560  10.553 -0.6448 -0.3368 -0.0283
 2111SOL    HW117969   4.232   4.477  10.522  0.7485 -1.4917  1.4057
 2111SOL    HW217970   4.330   4.523  10.616  3.2197  0.7771 -3.1715
 2112SOL     OW17971   3.164   4.016   1.953  0.5044  0.0728  0.2877
 2112SOL    HW117972   3.096   4.068   1.910  0.5306  0.4653  0.7207
 2112SOL    HW217973   3.208   4.094   1.988 -0.1444 -0.4769  2.2899
 2113SOL     OW17974   3.718   0.988   4.729 -0.5583 -0.2661  0.2166
 2113SOL    HW117975   3.810   0.961   4.738 -0.7679 -1.3128 -0.8566
 2113SOL    HW217976   3.701   1.031   4.813  0.2278  1.8010 -0.6925
 2114SOL     OW17977   2.998   0.842   1.802 -0.4952 -0.0221  0.1043
 2114SOL    HW117978   3.093   0.855   1.805 -0.6127  0.9495 -0.3232
 2114SOL    HW217979   2.990   0.748   1.821 -1.9971  0.8815  3.9237
 2115SOL     OW17980   1.609   2.499   7.566  0.0616 -0.6096  0.5828
 2115SOL    HW117981   1.619   2.406   7.546 -0.6073 -0.4969 -0.3158
 2115SOL    HW217982   1.614   2.498   7.661  3.7045  0.1097  0.3894
 2116SOL     OW17983   2.703   0.226  11.774 -0.3118  0.4893  0.3950
 2116SOL    HW117984   2.690   0.320  11.782  1.3221  0.7635 -0.2528
 2116SOL    HW217985   2.797   0.232  11.760 -0.4376  1.1981 -0.1267
 2117SOL     OW17986   0.347   2.934   8.876 -0.1690  0.0209  0.5382
 2117SOL    HW117987   0.258   2.968   8.886 -0.2490  0.9883 -3.5770
 2117SOL    HW217988   0.342   2.845   8.911  0.3344 -0.6707 -1.1256
 2118SOL     OW17989   3.207   1.336  10.195 -0.7825  0.3328  0.1730
 2118SOL    HW117990   3.241   1.282  10.267 -0.9155  0.7497  0.5510
 2118SOL    HW217991   3.264   1.321  10.119 -2.1325  0.8106 -0.9138
 2119SOL     OW17992   1.626   4.460   6.783 -0.5868  0.4660 -0.0710
 2119SOL    HW117993   1.616   4.460   6.879  1.2117 -3.5551  0.1133
 2119SOL    HW217994   1.666   4.546   6.769 -0.9619  0.9422  1.7167
 2120SOL     OW17995   0.475   1.099   0.171  0.2806 -0.4462 -0.0695
 2120SOL    HW117996   0.481   1.148   0.253 -0.8221 -1.1984  0.4673
 2120SOL    HW217997   0.437   1.160   0.108 -0.3341 -0.5232  0.2237
 2121SOL     OW17998   2.796   2.156   6.923  0.7007  0.0930  0.0513
 2121SOL    HW117999   2.725   2.149   6.860  1.5386  0.9042 -0.9978
 2121SOL    HW218000   2.750   2.197   6.996 -0.6167 -1.5615  0.1563
 2122SOL     OW18001   3.131   1.952   2.876 -0.7245  0.1316  0.3124
 2122SOL    HW118002   3.114   1.998   2.959  1.5496  2.4469 -0.4904
 2122SOL    HW218003   3.226   1.963   2.874 -0.7511  0.0897 -1.2488
 2123SOL     OW18004   1.119   2.575  11.750 -0.6559  0.4080  0.6505
 2123SOL    HW118005   1.206   2.603  11.778  0.7973 -0.7567 -2.7761
 2123SOL    HW218006   1.102   2.498  11.804 -1.3580 -0.4881 -0.8524
 2124SOL     OW18007   4.012   4.498   7.584  0.5947 -0.0795  0.0004
 2124SOL    HW118008   3.953   4.430   7.617 -0.0740  0.2958 -0.4290
 2124SOL    HW218009   3.951   4.534   7.519  0.8911  0.5007  0.0489
 2125SOL     OW18010   3.676   3.375   1.854  0.2643 -0.1619  0.8699
 2125SOL    HW118011   3.684   3.297   1.909 -1.5983 -0.5726  0.5562
 2125SOL    HW218012   3.755   3.370   1.800  0.5484  1.8191  1.0715
 2126SOL     OW18013   0.146   0.173   5.163 -0.3694 -0.3530 -0.1864
 2126SOL    HW118014   0.057   0.139   5.158 -0.7563  0.3699  1.6357
 2126SOL    HW218015   0.188   0.111   5.103  2.3735 -0.5032  1.8578
 2127SOL     OW18016   2.552   2.492   4.640  0.4736 -0.5063  0.1567
 2127SOL    HW118017   2.616   2.543   4.690  0.7758  0.4431 -1.2115
 2127SOL    HW218018   2.519   2.560   4.582  0.7715 -0.2966  0.2319
 2128SOL     OW18019   2.560   4.152   7.266 -0.4401  0.0975  0.1982
 2128SOL    HW118020   2.590   4.225   7.211 -3.3462  2.0869  1.2354
 2128SOL    HW218021   2.578   4.191   7.351  1.2822  0.2365 -0.2228
 2129SOL     OW18022   0.591   4.151   8.867  0.2395 -0.0856 -0.2784
 2129SOL    HW118023   0.518   4.170   8.808  0.7445 -0.5768 -1.0529
 2129SOL    HW218024   0.658   4.155   8.799  1.9990 -0.1807  1.4559
 2130SOL     OW18025   3.794   0.977   7.104  0.2955  0.6291  0.1726
 2130SOL    HW118026   3.717   1.012   7.058  0.5912 -0.5917 -1.2538
 2130SOL    HW218027   3.773   0.978   7.197 -1.2448 -0.5023 -0.1649
 2131SOL     OW18028   1.559   1.108  15.631  0.0078  0.3996 -0.1596
 2131SOL    HW118029   1.621   1.153  15.688  0.2035  2.6108 -2.1081
 2131SOL    HW218030   1.510   1.186  15.607 -0.7703 -0.1723 -0.4080
 2132SOL     OW18031   3.031   3.196  14.135 -0.0297 -0.4064  0.4425
 2132SOL    HW118032   3.021   3.110  14.177 -1.1002  0.5884  2.2153
 2132SOL    HW218033   3.120   3.222  14.157 -0.0570  0.3780 -0.4065
 2133SOL     OW18034   2.088   0.211   3.998 -0.0506  0.6459 -0.2201
 2133SOL    HW118035   2.115   0.303   4.005 -2.8292  1.3479  1.2894
 2133SOL    HW218036   2.170   0.175   3.964 -0.9445 -1.1116 -0.5261
 2134SOL     OW18037   1.872   0.154   6.587 -0.2737 -0.4782  0.1281
 2134SOL    HW118038   1.952   0.140   6.638  0.0321 -1.1655 -0.5359
 2134SOL    HW218039   1.867   0.249   6.598 -1.6151 -0.6820  1.4901
 2135SOL     OW18040   2.012   0.112  14.269 -0.2926 -0.4437  0.9568
 2135SOL    HW118041   1.961   0.057  14.210 -1.1769  1.5094 -0.0876
 2135SOL    HW218042   2.098   0.070  14.283 -0.3381 -1.4489 -1.8940
 2136SOL     OW18043   3.011   0.768   6.518  0.1738 -0.1389 -0.1429
 2136SOL    HW118044   3.085   0.717   6.549 -0.2782 -0.9802 -0.4415
 2136SOL    HW218045   3.029   0.761   6.424  0.4427  2.9464 -0.3385
 2137SOL     OW18046   4.284   2.907   5.559  0.2683  0.0024 -0.5480
 2137SOL    HW118047   4.358   2.956   5.524  0.8100 -1.7940 -1.9330
 2137SOL    HW218048   4.296   2.826   5.509 -0.8655  0.8645 -2.1818
 2138SOL     OW18049   1.404   1.974   7.389  0.4662  0.4308 -0.2550
 2138SOL    HW118050   1.331   1.941   7.440  1.7703  1.5317  2.3226
 2138SOL    HW218051   1.381   2.067   7.384 -3.0485 -0.5109 -1.5138
 2139SOL     OW18052   3.996   0.833   5.734 -0.7688  0.2432  0.4871
 2139SOL    HW118053   4.064   0.832   5.666 -0.0814  1.4810  1.1604
 2139SOL    HW218054   4.038   0.857   5.817 -2.2192  0.8577  1.0442
 2140SOL     OW18055   1.716   4.051   7.698  0.2752  0.1944 -0.1536
 2140SOL    HW118056   1.748   4.104   7.771 -0.3859 -0.1972  0.4185
 2140SOL    HW218057   1.759   4.088   7.621  0.2717  1.2268  0.3439
 2141SOL     OW18058   3.073   3.756   2.473 -0.4859 -1.3025 -0.0157
 2141SOL    HW118059   3.076   3.851   2.485 -0.1889 -1.4308  0.9611
 2141SOL    HW218060   3.003   3.736   2.411 -1.4672  0.8751  0.4152
 2142SOL     OW18061   1.805   4.682   0.752 -0.2775  0.0954  0.1770
 2142SOL    HW118062   1.761   4.693   0.668 -1.7335  1.2241  1.0807
 2142SOL    HW218063   1.750   4.734   0.811 -1.4253  1.4133 -2.0169
 2143SOL     OW18064   2.649   1.335  12.160 -0.5179  0.3799  0.8810
 2143SOL    HW118065   2.573   1.387  12.132 -1.4475 -0.2665  2.2258
 2143SOL    HW218066   2.650   1.364  12.251 -0.0679 -1.9731  1.6157
 2144SOL     OW18067   1.196   3.733   3.127  0.3211  0.1925  0.1653
 2144SOL    HW118068   1.181   3.809   3.071  1.6507  0.8758  0.7169
 2144SOL    HW218069   1.290   3.717   3.117  1.0487  2.3921  3.5534
 2145SOL     OW18070   2.592   3.341  10.379 -0.5065 -0.6263  0.3115
 2145SOL    HW118071   2.538   3.315  10.305  0.2102 -2.2485  0.3540
 2145SOL    HW218072   2.682   3.348  10.346  0.9622 -0.8254  4.2405
 2146SOL     OW18073   3.868   4.463   1.004 -0.1418  0.6218  0.3773
 2146SOL    HW118074   3.920   4.415   1.069 -0.3261  1.7527  1.3625
 2146SOL    HW218075   3.916   4.545   1.003  0.8259  0.0804  1.5546
 2147SOL     OW18076   3.306   2.504   4.649 -0.0045  0.2845 -0.0210
 2147SOL    HW118077   3.383   2.505   4.593  0.4143  1.2840  0.5573
 2147SOL    HW218078   3.255   2.433   4.610  0.8160 -1.7512  2.6033
 2148SOL     OW18079   3.379   1.754   8.776  0.1438  0.1398 -0.3242
 2148SOL    HW118080   3.344   1.670   8.806 -0.1316 -0.1350 -1.4365
 2148SOL    HW218081   3.376   1.809   8.855 -1.6844 -0.5479  0.0845
 2149SOL     OW18082   3.450   0.122   4.256 -0.7298  0.3395  0.1265
 2149SOL    HW118083   3.396   0.119   4.334  0.1818 -1.2034  0.7005
 2149SOL    HW218084   3.539   0.104   4.287 -0.2317 -1.0192 -2.0586
 2150SOL     OW18085   1.788   0.074   8.729 -0.3490  0.3745 -0.3280
 2150SOL    HW118086   1.785   0.158   8.683  0.9904  0.7164  0.2035
 2150SOL    HW218087   1.821   0.018   8.658 -1.4121  0.9569 -1.2796
 2151SOL     OW18088   2.557   4.735   8.058 -0.5450 -0.1818  0.0497
 2151SOL    HW118089   2.495   0.029   8.124  0.7672  1.5123  0.5173
 2151SOL    HW218090   2.514   0.026   7.977  0.9372  1.7985 -0.0893
 2152SOL     OW18091   0.787   4.269   6.029  0.0185  0.4094  0.1206
 2152SOL    HW118092   0.870   4.292   6.069 -2.2888  2.7496  3.5339
 2152SOL    HW218093   0.730   4.286   6.104  1.1396  0.3523  0.9831
 2153SOL     OW18094   3.692   2.262  16.200 -0.3263 -0.3716  0.7562
 2153SOL    HW118095   3.608   2.300  16.226 -0.4942 -2.3321  3.0672
 2153SOL    HW218096   3.676   2.241  16.108 -1.9618  2.4290  0.3729
 2154SOL     OW18097   2.491   4.352   5.433 -0.0069 -0.2502  0.4283
 2154SOL    HW118098   2.584   4.366   5.417 -0.1543 -0.8754 -0.9667
 2154SOL    HW218099   2.487   4.263   5.400 -4.0820 -0.2759  0.9827
 2155SOL     OW18100   2.006   0.479   2.632 -0.4811 -0.2957 -0.3208
 2155SOL    HW118101   1.979   0.418   2.563 -1.1737  1.7568 -1.8847
 2155SOL    HW218102   2.027   0.554   2.576  0.0498  0.0110  0.2823
 2156SOL     OW18103   2.383   2.711   1.593  0.6018 -0.0390  0.4517
 2156SOL    HW118104   2.337   2.707   1.509 -0.1337 -1.0318  0.9141
 2156SOL    HW218105   2.383   2.618   1.615 -2.7371  0.0468  0.8098
 2157SOL     OW18106   2.145   4.424  11.707  0.0958  0.2936  0.0840
 2157SOL    HW118107   2.141   4.483  11.783 -1.4008 -2.5567  2.2300
 2157SOL    HW218108   2.129   4.484  11.634 -1.0205  0.2080  0.2624
 2158SOL     OW18109   3.691   0.061  15.277  0.2623 -0.0866 -0.1241
 2158SOL    HW118110   3.688   4.702  15.294 -1.7038  0.5185  2.9822
 2158SOL    HW218111   3.621   0.088  15.337  1.8462  2.2796  0.6813
 2159SOL     OW18112   2.692   1.585  11.059  0.3318 -0.8125 -0.0747
 2159SOL    HW118113   2.632   1.641  11.107 -0.6421 -1.1812 -0.8627
 2159SOL    HW218114   2.693   1.636  10.978 -0.4964 -0.6716  0.0054
 2160SOL     OW18115   2.758   2.659   9.453  0.4220 -0.2966 -0.1151
 2160SOL    HW118116   2.723   2.641   9.540  1.9753 -1.4915  0.2535
 2160SOL    HW218117   2.686   2.707   9.411 -0.0755  1.5330  2.8295
 2161SOL     OW18118   3.702   0.159  11.518  0.1179  0.1433 -0.3587
 2161SOL    HW118119   3.684   0.181  11.609 -0.5685 -0.3335 -0.3792
 2161SOL    HW218120   3.797   0.151  11.519  0.0497 -0.4369  1.5900
 2162SOL     OW18121   3.137   4.456   4.596 -0.0709  0.1528  0.2835
 2162SOL    HW118122   3.049   4.438   4.561  0.0671  1.2899 -0.6826
 2162SOL    HW218123   3.186   4.422   4.521  0.7696 -1.4983  1.5909
 2163SOL     OW18124   2.331   2.880   6.489  0.4555 -0.1316  0.2190
 2163SOL    HW118125   2.407   2.925   6.525 -0.9336  0.6481  2.1558
 2163SOL    HW218126   2.373   2.850   6.408  0.2878  2.1084 -0.6825
 2164SOL     OW18127   2.399   3.955   7.179  0.6725 -0.0387  0.4708
 2164SOL    HW118128   2.455   4.028   7.205  2.4977 -1.1388 -0.3966
 2164SOL    HW218129   2.452   3.894   7.128 -0.1148 -1.4843  1.3572
 2165SOL     OW18130   0.423   1.376   2.405 -0.0427  0.0255 -0.3888
 2165SOL    HW118131   0.361   1.433   2.359 -0.7884 -1.3132 -1.0351
 2165SOL    HW218132   0.450   1.427   2.482 -1.0502  1.2025 -0.8103
 2166SOL     OW18133   1.160   1.368   4.785 -0.1649  0.0655  0.0040
 2166SOL    HW118134   1.168   1.288   4.837 -2.3662  0.5284  1.0498
 2166SOL    HW218135   1.240   1.416   4.804 -0.6746  0.4057  1.2770
 2167SOL     OW18136   3.462   3.879   8.464 -0.3481  0.4460 -0.1106
 2167SOL    HW118137   3.493   3.851   8.378 -2.8595 -0.1462 -0.8289
 2167SOL    HW218138   3.481   3.972   8.455  0.4356  0.4080  1.1728
 2168SOL     OW18139   2.520   1.688   2.500  0.3105 -0.4297  0.1510
 2168SOL    HW118140   2.552   1.726   2.582 -1.3281  0.9280  0.1417
 2168SOL    HW218141   2.597   1.634   2.481  0.9841  0.6416 -0.1416
 2169SOL     OW18142   2.687   4.328   5.899 -0.2028  0.4102 -0.5467
 2169SOL    HW118143   2.712   4.296   5.812  1.9989  0.8004 -0.0722
 2169SOL    HW218144   2.615   4.390   5.889  0.2400  1.0718  0.2751
 2170SOL     OW18145   2.378   2.981   5.843  0.2401 -0.2071  0.3193
 2170SOL    HW118146   2.447   2.927   5.882 -0.1101 -1.7495 -1.1833
 2170SOL    HW218147   2.359   2.923   5.769  1.1575 -0.3197  0.1634
 2171SOL     OW18148   2.575   1.238   1.235 -0.3915 -0.7843  0.5003
 2171SOL    HW118149   2.655   1.209   1.277  0.0535  1.4297  1.1808
 2171SOL    HW218150   2.606   1.299   1.168 -0.6490 -2.6519 -1.3340
 2172SOL     OW18151   0.707   2.260  12.931 -0.2737 -0.9138  0.2493
 2172SOL    HW118152   0.708   2.180  12.879 -0.0752  0.0202 -1.2105
 2172SOL    HW218153   0.795   2.268  12.967  0.0723  1.0647 -1.0121
 2173SOL     OW18154   1.350   3.567  13.139  0.4041 -0.4190  0.0717
 2173SOL    HW118155   1.386   3.624  13.208  0.0813 -0.5754  0.3654
 2173SOL    HW218156   1.290   3.516  13.192 -1.9184  0.9089 -1.2899
 2174SOL     OW18157   0.056   3.811   9.473  0.5784 -0.0058  0.3070
 2174SOL    HW118158   0.087   3.876   9.410 -1.7435 -0.3538 -1.2246
 2174SOL    HW218159   0.014   3.868   9.538 -0.7279  1.1453 -1.5285
 2175SOL     OW18160   4.343   3.848   8.766  0.5308  0.0175  0.4634
 2175SOL    HW118161   4.373   3.828   8.678  0.7524 -0.3260  0.6148
 2175SOL    HW218162   4.248   3.845   8.756  0.6951 -0.1660 -0.9753
 2176SOL     OW18163   3.239   1.842  12.290  0.0014  0.1213  0.0582
 2176SOL    HW118164   3.308   1.864  12.352  0.3145 -0.5584 -0.0456
 2176SOL    HW218165   3.208   1.760  12.327  0.4499 -0.8744 -1.7396
 2177SOL     OW18166   3.899   3.450   6.154  0.1419 -0.3664  0.2288
 2177SOL    HW118167   3.903   3.516   6.223  1.3810 -1.1761  0.9319
 2177SOL    HW218168   3.816   3.463   6.108  0.0214 -2.8308 -0.2759
 2178SOL     OW18169   2.589   0.068   5.377  0.0877  0.2542 -0.4540
 2178SOL    HW118170   2.599   4.730   5.316 -0.2653  1.3528 -1.8220
 2178SOL    HW218171   2.583   0.014   5.456  2.2343  1.8461  0.7651
 2179SOL     OW18172   4.251   1.980   7.594 -0.3348  0.5836  0.0603
 2179SOL    HW118173   4.218   1.959   7.681  1.0188  0.9687  0.6754
 2179SOL    HW218174   4.344   2.002   7.603 -0.5866  1.0030  1.6574
 2180SOL     OW18175   1.574   2.389  14.419  0.4197 -0.3140  0.3492
 2180SOL    HW118176   1.599   2.363  14.508  1.2995  1.5018  0.6326
 2180SOL    HW218177   1.599   2.481  14.428  0.1365 -0.3321  1.3262
 2181SOL     OW18178   4.254   0.283   1.190 -0.3474  0.3128  0.0700
 2181SOL    HW118179   4.200   0.346   1.141  0.0410  0.6672  0.0950
 2181SOL    HW218180   4.208   0.245   1.265  1.7435 -0.2329  1.0690
 2182SOL     OW18181   0.501   3.750  11.924 -0.1703 -0.3036 -0.8056
 2182SOL    HW118182   0.562   3.687  11.885  0.9715 -0.2087  0.8235
 2182SOL    HW218183   0.476   3.804  11.849  1.8514  0.7608 -0.7134
 2183SOL     OW18184   3.248   1.480   2.147 -0.1227 -0.0213  0.3595
 2183SOL    HW118185   3.201   1.465   2.066 -1.9067  2.2535  0.9736
 2183SOL    HW218186   3.179   1.526   2.195 -0.2196  1.0029 -0.7880
 2184SOL     OW18187   3.151   4.612   1.620 -0.4071 -0.1421 -0.0270
 2184SOL    HW118188   3.227   4.663   1.650  0.5420 -1.6137  0.0659
 2184SOL    HW218189   3.189   4.539   1.573  0.1230  0.0158  0.1514
 2185SOL     OW18190   2.365   2.892   4.801  0.1235  0.1114  0.6737
 2185SOL    HW118191   2.283   2.914   4.757  0.1810 -1.6292 -0.2961
 2185SOL    HW218192   2.420   2.870   4.725 -0.7375 -1.8639  0.6249
 2186SOL     OW18193   3.611   1.201   5.156 -0.0375  0.1598 -0.3153
 2186SOL    HW118194   3.530   1.152   5.173 -1.1502  1.8919 -0.7206
 2186SOL    HW218195   3.644   1.210   5.246 -1.4860  0.4080  0.1786
 2187SOL     OW18196   0.730   0.003   3.388  0.1366  0.2021 -0.4990
 2187SOL    HW118197   0.734   0.052   3.306  1.2514  0.6151 -0.1864
 2187SOL    HW218198   0.718   4.645   3.366  0.3707  0.4583 -1.7146
 2188SOL     OW18199   2.812   0.773  15.054 -0.3807  0.2224 -0.5337
 2188SOL    HW118200   2.861   0.705  15.101  1.2424 -0.2396 -2.8845
 2188SOL    HW218201   2.868   0.799  14.981 -0.8118  3.3623  0.2422
 2189SOL     OW18202   2.184   0.243   2.566  0.5243  0.0842  0.4753
 2189SOL    HW118203   2.166   0.216   2.656  0.4217 -1.2285  0.0650
 2189SOL    HW218204   2.190   0.159   2.520  0.9187 -0.1995  1.0470
 2190SOL     OW18205   0.858   4.598   2.732 -0.2727  0.7710 -0.7478
 2190SOL    HW118206   0.831   4.592   2.640 -3.4584  1.3920  0.1663
 2190SOL    HW218207   0.949   4.627   2.721  0.0887  0.6841  2.0768
 2191SOL     OW18208   3.155   0.629  11.255  0.0360  0.3132 -0.3658
 2191SOL    HW118209   3.104   0.698  11.211 -0.2869  0.5652  0.4062
 2191SOL    HW218210   3.227   0.623  11.192 -0.7296 -0.5756 -1.1571
 2192SOL     OW18211   2.641   1.410   6.810  0.2563  0.4320 -0.2637
 2192SOL    HW118212   2.673   1.500   6.797 -0.1571  0.4696 -0.9815
 2192SOL    HW218213   2.711   1.366   6.762  1.8046  1.0550  1.4237
 2193SOL     OW18214   0.247   0.730  12.616 -0.3142  0.3791 -0.3530
 2193SOL    HW118215   0.305   0.656  12.601 -0.0741  0.0432  2.2832
 2193SOL    HW218216   0.231   0.759  12.526 -1.6648  2.3519  0.5155
 2194SOL     OW18217   0.808   0.984   5.749  0.4087  0.2402 -0.1637
 2194SOL    HW118218   0.727   0.964   5.703 -0.3003 -0.2596  1.3048
 2194SOL    HW218219   0.770   1.059   5.794 -2.6578 -0.4533 -1.6356
 2195SOL     OW18220   0.959   0.879   5.269  0.0957  0.1903 -0.1519
 2195SOL    HW118221   0.941   0.941   5.339  1.1417  0.2083  0.1088
 2195SOL    HW218222   0.943   0.926   5.187 -2.0520  0.1218  0.2224
 2196SOL     OW18223   3.528   1.175   3.812 -0.3855 -0.0403 -0.1973
 2196SOL    HW118224   3.488   1.193   3.898  1.2722 -1.9636  0.9819
 2196SOL    HW218225   3.469   1.213   3.748 -1.1956 -1.9551 -0.5652
 2197SOL     OW18226   2.901   3.914   8.870  0.1327  0.2574  0.1364
 2197SOL    HW118227   2.890   3.903   8.964  0.8570  2.0391  0.4320
 2197SOL    HW218228   2.960   3.840   8.859 -2.8961 -1.8110 -2.2478
 2198SOL     OW18229   3.820   4.063   4.027  0.1307  0.3191  1.1931
 2198SOL    HW118230   3.874   4.125   4.075  0.1668  0.2943  1.1852
 2198SOL    HW218231   3.864   3.980   4.048  0.4992 -0.1337 -1.3682
 2199SOL     OW18232   1.364   4.693   9.208  0.6868 -0.3421 -1.2689
 2199SOL    HW118233   1.449   4.651   9.220  0.3129 -0.3069  1.3107
 2199SOL    HW218234   1.326   4.633   9.143  0.2552 -0.8340 -0.5517
 2200SOL     OW18235   2.978   4.344   4.184 -0.1669  0.0989 -0.1214
 2200SOL    HW118236   3.035   4.268   4.177 -1.6416 -0.7576 -2.9350
 2200SOL    HW218237   2.913   4.324   4.116 -1.1451 -3.5940  1.9245
 2201SOL     OW18238   2.518   2.548   0.454 -0.0616 -0.0753  0.0877
 2201SOL    HW118239   2.445   2.568   0.395 -0.3397 -0.1639  0.3964
 2201SOL    HW218240   2.583   2.510   0.396 -1.0043 -0.2568 -0.8545
 2202SOL     OW18241   4.653   1.245   3.573 -0.0157 -0.2348 -0.8740
 2202SOL    HW118242   4.648   1.256   3.668  0.1153  0.4505 -0.9420
 2202SOL    HW218243   4.728   1.297   3.543  0.4382 -0.6578 -0.4745
 2203SOL     OW18244   3.303   2.171   1.724 -0.3580 -0.2077 -0.1712
 2203SOL    HW118245   3.250   2.212   1.656  2.4844  0.3791 -2.0308
 2203SOL    HW218246   3.381   2.157   1.670  0.6671 -0.1112  1.3158
 2204SOL     OW18247   0.394   1.549   2.699 -0.1804 -0.1723 -0.2401
 2204SOL    HW118248   0.418   1.520   2.787  0.9403  2.6733  0.3842
 2204SOL    HW218249   0.448   1.628   2.693 -0.3066 -0.0797 -0.1495
 2205SOL     OW18250   3.243   4.253   6.537  0.0956  0.2782  0.1960
 2205SOL    HW118251   3.241   4.250   6.441  2.8536 -0.8191  0.1898
 2205SOL    HW218252   3.328   4.213   6.555 -1.1299 -1.3079  2.4202
 2206SOL     OW18253   1.560   4.120  13.347  0.5390  0.4127  0.0706
 2206SOL    HW118254   1.633   4.101  13.406  1.5918 -0.4502 -1.5025
 2206SOL    HW218255   1.490   4.105  13.411  0.4078  0.2352 -0.1146
 2207SOL     OW18256   2.597   0.201   7.474 -0.5706 -0.2591 -0.5015
 2207SOL    HW118257   2.594   0.272   7.538  1.6393 -0.5220 -0.1348
 2207SOL    HW218258   2.656   0.140   7.517  1.2762  0.9895 -1.2777
 2208SOL     OW18259   1.080   2.317   7.570  0.3654  0.2406  0.1033
 2208SOL    HW118260   1.172   2.291   7.573  0.5172  0.7724  0.1671
 2208SOL    HW218261   1.049   2.329   7.660 -0.4184 -0.9876 -0.0015
 2209SOL     OW18262   4.089   2.575   5.771 -0.4627 -0.0625  0.3692
 2209SOL    HW118263   4.150   2.538   5.707 -0.7846 -0.0985  0.0855
 2209SOL    HW218264   4.099   2.669   5.750 -1.2385 -0.2286 -0.7838
 2210SOL     OW18265   2.574   0.951  15.100  0.6847  0.1677 -0.4255
 2210SOL    HW118266   2.665   0.924  15.092  1.3239  2.2972 -0.1523
 2210SOL    HW218267   2.580   1.043  15.124 -1.9283  0.6748 -1.7668
 2211SOL     OW18268   0.525   0.220   6.073 -0.1677 -0.1648 -0.1139
 2211SOL    HW118269   0.503   0.133   6.042 -0.5754  0.7009 -2.2268
 2211SOL    HW218270   0.479   0.231   6.156  0.1215  2.4901 -0.3167
 2212SOL     OW18271   1.820   0.851  11.054  0.4465  0.4459 -0.1817
 2212SOL    HW118272   1.775   0.890  11.129  1.9508 -1.3125  1.6290
 2212SOL    HW218273   1.895   0.815  11.101  0.2711  1.5207  0.9229
 2213SOL     OW18274   1.888   0.980   4.357  0.2327 -0.6136 -0.2040
 2213SOL    HW118275   1.860   0.985   4.449  0.8277  0.4719 -0.0854
 2213SOL    HW218276   1.900   1.074   4.343  2.2139 -0.8254  0.1524
 2214SOL     OW18277   2.535   0.671   7.755 -0.3318  0.9101  0.5564
 2214SOL    HW118278   2.524   0.669   7.850 -0.2156  2.1020  0.5935
 2214SOL    HW218279   2.444   0.689   7.735 -0.1567  2.2497  1.0037
 2215SOL     OW18280   0.095   4.257  15.450 -0.2778 -0.1324 -0.3673
 2215SOL    HW118281   0.124   4.237  15.361  0.5216 -1.8463  0.2819
 2215SOL    HW218282   0.012   4.303  15.436  0.5187  0.3080 -3.7564
 2216SOL     OW18283   1.627   1.756   8.931 -0.4154  0.4716  1.1153
 2216SOL    HW118284   1.626   1.699   9.009 -0.9759 -0.1023  0.6845
 2216SOL    HW218285   1.598   1.840   8.966 -0.4343  0.6772  0.6065
 2217SOL     OW18286   1.202   1.597   5.904 -0.0265  0.3456 -0.3408
 2217SOL    HW118287   1.152   1.515   5.904  3.1201 -1.5736  0.8734
 2217SOL    HW218288   1.176   1.629   5.817  1.3634  0.8453 -0.5805
 2218SOL     OW18289   0.414   2.419   8.433 -0.3923 -0.6136  1.0731
 2218SOL    HW118290   0.488   2.371   8.470  2.2519  1.0362 -2.0763
 2218SOL    HW218291   0.329   2.387   8.465 -1.3992 -0.4424 -1.4672
 2219SOL     OW18292   4.590   1.664   4.098 -0.1914  0.0868 -0.3192
 2219SOL    HW118293   4.590   1.645   4.192  1.6821  0.8029 -0.1615
 2219SOL    HW218294   4.635   1.749   4.099  0.7164 -0.3786 -1.3739
 2220SOL     OW18295   3.138   4.106  15.378 -0.3828 -0.3198  0.0701
 2220SOL    HW118296   3.073   4.174  15.364  0.6901  1.3067  3.0850
 2220SOL    HW218297   3.213   4.145  15.333 -0.1580 -0.4154  0.3561
 2221SOL     OW18298   0.671   2.575   7.197 -0.1158 -0.3236 -0.1883
 2221SOL    HW118299   0.725   2.501   7.171  0.3752  0.3600 -1.1037
 2221SOL    HW218300   0.732   2.648   7.191  0.0140 -0.5273 -1.3236
 2222SOL     OW18301   2.935   2.755  14.323 -0.0640 -0.1579 -0.5214
 2222SOL    HW118302   2.853   2.737  14.369  0.1889 -0.4625 -0.1876
 2222SOL    HW218303   2.962   2.664  14.309  1.2843  0.4604 -1.8858
 2223SOL     OW18304   1.695   0.891  16.574  0.5152 -0.4276  0.2430
 2223SOL    HW118305   1.649   0.864  16.653 -0.8561 -1.0609 -0.7783
 2223SOL    HW218306   1.758   0.948  16.618  0.3582 -0.2644  0.2559
 2224SOL     OW18307   0.260   1.718   0.251  0.5188 -0.3573 -0.1808
 2224SOL    HW118308   0.188   1.671   0.208  0.0700 -2.4759  2.8059
 2224SOL    HW218309   0.281   1.784   0.185 -4.0585 -0.6466 -1.9620
 2225SOL     OW18310   3.415   1.659   0.218 -0.4200 -0.0912 -0.2016
 2225SOL    HW118311   3.323   1.663   0.190 -0.7044  0.0324  0.7465
 2225SOL    HW218312   3.453   1.743   0.192  0.4339 -0.2412  0.5802
 2226SOL     OW18313   2.757   2.963   4.214 -0.3839 -0.1364 -0.0923
 2226SOL    HW118314   2.670   2.986   4.183  0.0658 -0.9264 -1.9561
 2226SOL    HW218315   2.820   2.987   4.145  0.0982  0.8809  0.7048
 2227SOL     OW18316   0.270   0.208   1.627 -0.3772 -0.3688 -0.7914
 2227SOL    HW118317   0.334   0.223   1.558 -1.1672 -0.7981 -1.6169
 2227SOL    HW218318   0.293   0.119   1.654 -0.2363 -0.1590 -0.2294
 2228SOL     OW18319   1.025   0.913   5.606 -0.4123 -0.1767  0.2251
 2228SOL    HW118320   0.943   0.940   5.648 -0.4045 -1.0781  0.8235
 2228SOL    HW218321   1.044   0.992   5.555  0.6581  0.1114  1.0623
 2229SOL     OW18322   1.070   3.525   5.716  0.0419 -0.0794 -0.9791
 2229SOL    HW118323   1.101   3.581   5.787  0.2832 -2.2429  0.6076
 2229SOL    HW218324   1.091   3.576   5.638  0.2639 -1.5065 -1.8550
 2230SOL     OW18325   3.028   4.190   5.473 -0.0432  0.6053  0.1317
 2230SOL    HW118326   3.106   4.141   5.446 -0.7295 -0.6229  0.3473
 2230SOL    HW218327   3.061   4.279   5.484  0.5187  0.4692 -0.4640
 2231SOL     OW18328   0.192   1.882   8.628  0.8265 -0.4781  0.0369
 2231SOL    HW118329   0.214   1.930   8.548 -2.0887  0.9155  0.0811
 2231SOL    HW218330   0.274   1.877   8.678 -0.0718  0.5486  1.5927
 2232SOL     OW18331   2.690   1.878   7.077  0.2239  0.3947 -0.4434
 2232SOL    HW118332   2.697   1.920   6.992 -2.1261  0.5011 -0.6095
 2232SOL    HW218333   2.751   1.921   7.136 -0.0206  1.1231 -0.7246
 2233SOL     OW18334   3.764   1.823   7.084 -0.3093 -0.3729 -0.3686
 2233SOL    HW118335   3.707   1.752   7.111 -0.9451 -0.9492 -3.1720
 2233SOL    HW218336   3.833   1.827   7.150  1.1078  1.2839 -1.9337
 2234SOL     OW18337   2.784   0.302   3.302 -0.4028  0.5242 -0.0407
 2234SOL    HW118338   2.711   0.289   3.242 -0.4278  1.1521 -0.1506
 2234SOL    HW218339   2.845   0.334   3.235  0.9681  2.1933  1.9976
 2235SOL     OW18340   0.492   4.118   7.540  0.0132 -0.2447 -0.2243
 2235SOL    HW118341   0.521   4.151   7.455 -3.4977  1.5754 -0.7252
 2235SOL    HW218342   0.435   4.042   7.525  0.9700 -0.9454 -0.3209
 2236SOL     OW18343   0.992   2.891   8.680  0.5000 -0.5076  0.3008
 2236SOL    HW118344   0.953   2.892   8.592 -0.4387 -2.9192  0.7094
 2236SOL    HW218345   0.978   2.983   8.704 -2.5379 -0.5640 -1.3132
 2237SOL     OW18346   0.887   2.457   2.290  0.1141 -0.3309 -0.1443
 2237SOL    HW118347   0.891   2.367   2.258  0.8800 -0.2614 -0.2602
 2237SOL    HW218348   0.793   2.473   2.284 -0.1186 -0.8671  2.1367
 2238SOL     OW18349   1.143   2.027   8.476 -0.5413  0.5452 -0.4976
 2238SOL    HW118350   1.231   2.062   8.465 -0.5588  0.3801 -1.1981
 2238SOL    HW218351   1.173   1.940   8.500 -1.8341  0.4561  0.8126
 2239SOL     OW18352   4.365   4.439   3.588  0.1614 -0.0767 -0.1122
 2239SOL    HW118353   4.448   4.483   3.570 -0.9589  1.9682 -0.3048
 2239SOL    HW218354   4.318   4.506   3.638  1.0646 -1.3192  2.3959
 2240SOL     OW18355   3.566   3.066   7.917  0.4587  0.2698  0.1175
 2240SOL    HW118356   3.539   3.137   7.858  0.0994  0.4913  0.5510
 2240SOL    HW218357   3.646   3.034   7.875  0.2514  0.0083 -0.0774
 2241SOL     OW18358   2.194   2.750  12.570 -0.4897  0.0926  0.6268
 2241SOL    HW118359   2.132   2.709  12.509 -0.8012  1.2110  0.1962
 2241SOL    HW218360   2.167   2.839  12.546  0.8089  0.4698  0.6011
 2242SOL     OW18361   3.771   4.112   8.355  0.1505  0.4984  0.1859
 2242SOL    HW118362   3.685   4.137   8.389 -1.0158 -0.1354 -2.2301
 2242SOL    HW218363   3.824   4.186   8.383  1.5099 -1.1644  2.0087
 2243SOL     OW18364   3.229   3.581   8.581  1.2127  0.1049 -0.4942
 2243SOL    HW118365   3.280   3.612   8.507 -0.1660  2.3364 -0.5156
 2243SOL    HW218366   3.292   3.591   8.653  0.6008 -2.3985  0.3789
 2244SOL     OW18367   0.619   0.556   4.716  0.4271  0.4245 -0.1140
 2244SOL    HW118368   0.667   0.634   4.687 -1.6425  0.7834 -2.5894
 2244SOL    HW218369   0.682   0.500   4.761  0.1133  2.4752  2.8733
 2245SOL     OW18370   0.723   0.480   8.307  0.5303 -0.0466 -0.5156
 2245SOL    HW118371   0.665   0.449   8.237 -1.4239  2.1285  0.1466
 2245SOL    HW218372   0.687   0.434   8.383  1.3931  2.6082  1.5007
 2246SOL     OW18373   3.632   2.967   0.348  0.1617 -0.0560 -0.3881
 2246SOL    HW118374   3.559   2.931   0.399  0.6081 -1.2516 -0.5956
 2246SOL    HW218375   3.606   2.948   0.257  0.4730 -1.9370 -0.0678
 2247SOL     OW18376   0.185   3.562   9.457 -0.2609  0.0328  0.1674
 2247SOL    HW118377   0.218   3.562   9.547  0.1063 -1.6035  0.0393
 2247SOL    HW218378   0.150   3.651   9.455  1.8848  0.8877  0.9226
 2248SOL     OW18379   3.010   3.363  15.644  0.4814 -0.2046  0.0012
 2248SOL    HW118380   3.059   3.287  15.676  2.6547  1.2479  0.1621
 2248SOL    HW218381   3.024   3.430  15.711  1.4542  0.5192 -0.9188
 2249SOL     OW18382   3.133   0.573   2.945  0.1870 -0.1141 -0.4895
 2249SOL    HW118383   3.189   0.540   2.875 -0.5095 -1.7260 -0.2936
 2249SOL    HW218384   3.200   0.626   2.987 -1.9952 -0.5079  3.5307
 2250SOL     OW18385   0.353   2.515  12.116 -0.1285  0.0539  0.2954
 2250SOL    HW118386   0.304   2.434  12.102 -1.9223  0.6579  2.9388
 2250SOL    HW218387   0.386   2.493  12.203 -0.4549  0.6537  0.5739
 2251SOL     OW18388   3.212   3.489   2.239 -0.6971  0.0163  0.5138
 2251SOL    HW118389   3.250   3.405   2.267 -2.2140 -0.3025  1.6387
 2251SOL    HW218390   3.261   3.520   2.163 -1.6355 -0.0187 -0.1049
 2252SOL     OW18391   2.574   4.184   4.448 -1.0342 -0.0165  0.3288
 2252SOL    HW118392   2.532   4.267   4.424 -0.2105  0.6578  1.2091
 2252SOL    HW218393   2.647   4.186   4.385 -1.3449  1.9083  0.0125
 2253SOL     OW18394   2.445   0.376   1.550 -0.1959  0.3132 -0.3599
 2253SOL    HW118395   2.435   0.284   1.573  0.3895  0.3611  0.0817
 2253SOL    HW218396   2.459   0.416   1.636 -0.5876 -0.6527  0.1545
 2254SOL     OW18397   0.943   0.455   1.890  0.3340  0.3776  0.3474
 2254SOL    HW118398   0.889   0.383   1.921 -1.7813  1.2626 -1.2528
 2254SOL    HW218399   1.014   0.442   1.953  0.9590 -0.2346 -0.4919
 2255SOL     OW18400   2.800   3.899   8.615 -0.1136  0.6404 -0.4525
 2255SOL    HW118401   2.865   3.908   8.685 -0.9430 -0.2310  0.4111
 2255SOL    HW218402   2.856   3.849   8.556 -0.5259 -1.4629  0.9659
 2256SOL     OW18403   1.351   1.477   7.931 -0.9689  0.3940 -0.0089
 2256SOL    HW118404   1.345   1.384   7.953  3.3650 -0.5959 -3.0872
 2256SOL    HW218405   1.437   1.494   7.969 -1.7431  0.3742  1.7420
 2257SOL     OW18406   1.377   4.404  10.371  0.0280  0.4463 -0.6089
 2257SOL    HW118407   1.285   4.378  10.384  0.4580  0.3292  1.9914
 2257SOL    HW218408   1.420   4.324  10.402  0.7657 -0.1882 -3.2545
 2258SOL     OW18409   2.698   0.459   4.642  0.2485 -0.4290 -0.2173
 2258SOL    HW118410   2.792   0.445   4.630  0.1070 -0.9738 -0.6450
 2258SOL    HW218411   2.665   0.395   4.705 -0.6276 -0.6776 -0.9259
 2259SOL     OW18412   3.089   2.045   7.435 -0.5540  0.1136  0.7798
 2259SOL    HW118413   3.009   2.005   7.468  0.2474 -1.7134  0.4766
 2259SOL    HW218414   3.148   1.971   7.446  0.0801  0.2175 -1.9152
 2260SOL     OW18415   4.053   2.835   7.245  0.0452  0.5602 -0.9322
 2260SOL    HW118416   4.121   2.856   7.309 -0.0712  1.5280 -1.1164
 2260SOL    HW218417   4.063   2.888   7.165 -0.1401  0.2868 -1.1382
 2261SOL     OW18418   3.567   4.391   3.477 -0.1462 -0.2472 -0.2474
 2261SOL    HW118419   3.557   4.302   3.510  2.3805  0.0897  1.3719
 2261SOL    HW218420   3.623   4.430   3.544  0.6032  0.7063 -1.4211
 2262SOL     OW18421   1.679   0.604   1.534  0.2986  0.1530  0.6253
 2262SOL    HW118422   1.592   0.612   1.572  0.6296 -0.4738  1.5223
 2262SOL    HW218423   1.661   0.661   1.459  1.2306 -1.2583 -0.6846
 2263SOL     OW18424   3.934   2.453   6.805  0.8029 -0.0576 -0.2093
 2263SOL    HW118425   3.967   2.522   6.862 -2.6019  0.3960  1.2580
 2263SOL    HW218426   3.916   2.492   6.719  1.9090  1.2114  0.1349
 2264SOL     OW18427   4.210   1.056   6.523  0.2423  0.0547  0.4845
 2264SOL    HW118428   4.304   1.036   6.515  0.1907 -0.2335  0.5965
 2264SOL    HW218429   4.217   1.120   6.594  0.3405 -1.3061  1.7103
 2265SOL     OW18430   2.102   1.055  10.623 -0.5683 -0.2732 -0.3233
 2265SOL    HW118431   2.150   1.037  10.704 -2.6010 -0.5418  0.8325
 2265SOL    HW218432   2.015   1.060  10.662  0.2656 -1.2548  1.6912
 2266SOL     OW18433   2.399   1.986   1.404  0.2020  0.1419  0.5350
 2266SOL    HW118434   2.315   1.954   1.437  0.2477  0.0838  0.5953
 2266SOL    HW218435   2.409   1.924   1.332 -0.3505 -0.6323  1.1236
 2267SOL     OW18436   3.087   1.021   1.509 -0.4635  0.8917  0.4702
 2267SOL    HW118437   3.148   1.032   1.436  0.6544 -1.4576  1.0352
 2267SOL    HW218438   3.076   0.926   1.505  1.3005  0.6591  1.3284
 2268SOL     OW18439   0.802   3.048   0.056 -0.2789  0.1370 -0.3088
 2268SOL    HW118440   0.805   2.980  17.729 -0.1299 -1.9612  1.8044
 2268SOL    HW218441   0.872   3.108   0.032 -0.5090  0.6756  0.3831
 2269SOL     OW18442   0.159   2.393   5.761  0.5226  0.3640  0.2517
 2269SOL    HW118443   0.195   2.305   5.760 -1.7431 -0.5393 -2.8406
 2269SOL    HW218444   0.094   2.386   5.831 -0.3561  1.1636 -0.4846
 2270SOL     OW18445   4.144   2.055  17.029 -0.1776  0.5999 -0.5930
 2270SOL    HW118446   4.068   2.042  17.086  0.4247 -1.1266 -0.1737
 2270SOL    HW218447   4.190   2.123  17.079  1.3821 -0.3922 -0.6789
 2271SOL     OW18448   2.789   4.261   5.655  0.1196  0.1046 -0.2608
 2271SOL    HW118449   2.822   4.292   5.571  1.0304 -1.6646 -0.5444
 2271SOL    HW218450   2.737   4.185   5.629  0.1206  0.5861 -1.7026
 2272SOL     OW18451   1.170   0.743   7.733 -0.5508  0.9832  0.1392
 2272SOL    HW118452   1.097   0.784   7.779  0.2370  2.2450  0.2610
 2272SOL    HW218453   1.239   0.744   7.799  1.0641  1.3537 -1.5365
 2273SOL     OW18454   0.408   0.268  14.384  0.4431  0.7029 -0.5751
 2273SOL    HW118455   0.486   0.324  14.377  1.1821 -0.2186  0.2353
 2273SOL    HW218456   0.434   0.202  14.320 -1.5029 -0.9676  0.3705
 2274SOL     OW18457   1.669   2.893   5.588 -0.1291  0.3667 -0.1341
 2274SOL    HW118458   1.749   2.927   5.547 -1.7343  1.5627 -2.2522
 2274SOL    HW218459   1.605   2.963   5.576 -0.9485 -0.1503  1.2537
 2275SOL     OW18460   4.007   1.799   7.270 -0.1319  0.0883 -0.1156
 2275SOL    HW118461   4.050   1.782   7.354  0.3581  0.1270 -0.3556
 2275SOL    HW218462   4.013   1.894   7.279 -1.1197  0.2233 -0.9814
 2276SOL     OW18463   2.095   4.546   3.798 -0.4979 -0.1226 -0.2801
 2276SOL    HW118464   2.107   4.603   3.722  0.6241  0.5831  0.4199
 2276SOL    HW218465   2.166   4.579   3.853  0.2326 -1.5814 -0.3337
 2277SOL     OW18466   0.530   3.402   4.374 -0.1572 -0.0920 -0.2955
 2277SOL    HW118467   0.545   3.437   4.286 -0.9833  1.6350  0.2688
 2277SOL    HW218468   0.460   3.456   4.410  0.8835 -0.2014  1.8779
 2278SOL     OW18469   2.774   4.353   1.801  0.3615 -0.2457  0.3641
 2278SOL    HW118470   2.769   4.448   1.788  0.1929 -0.3702 -0.4742
 2278SOL    HW218471   2.728   4.325   1.722  0.7866  0.6426 -0.2102
 2279SOL     OW18472   1.595   0.324   7.066  0.9278 -0.0730  0.8951
 2279SOL    HW118473   1.687   0.331   7.089  1.5186 -1.4452 -1.0108
 2279SOL    HW218474   1.592   0.244   7.013  3.8071  0.1582  0.4141
 2280SOL     OW18475   1.987   4.633   5.948  0.6176  0.1320 -0.2166
 2280SOL    HW118476   1.929   4.619   5.872 -0.5051 -0.6294  0.7808
 2280SOL    HW218477   1.980   4.729   5.947 -1.3432 -0.0128 -1.1289
 2281SOL     OW18478   3.207   4.406   5.785  0.8639  0.0309 -0.2743
 2281SOL    HW118479   3.147   4.416   5.710 -0.2726  0.2929  0.6597
 2281SOL    HW218480   3.221   4.496   5.815  1.1362  0.1382 -0.7269
 2282SOL     OW18481   0.608   1.586   7.265 -0.4990  0.0842 -0.1622
 2282SOL    HW118482   0.637   1.593   7.174  0.0248 -2.3269 -0.1701
 2282SOL    HW218483   0.514   1.592   7.245 -0.7176 -1.0071  0.5553
 2283SOL     OW18484   0.944   0.325   2.784 -0.4816  0.8374 -0.0160
 2283SOL    HW118485   1.036   0.334   2.762 -0.8328  0.9906 -1.4439
 2283SOL    HW218486   0.910   0.271   2.712 -1.3499  1.0844  0.2140
 2284SOL     OW18487   0.759   3.115   8.111  0.2655 -0.5412  0.6145
 2284SOL    HW118488   0.837   3.060   8.120  0.2501 -0.5778  0.5278
 2284SOL    HW218489   0.776   3.184   8.176  0.1967  1.6077 -1.6395
 2285SOL     OW18490   1.336   1.562   6.329  0.4981  0.3165  0.5597
 2285SOL    HW118491   1.261   1.586   6.384  0.4129 -0.3161  0.7198
 2285SOL    HW218492   1.389   1.514   6.393 -0.2535  0.7067  1.4740
 2286SOL     OW18493   1.813   2.993   5.376  0.3894 -0.3069  0.3624
 2286SOL    HW118494   1.791   3.060   5.311 -0.4797  0.1293  1.1098
 2286SOL    HW218495   1.829   2.918   5.319  0.2320  0.9182 -1.3024
 2287SOL     OW18496   0.953   1.439  17.525 -0.4897  0.0017  0.0501
 2287SOL    HW118497   0.895   1.453  17.600  0.3861  1.1735  0.5110
 2287SOL    HW218498   0.998   1.524  17.523  0.8860 -0.7287  0.1188
 2288SOL     OW18499   1.873   0.264   6.221  0.3326 -0.0266 -0.4520
 2288SOL    HW118500   1.797   0.292   6.169  1.1803  2.0125 -0.5763
 2288SOL    HW218501   1.898   0.349   6.258 -4.1290  1.5194 -0.9219
 2289SOL     OW18502   1.254   3.448  14.207  0.8297  0.4361 -0.1999
 2289SOL    HW118503   1.267   3.533  14.165 -2.1419  0.0747 -1.8711
 2289SOL    HW218504   1.272   3.391  14.132  0.2859 -1.5530  1.1969
 2290SOL     OW18505   1.941   4.681   6.988 -0.4510  0.0336 -0.3516
 2290SOL    HW118506   2.003   0.019   6.982  0.8222 -1.1855 -1.9129
 2290SOL    HW218507   1.908   4.680   7.078 -0.7045  2.4283 -0.3997
 2291SOL     OW18508   1.513   3.779   0.666 -0.3041  0.0653  0.7594
 2291SOL    HW118509   1.471   3.815   0.587 -0.4769  0.2847  0.9526
 2291SOL    HW218510   1.523   3.690   0.632  0.8496  1.0173 -1.4149
 2292SOL     OW18511   0.073   1.657   9.461 -0.3127 -0.0515 -0.0412
 2292SOL    HW118512   0.071   1.587   9.526  2.0063 -0.7146 -0.6865
 2292SOL    HW218513   0.154   1.632   9.416 -1.4131 -1.5179 -1.1920
 2293SOL     OW18514   3.889   3.812   1.543  0.1249 -0.0695 -0.1785
 2293SOL    HW118515   3.868   3.806   1.450  0.9440  0.8866 -0.4246
 2293SOL    HW218516   3.896   3.906   1.556  1.2334 -0.3921  1.5472
 2294SOL     OW18517   4.586   0.685  11.154 -0.0446  0.2471 -0.0011
 2294SOL    HW118518   4.623   0.742  11.086  0.3951  0.5530  0.4994
 2294SOL    HW218519   4.606   0.727  11.237 -1.4928 -0.8783  0.9055
 2295SOL     OW18520   2.034   3.433   8.096  0.0407 -0.5613  0.0642
 2295SOL    HW118521   2.100   3.420   8.028  1.6244 -0.6829  1.6205
 2295SOL    HW218522   2.021   3.528   8.096  0.9009 -0.4407 -0.3402
 2296SOL     OW18523   4.645   3.946  14.305 -0.8834  0.1473  0.0247
 2296SOL    HW118524   4.623   3.995  14.226 -2.1129  0.1623  0.3862
 2296SOL    HW218525   4.572   3.884  14.301 -0.6294 -0.1051 -0.6454
 2297SOL     OW18526   2.926   1.987   1.806 -0.1077  0.0024  0.0802
 2297SOL    HW118527   2.924   1.941   1.723  0.6246 -0.3761  0.2713
 2297SOL    HW218528   3.021   1.978   1.815  0.0837  1.6652 -0.0943
 2298SOL     OW18529   3.108   0.602   6.049  0.5650  0.2227 -0.2084
 2298SOL    HW118530   3.133   0.591   6.141 -0.8760  0.5657  0.2340
 2298SOL    HW218531   3.080   0.694   6.045  1.3075  0.4239 -0.6960
 2299SOL     OW18532   1.567   2.635   2.491  0.3048  0.1558 -0.5203
 2299SOL    HW118533   1.628   2.578   2.444  0.7533  0.8651 -0.7882
 2299SOL    HW218534   1.484   2.593   2.468  0.2804  0.0025 -0.1572
 2300SOL     OW18535   4.129   1.062   3.719 -0.4970 -0.7024 -0.0009
 2300SOL    HW118536   4.047   1.019   3.695  1.1277 -2.4221 -2.4072
 2300SOL    HW218537   4.202   1.017   3.678 -0.4402 -1.3390  0.7899
 2301SOL     OW18538   1.391   3.317   2.896  0.1174 -0.1234  0.3263
 2301SOL    HW118539   1.380   3.354   2.809  1.6191  1.2462  0.7316
 2301SOL    HW218540   1.421   3.228   2.877 -0.3001 -0.0902 -0.4745
 2302SOL     OW18541   2.952   3.156   8.376  0.2632  0.2798 -0.3491
 2302SOL    HW118542   3.006   3.228   8.407 -1.4880  2.1168 -1.5566
 2302SOL    HW218543   3.008   3.120   8.307  0.2885  1.4185 -0.9138
 2303SOL     OW18544   1.381   1.008   4.566 -0.2041  0.6277  0.2536
 2303SOL    HW118545   1.316   0.953   4.522  1.0108 -0.3277 -0.3475
 2303SOL    HW218546   1.467   0.972   4.547 -0.6791 -0.2810 -0.1631
 2304SOL     OW18547   2.253   0.388   5.935  0.5288 -0.1023  0.0258
 2304SOL    HW118548   2.272   0.372   5.843  1.9967  1.0670  0.1347
 2304SOL    HW218549   2.314   0.460   5.954  1.4666 -0.9415  0.1881
 2305SOL     OW18550   3.218   2.854  16.315 -0.2966 -0.3040  0.2065
 2305SOL    HW118551   3.129   2.853  16.352 -0.4023 -0.1692 -0.0421
 2305SOL    HW218552   3.266   2.914  16.372  1.2073 -1.8742  0.5622
 2306SOL     OW18553   3.464   3.000  11.262  0.4535 -0.0933  0.3312
 2306SOL    HW118554   3.378   3.016  11.301  0.0888 -1.9172  0.3138
 2306SOL    HW218555   3.521   3.039  11.328 -0.3113 -0.6842  1.3494
 2307SOL     OW18556   0.817   1.665  13.307 -0.1149  0.3364 -0.1360
 2307SOL    HW118557   0.894   1.637  13.357  0.2237 -1.6219 -1.7347
 2307SOL    HW218558   0.807   1.753  13.343 -2.1399 -0.0018  0.1104
 2308SOL     OW18559   4.472   2.276   7.668  0.2666 -0.2354 -0.0213
 2308SOL    HW118560   4.499   2.184   7.669 -1.9039 -0.8943 -2.7998
 2308SOL    HW218561   4.467   2.295   7.762 -1.3909  1.6124 -0.4838
 2309SOL     OW18562   1.900   1.129   1.668  0.1883  0.2439 -0.4313
 2309SOL    HW118563   1.909   1.119   1.763  1.3634  0.1697 -0.5502
 2309SOL    HW218564   1.941   1.044   1.648  1.2845  0.7178 -0.2111
 2310SOL     OW18565   1.990   3.915   7.790 -0.6885 -0.1799  0.0665
 2310SOL    HW118566   1.901   3.893   7.815 -1.1662  1.5845 -0.0901
 2310SOL    HW218567   2.041   3.834   7.792 -0.4897 -0.1289 -2.6062
 2311SOL     OW18568   0.485   2.770   5.176 -0.4204 -0.1007  0.0343
 2311SOL    HW118569   0.452   2.845   5.126  0.1763  0.2804  0.2129
 2311SOL    HW218570   0.572   2.806   5.196 -0.7862  0.3352  0.8679
 2312SOL     OW18571   2.990   2.113  16.034  0.7268  0.4184 -0.1750
 2312SOL    HW118572   2.960   2.024  16.017 -2.3159  1.3284  0.5534
 2312SOL    HW218573   2.927   2.151  15.973  1.1441  0.2644 -0.7002
 2313SOL     OW18574   1.107   4.292   8.396 -0.2465  0.1792  0.6103
 2313SOL    HW118575   1.189   4.323   8.356 -0.6399  0.0595 -0.3067
 2313SOL    HW218576   1.129   4.291   8.489 -0.3542  1.2263  0.6447
 2314SOL     OW18577   1.732   1.068  11.525 -0.7616  0.6044 -0.8404
 2314SOL    HW118578   1.724   1.162  11.509 -2.9637  0.9848  2.4391
 2314SOL    HW218579   1.655   1.053  11.580  0.3347 -2.8730 -0.2458
 2315SOL     OW18580   0.910   4.441  14.363 -0.0021  0.8302 -0.8869
 2315SOL    HW118581   0.895   4.503  14.434 -2.1604  0.7549 -1.2908
 2315SOL    HW218582   1.005   4.428  14.364 -0.2809 -0.9919  1.9465
 2316SOL     OW18583   2.259   3.215   7.255 -0.3039 -0.1755 -0.1459
 2316SOL    HW118584   2.214   3.300   7.255  2.3575  1.2086 -1.6196
 2316SOL    HW218585   2.283   3.209   7.348 -0.2726 -0.4122 -0.1685
 2317SOL     OW18586   4.319   1.351  10.999  0.2790  0.3219 -0.0327
 2317SOL    HW118587   4.378   1.409  11.047  0.2992  0.7684 -0.5810
 2317SOL    HW218588   4.230   1.385  11.011  1.0361  1.4763  2.2479
 2318SOL     OW18589   4.236   4.439   4.753 -0.0527 -0.2033 -0.6106
 2318SOL    HW118590   4.149   4.400   4.745 -0.4055  0.6150 -0.7714
 2318SOL    HW218591   4.233   4.484   4.837 -0.9529 -0.8026 -0.3278
 2319SOL     OW18592   1.993   2.774   7.063  0.4905 -0.6956 -0.5919
 2319SOL    HW118593   2.045   2.780   6.982 -1.1010 -1.2564 -1.6438
 2319SOL    HW218594   1.963   2.865   7.074  1.8289 -0.5789  2.0754
 2320SOL     OW18595   2.272   1.027   3.244 -0.5185  0.5539  0.3702
 2320SOL    HW118596   2.341   0.978   3.200 -0.8009  0.4036  0.0940
 2320SOL    HW218597   2.327   1.105   3.251  0.5499 -0.3021  1.5139
 2321SOL     OW18598   3.493   3.839   7.483  0.3451 -0.3535  0.6752
 2321SOL    HW118599   3.466   3.927   7.510  2.2544  1.1540 -2.3986
 2321SOL    HW218600   3.566   3.856   7.424 -0.0913  3.0235  1.1512
 2322SOL     OW18601   1.131   1.813  12.599  0.3688  0.1932 -0.8124
 2322SOL    HW118602   1.103   1.731  12.558 -0.8000 -0.5609  1.5080
 2322SOL    HW218603   1.176   1.780  12.677  0.1841  2.9974  0.4968
 2323SOL     OW18604   0.139   1.789  12.000 -0.0519  0.3656 -1.2951
 2323SOL    HW118605   0.054   1.770  11.960 -0.7350 -0.2542  0.4476
 2323SOL    HW218606   0.107   1.816  12.085 -2.4577 -0.7918 -1.8255
 2324SOL     OW18607   1.358   1.688  13.576 -0.0776 -0.1326  0.6905
 2324SOL    HW118608   1.317   1.620  13.630 -1.1498  0.5596  0.7567
 2324SOL    HW218609   1.449   1.670  13.598 -0.2842 -0.2229  1.4828
 2325SOL     OW18610   0.665   4.467   6.708 -0.1855  0.6762 -0.5090
 2325SOL    HW118611   0.607   4.509   6.771  2.0609  1.9780  0.7132
 2325SOL    HW218612   0.736   4.529   6.690 -0.1291  1.2757  1.8029
 2326SOL     OW18613   1.728   2.639  12.416 -0.2231 -0.3403 -0.2181
 2326SOL    HW118614   1.711   2.577  12.488  2.5784  1.0093  1.6004
 2326SOL    HW218615   1.650   2.695  12.423  0.6865  1.1788 -2.4426
 2327SOL     OW18616   3.371   1.368   1.877  0.1765 -0.0695 -0.0518
 2327SOL    HW118617   3.457   1.353   1.838  0.5214  2.6979 -0.3611
 2327SOL    HW218618   3.319   1.325   1.809 -0.9475  1.4417 -0.1274
 2328SOL     OW18619   0.574   2.880   0.940  0.4633  0.3427  0.2996
 2328SOL    HW118620   0.542   2.826   1.012 -0.4616 -1.9158 -1.7723
 2328SOL    HW218621   0.653   2.926   0.967  0.8561 -1.6129  2.4362
 2329SOL     OW18622   3.395   2.504  16.943 -0.5202 -0.8320  0.6917
 2329SOL    HW118623   3.361   2.415  16.934 -0.1301 -0.6131 -2.8862
 2329SOL    HW218624   3.431   2.501  17.031 -0.8564 -2.0073  0.7942
 2330SOL     OW18625   3.435   4.725   4.902 -0.3789  0.1237  0.2885
 2330SOL    HW118626   3.431   0.064   4.842 -2.1033  0.4641  0.8091
 2330SOL    HW218627   3.399   0.026   4.983 -1.2800 -0.7371  0.2690
 2331SOL     OW18628   3.417   3.581   2.094 -0.4791 -0.1798  0.1978
 2331SOL    HW118629   3.473   3.658   2.106 -0.0428 -0.2105 -1.5907
 2331SOL    HW218630   3.469   3.510   2.132  0.8699  0.6093 -0.1625
 2332SOL     OW18631   1.935   0.865   2.274  0.3622  0.4118 -0.7138
 2332SOL    HW118632   1.988   0.939   2.247 -1.3768  3.0338  2.9643
 2332SOL    HW218633   1.847   0.902   2.284 -0.1181 -0.5283 -1.3932
 2333SOL     OW18634   2.040   2.353   3.946 -0.3263  0.2147  0.4201
 2333SOL    HW118635   2.055   2.367   3.852 -0.0191 -2.5858  0.0383
 2333SOL    HW218636   2.061   2.260   3.955 -0.7754  0.1365  0.6519
 2334SOL     OW18637   4.642   0.520   7.346 -0.2129  0.5966 -0.1422
 2334SOL    HW118638   4.604   0.567   7.272 -0.4535  0.4980 -0.0826
 2334SOL    HW218639   4.573   0.524   7.412 -0.6146 -1.6640 -0.4254
 2335SOL     OW18640   1.137   4.184   8.101  0.5583  0.5300 -0.1839
 2335SOL    HW118641   1.203   4.117   8.085  0.5403  0.2444  0.9180
 2335SOL    HW218642   1.185   4.244   8.157 -0.1953  1.2779 -0.3422
 2336SOL     OW18643   1.850   1.387   7.631 -0.0304 -0.0913 -0.1267
 2336SOL    HW118644   1.872   1.334   7.555 -0.3639  0.7175 -0.7841
 2336SOL    HW218645   1.900   1.468   7.618  0.3601 -0.2530  0.3669
 2337SOL     OW18646   1.259   0.355   5.646  0.1722  0.2815 -0.2162
 2337SOL    HW118647   1.274   0.429   5.588 -0.0726  0.5712  0.0903
 2337SOL    HW218648   1.230   0.388   5.731  2.5811  2.3980 -0.2456
 2338SOL     OW18649   4.224   3.803   7.261  0.7592  0.2388  0.1748
 2338SOL    HW118650   4.158   3.809   7.192  0.4541  1.0498  0.5373
 2338SOL    HW218651   4.205   3.711   7.276 -0.6664  0.0607 -2.6154
 2339SOL     OW18652   0.757   0.415   7.812 -0.1969  0.2448 -0.2264
 2339SOL    HW118653   0.783   0.346   7.873 -0.0976 -0.8076 -1.4682
 2339SOL    HW218654   0.793   0.487   7.864 -1.3604 -1.4842  2.9572
 2340SOL     OW18655   2.157   4.309  16.105  0.4299  0.2086  0.4173
 2340SOL    HW118656   2.193   4.234  16.153 -0.6691 -0.2014  0.6038
 2340SOL    HW218657   2.082   4.330  16.160  0.7918 -3.2130  2.2332
 2341SOL     OW18658   3.426   0.940   6.667 -0.4303 -0.5445  0.0696
 2341SOL    HW118659   3.406   0.901   6.583 -0.9434  0.0143 -0.0686
 2341SOL    HW218660   3.522   0.940   6.671 -0.4679 -0.1332  1.0149
 2342SOL     OW18661   0.155   0.370  14.325  0.8354 -0.0208  0.0078
 2342SOL    HW118662   0.232   0.323  14.356 -1.4664 -2.4340  2.0965
 2342SOL    HW218663   0.091   0.298  14.319  0.9424 -0.0265 -1.0175
 2343SOL     OW18664   1.586   1.880   4.249 -0.0757  0.6601 -1.2163
 2343SOL    HW118665   1.535   1.919   4.178  1.7911  0.1675 -2.8194
 2343SOL    HW218666   1.546   1.913   4.329  1.1693 -0.3460 -0.1740
 2344SOL     OW18667   1.262   4.102   5.779 -0.2296  0.0186 -0.4510
 2344SOL    HW118668   1.316   4.132   5.852 -1.2095  0.5326  0.0645
 2344SOL    HW218669   1.257   4.186   5.732  1.9875 -0.3778 -1.3956
 2345SOL     OW18670   3.980   4.683   0.908  0.3933 -0.0082 -0.4691
 2345SOL    HW118671   4.001   0.037   0.937 -0.7800  0.7036 -1.8070
 2345SOL    HW218672   3.978   4.705   0.815  0.8966  1.7942 -0.0602
 2346SOL     OW18673   0.907   2.175   8.811  0.1582  0.1622  0.2203
 2346SOL    HW118674   0.964   2.211   8.880  3.0450 -0.7337 -1.6735
 2346SOL    HW218675   0.835   2.238   8.811  1.0591  1.1998  0.2899
 2347SOL     OW18676   0.907   1.598   0.390 -0.3391 -0.0322  0.4152
 2347SOL    HW118677   0.933   1.596   0.298 -0.9256  3.1631  0.1733
 2347SOL    HW218678   0.913   1.693   0.406 -3.7134  0.2056  0.2768
 2348SOL     OW18679   4.039   1.514  10.640 -0.0699 -0.6889  0.8459
 2348SOL    HW118680   3.975   1.453  10.604  3.4216 -2.2841 -2.6660
 2348SOL    HW218681   3.991   1.548  10.716  0.1548 -0.0960  0.7241
 2349SOL     OW18682   1.366   2.043   4.132  0.1150  0.0478  0.4765
 2349SOL    HW118683   1.428   2.084   4.071 -0.0180 -0.7654 -0.2033
 2349SOL    HW218684   1.346   2.113   4.194  1.1443  1.9797 -1.3503
 2350SOL     OW18685   1.702   2.138   9.505  0.0330  0.2155 -0.3624
 2350SOL    HW118686   1.723   2.192   9.581 -1.2337  0.8526 -0.4593
 2350SOL    HW218687   1.692   2.210   9.443  1.4220  0.8657  0.1746
 2351SOL     OW18688   0.775   4.547   8.779 -0.4184  0.3655 -0.1950
 2351SOL    HW118689   0.719   4.495   8.721 -1.5378  0.4822  0.7618
 2351SOL    HW218690   0.724   4.627   8.786 -0.7725  0.0128  1.4425
 2352SOL     OW18691   0.969   0.886   7.828  0.2792 -0.2653 -0.6453
 2352SOL    HW118692   0.878   0.913   7.820 -0.8766 -2.9644  3.4091
 2352SOL    HW218693   0.984   0.959   7.889  0.5314 -1.1603  0.3567
 2353SOL     OW18694   1.602   1.790   8.667 -0.1672  0.0862 -0.4776
 2353SOL    HW118695   1.640   1.747   8.743 -1.6799 -0.6555 -0.1337
 2353SOL    HW218696   1.531   1.841   8.705  1.3453  3.7578 -2.6144
 2354SOL     OW18697   2.101   2.739   6.727 -0.7947 -0.3239 -1.2621
 2354SOL    HW118698   2.147   2.663   6.692 -2.6884 -1.8437 -0.4018
 2354SOL    HW218699   2.175   2.769   6.780 -1.0874 -2.7172  0.4808
 2355SOL     OW18700   2.421   4.539   6.509 -0.0523  0.7692  0.3710
 2355SOL    HW118701   2.403   4.566   6.600  0.8918 -1.1028  1.1167
 2355SOL    HW218702   2.340   4.493   6.487 -1.7785  3.9723  0.0270
 2356SOL     OW18703   1.343   2.834   2.796 -0.4320 -0.8628 -0.5220
 2356SOL    HW118704   1.332   2.741   2.773  1.8367 -1.3190  0.2456
 2356SOL    HW218705   1.336   2.830   2.891  1.5926 -1.2714 -0.3995
 2357SOL     OW18706   3.598   4.255   7.065  0.0856  0.1025  0.5324
 2357SOL    HW118707   3.656   4.243   6.990  0.7090  0.1916  1.0094
 2357SOL    HW218708   3.540   4.322   7.029  1.4081  0.5716 -0.6914
 2358SOL     OW18709   1.781   1.568   3.244 -0.0590  0.0006  0.0855
 2358SOL    HW118710   1.722   1.603   3.311  2.1108  0.4235  1.7339
 2358SOL    HW218711   1.866   1.605   3.266  0.2799 -1.9742  2.1113
 2359SOL     OW18712   2.646   4.486  15.233  0.0765 -0.4817 -0.1226
 2359SOL    HW118713   2.608   4.458  15.150  0.5173  0.6382 -0.7034
 2359SOL    HW218714   2.566   4.522  15.271 -0.4053 -1.3779 -0.3136
 2360SOL     OW18715   3.002   4.676   4.673 -0.4528 -0.0508 -0.8035
 2360SOL    HW118716   3.072   0.005   4.668 -1.8656  1.4112 -1.6484
 2360SOL    HW218717   3.045   4.598   4.638 -0.5446 -0.4829  0.0498
 2361SOL     OW18718   4.448   3.394   4.019  0.0411  0.1616  0.4028
 2361SOL    HW118719   4.381   3.338   3.981  0.0956 -0.5416  1.3473
 2361SOL    HW218720   4.398   3.470   4.047  1.1037  0.1897  2.1845
 2362SOL     OW18721   1.276   2.094   5.182  0.0015  0.2722 -0.2424
 2362SOL    HW118722   1.246   2.178   5.218 -0.3560 -0.3480  0.8903
 2362SOL    HW218723   1.371   2.102   5.180 -0.0215  0.4379 -0.6935
 2363SOL     OW18724   1.708   1.190  11.071 -0.1683  0.5614  0.2866
 2363SOL    HW118725   1.661   1.123  11.022 -1.2723  0.5554  1.3487
 2363SOL    HW218726   1.682   1.271  11.026 -3.7808 -0.8760 -0.1949
 2364SOL     OW18727   3.932   2.170   7.468  0.2284 -0.5926  0.0803
 2364SOL    HW118728   3.918   2.251   7.517 -1.4315 -0.3065 -0.8516
 2364SOL    HW218729   3.860   2.178   7.406  1.9625 -0.4152 -1.8979
 2365SOL     OW18730   2.461   2.292  16.578  0.7019  0.1607 -0.2343
 2365SOL    HW118731   2.525   2.241  16.530  2.3116  1.8140  0.1409
 2365SOL    HW218732   2.409   2.218  16.607 -0.3029  0.5299 -1.0978
 2366SOL     OW18733   1.959   2.648   4.685  0.8488  0.2178 -0.0204
 2366SOL    HW118734   1.911   2.723   4.652  0.0934  0.8641  2.5054
 2366SOL    HW218735   1.893   2.610   4.743  0.6835  0.6111  0.0507
 2367SOL     OW18736   3.204   0.505  17.273 -0.2358  0.3312  0.0235
 2367SOL    HW118737   3.116   0.534  17.293  0.2885  1.5706  0.5599
 2367SOL    HW218738   3.228   0.567  17.203 -0.6937  1.6258  1.0179
 2368SOL     OW18739   2.126   3.250  12.449 -0.2391  0.0491 -0.1654
 2368SOL    HW118740   2.124   3.155  12.454  0.2139 -0.0311 -1.5494
 2368SOL    HW218741   2.200   3.266  12.390 -1.4420  1.3427 -1.3254
 2369SOL     OW18742   0.715   0.865   3.727 -0.2953  0.1501  0.2147
 2369SOL    HW118743   0.652   0.906   3.785 -2.0553 -1.8245 -0.3420
 2369SOL    HW218744   0.690   0.773   3.725  1.0019 -0.2010 -0.2789
 2370SOL     OW18745   2.970   4.124   9.715 -0.1499 -0.1006  0.1583
 2370SOL    HW118746   2.989   4.087   9.801  1.2817  0.1686 -0.0300
 2370SOL    HW218747   2.996   4.051   9.658 -1.2124  0.4282 -0.9975
 2371SOL     OW18748   3.975   2.027   4.859  0.2053  0.1441  0.1300
 2371SOL    HW118749   3.985   2.020   4.954 -0.9361  1.1404  0.3243
 2371SOL    HW218750   4.032   2.100   4.837 -1.3913  0.8999 -1.4843
 2372SOL     OW18751   4.364   1.781   7.410  0.3229 -0.6330 -0.7419
 2372SOL    HW118752   4.296   1.726   7.448 -0.3865  0.7627  0.0111
 2372SOL    HW218753   4.354   1.864   7.458 -0.6463 -1.2602  0.1298
 2373SOL     OW18754   3.060   4.687  13.206 -0.1097 -0.2551  0.2844
 2373SOL    HW118755   3.085   4.602  13.241 -1.1667 -0.5593  0.3027
 2373SOL    HW218756   3.123   0.012  13.245 -0.3536  0.6306 -0.6935
 2374SOL     OW18757   3.666   2.453   3.455 -0.1743 -0.4973 -0.3909
 2374SOL    HW118758   3.657   2.461   3.550 -2.1886  0.5769 -0.6825
 2374SOL    HW218759   3.715   2.534   3.443 -1.6260  0.4188 -0.1356
 2375SOL     OW18760   4.158   2.934   5.172 -0.1372  0.4933 -0.2346
 2375SOL    HW118761   4.092   2.940   5.103 -2.2351  4.2581  2.0577
 2375SOL    HW218762   4.135   3.011   5.225  1.0275 -0.9534  2.3917
 2376SOL     OW18763   0.789   2.603  16.819  0.0820  0.3646  0.3705
 2376SOL    HW118764   0.864   2.558  16.859  0.6741  0.0193 -1.1254
 2376SOL    HW218765   0.787   2.567  16.730 -1.0119 -0.3960  0.7013
 2377SOL     OW18766   2.840   3.752   9.596 -0.1365 -0.0518 -0.4355
 2377SOL    HW118767   2.761   3.748   9.649  0.1054  0.6063 -0.0362
 2377SOL    HW218768   2.817   3.697   9.520  0.4283 -0.1064 -0.5673
 2378SOL     OW18769   2.669   4.600   8.562  0.1225  0.4799 -0.2294
 2378SOL    HW118770   2.669   4.678   8.506  1.5196 -0.0608 -0.9742
 2378SOL    HW218771   2.690   4.636   8.649  0.9562  0.6839 -0.5179
 2379SOL     OW18772   2.980   0.140   2.009  0.0833 -0.8503  0.1304
 2379SOL    HW118773   2.891   0.134   2.044  0.2848 -0.3310  0.7364
 2379SOL    HW218774   2.981   0.066   1.949 -0.4765  0.7171 -1.8031
 2380SOL     OW18775   2.562   4.645  11.809 -0.1620 -0.2485  0.4601
 2380SOL    HW118776   2.569   4.564  11.859 -0.6925 -1.6905 -1.8023
 2380SOL    HW218777   2.557   4.618  11.717  0.9678  1.1445 -0.0213
 2381SOL     OW18778   0.679   4.708  14.677  0.0096  0.2828 -0.0016
 2381SOL    HW118779   0.714   0.029  14.746 -1.4356 -0.3826  1.2743
 2381SOL    HW218780   0.597   0.022  14.674 -0.6596 -1.0390 -3.5341
 2382SOL     OW18781   2.388   2.512  15.886 -0.1708  0.2204 -0.1735
 2382SOL    HW118782   2.326   2.493  15.816  0.1838 -2.3474  0.1791
 2382SOL    HW218783   2.475   2.510  15.847  0.3545  1.2184  0.9639
 2383SOL     OW18784   3.038   3.701  16.979 -0.1388 -0.1034  0.5476
 2383SOL    HW118785   2.967   3.725  17.039  0.2456 -0.1633  1.0261
 2383SOL    HW218786   2.996   3.648  16.911  1.5147  0.9444 -1.3115
 2384SOL     OW18787   3.720   4.285   1.643  0.3356  0.4369 -0.1228
 2384SOL    HW118788   3.628   4.311   1.647  0.1913  0.2149 -2.0182
 2384SOL    HW218789   3.766   4.362   1.677 -0.5428  2.1837 -2.8140
 2385SOL     OW18790   1.969   1.650   8.590  0.0112  0.2904  0.3735
 2385SOL    HW118791   2.061   1.674   8.599  0.3624 -0.5768 -0.8270
 2385SOL    HW218792   1.953   1.569   8.638  0.9727  0.5818  1.1641
 2386SOL     OW18793   4.502   0.818   4.854  0.2980 -0.1862  0.0649
 2386SOL    HW118794   4.495   0.906   4.817 -1.5270  0.1353  1.1563
 2386SOL    HW218795   4.438   0.822   4.925  0.0256 -1.6670 -0.0941
 2387SOL     OW18796   2.881   1.139   8.753 -0.0432  0.5867 -0.6101
 2387SOL    HW118797   2.898   1.233   8.759  3.2335 -0.0391 -0.1104
 2387SOL    HW218798   2.971   1.106   8.751 -0.1338  0.2776  0.2874
 2388SOL     OW18799   1.042   1.525   5.350  0.0124 -0.1867 -0.4390
 2388SOL    HW118800   0.986   1.447   5.349  2.6851 -2.0705 -2.4227
 2388SOL    HW218801   0.986   1.594   5.315 -0.9561 -0.8324 -0.1816
 2389SOL     OW18802   1.142   2.222   9.028  0.6312  0.6931 -0.3262
 2389SOL    HW118803   1.170   2.235   9.119  2.2229  0.4332 -0.7930
 2389SOL    HW218804   1.206   2.279   8.986  1.3671 -0.4621 -0.7529
 2390SOL     OW18805   2.228   3.099  16.083  0.3779 -0.7826  0.3112
 2390SOL    HW118806   2.159   3.162  16.062  0.3403 -0.8222  0.3174
 2390SOL    HW218807   2.218   3.036  16.011 -1.7696 -0.9724  0.7954
 2391SOL     OW18808   0.908   1.418  12.727  0.3426 -0.5785 -0.2184
 2391SOL    HW118809   0.956   1.336  12.738 -0.2946 -0.7043  1.6503
 2391SOL    HW218810   0.910   1.449  12.818  1.5507  2.9804 -1.4839
 2392SOL     OW18811   3.652   0.178   5.386  0.2217  0.0830  0.5609
 2392SOL    HW118812   3.611   0.102   5.345  1.4000 -1.2165  1.8053
 2392SOL    HW218813   3.666   0.149   5.476 -0.1293  0.7243  0.8284
 2393SOL     OW18814   2.292   3.825   7.599  0.0266 -0.1775 -0.4366
 2393SOL    HW118815   2.246   3.747   7.630 -0.6927 -0.2788 -1.7661
 2393SOL    HW218816   2.366   3.790   7.549 -0.3142  0.3354 -1.2979
 2394SOL     OW18817   1.788   2.591   2.793  0.3833  0.0324  0.0852
 2394SOL    HW118818   1.698   2.558   2.803 -0.2968  1.6365 -0.5625
 2394SOL    HW218819   1.782   2.677   2.834  1.6139 -0.8428  2.0375
 2395SOL     OW18820   3.072   1.629   5.987  0.0503  0.0002 -0.2286
 2395SOL    HW118821   3.129   1.700   5.955 -0.5236  0.2017 -0.8063
 2395SOL    HW218822   3.003   1.636   5.921 -1.5924  0.2729  1.5381
 2396SOL     OW18823   4.683   2.857   0.334 -0.2719  0.1042 -0.6424
 2396SOL    HW118824   4.682   2.943   0.378 -0.4031  0.1740 -0.7804
 2396SOL    HW218825   4.732   2.881   0.256 -0.5642 -0.8401 -1.1154
 2397SOL     OW18826   3.604   3.869   1.985  0.4618 -0.2583  0.1512
 2397SOL    HW118827   3.537   3.918   2.032 -0.1445 -1.4517  0.5397
 2397SOL    HW218828   3.557   3.832   1.910  0.7650  0.0733 -0.1998
 2398SOL     OW18829   3.764   1.670   1.691 -0.1450 -0.4106 -0.3608
 2398SOL    HW118830   3.780   1.760   1.661 -0.2963 -0.2406  0.0617
 2398SOL    HW218831   3.761   1.687   1.785  0.1891 -1.2756 -0.1924
 2399SOL     OW18832   4.484   2.122   5.408 -0.2934 -0.0527  0.5475
 2399SOL    HW118833   4.450   2.160   5.327 -0.3119 -1.9705 -0.3418
 2399SOL    HW218834   4.410   2.135   5.467 -0.0026  2.3397  0.3896
 2400SOL     OW18835   1.018   0.339   2.241  0.5533  0.1204  0.2985
 2400SOL    HW118836   1.068   0.323   2.160 -2.4707 -0.1230 -1.5385
 2400SOL    HW218837   0.959   0.264   2.239  0.4294  0.1963  1.1541
 2401SOL     OW18838   0.579   1.311   3.028  0.1201  0.0314  0.2543
 2401SOL    HW118839   0.586   1.219   3.000 -1.0467 -0.9071  3.0101
 2401SOL    HW218840   0.493   1.306   3.071 -0.4083 -0.9150 -0.9096
 2402SOL     OW18841   0.699   2.781  17.676 -0.2691 -0.4327 -0.0110
 2402SOL    HW118842   0.658   2.754   0.017 -3.5455 -0.0025 -1.5242
 2402SOL    HW218843   0.793   2.789  17.692 -0.4169 -0.6995  0.9583
 2403SOL     OW18844   1.445   0.966   4.225  0.1439  0.7550  0.2296
 2403SOL    HW118845   1.449   0.877   4.190 -2.2411 -0.1939  2.3517
 2403SOL    HW218846   1.364   0.966   4.275 -0.7269 -2.8432 -1.2167
 2404SOL     OW18847   0.562   1.976   7.192  0.2270 -0.3875  0.1823
 2404SOL    HW118848   0.636   1.915   7.191  0.2735 -0.2944 -2.3729
 2404SOL    HW218849   0.575   2.019   7.108  0.4056  0.8459  0.8445
 2405SOL     OW18850   1.161   0.637   6.352  0.3615 -0.2627  0.3269
 2405SOL    HW118851   1.233   0.614   6.411  1.6630 -1.2334 -1.6768
 2405SOL    HW218852   1.126   0.547   6.351  0.0950 -0.1675  0.7580
 2406SOL     OW18853   3.958   3.585   4.090 -0.0468  0.0131 -0.5874
 2406SOL    HW118854   3.949   3.659   4.030  2.1207 -0.3891 -1.4052
 2406SOL    HW218855   3.974   3.624   4.175 -0.4702 -0.3787 -0.3241
 2407SOL     OW18856   4.006   2.091   5.982 -0.6539 -0.0147  0.1575
 2407SOL    HW118857   4.088   2.140   5.980 -0.7390  0.1735  1.3623
 2407SOL    HW218858   3.954   2.132   6.051  1.9317  1.3888  1.2965
 2408SOL     OW18859   0.126   2.241   8.275  0.1868  0.0335 -0.0788
 2408SOL    HW118860   0.047   2.190   8.259  1.7901 -2.5690  0.3322
 2408SOL    HW218861   0.085   2.319   8.313 -0.7551 -0.4490 -0.1056
 2409SOL     OW18862   4.218   0.904   8.159 -0.3561 -0.0396 -0.2223
 2409SOL    HW118863   4.125   0.926   8.153 -0.5329 -0.4627  0.9161
 2409SOL    HW218864   4.253   0.942   8.079  1.6257 -0.1185  0.6107
 2410SOL     OW18865   3.242   2.030  12.087  0.3002  0.5254  0.0727
 2410SOL    HW118866   3.256   1.953  12.143 -2.0775  0.6427  0.8264
 2410SOL    HW218867   3.225   2.096  12.154  0.9931  1.8685 -1.0725
 2411SOL     OW18868   2.021   3.515  12.122 -0.4248 -0.4158  0.0626
 2411SOL    HW118869   2.078   3.454  12.075  1.5631  0.7112  1.0231
 2411SOL    HW218870   1.999   3.456  12.193  0.8229  0.2583  1.0166
 2412SOL     OW18871   2.132   3.845  12.377  0.2602 -0.2394  0.5213
 2412SOL    HW118872   2.190   3.860  12.302 -0.6554  0.3645 -0.0808
 2412SOL    HW218873   2.048   3.849  12.330 -0.4049 -1.2724  1.6417
 2413SOL     OW18874   1.365   2.096  15.854  0.2816  0.5463 -0.1761
 2413SOL    HW118875   1.404   2.098  15.767 -0.5619 -0.5721 -0.5670
 2413SOL    HW218876   1.447   2.102  15.903  0.1517 -0.2235  0.1361
 2414SOL     OW18877   2.846   3.785   3.782  0.5677 -0.0008 -0.6682
 2414SOL    HW118878   2.817   3.852   3.844 -0.2451 -0.8923 -0.0976
 2414SOL    HW218879   2.850   3.703   3.831  0.7156 -0.7693 -1.9861
 2415SOL     OW18880   2.657   4.627   4.764 -0.1405  0.2829 -0.5822
 2415SOL    HW118881   2.719   4.557   4.784 -3.1203 -2.2426 -0.1136
 2415SOL    HW218882   2.594   4.616   4.835  0.0152  1.3029 -0.2955
 2416SOL     OW18883   1.408   1.543   6.083  0.0336  0.6735  0.3242
 2416SOL    HW118884   1.345   1.569   6.016  1.4255 -0.2408 -1.3158
 2416SOL    HW218885   1.354   1.555   6.161  1.0979  2.2941  0.8123
 2417SOL     OW18886   3.190   4.162   7.522  0.9568 -0.1498  0.6749
 2417SOL    HW118887   3.272   4.116   7.539  0.4969 -2.2588 -3.0620
 2417SOL    HW218888   3.207   4.247   7.564  0.6222  0.8809 -1.2795
 2418SOL     OW18889   0.287   1.745   5.776  0.6220  0.0489 -0.3615
 2418SOL    HW118890   0.367   1.692   5.788  0.7572 -0.3654 -3.0090
 2418SOL    HW218891   0.219   1.691   5.815  0.0909  0.2084 -1.0749
 2419SOL     OW18892   4.139   2.126   7.045  0.2735  0.6037 -0.9264
 2419SOL    HW118893   4.122   2.216   7.072 -1.6168 -0.2779  0.8532
 2419SOL    HW218894   4.140   2.097   7.136 -0.3008  1.8760 -0.5189
 2420SOL     OW18895   3.425   4.490   6.575  0.4371  0.6083  1.5721
 2420SOL    HW118896   3.403   4.560   6.514  0.6796 -0.2456  0.5090
 2420SOL    HW218897   3.373   4.420   6.536  0.1447  2.5236 -1.4998
 2421SOL     OW18898   1.069   4.416   3.363  0.1292  0.0406 -0.1268
 2421SOL    HW118899   1.055   4.509   3.344  1.3998  0.2561 -0.0244
 2421SOL    HW218900   1.131   4.416   3.436 -0.9359  1.8897  0.7748
 2422SOL     OW18901   0.491   1.955   3.580 -0.1764 -0.4554 -0.2531
 2422SOL    HW118902   0.530   1.998   3.655  0.2860 -1.4118  0.0627
 2422SOL    HW218903   0.491   2.024   3.514  0.3697 -0.7759 -0.5959
 2423SOL     OW18904   4.724   4.028   7.478 -0.4160 -0.2523 -0.1660
 2423SOL    HW118905   4.654   4.079   7.437  0.9591  0.6700 -1.3516
 2423SOL    HW218906   4.674   3.954   7.513  0.5774 -1.4090 -1.2064
 2424SOL     OW18907   0.705   4.297  14.490 -0.2415  0.4377  0.5998
 2424SOL    HW118908   0.726   4.204  14.501 -2.0851  0.4055  4.0101
 2424SOL    HW218909   0.785   4.331  14.452  0.4144 -0.5834  1.0534
 2425SOL     OW18910   0.178   4.725  16.143  0.2607  0.3447 -0.0646
 2425SOL    HW118911   0.235   4.654  16.173 -1.0133  0.1441  1.8491
 2425SOL    HW218912   0.098   4.678  16.119  2.1838 -3.0354  0.0823
 2426SOL     OW18913   0.028   2.584   7.979 -0.9643 -0.1914  0.2763
 2426SOL    HW118914   0.053   2.667   7.939 -0.5775 -0.2470  0.4051
 2426SOL    HW218915   4.684   2.616   8.022 -0.4968 -0.4577  1.3487
 2427SOL     OW18916   2.499   4.693  11.512 -0.3543 -0.4520  0.1402
 2427SOL    HW118917   2.428   0.001  11.466 -1.0495 -0.4052  1.2707
 2427SOL    HW218918   2.560   0.027  11.536  0.5747  0.5138 -4.9023
 2428SOL     OW18919   1.666   2.186   7.061 -0.3779  0.1575  0.2059
 2428SOL    HW118920   1.710   2.115   7.109 -2.6412 -0.4449  1.3997
 2428SOL    HW218921   1.658   2.259   7.122  1.5947  1.1980 -0.7700
 2429SOL     OW18922   0.790   0.042   5.191 -0.0344  0.0302  0.5788
 2429SOL    HW118923   0.848   0.087   5.253  0.6386 -1.3957  0.9928
 2429SOL    HW218924   0.720   0.008   5.246  0.4770 -0.6570  0.8128
 2430SOL     OW18925   3.936   2.055  17.678 -0.2663 -0.1702 -0.0200
 2430SOL    HW118926   4.027   2.082  17.691 -0.6089  0.5185  0.9437
 2430SOL    HW218927   3.940   1.965  17.711  0.6092 -0.2958 -0.4766
 2431SOL     OW18928   3.102   0.165   9.181  0.0292  0.1388  0.1029
 2431SOL    HW118929   3.169   0.171   9.250 -0.7055 -2.4607  1.0220
 2431SOL    HW218930   3.083   0.074   9.201 -0.3215  0.0217 -0.7727
 2432SOL     OW18931   0.011   1.147   2.344 -0.0798 -0.0811  0.4729
 2432SOL    HW118932   4.721   1.200   2.420 -0.8526  2.1464 -1.3309
 2432SOL    HW218933   0.043   1.075   2.398  1.2592  0.5920  0.5573
 2433SOL     OW18934   0.619   1.459  11.070 -0.8545 -0.3582  0.2810
 2433SOL    HW118935   0.669   1.527  11.116 -0.1197 -0.8635  0.2268
 2433SOL    HW218936   0.651   1.379  11.110  0.5090  0.1272  0.1778
 2434SOL     OW18937   0.209   3.760  13.237 -0.7112 -0.2238 -0.0167
 2434SOL    HW118938   0.263   3.838  13.224 -2.8509  1.4731  1.2188
 2434SOL    HW218939   0.269   3.692  13.268 -1.2297 -0.8674 -0.4197
 2435SOL     OW18940   2.708   0.940   6.507  0.1790 -0.4050 -0.2905
 2435SOL    HW118941   2.750   1.026   6.495 -1.6959  0.7832  1.6330
 2435SOL    HW218942   2.782   0.906   6.558  2.1596  0.7680 -2.3476
 2436SOL     OW18943   2.288   3.005   4.073  0.2958  0.3081 -0.1675
 2436SOL    HW118944   2.320   3.090   4.041  0.8703  0.6481  1.3101
 2436SOL    HW218945   2.291   2.959   3.989  1.6476  0.2965 -0.1166
 2437SOL     OW18946   2.077   4.011   8.093 -0.2230 -0.0508  0.1101
 2437SOL    HW118947   2.053   4.055   8.175 -0.4348 -1.7914  0.9630
 2437SOL    HW218948   2.075   4.086   8.033 -0.4846 -0.4503 -0.3847
 2438SOL     OW18949   1.949   4.717   0.057  0.2559 -0.0823 -0.4574
 2438SOL    HW118950   1.967   4.625   0.041  0.9751 -0.1657  0.8464
 2438SOL    HW218951   1.891   4.698   0.131  0.2374  0.8518 -0.2288
 2439SOL     OW18952   2.215   4.131   5.487  0.3283  0.1684  0.4882
 2439SOL    HW118953   2.227   4.162   5.576  2.2226 -0.7212  0.5314
 2439SOL    HW218954   2.304   4.102   5.468  0.6478  2.2822 -1.2095
 2440SOL     OW18955   0.274   1.606   6.188 -0.4919 -0.9291 -0.0514
 2440SOL    HW118956   0.271   1.697   6.157  3.3107 -1.8101 -3.0338
 2440SOL    HW218957   0.339   1.619   6.256  0.6461 -1.2046 -1.0886
 2441SOL     OW18958   2.800   0.770   5.674  0.2243  0.0941  0.1087
 2441SOL    HW118959   2.819   0.862   5.656  0.5682 -0.2583 -1.3269
 2441SOL    HW218960   2.725   0.784   5.733  0.7545 -1.6130  1.1773
 2442SOL     OW18961   1.586   4.197   7.255  0.2925  0.8617 -0.0853
 2442SOL    HW118962   1.654   4.153   7.305 -1.8463 -2.4097 -0.0354
 2442SOL    HW218963   1.633   4.186   7.172  3.3516 -0.3827  1.8573
 2443SOL     OW18964   1.477   1.764   2.598 -0.7844 -0.7453  0.0879
 2443SOL    HW118965   1.532   1.725   2.529  0.0525  2.6740 -1.1963
 2443SOL    HW218966   1.506   1.855   2.603 -0.4271 -0.8088 -0.6997
 2444SOL     OW18967   1.818   3.568   9.325 -0.3026 -0.0181 -0.2721
 2444SOL    HW118968   1.762   3.503   9.283  0.8470 -2.3234  1.7165
 2444SOL    HW218969   1.763   3.571   9.403 -0.4895 -3.1430 -0.2932
 2445SOL     OW18970   3.891   0.091   5.953 -0.4284  0.0988 -0.5566
 2445SOL    HW118971   3.969   0.102   5.898 -0.0183 -1.0082 -0.2050
 2445SOL    HW218972   3.927   0.031   6.018 -0.0324  0.9115 -0.0387
 2446SOL     OW18973   2.251   4.277   6.191  0.0279  0.1360 -0.2922
 2446SOL    HW118974   2.231   4.306   6.280  1.3819 -3.3324  1.1342
 2446SOL    HW218975   2.183   4.318   6.137 -0.7505 -0.1034  0.5108
 2447SOL     OW18976   0.152   1.139   8.761 -0.4748 -0.2499 -0.3389
 2447SOL    HW118977   0.133   1.102   8.675 -2.6526  0.0375 -0.0058
 2447SOL    HW218978   0.071   1.127   8.811 -0.1359  0.0353  0.2755
 2448SOL     OW18979   4.679   3.259   5.377 -0.0920 -1.0956 -0.1707
 2448SOL    HW118980   0.035   3.287   5.373 -0.5367  0.4201  0.0038
 2448SOL    HW218981   4.646   3.349   5.378  3.3440  0.1472  0.6855
 2449SOL     OW18982   2.238   2.114  16.579 -0.1356  0.0723  0.2001
 2449SOL    HW118983   2.165   2.053  16.578 -0.0656 -0.0187  0.5367
 2449SOL    HW218984   2.202   2.188  16.531  1.2481  0.3846 -0.3772
 2450SOL     OW18985   4.151   2.890   0.651 -0.5811  0.1116  0.3132
 2450SOL    HW118986   4.181   2.853   0.568  1.9967  0.5316  1.0713
 2450SOL    HW218987   4.235   2.910   0.691 -1.1682  1.7676  0.7437
 2451SOL     OW18988   4.484   2.334   7.921  0.7527 -0.2591  0.0798
 2451SOL    HW118989   4.486   2.422   7.959 -3.7416 -0.2531  0.2847
 2451SOL    HW218990   4.460   2.272   7.990  2.7865 -1.2098 -0.0454
 2452SOL     OW18991   3.584   0.564  12.046 -0.1240  0.4604  0.3691
 2452SOL    HW118992   3.585   0.586  12.139 -0.6633 -0.4430  0.5833
 2452SOL    HW218993   3.649   0.494  12.053 -0.9328 -0.1640  1.4692
 2453SOL     OW18994   2.147   1.494   8.910  0.1372  0.4125 -0.4337
 2453SOL    HW118995   2.188   1.531   8.832  0.5795  2.0349  0.5590
 2453SOL    HW218996   2.219   1.435   8.931 -0.1018  0.8001  1.5086
 2454SOL     OW18997   4.326   4.699   5.141 -0.4566 -0.4105  0.3699
 2454SOL    HW118998   4.376   4.633   5.190 -0.5704 -0.0432  0.9882
 2454SOL    HW218999   4.380   0.041   5.157  0.3267 -0.7303 -0.7145
 2455SOL     OW19000   0.357   4.489   0.333 -0.0946  0.4930 -0.0259
 2455SOL    HW119001   0.341   4.491   0.239  0.5445 -0.4945 -0.1561
 2455SOL    HW219002   0.302   4.420   0.369  0.5502  0.9131  1.8009
 2456SOL     OW19003   4.081   4.414  17.054 -1.0284 -0.8299  0.3930
 2456SOL    HW119004   4.152   4.418  17.118 -0.3788  0.9571 -0.4398
 2456SOL    HW219005   4.079   4.504  17.020 -1.8324  0.1654  3.0753
 2457SOL     OW19006   1.589   1.901   3.373  0.0972 -0.5490  0.4964
 2457SOL    HW119007   1.501   1.938   3.373 -1.3650 -4.0321  1.3683
 2457SOL    HW219008   1.641   1.975   3.404  0.8577 -0.9756  0.2296
 2458SOL     OW19009   2.746   0.924   0.888  0.5519  0.3820 -0.2818
 2458SOL    HW119010   2.654   0.922   0.913  0.6738 -0.6250  0.0954
 2458SOL    HW219011   2.757   0.832   0.867 -1.3044  0.1200 -0.0545
 2459SOL     OW19012   3.443   2.492  17.223  0.4002  0.3279  0.1988
 2459SOL    HW119013   3.455   2.471  17.315  0.3034  1.2716  0.4315
 2459SOL    HW219014   3.462   2.585  17.236  2.2295  0.2641 -2.0124
 2460SOL     OW19015   1.964   1.950  15.715  0.0855 -0.2579  0.1840
 2460SOL    HW119016   2.049   1.939  15.758  1.1633  1.6806 -1.4540
 2460SOL    HW219017   1.907   1.889  15.762  0.7078  0.4446  1.8520
 2461SOL     OW19018   1.061   3.045   9.787 -0.1425 -0.0883  0.6556
 2461SOL    HW119019   1.016   3.128   9.769  0.3765 -0.6409 -3.2450
 2461SOL    HW219020   1.139   3.056   9.733 -0.6716 -1.2600 -0.3418
 2462SOL     OW19021   0.668   2.375   8.199 -0.2290 -0.2025  0.1792
 2462SOL    HW119022   0.574   2.359   8.202 -0.4667  1.7445  2.6584
 2462SOL    HW219023   0.673   2.455   8.147  2.8575 -0.8558 -0.5532
 2463SOL     OW19024   0.993   2.999   8.187 -0.5800 -0.5706 -0.1447
 2463SOL    HW119025   1.061   3.017   8.252 -0.4737  0.0578 -0.4233
 2463SOL    HW219026   1.048   2.975   8.112 -0.2270 -1.0672  0.2838
 2464SOL     OW19027   0.214   2.780   4.341 -0.5228  0.1841  0.6268
 2464SOL    HW119028   0.136   2.798   4.393 -0.9250 -0.0707  0.1159
 2464SOL    HW219029   0.260   2.864   4.343  0.4500 -0.3557  1.0118
 2465SOL     OW19030   4.423   1.755   6.439 -0.1289  0.0773  0.1785
 2465SOL    HW119031   4.398   1.830   6.492  0.9557  1.1878 -0.8641
 2465SOL    HW219032   4.443   1.812   6.364  1.7538 -0.1289  0.5260
 2466SOL     OW19033   0.540   4.650   2.907 -0.4026  0.1031 -0.3853
 2466SOL    HW119034   0.479   4.635   2.835 -1.6261 -0.3839  0.7491
 2466SOL    HW219035   0.596   4.722   2.877  0.5186 -0.1025  0.8184
 2467SOL     OW19036   2.261   2.680   8.329  0.0877  0.1986  0.5177
 2467SOL    HW119037   2.312   2.672   8.410  0.5476  0.4034  0.2527
 2467SOL    HW219038   2.282   2.772   8.316 -0.9727  0.1805 -1.3199
 2468SOL     OW19039   4.493   1.562   9.554  0.2391  0.3261 -0.3096
 2468SOL    HW119040   4.434   1.636   9.546  2.0024  1.5545 -2.0531
 2468SOL    HW219041   4.555   1.600   9.617 -1.9011  1.4223  1.1049
 2469SOL     OW19042   1.333   2.720   8.407  0.6431  0.4210 -0.1704
 2469SOL    HW119043   1.306   2.630   8.389  2.1346 -0.0722  0.0875
 2469SOL    HW219044   1.310   2.757   8.322  3.0357 -0.2021 -1.0826
 2470SOL     OW19045   3.979   0.716   0.454  1.4277  0.3396  0.0011
 2470SOL    HW119046   3.926   0.781   0.501 -0.2540 -1.6778  0.9363
 2470SOL    HW219047   3.944   0.629   0.474  2.3991 -0.4878 -1.8842
 2471SOL     OW19048   2.703   2.332  11.748  0.0023  0.7148 -0.3375
 2471SOL    HW119049   2.690   2.246  11.788  1.9141  0.0660 -1.1092
 2471SOL    HW219050   2.789   2.322  11.708  1.0658  1.8007  1.6584
 2472SOL     OW19051   0.026   3.789   4.745 -0.2736  0.3794 -0.1169
 2472SOL    HW119052   4.726   3.803   4.658 -0.3240 -0.2407 -0.1984
 2472SOL    HW219053   0.018   3.694   4.754  1.1257  0.3572  0.9862
 2473SOL     OW19054   3.454   3.589   5.755  0.3680  0.4598  0.4127
 2473SOL    HW119055   3.426   3.667   5.803 -0.9500  0.2983 -0.0971
 2473SOL    HW219056   3.423   3.525   5.819  1.8417  0.6107  1.2771
 2474SOL     OW19057   3.826   1.549   1.168  0.1818  0.2780  0.6540
 2474SOL    HW119058   3.849   1.464   1.131  0.8904  1.2247 -1.0774
 2474SOL    HW219059   3.774   1.529   1.245  1.7989 -0.2972  1.5808
 2475SOL     OW19060   2.459   3.805   5.254  0.2576 -1.0286  0.2648
 2475SOL    HW119061   2.396   3.864   5.212 -0.4753 -0.9547  1.4548
 2475SOL    HW219062   2.412   3.784   5.335 -0.1031 -0.7878  0.1201
 2476SOL     OW19063   4.349   2.201  16.362  0.2542  0.1656  0.1213
 2476SOL    HW119064   4.338   2.248  16.445 -1.7470 -1.2951  0.6784
 2476SOL    HW219065   4.443   2.189  16.352  0.2809 -0.2648  0.9223
 2477SOL     OW19066   2.596   0.986   1.985  0.0983  0.5202 -0.2390
 2477SOL    HW119067   2.559   0.993   1.897 -2.4251  1.9563  0.9608
 2477SOL    HW219068   2.555   1.064   2.023  0.2142  0.9708 -1.0513
 2478SOL     OW19069   2.222   2.948   3.221 -0.1400  0.0317 -0.3213
 2478SOL    HW119070   2.277   3.026   3.228  0.8566 -0.7229  0.2146
 2478SOL    HW219071   2.139   2.974   3.181  0.3521  0.6286 -0.9443
 2479SOL     OW19072   1.587   0.026   7.493 -0.1168 -0.3453  0.4148
 2479SOL    HW119073   1.565   0.014   7.400  0.4704  1.2252  0.0765
 2479SOL    HW219074   1.498   0.021   7.528 -0.3633 -0.5075 -0.2342
 2480SOL     OW19075   0.045   1.913   3.103 -0.1345 -0.0569 -0.0119
 2480SOL    HW119076   0.012   1.968   3.032  2.4524  2.0851  0.4425
 2480SOL    HW219077   4.716   1.843   3.093 -0.7966  0.3972  1.1303
 2481SOL     OW19078   2.683   0.599   3.738  0.2489  0.1866  0.2250
 2481SOL    HW119079   2.710   0.691   3.740 -0.9138  0.5428 -0.4350
 2481SOL    HW219080   2.611   0.599   3.675  1.3047 -0.1770 -0.9850
 2482SOL     OW19081   3.657   2.492   3.733 -0.6269 -0.4903  0.3157
 2482SOL    HW119082   3.584   2.496   3.795 -0.2167 -0.4718  0.7928
 2482SOL    HW219083   3.713   2.428   3.776  1.3845  1.1736  0.1208
 2483SOL     OW19084   0.762   1.693   9.810 -0.5033 -0.2057 -0.4549
 2483SOL    HW119085   0.723   1.607   9.829 -1.6910  1.2186  3.3638
 2483SOL    HW219086   0.852   1.670   9.784 -0.6029 -1.0674 -0.0336
 2484SOL     OW19087   4.262   0.630   2.402  0.3613  0.3986 -0.5762
 2484SOL    HW119088   4.275   0.710   2.351 -0.3510  1.2032  0.5198
 2484SOL    HW219089   4.168   0.637   2.415  0.5049 -1.0289  1.1776
 2485SOL     OW19090   2.632   3.466   5.974  0.2177 -0.0495  0.2363
 2485SOL    HW119091   2.609   3.374   5.957 -1.2518 -0.1498  2.7664
 2485SOL    HW219092   2.665   3.484   5.886  0.3507 -1.2947  0.0330
 2486SOL     OW19093   4.617   1.818   8.118  0.2016 -0.0746  0.0815
 2486SOL    HW119094   4.669   1.740   8.100 -2.1584 -1.5862 -0.1678
 2486SOL    HW219095   4.570   1.791   8.197  1.4383  0.2584  0.9179
 2487SOL     OW19096   0.127   2.901  11.913 -0.1524 -0.4034 -0.0580
 2487SOL    HW119097   0.049   2.950  11.938 -1.3414 -1.2121 -2.1846
 2487SOL    HW219098   0.186   2.952  11.968 -0.6023 -0.1903  0.2192
 2488SOL     OW19099   2.702   3.267  16.827 -0.3757 -0.3660  0.3921
 2488SOL    HW119100   2.624   3.230  16.868 -1.4394  0.4691 -0.8988
 2488SOL    HW219101   2.711   3.359  16.850 -2.3995 -0.6152  2.1402
 2489SOL     OW19102   1.534   1.595  12.150 -0.8059  0.2934 -0.7229
 2489SOL    HW119103   1.505   1.672  12.198  0.2037  0.1144  0.1596
 2489SOL    HW219104   1.460   1.594  12.088  0.4479  0.9354 -2.2333
 2490SOL     OW19105   1.777   0.865   5.653 -0.0715  0.3590 -0.1520
 2490SOL    HW119106   1.698   0.872   5.599  0.0168  2.2634 -0.0269
 2490SOL    HW219107   1.759   0.771   5.664 -0.8847  0.5205 -0.1266
 2491SOL     OW19108   0.630   2.984   8.634  0.4334  0.5850 -0.6494
 2491SOL    HW119109   0.653   3.075   8.653  1.7630  0.3874 -1.3289
 2491SOL    HW219110   0.697   2.966   8.568  2.5536  1.6522  1.2198
 2492SOL     OW19111   4.160   0.027   8.226 -0.2464  0.1771  0.0674
 2492SOL    HW119112   4.242   0.062   8.263  0.0767  0.2448 -0.7153
 2492SOL    HW219113   4.133   4.700   8.294  1.0336 -1.9768 -1.3977
 2493SOL     OW19114   3.470   0.165   7.278 -0.2883  0.2102  0.3312
 2493SOL    HW119115   3.377   0.155   7.296 -0.0679 -0.7026  0.9387
 2493SOL    HW219116   3.455   0.165   7.183 -1.8397  0.3354  0.5880
 2494SOL     OW19117   4.657   0.311   5.351 -0.7278 -0.7522 -0.2547
 2494SOL    HW119118   4.631   0.301   5.443 -1.8879  1.2139 -0.3568
 2494SOL    HW219119   4.679   0.404   5.355 -0.7152 -0.7239 -1.0716
 2495SOL     OW19120   2.896   0.067  17.191 -0.0621  0.2443 -0.0135
 2495SOL    HW119121   2.820   0.013  17.168  0.4894 -1.2124  1.5864
 2495SOL    HW219122   2.964   0.001  17.203 -0.8552 -0.4449  0.6933
 2496SOL     OW19123   0.694   4.217   4.324  0.2529  0.1799  0.1613
 2496SOL    HW119124   0.683   4.283   4.392  0.6754 -0.8595  1.2336
 2496SOL    HW219125   0.787   4.194   4.317 -0.3039 -1.3806 -2.0299
 2497SOL     OW19126   3.591   0.258   3.349 -0.3066 -0.1663  0.0500
 2497SOL    HW119127   3.574   0.212   3.431 -0.4065 -1.2621 -0.5860
 2497SOL    HW219128   3.510   0.306   3.334  0.8683  0.2017 -5.0899
 2498SOL     OW19129   4.551   1.990   6.749  0.3109  0.0777  0.3381
 2498SOL    HW119130   4.610   2.022   6.680 -1.9798  0.2652 -1.5199
 2498SOL    HW219131   4.577   2.043   6.825 -2.3322  2.6010 -0.4865
 2499SOL     OW19132   1.813   0.508  13.671 -0.8929  0.4425  0.0546
 2499SOL    HW119133   1.821   0.559  13.591 -2.0601 -1.8606 -1.5317
 2499SOL    HW219134   1.818   0.581  13.733  1.3840  0.0332  0.3574
 2500SOL     OW19135   1.233   0.179   3.354 -0.7483 -0.2406 -0.5506
 2500SOL    HW119136   1.204   0.171   3.263  2.2646  0.1315 -1.5496
 2500SOL    HW219137   1.230   0.274   3.365 -0.4133 -0.0908 -1.7005
 2501SOL     OW19138   1.842   1.548   9.229  0.3904  0.5870  0.5216
 2501SOL    HW119139   1.844   1.484   9.158 -0.1226  1.7682 -0.5608
 2501SOL    HW219140   1.934   1.573   9.215  0.4801  1.3671  2.5246
 2502SOL     OW19141   1.722   4.078  13.128 -0.2052 -0.0591  0.3494
 2502SOL    HW119142   1.683   4.131  13.198 -0.0259 -1.5932  1.6144
 2502SOL    HW219143   1.803   4.128  13.118  0.2471 -0.9211 -0.2626
 2503SOL     OW19144   4.176   1.374  16.672 -0.3968  0.3306  0.3218
 2503SOL    HW119145   4.231   1.452  16.677  0.7055 -0.2655 -2.2074
 2503SOL    HW219146   4.226   1.305  16.716 -0.1797 -0.5046 -1.2061
 2504SOL     OW19147   3.817   1.173   8.137  0.6202 -0.7353  0.1629
 2504SOL    HW119148   3.869   1.199   8.213 -0.7337  0.6288  0.6087
 2504SOL    HW219149   3.871   1.210   8.067  0.1549 -0.0866  0.1505
 2505SOL     OW19150   0.476   4.242   9.504 -0.0274 -0.3277  0.2247
 2505SOL    HW119151   0.500   4.157   9.542 -0.6645 -1.1459 -1.1779
 2505SOL    HW219152   0.380   4.234   9.506 -0.1480  0.7475 -1.4009
 2506SOL     OW19153   4.470   3.898   7.042 -0.5690  0.8497  0.5599
 2506SOL    HW119154   4.399   3.881   7.104 -1.1498 -1.6459 -0.8095
 2506SOL    HW219155   4.543   3.853   7.087 -0.8447  0.3817  0.5410
 2507SOL     OW19156   0.738   3.434   8.838 -0.3037 -0.0160 -0.3089
 2507SOL    HW119157   0.820   3.447   8.887 -0.7520 -2.2843  1.0438
 2507SOL    HW219158   0.751   3.348   8.798 -1.0377 -0.1257 -0.3180
 2508SOL     OW19159   4.460   3.542   6.801  0.0445 -0.3954  0.1004
 2508SOL    HW119160   4.418   3.465   6.761 -2.9436  1.1863  0.1871
 2508SOL    HW219161   4.441   3.611   6.737 -2.4637 -0.5472  0.6757
 2509SOL     OW19162   2.385   1.991   8.397  0.3896 -0.1576 -0.3073
 2509SOL    HW119163   2.477   2.015   8.403  1.0317 -2.5142 -0.7850
 2509SOL    HW219164   2.376   1.971   8.304  0.5820  0.6037 -0.4908
 2510SOL     OW19165   0.312   1.229  14.252 -0.0766  0.1291  0.5085
 2510SOL    HW119166   0.349   1.147  14.218 -1.2413 -1.5808  3.3315
 2510SOL    HW219167   0.391   1.275  14.280  0.3961 -0.2880 -0.1491
 2511SOL     OW19168   1.690   4.014  14.439 -0.6591  0.0606  0.1438
 2511SOL    HW119169   1.641   4.095  14.422 -0.4727 -0.1651 -1.4156
 2511SOL    HW219170   1.706   4.017  14.534  3.1306 -1.7652 -0.4481
 2512SOL     OW19171   4.345   4.368   1.522  0.6617  0.8109  0.3247
 2512SOL    HW119172   4.342   4.464   1.519 -0.3509  0.7398 -0.9893
 2512SOL    HW219173   4.359   4.356   1.615  2.3465  1.7074  0.1935
 2513SOL     OW19174   2.209   2.846   1.789 -0.2170 -0.0149  1.1888
 2513SOL    HW119175   2.265   2.770   1.783  0.6730  0.5015  2.8053
 2513SOL    HW219176   2.255   2.916   1.743 -3.0257  1.6195  0.8102
 2514SOL     OW19177   2.459   3.833   8.481  0.2214 -0.0713 -0.0409
 2514SOL    HW119178   2.421   3.843   8.568 -2.2537 -2.6807 -0.8076
 2514SOL    HW219179   2.502   3.918   8.471  0.8025 -0.3173  0.3702
 2515SOL     OW19180   4.316   4.410  17.500 -0.0051  0.1529 -0.3213
 2515SOL    HW119181   4.266   4.483  17.535  0.0418 -0.2361  0.5745
 2515SOL    HW219182   4.259   4.335  17.519 -0.2935  0.7423  1.1671
 2516SOL     OW19183   1.242   1.134   7.471  0.0672  0.4699 -0.4768
 2516SOL    HW119184   1.181   1.074   7.513  0.1391  1.2123  0.7191
 2516SOL    HW219185   1.316   1.137   7.532  1.5631 -1.7489 -2.1881
 2517SOL     OW19186   1.569   1.455   6.500 -0.3970  0.0254 -0.1020
 2517SOL    HW119187   1.648   1.472   6.551  0.1771 -0.1700 -0.9332
 2517SOL    HW219188   1.585   1.492   6.413 -2.5115 -0.5043 -0.7347
 2518SOL     OW19189   1.542   3.034   4.737  0.0894  0.4389  0.3767
 2518SOL    HW119190   1.578   3.122   4.750  0.3311  0.4126 -0.0952
 2518SOL    HW219191   1.566   2.987   4.816  1.1115 -1.2473 -0.9167
 2519SOL     OW19192   0.912   1.863   2.899  0.6420 -0.0314 -0.0110
 2519SOL    HW119193   0.870   1.941   2.934  2.3702 -0.1685  2.4187
 2519SOL    HW219194   0.969   1.849   2.975  2.4380  1.0942 -1.1478
 2520SOL     OW19195   2.892   1.252   0.008 -0.0694 -0.2329  0.5911
 2520SOL    HW119196   2.875   1.341  17.718 -0.1716 -0.1197  0.9885
 2520SOL    HW219197   2.894   1.266   0.103 -1.0252  1.8822  0.3023
 2521SOL     OW19198   4.056   2.059  12.885 -0.0468 -0.1187 -0.1131
 2521SOL    HW119199   4.147   2.031  12.874  0.5198  2.2039 -1.4034
 2521SOL    HW219200   4.064   2.151  12.860 -0.1042 -0.2993 -0.8039
 2522SOL     OW19201   2.742   3.886  16.402 -0.3664  0.0527  0.1014
 2522SOL    HW119202   2.805   3.891  16.474 -0.9105 -0.1306  0.5932
 2522SOL    HW219203   2.707   3.975  16.390 -0.1102  0.1014 -0.2649
 2523SOL     OW19204   0.201   3.736   2.444  0.1023  0.0141 -0.2748
 2523SOL    HW119205   0.228   3.726   2.535 -1.1400  0.6489  0.1772
 2523SOL    HW219206   0.153   3.819   2.444  0.4177  0.1949 -0.6795
 2524SOL     OW19207   3.395   0.388   8.013 -0.1529 -0.5490  0.2900
 2524SOL    HW119208   3.471   0.330   8.022  0.7975  0.7229  0.5061
 2524SOL    HW219209   3.392   0.442   8.091 -1.9230  1.0799 -0.8991
 2525SOL     OW19210   1.908   0.255  12.294  0.4615  0.3107  0.0397
 2525SOL    HW119211   1.965   0.227  12.366 -1.0304 -1.2526  0.5908
 2525SOL    HW219212   1.963   0.315  12.243 -1.4976  0.4169 -1.9101
 2526SOL     OW19213   3.550   3.879   2.771  0.8573 -0.0512 -0.3233
 2526SOL    HW119214   3.600   3.869   2.852  0.6031 -0.9999 -0.2889
 2526SOL    HW219215   3.615   3.846   2.709 -0.3908 -2.6567 -0.2375
 2527SOL     OW19216   1.562   1.309   2.682  0.2624 -0.4788 -0.5353
 2527SOL    HW119217   1.646   1.351   2.696  0.0518  0.0254 -0.7891
 2527SOL    HW219218   1.510   1.337   2.757  1.8223 -1.1017  0.7700
 2528SOL     OW19219   0.826   3.809   2.888  0.1896 -0.3380 -0.0020
 2528SOL    HW119220   0.853   3.753   2.961  0.0550 -0.7969 -0.3031
 2528SOL    HW219221   0.867   3.891   2.916 -0.6834  0.8453 -2.1248
 2529SOL     OW19222   2.119   3.096   2.177  0.3972  0.1025  0.2207
 2529SOL    HW119223   2.106   3.162   2.108 -1.3501  1.7474  2.1212
 2529SOL    HW219224   2.070   3.027   2.133 -0.9184  1.5296 -0.5996
 2530SOL     OW19225   0.888   3.290   5.689 -0.2424 -0.1080 -0.7143
 2530SOL    HW119226   0.936   3.372   5.696 -0.9473  0.2412 -0.0582
 2530SOL    HW219227   0.815   3.305   5.749  0.7538 -1.8592  0.9211
 2531SOL     OW19228   1.302   2.824   6.887  0.8649  0.0984  0.0562
 2531SOL    HW119229   1.368   2.758   6.864 -0.6296 -1.2322 -0.3686
 2531SOL    HW219230   1.220   2.781   6.911  0.9627  0.9378  1.9642
 2532SOL     OW19231   2.068   4.515   2.676 -0.1137 -0.0708 -0.6357
 2532SOL    HW119232   1.982   4.555   2.690  0.2184  0.5706 -0.3834
 2532SOL    HW219233   2.092   4.494   2.767 -1.2851  0.4183 -0.2114
 2533SOL     OW19234   2.582   4.109  16.370  0.0550  0.1801 -0.0964
 2533SOL    HW119235   2.604   4.147  16.285 -1.5148  1.2911  0.0094
 2533SOL    HW219236   2.488   4.096  16.365  0.0509  0.1200  0.1319
 2534SOL     OW19237   2.204   4.384   6.450  0.1712 -0.3436 -0.0263
 2534SOL    HW119238   2.201   4.321   6.521  0.8552  1.9189  2.0209
 2534SOL    HW219239   2.133   4.444   6.472  1.3003  1.6063 -1.5865
 2535SOL     OW19240   0.786   4.544  13.680  0.1620 -0.4011 -0.2214
 2535SOL    HW119241   0.718   4.479  13.699 -0.4517  0.8331  1.8370
 2535SOL    HW219242   0.854   4.493  13.725  1.0853 -0.1303 -1.3099
 2536SOL     OW19243   2.201   0.560   8.589 -0.0780 -0.7047 -0.1193
 2536SOL    HW119244   2.133   0.521   8.646  0.2003 -1.4627 -0.3092
 2536SOL    HW219245   2.231   0.643   8.624  0.9984 -0.8909 -0.6077
 2537SOL     OW19246   4.477   4.365   1.903 -0.3734 -0.1648 -0.0068
 2537SOL    HW119247   4.389   4.328   1.891  0.9072 -1.9649 -3.8111
 2537SOL    HW219248   4.526   4.316   1.837 -0.0415 -0.1601  0.2390
 2538SOL     OW19249   0.901   4.004  17.501 -0.2581  0.3550  0.2963
 2538SOL    HW119250   0.976   4.061  17.515  1.2364 -1.9230  1.6040
 2538SOL    HW219251   0.885   4.041  17.414 -0.0085  0.6197  0.3631
 2539SOL     OW19252   2.579   0.257   4.780 -0.6032  0.2718 -0.2925
 2539SOL    HW119253   2.534   0.225   4.859  0.9460  1.0062  0.8887
 2539SOL    HW219254   2.519   0.222   4.714 -0.5199  0.1253 -0.2904
 2540SOL     OW19255   1.708   1.905   7.123 -0.1501 -0.0613  0.1931
 2540SOL    HW119256   1.628   1.852   7.117  0.1505 -0.5629  0.6160
 2540SOL    HW219257   1.720   1.910   7.217  4.1117  1.4507 -0.4424
 2541SOL     OW19258   1.448   1.578   4.602  0.2606 -0.1723  0.4569
 2541SOL    HW119259   1.497   1.499   4.579 -0.8402 -0.6768 -0.1196
 2541SOL    HW219260   1.434   1.565   4.696  0.8471  2.2183  0.8753
 2542SOL     OW19261   4.038   4.235   7.207  0.1179  0.4762 -0.2513
 2542SOL    HW119262   4.014   4.322   7.176  0.7860  0.0657 -1.9307
 2542SOL    HW219263   4.085   4.253   7.288 -0.0401  0.0972 -0.0706
 2543SOL     OW19264   0.195   0.133   6.877 -0.0780  0.1089 -0.6139
 2543SOL    HW119265   0.286   0.117   6.853 -0.0975 -0.8300 -0.0917
 2543SOL    HW219266   0.159   0.130   6.788  0.0737 -3.2405 -0.5699
 2544SOL     OW19267   1.074   2.491   7.373 -0.4043  0.4490 -0.1507
 2544SOL    HW119268   1.157   2.511   7.416 -0.8448 -0.8173  1.2574
 2544SOL    HW219269   1.051   2.419   7.432 -0.9063 -0.5539 -1.5654
 2545SOL     OW19270   3.213   3.406  13.204 -0.7918 -0.0956 -0.4061
 2545SOL    HW119271   3.216   3.359  13.120  0.3656 -1.4474  0.3781
 2545SOL    HW219272   3.182   3.333  13.258 -0.0404  0.4624  0.7776
 2546SOL     OW19273   3.151   0.555   7.046 -0.3466 -0.4879 -0.2229
 2546SOL    HW119274   3.131   0.517   7.132 -2.4075 -0.2698 -0.6072
 2546SOL    HW219275   3.125   0.487   6.984  2.0829 -1.7339  0.1279
 2547SOL     OW19276   3.132   0.366   4.545  0.4448  0.1614 -0.1696
 2547SOL    HW119277   3.095   0.351   4.458  0.6026 -2.3736  0.1978
 2547SOL    HW219278   3.221   0.381   4.513 -0.1111  1.9810 -0.8590
 2548SOL     OW19279   2.005   0.879   1.629  0.3582  0.1899  0.2566
 2548SOL    HW119280   1.978   0.787   1.627 -1.1072  0.6235  0.0222
 2548SOL    HW219281   2.048   0.878   1.715 -0.5413 -0.4174  0.7028
 2549SOL     OW19282   3.127   3.700   7.688 -0.6333 -0.7612 -0.8210
 2549SOL    HW119283   3.067   3.774   7.688  0.4918  0.1541  0.8406
 2549SOL    HW219284   3.209   3.749   7.682  0.6011 -2.4562  1.9538
 2550SOL     OW19285   2.622   4.034  15.997 -0.0762 -0.1346  0.2167
 2550SOL    HW119286   2.679   4.072  15.930  0.5398 -0.6052  0.4745
 2550SOL    HW219287   2.593   4.113  16.043 -0.2345  1.8731 -3.3714
 2551SOL     OW19288   1.262   3.478   7.677  0.4242 -0.0434  0.2487
 2551SOL    HW119289   1.178   3.506   7.714 -0.8787 -0.0931 -2.6612
 2551SOL    HW219290   1.235   3.468   7.586  0.3169 -1.8976  0.4749
 2552SOL     OW19291   1.570   0.697   8.709 -0.0480 -0.5860 -0.0123
 2552SOL    HW119292   1.611   0.675   8.625 -0.2445 -1.9049  0.2485
 2552SOL    HW219293   1.492   0.731   8.664  0.4353 -1.3652 -1.4351
 2553SOL     OW19294   3.972   1.166   8.765  0.3735 -0.0182 -0.1681
 2553SOL    HW119295   3.985   1.247   8.716  4.2676 -0.3129  0.3729
 2553SOL    HW219296   3.998   1.106   8.696  2.3673  2.2119 -1.3477
 2554SOL     OW19297   3.542   1.517   3.424 -0.6378 -0.2973  0.5503
 2554SOL    HW119298   3.546   1.598   3.476  0.0374  0.3685 -0.5356
 2554SOL    HW219299   3.450   1.491   3.431 -0.9864  0.4460 -1.2811
 2555SOL     OW19300   4.731   4.293   8.422 -0.2596 -0.1249 -0.2772
 2555SOL    HW119301   0.045   4.305   8.340 -0.6788  3.4048 -0.0372
 2555SOL    HW219302   4.646   4.336   8.413 -0.4434 -0.3760  0.2833
 2556SOL     OW19303   2.213   1.754   1.844 -0.0101  1.2137 -0.3822
 2556SOL    HW119304   2.239   1.775   1.934 -0.8115 -0.5261  0.2526
 2556SOL    HW219305   2.153   1.681   1.858 -0.3850  1.3081 -1.4934
 2557SOL     OW19306   2.074   3.551   2.121 -0.2718  0.5344  0.5675
 2557SOL    HW119307   2.065   3.461   2.152 -1.7684  0.4703 -0.0498
 2557SOL    HW219308   1.990   3.584   2.154 -1.1082  0.2427 -1.2754
 2558SOL     OW19309   1.830   3.206   4.595 -0.2225 -0.2235  0.2009
 2558SOL    HW119310   1.835   3.276   4.529 -0.1129  0.2229  0.6874
 2558SOL    HW219311   1.849   3.123   4.552  0.5973 -0.3289  0.7901
 2559SOL     OW19312   1.460   1.968  13.600  0.1160 -0.3440  0.2476
 2559SOL    HW119313   1.373   2.005  13.616  0.0036 -0.1031 -0.9597
 2559SOL    HW219314   1.438   1.877  13.581 -0.3646 -0.3789  0.9489
 2560SOL     OW19315   0.933   2.501  15.332  1.1269 -0.4321  0.6034
 2560SOL    HW119316   0.908   2.501  15.240 -0.0076 -0.4503  0.9161
 2560SOL    HW219317   0.938   2.409  15.358 -3.4162 -1.0679 -0.9021
 2561SOL     OW19318   3.549   1.881   3.828  0.2998  0.5667 -0.7173
 2561SOL    HW119319   3.637   1.919   3.838 -0.2546  1.4410  0.8361
 2561SOL    HW219320   3.530   1.907   3.738  3.5435 -1.9637 -2.1400
 2562SOL     OW19321   4.459   0.412   6.207 -0.1527  0.0052 -0.6883
 2562SOL    HW119322   4.553   0.418   6.190 -0.0913 -0.6104 -0.5854
 2562SOL    HW219323   4.463   0.448   6.296 -1.1476 -2.4313  0.3372
 2563SOL     OW19324   1.267   2.399   5.930 -0.0654  0.1194 -0.5909
 2563SOL    HW119325   1.317   2.472   5.893 -0.1428  0.1079 -0.7205
 2563SOL    HW219326   1.204   2.462   5.967  1.6168 -0.0545  2.5232
 2564SOL     OW19327   2.527   3.775   7.017 -0.2665 -0.0894 -0.2671
 2564SOL    HW119328   2.536   3.830   6.938 -1.9211 -0.0694 -0.4259
 2564SOL    HW219329   2.605   3.719   7.014 -0.4966 -0.3021 -2.1869
 2565SOL     OW19330   3.111   4.093   8.878  0.2869 -0.5948 -0.0068
 2565SOL    HW119331   3.057   4.172   8.871  1.6172  0.3851  0.7109
 2565SOL    HW219332   3.062   4.017   8.847 -0.6657  0.6844 -1.6602
 2566SOL     OW19333   3.497   2.197   1.520 -0.0036  0.5687  0.0953
 2566SOL    HW119334   3.570   2.199   1.457 -0.1393 -0.0726 -0.0841
 2566SOL    HW219335   3.435   2.198   1.447 -0.0355  2.7435  0.1639
 2567SOL     OW19336   2.124   0.079   2.797  0.1701 -0.2620  0.4859
 2567SOL    HW119337   2.031   0.064   2.811  0.1005  0.0079  0.3260
 2567SOL    HW219338   2.153   0.017   2.863  0.6099 -2.0993 -1.4402
 2568SOL     OW19339   1.821   3.045  16.295  0.5039  0.1107  0.8343
 2568SOL    HW119340   1.728   3.043  16.317  0.3492 -3.0688 -0.1429
 2568SOL    HW219341   1.841   3.130  16.336 -0.1289 -0.0669  1.5077
 2569SOL     OW19342   0.654   1.749   7.497 -0.2528 -0.3208  0.4912
 2569SOL    HW119343   0.619   1.723   7.412  0.1644 -0.4219  0.3477
 2569SOL    HW219344   0.652   1.844   7.489 -1.4916 -0.5083 -1.4071
 2570SOL     OW19345   1.258   3.873   5.409 -0.0735  0.1210  0.3816
 2570SOL    HW119346   1.352   3.883   5.423  0.0764 -1.0799  0.2848
 2570SOL    HW219347   1.246   3.814   5.335 -1.6415  0.9589 -0.0169
 2571SOL     OW19348   2.464   3.560   5.057 -0.0557  0.5050 -0.1613
 2571SOL    HW119349   2.498   3.648   5.041 -2.1060  1.0535 -1.5860
 2571SOL    HW219350   2.505   3.514   4.984 -0.0507 -0.4895  0.4799
 2572SOL     OW19351   2.043   0.958   5.631  0.0368 -0.4379 -0.1723
 2572SOL    HW119352   1.970   0.912   5.673 -0.7688  0.1171 -0.9602
 2572SOL    HW219353   2.049   0.925   5.541 -0.5318  2.1137 -1.1430
 2573SOL     OW19354   2.214   4.448   5.917 -0.6291 -0.0057 -0.1825
 2573SOL    HW119355   2.162   4.527   5.932  0.5536  0.8332 -0.4554
 2573SOL    HW219356   2.159   4.401   5.855  1.2071 -1.9003 -0.3647
 2574SOL     OW19357   4.576   4.555  17.121  0.0979 -0.3265 -0.5768
 2574SOL    HW119358   4.606   4.472  17.083  0.7113 -0.2755 -0.1918
 2574SOL    HW219359   4.658   4.602  17.137  0.0256  0.1202 -1.5203
 2575SOL     OW19360   3.000   1.372   1.320 -0.4095 -0.2426  0.2471
 2575SOL    HW119361   3.035   1.403   1.404 -1.3841  1.5686 -0.0255
 2575SOL    HW219362   2.993   1.455   1.274 -2.3187  0.1194  1.1792
 2576SOL     OW19363   2.388   2.857   9.638  0.9723 -0.1737  0.1603
 2576SOL    HW119364   2.420   2.831   9.552 -1.6605 -0.9752 -0.5788
 2576SOL    HW219365   2.444   2.808   9.698  0.6388 -0.8325 -0.0684
 2577SOL     OW19366   3.406   1.003   5.203 -0.0485 -0.0447  0.2272
 2577SOL    HW119367   3.405   0.908   5.212  4.0653 -0.1959 -1.2681
 2577SOL    HW219368   3.348   1.013   5.127 -0.4962 -1.5943  0.3748
 2578SOL     OW19369   0.626   2.564   2.316  0.0809  0.0427  0.0932
 2578SOL    HW119370   0.558   2.519   2.366 -0.6704  0.5750 -0.4444
 2578SOL    HW219371   0.574   2.597   2.242  0.7338  1.7974  0.4349
 2579SOL     OW19372   0.622   2.741  15.754 -0.1098  0.1665  0.2986
 2579SOL    HW119373   0.644   2.674  15.689 -0.0982  1.1339 -0.6873
 2579SOL    HW219374   0.676   2.815  15.727  0.3737 -0.0922  0.5550
 2580SOL     OW19375   2.842   3.591   4.573  0.2877  0.4904  0.1658
 2580SOL    HW119376   2.828   3.679   4.607  0.0043 -0.3995  2.3368
 2580SOL    HW219377   2.764   3.591   4.517  0.9054 -2.1129 -0.6813
 2581SOL     OW19378   2.566   3.885  16.749  0.0937  0.2131 -0.1296
 2581SOL    HW119379   2.590   3.863  16.839 -3.1923 -0.0582  0.7167
 2581SOL    HW219380   2.486   3.934  16.771  0.1482  1.0207 -1.7595
 2582SOL     OW19381   4.373   1.191  17.413  0.2891  0.2353  0.3273
 2582SOL    HW119382   4.462   1.181  17.448  0.3251  1.6886  0.6585
 2582SOL    HW219383   4.311   1.173  17.483 -1.1014  2.0895 -0.4207
 2583SOL     OW19384   2.343   1.064   9.258 -0.2830  0.0534 -0.5830
 2583SOL    HW119385   2.359   0.997   9.192  0.0485  0.1417 -0.5913
 2583SOL    HW219386   2.428   1.092   9.292 -0.0166  0.1840 -1.3561
 2584SOL     OW19387   2.124   1.149   6.660  0.2373 -0.2955  0.2414
 2584SOL    HW119388   2.126   1.145   6.756 -0.7114 -0.0498  0.2725
 2584SOL    HW219389   2.203   1.199   6.639  0.2404 -0.7824 -0.9179
 2585SOL     OW19390   4.443   2.000   9.876 -0.8965 -0.6070  0.7550
 2585SOL    HW119391   4.406   1.951   9.803  0.4869 -1.3443  0.5461
 2585SOL    HW219392   4.366   2.050   9.903  2.6112  3.4517  3.2239
 2586SOL     OW19393   1.696   2.296   9.071  0.7384  0.7762 -0.1687
 2586SOL    HW119394   1.782   2.325   9.040  1.5942 -1.7094 -0.1228
 2586SOL    HW219395   1.648   2.265   8.994  0.4487 -0.0606  0.3491
 2587SOL     OW19396   1.717   0.696  11.618 -0.7270 -0.1028  0.7736
 2587SOL    HW119397   1.780   0.752  11.574 -0.1154  0.9628  3.0324
 2587SOL    HW219398   1.698   0.746  11.697  0.4988  1.8612 -0.1883
 2588SOL     OW19399   2.949   4.553  16.990 -0.3326  0.7828  0.6016
 2588SOL    HW119400   3.008   4.495  16.942 -0.8747  0.4667  0.3042
 2588SOL    HW219401   2.987   4.567  17.076  1.7326 -0.5459 -0.1035
 2589SOL     OW19402   4.718   4.215   5.388  0.4032  0.0223 -0.2807
 2589SOL    HW119403   4.734   4.305   5.417 -0.0642  0.0278 -0.0410
 2589SOL    HW219404   4.625   4.232   5.372 -0.1454 -3.3553 -0.5462
 2590SOL     OW19405   3.068   0.872   8.197 -0.1670  0.8527 -0.1082
 2590SOL    HW119406   3.089   0.929   8.271 -0.2646 -1.5312  1.7491
 2590SOL    HW219407   3.111   0.922   8.127  1.0460 -1.1986 -0.8215
 2591SOL     OW19408   1.759   2.466   4.471 -0.4997  0.7950 -0.1357
 2591SOL    HW119409   1.730   2.550   4.505  2.9879  1.2500  1.7395
 2591SOL    HW219410   1.674   2.423   4.458  0.3326 -1.0120  0.3289
 2592SOL     OW19411   3.479   4.463  10.902  0.2219  0.3000 -0.4025
 2592SOL    HW119412   3.454   4.438  10.813  2.9633 -1.2587 -0.7179
 2592SOL    HW219413   3.403   4.424  10.946 -1.1708  1.7469 -1.5102
 2593SOL     OW19414   0.608   1.904  13.018  0.1179  0.2624  0.0142
 2593SOL    HW119415   0.654   1.947  12.945  3.4474 -0.2920  1.8267
 2593SOL    HW219416   0.515   1.906  12.995  0.6633  1.8439 -2.0531
 2594SOL     OW19417   4.526   1.716  16.771  0.3229 -0.5505 -0.4468
 2594SOL    HW119418   4.540   1.694  16.863  1.3570 -1.0547 -0.7211
 2594SOL    HW219419   4.587   1.657  16.726 -0.1980 -1.6492  0.2887
 2595SOL     OW19420   2.474   0.563   8.673  0.6523 -0.3157  0.8852
 2595SOL    HW119421   2.425   0.622   8.729 -1.0285  0.4650 -1.3786
 2595SOL    HW219422   2.408   0.508   8.630  0.2027 -0.9843  2.4264
 2596SOL     OW19423   0.096   4.098   6.830 -0.3980 -0.4468  0.5372
 2596SOL    HW119424   0.181   4.056   6.832  1.1052  2.6204  1.2092
 2596SOL    HW219425   0.110   4.185   6.792  0.9309 -0.0575  1.9143
 2597SOL     OW19426   3.890   2.005   1.077  0.4150  0.0921 -0.1435
 2597SOL    HW119427   3.841   2.043   1.004 -2.7895 -0.6084  1.6461
 2597SOL    HW219428   3.919   2.083   1.125  1.8376 -0.3262 -0.3420
 2598SOL     OW19429   4.156   0.335  15.574 -0.0169  0.2185  0.6441
 2598SOL    HW119430   4.247   0.349  15.598  0.0093 -0.7452  1.1145
 2598SOL    HW219431   4.114   0.401  15.629  0.0879  0.9339 -0.1277
 2599SOL     OW19432   0.639   3.269   6.229 -0.5151  0.2141  0.3311
 2599SOL    HW119433   0.630   3.330   6.156  0.8307  0.3499  0.2637
 2599SOL    HW219434   0.618   3.322   6.306 -0.4015 -0.1676  0.6280
 2600SOL     OW19435   1.830   3.553   8.896 -0.0747 -0.3274  0.4072
 2600SOL    HW119436   1.892   3.488   8.865  1.0186  2.0973 -2.4636
 2600SOL    HW219437   1.752   3.508   8.863 -0.3542  1.8770 -1.9431
 2601SOL     OW19438   4.094   2.810   2.213 -0.0877 -0.3176 -0.1037
 2601SOL    HW119439   4.089   2.842   2.124 -1.8207 -3.3107 -1.0999
 2601SOL    HW219440   4.094   2.714   2.204  3.1188 -0.3823  0.7642
 2602SOL     OW19441   3.996   1.740   4.412  0.6634 -0.0459 -0.0295
 2602SOL    HW119442   3.998   1.831   4.383 -0.0468 -0.2089 -0.5992
 2602SOL    HW219443   4.026   1.704   4.328  2.1429  2.7505 -0.6801
 2603SOL     OW19444   4.021   3.852   1.289  0.8559  0.2456 -0.0878
 2603SOL    HW119445   4.073   3.909   1.346  0.5647  0.3457  0.0755
 2603SOL    HW219446   4.004   3.919   1.223  2.6387 -2.6892 -3.5462
 2604SOL     OW19447   3.796   2.114   6.160 -0.0843  0.4241  0.3386
 2604SOL    HW119448   3.775   2.044   6.099  1.2321  1.8458 -1.7208
 2604SOL    HW219449   3.804   2.062   6.240 -0.8965 -1.2639 -0.6879
 2605SOL     OW19450   0.945   3.685   4.426 -0.6412  0.5041 -0.1848
 2605SOL    HW119451   1.003   3.611   4.406 -0.8661  0.4852 -0.7808
 2605SOL    HW219452   0.863   3.640   4.444 -0.7217  0.6429 -0.2049
 2606SOL     OW19453   0.916   2.462   3.422 -0.8578 -0.4562  0.1281
 2606SOL    HW119454   0.863   2.519   3.366  1.1174  2.3305  1.1219
 2606SOL    HW219455   0.898   2.509   3.503  2.0582  1.0335 -0.1144
 2607SOL     OW19456   4.245   1.316   8.313 -0.3913 -0.6370 -0.2056
 2607SOL    HW119457   4.236   1.406   8.282  0.6391 -0.3059  0.4700
 2607SOL    HW219458   4.271   1.281   8.227  1.2530  1.2161 -0.4523
 2608SOL     OW19459   3.883   3.653   8.256  0.1578 -0.1870  0.6802
 2608SOL    HW119460   3.807   3.648   8.314 -1.1166  2.2326 -0.7735
 2608SOL    HW219461   3.871   3.743   8.225 -0.0551 -1.5160 -3.1168
 2609SOL     OW19462   4.059   1.055   4.937  0.2363  1.0556 -0.2313
 2609SOL    HW119463   4.048   1.129   4.877 -1.0036  0.7432 -0.3686
 2609SOL    HW219464   4.017   0.984   4.890  2.5006 -0.3490 -0.1339
 2610SOL     OW19465   2.684   1.426   7.106  0.4244 -0.4499 -0.5212
 2610SOL    HW119466   2.680   1.436   7.011  0.3544  1.9331 -0.2614
 2610SOL    HW219467   2.589   1.431   7.121  0.4208 -0.9939 -0.3713
 2611SOL     OW19468   1.169   0.727   5.737  0.0124  0.0650  0.8336
 2611SOL    HW119469   1.261   0.730   5.712 -0.3783 -1.6253 -0.8260
 2611SOL    HW219470   1.117   0.785   5.681  0.3572 -1.1137 -0.7217
 2612SOL     OW19471   3.051   3.732  13.221 -0.2198  0.8186 -0.6338
 2612SOL    HW119472   2.983   3.782  13.176 -1.1134  0.9400  0.8660
 2612SOL    HW219473   3.072   3.676  13.146 -0.0104 -0.1519  0.1481
 2613SOL     OW19474   0.785   3.167  16.873 -0.1777 -0.2634  0.4356
 2613SOL    HW119475   0.828   3.114  16.940 -0.8764  0.9472  1.8356
 2613SOL    HW219476   0.696   3.134  16.863 -1.3568  2.6622  1.3067
 2614SOL     OW19477   0.348   3.060   5.486 -0.2316  0.2727 -0.1854
 2614SOL    HW119478   0.316   3.146   5.515  0.3724  0.6828 -0.7479
 2614SOL    HW219479   0.374   3.072   5.395 -1.2150 -0.0949 -0.5224
 2615SOL     OW19480   0.686   1.407   7.443  0.2230 -0.2194  0.0529
 2615SOL    HW119481   0.681   1.320   7.403  0.6861 -0.5206  0.6432
 2615SOL    HW219482   0.656   1.466   7.375 -1.0550 -2.0545 -0.9567
 2616SOL     OW19483   2.046   1.449   2.603  0.7411  0.1263 -0.4610
 2616SOL    HW119484   2.123   1.505   2.595  0.7980  0.1013 -0.0565
 2616SOL    HW219485   2.078   1.395   2.675  1.0347 -1.2719 -1.6381
 2617SOL     OW19486   2.608   4.054   1.376  0.0521  0.9348 -0.6648
 2617SOL    HW119487   2.516   4.074   1.356 -0.1575  1.2587  0.6532
 2617SOL    HW219488   2.635   3.992   1.308  2.9546  0.5945  0.7903
 2618SOL     OW19489   2.815   2.712   6.992  0.0921  0.6835  0.1835
 2618SOL    HW119490   2.784   2.752   6.911 -0.0133 -2.0300 -1.1407
 2618SOL    HW219491   2.876   2.644   6.963 -3.3000 -1.9346 -0.8977
 2619SOL     OW19492   4.101   4.096   7.550 -0.0198  0.0756 -0.3803
 2619SOL    HW119493   4.090   4.001   7.538  2.4782 -0.3289  0.4736
 2619SOL    HW219494   4.181   4.091   7.603 -0.1994  0.6412 -0.0632
 2620SOL     OW19495   3.472   4.527   3.933  0.0210  0.3409  0.2377
 2620SOL    HW119496   3.531   4.493   3.865 -2.1124 -0.4622 -1.2081
 2620SOL    HW219497   3.520   4.478   4.001  0.0168 -0.9580 -0.6887
 2621SOL     OW19498   3.095   1.015   8.434 -0.1210 -0.0704  0.0214
 2621SOL    HW119499   3.105   1.005   8.529  0.3064 -0.0582 -0.0182
 2621SOL    HW219500   3.037   1.091   8.439  0.0526  0.0767 -0.1844
 2622SOL     OW19501   1.085   0.379   0.775  0.1430 -0.1753 -0.0566
 2622SOL    HW119502   1.160   0.327   0.803 -0.1375 -0.7745 -0.4262
 2622SOL    HW219503   1.041   0.415   0.852  0.7617 -0.3547  0.3763
 2623SOL     OW19504   2.012   3.260  16.082 -0.0415 -0.1268 -0.5628
 2623SOL    HW119505   2.083   3.316  16.112  0.2566 -0.5490 -0.4795
 2623SOL    HW219506   1.953   3.253  16.157 -0.9345 -1.8462 -1.4121
 2624SOL     OW19507   1.532   0.258   5.673  0.0506 -0.1969 -0.4333
 2624SOL    HW119508   1.557   0.199   5.743  0.2221  0.2247 -0.1410
 2624SOL    HW219509   1.439   0.269   5.693 -0.3664  0.1349 -2.5374
 2625SOL     OW19510   0.876   3.281  15.019  0.6371  0.0839 -0.1130
 2625SOL    HW119511   0.895   3.370  14.990 -0.7290  0.6648  0.7973
 2625SOL    HW219512   0.927   3.230  14.955  0.6646 -1.0159  0.7829
 2626SOL     OW19513   4.485   1.441   7.398  0.1596 -0.3735 -0.1349
 2626SOL    HW119514   4.476   1.347   7.412 -1.7322 -0.2227 -0.3256
 2626SOL    HW219515   4.423   1.461   7.328 -1.2091  0.1076  1.2203
 2627SOL     OW19516   0.817   1.261  16.385  0.2650  0.0632 -0.2187
 2627SOL    HW119517   0.760   1.336  16.402 -1.1460 -1.5277  1.8907
 2627SOL    HW219518   0.774   1.219  16.310 -0.2827 -0.7392  0.5478
 2628SOL     OW19519   1.904   0.303   1.779 -0.1232  0.1022  0.1573
 2628SOL    HW119520   1.988   0.257   1.786 -1.2487 -1.7417  1.5198
 2628SOL    HW219521   1.852   0.224   1.768 -1.3944  1.1314 -1.2424
 2629SOL     OW19522   0.537   3.184   8.414 -0.2027 -0.3787 -0.2158
 2629SOL    HW119523   0.563   3.093   8.428  1.2826 -0.0658 -0.8971
 2629SOL    HW219524   0.538   3.201   8.508  0.7848  1.7430 -0.6184
 2630SOL     OW19525   1.564   0.887   7.980  0.2293  0.0206  0.8292
 2630SOL    HW119526   1.639   0.873   8.038 -1.9514 -1.3524  3.3150
 2630SOL    HW219527   1.605   0.900   7.895 -0.9222 -0.5369  0.1959
 2631SOL     OW19528   2.414   0.959   8.894 -0.0428 -0.0252 -0.3012
 2631SOL    HW119529   2.474   0.930   8.963  0.5355  1.5222 -0.1460
 2631SOL    HW219530   2.452   1.047   8.887 -0.7840  0.5628  3.0571
 2632SOL     OW19531   0.934   2.339  10.889 -0.2408 -0.2402 -0.1281
 2632SOL    HW119532   0.929   2.340  10.793 -1.2450  0.4265 -0.0754
 2632SOL    HW219533   0.995   2.413  10.893 -0.3685 -0.0985 -0.8491
 2633SOL     OW19534   4.601   3.047  17.510  0.2078 -0.1626 -0.2785
 2633SOL    HW119535   4.575   3.057  17.418  1.2564 -0.9404 -0.6664
 2633SOL    HW219536   4.581   2.955  17.525 -1.3766  0.2839  0.3116
 2634SOL     OW19537   4.614   2.189   5.670 -0.3113  0.0660 -0.2442
 2634SOL    HW119538   4.580   2.161   5.585  2.6540  0.5476 -1.5918
 2634SOL    HW219539   4.697   2.139   5.673  1.5320  3.1495 -0.0522
 2635SOL     OW19540   2.648   2.965   1.755  0.2088 -0.0943  0.0400
 2635SOL    HW119541   2.641   2.871   1.776 -0.7232 -0.3190 -1.2828
 2635SOL    HW219542   2.556   2.989   1.752 -0.0605 -1.0212  0.6175
 2636SOL     OW19543   1.067   0.906   0.162  0.0627  0.4082  0.4231
 2636SOL    HW119544   1.094   0.946   0.079  0.0204  1.8142  1.0894
 2636SOL    HW219545   0.973   0.902   0.147  0.1037  0.2015  0.2280
 2637SOL     OW19546   2.408   0.388   7.220  0.1751  0.0853 -0.4315
 2637SOL    HW119547   2.494   0.373   7.181  0.4388  0.3041  0.0657
 2637SOL    HW219548   2.348   0.371   7.147 -0.7049  0.5892  0.1599
 2638SOL     OW19549   1.743   3.927   2.851  0.4620 -0.2170 -0.3655
 2638SOL    HW119550   1.795   3.934   2.771  1.7480  0.9237  0.5638
 2638SOL    HW219551   1.667   3.984   2.843  0.4413 -0.0982  0.6722
 2639SOL     OW19552   2.944   1.869   8.882 -0.4766 -0.3989  0.0224
 2639SOL    HW119553   2.970   1.780   8.858  0.7164 -0.5186  1.6877
 2639SOL    HW219554   2.974   1.923   8.808 -0.6803 -0.4982 -0.1309
 2640SOL     OW19555   4.199   0.710   5.276  0.0667  0.4068 -0.0092
 2640SOL    HW119556   4.195   0.802   5.304  0.4970  0.8541 -1.4087
 2640SOL    HW219557   4.219   0.729   5.184  1.4054  2.8930  0.7986
 2641SOL     OW19558   2.848   3.173   3.173 -0.8233  0.0207 -0.5473
 2641SOL    HW119559   2.778   3.189   3.236 -0.9692  1.8011 -1.1441
 2641SOL    HW219560   2.807   3.093   3.141  0.3024 -0.4886 -0.7290
 2642SOL     OW19561   4.474   3.923   9.790 -0.3431 -0.0953  0.5001
 2642SOL    HW119562   4.442   3.962   9.708 -0.5538 -1.0657  0.1103
 2642SOL    HW219563   4.533   3.992   9.819 -2.5377  1.8176  0.4412
 2643SOL     OW19564   4.439   0.720   2.601 -0.1987 -0.1912 -0.0315
 2643SOL    HW119565   4.473   0.795   2.553 -0.6673  0.0009 -0.0705
 2643SOL    HW219566   4.374   0.684   2.540 -3.5325  0.7154  2.9191
 2644SOL     OW19567   2.636   2.766   3.162  0.0453  0.4999 -0.2656
 2644SOL    HW119568   2.614   2.785   3.253 -0.7324 -1.7530 -0.0020
 2644SOL    HW219569   2.684   2.684   3.175 -0.3761  0.2954  0.0125
 2645SOL     OW19570   0.513   1.037   4.089  0.4074  0.2522  0.5679
 2645SOL    HW119571   0.575   1.095   4.133  0.5000  0.9851 -0.5337
 2645SOL    HW219572   0.433   1.055   4.138  0.0816  1.8236 -0.5650
 2646SOL     OW19573   2.111   4.306   5.710  0.2244 -0.0798  0.1337
 2646SOL    HW119574   2.043   4.280   5.647  3.0653  0.4586 -3.1274
 2646SOL    HW219575   2.161   4.365   5.655 -1.5160  0.5929 -0.7368
 2647SOL     OW19576   0.752   2.618  15.538  0.4859  0.0715  0.3277
 2647SOL    HW119577   0.832   2.620  15.486 -0.9083  3.3840 -1.7140
 2647SOL    HW219578   0.708   2.545  15.494  0.6138 -0.2008  0.6551
 2648SOL     OW19579   3.469   2.184  17.138 -0.0064 -0.3157 -1.1375
 2648SOL    HW119580   3.467   2.257  17.199  1.5394  0.4516 -2.0215
 2648SOL    HW219581   3.553   2.143  17.159  0.1853  1.0259  0.6481
 2649SOL     OW19582   4.669   2.423   6.981  0.0077  0.1481  0.2191
 2649SOL    HW119583   4.717   2.433   6.899 -1.1425 -1.6293 -0.6814
 2649SOL    HW219584   4.584   2.452   6.949  1.0353  2.0300 -0.8038
 2650SOL     OW19585   0.596   1.401   3.301  0.0236 -0.0879 -0.9881
 2650SOL    HW119586   0.652   1.323   3.297  1.8223  1.1801  0.0044
 2650SOL    HW219587   0.657   1.467   3.332 -1.4960 -0.3721  2.6829
 2651SOL     OW19588   4.731   0.680   4.514  0.1907  0.1344 -0.1596
 2651SOL    HW119589   4.677   0.746   4.558  1.9173  1.4463 -0.0234
 2651SOL    HW219590   0.085   0.702   4.540  0.4299  0.0194 -0.9020
 2652SOL     OW19591   2.767   2.296   7.855 -0.2975  0.7007 -0.4117
 2652SOL    HW119592   2.775   2.297   7.760 -2.4170  1.9791 -0.5779
 2652SOL    HW219593   2.716   2.375   7.872 -1.9856 -0.7782  1.3953
 2653SOL     OW19594   0.962   2.040   7.051 -0.2929  0.0242 -0.3168
 2653SOL    HW119595   1.009   2.088   7.119  0.5897 -0.6993 -0.4236
 2653SOL    HW219596   1.029   1.991   7.005 -0.7631  0.5429 -1.5746
 2654SOL     OW19597   3.393   4.142   1.453  0.8325 -0.3453  0.0359
 2654SOL    HW119598   3.478   4.120   1.413  1.3387  2.3991 -0.3600
 2654SOL    HW219599   3.402   4.100   1.538 -3.5698 -1.4262 -0.0314
 2655SOL     OW19600   0.905   1.270   8.723  0.4529 -0.0359  0.1149
 2655SOL    HW119601   0.940   1.271   8.812  0.8349  0.3285 -0.0378
 2655SOL    HW219602   0.813   1.260   8.745  0.5365 -0.1237  0.4286
 2656SOL     OW19603   1.750   4.038   4.940  0.4796  0.1697  0.6935
 2656SOL    HW119604   1.709   4.112   4.895  2.3088 -0.5794 -2.1929
 2656SOL    HW219605   1.673   4.022   4.994 -0.1551  0.8682 -0.0065
 2657SOL     OW19606   1.806   1.323   6.710  0.0853  0.3044 -0.2814
 2657SOL    HW119607   1.748   1.325   6.786 -1.1566  1.8997 -1.2785
 2657SOL    HW219608   1.808   1.416   6.688  0.2549  0.1048 -1.0868
 2658SOL     OW19609   0.227   4.290  16.373 -0.2143  0.1241 -0.3872
 2658SOL    HW119610   0.139   4.255  16.360  0.2102 -0.4792 -1.5897
 2658SOL    HW219611   0.278   4.225  16.326 -0.0438 -0.5481  0.7363
 2659SOL     OW19612   3.198   3.374   0.977  0.2672 -0.1987 -0.2275
 2659SOL    HW119613   3.200   3.424   0.895 -2.3049 -0.0873 -0.2051
 2659SOL    HW219614   3.238   3.294   0.943 -0.3879 -0.2328 -0.8978
 2660SOL     OW19615   3.279   3.125   8.469  0.7863 -0.3651  0.3008
 2660SOL    HW119616   3.302   3.102   8.378 -0.5061 -0.8960  0.1093
 2660SOL    HW219617   3.222   3.201   8.459  0.6442 -0.6719 -1.2702
 2661SOL     OW19618   4.113   1.558   8.184 -0.0450 -0.0662  0.0591
 2661SOL    HW119619   4.170   1.635   8.188 -1.5100  1.0265  0.1601
 2661SOL    HW219620   4.030   1.587   8.223  0.6486 -2.2056  3.0620
 2662SOL     OW19621   3.422   1.875   5.005  0.1026  0.2277 -0.3361
 2662SOL    HW119622   3.400   1.794   5.052 -1.0126  0.0686 -1.1190
 2662SOL    HW219623   3.340   1.925   5.012  0.1001  0.3788 -1.5491
 2663SOL     OW19624   3.946   4.535   6.725  0.3897  0.2282 -0.1298
 2663SOL    HW119625   3.863   4.566   6.762  2.0823  3.3391  1.0627
 2663SOL    HW219626   3.929   4.545   6.631  1.5236  1.1481 -0.2342
 2664SOL     OW19627   0.995   0.785  13.423 -0.3907 -0.0641  0.1756
 2664SOL    HW119628   1.087   0.771  13.399 -0.8763 -0.5521 -1.4664
 2664SOL    HW219629   0.984   0.737  13.505  3.1324 -1.3221 -0.0922
 2665SOL     OW19630   2.883   0.514  12.638 -0.8842 -0.1961 -1.1659
 2665SOL    HW119631   2.898   0.584  12.701 -1.5772 -1.1697  0.0646
 2665SOL    HW219632   2.867   0.556  12.553 -0.0630  0.9786 -0.7349
 2666SOL     OW19633   3.253   1.774   5.825 -1.0489 -0.0969  0.3707
 2666SOL    HW119634   3.248   1.869   5.814 -2.1022 -0.5564 -3.1617
 2666SOL    HW219635   3.233   1.748   5.735 -0.3822 -0.7974  0.4239
 2667SOL     OW19636   1.827   2.938   2.212  0.0626  0.0947  0.1392
 2667SOL    HW119637   1.882   2.907   2.284  1.4181  1.1043 -0.4603
 2667SOL    HW219638   1.884   2.919   2.138  2.4244  0.0721  1.9702
 2668SOL     OW19639   1.067   4.334  16.859 -0.3071 -0.3962  0.4374
 2668SOL    HW119640   1.115   4.334  16.942  4.5096  0.8968 -2.3315
 2668SOL    HW219641   1.095   4.417  16.821  0.3280 -0.5771  0.4976
 2669SOL     OW19642   3.813   3.331   0.212 -0.4664  0.4527  0.3118
 2669SOL    HW119643   3.733   3.383   0.226 -1.3752 -1.4579  2.3494
 2669SOL    HW219644   3.848   3.352   0.126 -2.0127  0.7645 -0.2554
 2670SOL     OW19645   0.492   2.845  14.889 -0.8540  0.1492 -0.1633
 2670SOL    HW119646   0.509   2.936  14.914 -1.1099  0.0783  0.2850
 2670SOL    HW219647   0.554   2.837  14.817  1.8900  0.5162  2.1388
 2671SOL     OW19648   3.821   1.381  10.579  0.0513 -0.1218 -0.2520
 2671SOL    HW119649   3.776   1.319  10.636 -0.6633 -0.5665 -1.2960
 2671SOL    HW219650   3.749   1.442  10.564 -0.8175 -1.3780 -1.2227
 2672SOL     OW19651   2.604   4.694   5.060 -0.5257 -0.0068  0.1422
 2672SOL    HW119652   2.539   0.029   5.064 -1.0940 -0.6733  2.4541
 2672SOL    HW219653   2.554   4.613   5.055  1.1335 -1.0359  0.5265
 2673SOL     OW19654   2.183   3.902   1.078 -0.0193 -0.7184 -0.1422
 2673SOL    HW119655   2.091   3.880   1.063 -0.3477  0.2425  0.4959
 2673SOL    HW219656   2.194   3.978   1.021  1.1152  0.4918  1.7051
 2674SOL     OW19657   1.795   4.200   4.362  0.0603  0.1035  0.1466
 2674SOL    HW119658   1.822   4.253   4.286 -1.7502  0.6932 -0.0874
 2674SOL    HW219659   1.851   4.123   4.349 -1.2821 -1.1936  2.1691
 2675SOL     OW19660   2.106   3.722   1.644 -0.4659 -0.0709  0.3829
 2675SOL    HW119661   2.150   3.798   1.682  0.0499 -0.2941  0.2258
 2675SOL    HW219662   2.128   3.724   1.551 -2.2618  1.6731  0.0076
 2676SOL     OW19663   0.466   2.960   7.699 -0.1033 -0.0469  0.1605
 2676SOL    HW119664   0.420   2.899   7.756 -0.1866 -0.6782 -0.5818
 2676SOL    HW219665   0.545   2.985   7.748  0.0231  0.4282 -0.2849
 2677SOL     OW19666   3.954   2.195   6.466 -0.2399 -0.7162 -0.1520
 2677SOL    HW119667   4.004   2.114   6.453  0.2739 -0.3353 -0.5630
 2677SOL    HW219668   3.992   2.217   6.551  0.3734 -0.0940 -0.5897
 2678SOL     OW19669   4.627   0.502   6.763 -0.2965 -0.1785  0.1065
 2678SOL    HW119670   4.710   0.537   6.731 -1.7403  0.6824 -2.7085
 2678SOL    HW219671   4.657   0.434   6.824 -0.1661  1.6378  2.0350
 2679SOL     OW19672   4.726   1.022   4.169 -0.0437  0.3642  0.2980
 2679SOL    HW119673   0.052   0.951   4.149 -1.4091 -0.9158  0.6873
 2679SOL    HW219674   4.640   0.988   4.146  0.1938  1.0386 -1.6350
 2680SOL     OW19675   2.149   3.859   3.020  0.0296  0.4317 -0.3441
 2680SOL    HW119676   2.234   3.882   3.057 -0.4443 -1.4271  1.9349
 2680SOL    HW219677   2.121   3.941   2.979 -1.5116 -0.4043 -0.9607
 2681SOL     OW19678   1.887   3.671   1.291  0.2891 -0.4558 -0.3079
 2681SOL    HW119679   1.813   3.613   1.271  0.4959 -0.3336 -1.4040
 2681SOL    HW219680   1.870   3.688   1.384 -0.7756  0.3351 -0.6455
 2682SOL     OW19681   0.848   2.471   3.043  0.4767 -0.7834  0.1621
 2682SOL    HW119682   0.813   2.503   3.126  1.4109 -2.0308  1.0248
 2682SOL    HW219683   0.830   2.549   2.991  2.5667 -0.5652 -0.2543
 2683SOL     OW19684   3.599   4.474   5.625  0.2671 -0.5961  0.4148
 2683SOL    HW119685   3.556   4.555   5.598 -0.6874 -0.5478  2.1146
 2683SOL    HW219686   3.619   4.424   5.545 -0.1778 -2.6533  1.5709
 2684SOL     OW19687   2.581   4.571   4.047  0.1047 -0.2534 -0.5675
 2684SOL    HW119688   2.517   4.500   4.046 -1.3520  1.0173  0.1487
 2684SOL    HW219689   2.588   4.596   3.955 -1.7083 -0.8418 -0.8609
 2685SOL     OW19690   0.425   2.003   5.792 -0.1793 -0.3839 -0.2920
 2685SOL    HW119691   0.365   2.050   5.850  0.5163 -0.7733  0.7366
 2685SOL    HW219692   0.378   1.920   5.793  1.4367 -1.3209 -1.3831
 2686SOL     OW19693   2.158   2.278   6.590  0.3204  0.0202  0.9447
 2686SOL    HW119694   2.071   2.280   6.630  0.5144 -2.2212  1.4926
 2686SOL    HW219695   2.182   2.355   6.641 -2.0770  1.3498  0.0415
 2687SOL     OW19696   0.657   2.256   5.229  0.2616 -0.1722  0.0487
 2687SOL    HW119697   0.688   2.177   5.186  0.2078 -0.0032 -0.3008
 2687SOL    HW219698   0.626   2.225   5.315  0.6198 -0.0406  0.2271
 2688SOL     OW19699   1.940   3.455   5.988 -0.0364 -0.1575  0.3380
 2688SOL    HW119700   1.894   3.412   5.916  1.0834  1.0194 -1.0658
 2688SOL    HW219701   1.952   3.544   5.954  2.1811 -1.4143 -2.0878
 2689SOL     OW19702   4.558   2.615   6.576 -0.0949  0.1536  0.3576
 2689SOL    HW119703   4.560   2.663   6.493 -2.2860 -1.6931 -0.7794
 2689SOL    HW219704   4.482   2.663   6.611  1.4750  1.6060  1.7750
 2690SOL     OW19705   3.419   3.350  12.415 -0.2464 -0.8121 -0.5385
 2690SOL    HW119706   3.357   3.419  12.437 -0.1855 -0.8210 -0.3362
 2690SOL    HW219707   3.373   3.268  12.397  0.5787 -1.4367  0.1747
 2691SOL     OW19708   0.452   3.156   7.493 -0.1595 -0.0847 -0.3444
 2691SOL    HW119709   0.547   3.168   7.488 -0.1660  0.0005 -0.2683
 2691SOL    HW219710   0.452   3.111   7.577 -3.0178 -2.6920 -1.7189
 2692SOL     OW19711   3.738   1.814   9.331 -0.1830  0.1024  0.1049
 2692SOL    HW119712   3.753   1.783   9.242 -1.4230 -1.8649  0.5777
 2692SOL    HW219713   3.709   1.904   9.316  1.0823  0.2639 -1.3577
 2693SOL     OW19714   4.715   4.396   3.930 -0.1440  0.6884  0.1272
 2693SOL    HW119715   4.654   4.330   3.897  0.5407  0.8667 -1.4829
 2693SOL    HW219716   4.732   4.447   3.851 -3.0597 -1.2711 -1.7838
 2694SOL     OW19717   0.212   4.397  16.750 -0.5037  0.1565  0.3328
 2694SOL    HW119718   0.204   4.301  16.745 -1.1151  0.3116 -1.7661
 2694SOL    HW219719   0.127   4.438  16.768 -0.5411 -0.8880  2.4610
 2695SOL     OW19720   2.537   1.514   8.764  0.0042 -0.1731 -0.7048
 2695SOL    HW119721   2.567   1.426   8.787  0.9756  0.7885  1.7312
 2695SOL    HW219722   2.575   1.562   8.837  1.7694 -1.8508 -0.5042
 2696SOL     OW19723   0.115   0.533  17.435  0.0136  0.3635  0.6986
 2696SOL    HW119724   0.189   0.578  17.393  1.3462 -2.2239  0.3144
 2696SOL    HW219725   0.162   0.456  17.465 -2.6283 -1.7858 -0.7359
 2697SOL     OW19726   2.950   1.155   9.377  0.1336  1.0350  0.5050
 2697SOL    HW119727   2.974   1.066   9.352 -0.4714  1.5949 -2.1140
 2697SOL    HW219728   3.029   1.182   9.423  1.3811  0.4445 -1.3122
 2698SOL     OW19729   1.330   2.190   7.592  0.3818 -0.0883  0.2111
 2698SOL    HW119730   1.390   2.176   7.666 -0.5732  1.6752  1.3203
 2698SOL    HW219731   1.297   2.101   7.580  0.8158 -0.0980 -0.9206
 2699SOL     OW19732   2.659   1.070   7.415  0.0562  0.1244  0.0177
 2699SOL    HW119733   2.673   1.165   7.418  1.1496 -0.0423  0.5274
 2699SOL    HW219734   2.721   1.030   7.354  1.0848  2.3151 -0.3918
 2700SOL     OW19735   0.805   1.950  10.287 -0.3927  0.1365  0.3870
 2700SOL    HW119736   0.827   1.916  10.374  0.8699 -0.6136 -0.2477
 2700SOL    HW219737   0.811   2.043  10.311  0.9895  0.3938 -0.9806
 2701SOL     OW19738   0.112   3.041   8.096 -0.6446  0.7758 -0.4484
 2701SOL    HW119739   0.027   2.997   8.098  0.1425 -0.7227  0.1275
 2701SOL    HW219740   0.156   3.005   8.172 -0.3113 -1.4297 -1.6998
 2702SOL     OW19741   1.087   4.619   3.671 -0.3112 -0.1122 -0.9647
 2702SOL    HW119742   0.992   4.623   3.663 -0.1577  1.5512 -1.7032
 2702SOL    HW219743   1.107   4.710   3.693  1.8389 -1.0395  0.9633
 2703SOL     OW19744   4.262   2.308  16.867  0.0381 -0.0213  0.4467
 2703SOL    HW119745   4.193   2.353  16.916  2.3644  1.6567  2.1720
 2703SOL    HW219746   4.285   2.244  16.934 -0.5781 -1.4955 -0.7539
 2704SOL     OW19747   0.508   1.752   0.423 -0.3109  0.4107  0.6505
 2704SOL    HW119748   0.468   1.798   0.349 -1.6869  0.4934  1.4302
 2704SOL    HW219749   0.434   1.760   0.484 -0.0304  0.1241  1.0299
 2705SOL     OW19750   1.683   0.837   1.983 -0.1792  0.5369 -0.0617
 2705SOL    HW119751   1.620   0.838   2.055  0.0339  0.5937  0.1241
 2705SOL    HW219752   1.685   0.932   1.972 -0.8200  0.3114 -2.1482
 2706SOL     OW19753   3.778   1.507   8.715  1.0452  0.0279 -0.0066
 2706SOL    HW119754   3.726   1.586   8.728  1.6465 -0.0248  2.6329
 2706SOL    HW219755   3.828   1.520   8.795  0.2472  1.4017  0.2619
 2707SOL     OW19756   4.189   2.132  15.026  0.2971  0.1513 -0.4802
 2707SOL    HW119757   4.123   2.185  15.071  1.2355  1.0735 -0.1847
 2707SOL    HW219758   4.141   2.074  14.967  0.6756 -0.8498  0.1916
 2708SOL     OW19759   3.904   1.718   3.567 -0.1967 -0.1541 -0.2596
 2708SOL    HW119760   3.873   1.781   3.631 -2.0182  1.4747 -2.7613
 2708SOL    HW219761   3.889   1.632   3.607  0.7837 -0.6338 -0.9015
 2709SOL     OW19762   3.581   2.227   3.329  0.3334 -0.0608 -0.6464
 2709SOL    HW119763   3.609   2.297   3.388  0.1506  0.5626 -1.3075
 2709SOL    HW219764   3.509   2.197   3.384 -1.0612  2.8891 -0.9012
 2710SOL     OW19765   3.709   0.271  15.119  0.2995 -0.0582 -0.1647
 2710SOL    HW119766   3.695   0.180  15.144 -0.2071  0.1899  0.4352
 2710SOL    HW219767   3.800   0.277  15.148  0.0089 -1.0746  0.9327
 2711SOL     OW19768   0.421   4.029   4.389  0.0473  0.5530 -0.2004
 2711SOL    HW119769   0.434   4.120   4.361 -0.5415  1.3100  1.9584
 2711SOL    HW219770   0.432   4.046   4.483  1.2026  0.2941 -0.2854
 2712SOL     OW19771   1.857   2.623   6.269  0.4365 -0.2064 -0.1253
 2712SOL    HW119772   1.913   2.607   6.193  2.2295  0.6691  1.0011
 2712SOL    HW219773   1.895   2.705   6.303 -0.6243 -0.3275  1.3309
 2713SOL     OW19774   4.440   3.340   5.592 -0.3958 -0.0034  0.7776
 2713SOL    HW119775   4.533   3.318   5.599 -0.6688 -0.9101  1.5367
 2713SOL    HW219776   4.438   3.399   5.517  1.2356 -0.6817  0.2047
 2714SOL     OW19777   2.100   2.038   4.878  0.1793  0.0008  0.0222
 2714SOL    HW119778   2.076   2.128   4.897 -0.0078 -0.3916  1.6276
 2714SOL    HW219779   2.078   2.035   4.785  0.1387 -3.2931  0.1218
 2715SOL     OW19780   0.702   1.749  17.007  0.2208  0.2295  0.1878
 2715SOL    HW119781   0.729   1.657  17.012  1.7579  0.6788  0.1878
 2715SOL    HW219782   0.705   1.767  17.101  1.6574  0.5162  0.0920
 2716SOL     OW19783   0.301   3.124   1.998  0.5448 -0.3764  0.3962
 2716SOL    HW119784   0.323   3.070   2.074 -3.6954 -2.8321 -0.1172
 2716SOL    HW219785   0.329   3.205   2.041 -1.3072  0.7110 -0.4460
 2717SOL     OW19786   2.119   2.106   4.038 -0.0196  0.3414  0.5368
 2717SOL    HW119787   2.088   2.042   4.103 -0.5683  0.0254 -0.0420
 2717SOL    HW219788   2.215   2.100   4.041  0.0223  0.3809 -1.1416
 2718SOL     OW19789   4.026   0.344  13.875  0.5741 -0.1341  0.2818
 2718SOL    HW119790   4.092   0.299  13.823 -1.1702 -2.7134  0.3307
 2718SOL    HW219791   3.946   0.293  13.866  0.8507  0.1496 -3.6726
 2719SOL     OW19792   2.726   2.290   4.578 -0.0896  0.1775  0.4297
 2719SOL    HW119793   2.652   2.298   4.638  0.5914 -1.2378  1.4749
 2719SOL    HW219794   2.714   2.359   4.514  0.3913  0.3732  0.5575
 2720SOL     OW19795   0.181   3.658  12.929 -0.0318 -0.3570  0.3353
 2720SOL    HW119796   0.117   3.587  12.924 -0.8615  0.4106  0.0674
 2720SOL    HW219797   0.231   3.646  12.848  0.3706  1.7506  0.2749
 2721SOL     OW19798   1.176   0.680  11.065 -0.3853  0.3725  0.2554
 2721SOL    HW119799   1.113   0.619  11.104 -0.5079 -1.3711 -2.7261
 2721SOL    HW219800   1.125   0.695  10.986 -2.0576 -2.1987  0.8465
 2722SOL     OW19801   4.018   0.413   4.570 -0.4185 -0.2757 -0.1006
 2722SOL    HW119802   4.077   0.487   4.563  0.7700 -1.1639  0.5148
 2722SOL    HW219803   3.955   0.451   4.631  0.4532  0.9219  0.0430
 2723SOL     OW19804   2.138   3.884   6.179 -0.3136 -0.1911  0.6248
 2723SOL    HW119805   2.190   3.962   6.159 -1.4453  0.0001 -1.5544
 2723SOL    HW219806   2.108   3.910   6.266 -0.3790  0.3555  0.4411
 2724SOL     OW19807   3.066   0.982   7.257 -0.0556 -0.6736  0.8587
 2724SOL    HW119808   3.085   1.068   7.294 -0.3805 -1.0507  1.9032
 2724SOL    HW219809   3.112   0.928   7.322  1.7907 -2.5358 -1.9716
 2725SOL     OW19810   2.727   1.401  12.411  0.0812 -0.4917  0.1075
 2725SOL    HW119811   2.705   1.494  12.397  0.6477 -0.0064  2.4646
 2725SOL    HW219812   2.675   1.384  12.490  2.1540  0.8026  1.7404
 2726SOL     OW19813   1.131   3.046   2.788 -0.0605 -0.0246 -0.5222
 2726SOL    HW119814   1.200   2.983   2.765  1.4706  1.5599 -0.2843
 2726SOL    HW219815   1.061   2.987   2.817 -0.8671  1.0053 -0.4065
 2727SOL     OW19816   4.138   1.803  16.870  0.4128  0.2057 -0.1492
 2727SOL    HW119817   4.113   1.742  16.940 -0.2512  0.0590 -0.5121
 2727SOL    HW219818   4.191   1.867  16.918 -1.4004  0.7163  1.1948
 2728SOL     OW19819   4.083   2.270   6.685 -0.2497 -0.5007  0.5383
 2728SOL    HW119820   4.040   2.312   6.759 -0.7042  0.2479 -0.1566
 2728SOL    HW219821   4.140   2.209   6.732  0.2326 -2.6939 -2.9279
 2729SOL     OW19822   3.156   4.707   1.093  0.2317 -0.2796  0.0199
 2729SOL    HW119823   3.140   0.065   1.085 -1.2833 -0.7121 -2.0557
 2729SOL    HW219824   3.106   4.668   1.021  0.9454 -0.9965 -0.0918
 2730SOL     OW19825   1.456   4.602   3.185  0.6380  0.0729  0.1612
 2730SOL    HW119826   1.381   4.642   3.143  0.2090  0.4712  1.3013
 2730SOL    HW219827   1.420   4.561   3.263  0.7668  1.4553  0.9579
 2731SOL     OW19828   1.468   4.439  11.196 -0.1095 -0.0294 -0.3024
 2731SOL    HW119829   1.380   4.401  11.186 -0.2816  0.1970  0.3722
 2731SOL    HW219830   1.506   4.405  11.277  0.7418 -0.5324 -0.9169
 2732SOL     OW19831   2.487   0.576   8.269 -0.3907  0.2268  0.0110
 2732SOL    HW119832   2.469   0.621   8.352 -0.6491 -0.5414  0.3769
 2732SOL    HW219833   2.401   0.595   8.234 -0.2605 -1.7505 -1.3517
 2733SOL     OW19834   2.192   0.658  17.250  0.3505  0.3647 -0.0385
 2733SOL    HW119835   2.141   0.617  17.180  0.4458 -1.7365  1.1120
 2733SOL    HW219836   2.229   0.728  17.196 -0.1398 -0.1194 -1.0231
 2734SOL     OW19837   0.172   1.104   5.689 -0.2955 -0.7807  0.2276
 2734SOL    HW119838   0.202   1.188   5.655  2.1049 -0.8244  2.2932
 2734SOL    HW219839   0.079   1.112   5.671 -0.3639 -2.3518 -0.1497
 2735SOL     OW19840   4.352   1.740  12.888  0.3986  0.2562 -0.0270
 2735SOL    HW119841   4.294   1.722  12.814  3.0385  1.8995 -2.4719
 2735SOL    HW219842   4.336   1.668  12.950 -2.2528 -0.5880 -1.6765
 2736SOL     OW19843   3.368   0.861   2.786 -0.2996  0.2695 -0.7247
 2736SOL    HW119844   3.415   0.834   2.707 -3.5417 -3.5612 -1.3645
 2736SOL    HW219845   3.295   0.910   2.749 -0.6437 -0.3848 -0.9126
 2737SOL     OW19846   3.234   1.414   2.824 -0.2419  0.0873  0.4722
 2737SOL    HW119847   3.246   1.350   2.894 -0.9610  0.3114  0.7957
 2737SOL    HW219848   3.277   1.491   2.861 -1.2701  0.6767  0.4229
 2738SOL     OW19849   2.028   1.634   7.651  0.6350 -0.3594  0.6750
 2738SOL    HW119850   2.007   1.676   7.568  0.3411  0.0936  0.9843
 2738SOL    HW219851   2.124   1.630   7.656  0.7468  1.5506  0.0290
 2739SOL     OW19852   1.567   3.638   7.934 -0.0618 -0.4166  0.4587
 2739SOL    HW119853   1.633   3.700   7.905 -0.0931 -0.4028  0.4166
 2739SOL    HW219854   1.565   3.573   7.863  0.1307  0.6101 -0.4748
 2740SOL     OW19855   4.110   4.295   3.538 -0.1095  0.0951  0.4079
 2740SOL    HW119856   4.051   4.235   3.584 -0.3211  0.8556  1.1238
 2740SOL    HW219857   4.155   4.339   3.609  1.3342  0.4344 -0.7220
 2741SOL     OW19858   2.628   3.993  13.231  0.5238  0.3809  0.7519
 2741SOL    HW119859   2.601   4.085  13.234  1.6725  0.7054  1.1514
 2741SOL    HW219860   2.658   3.979  13.320  1.1294 -1.5496  0.2484
 2742SOL     OW19861   3.559   1.685   9.626  0.7355 -0.0444  0.2743
 2742SOL    HW119862   3.544   1.662   9.535  1.3223  1.9927 -0.3310
 2742SOL    HW219863   3.472   1.674   9.666 -0.1812 -0.3446 -1.8064
 2743SOL     OW19864   1.947   2.767  10.129  0.0782  0.8266 -0.7929
 2743SOL    HW119865   1.918   2.684  10.090 -1.1207  0.4462  0.9207
 2743SOL    HW219866   1.874   2.800  10.181  0.0730 -0.5382  0.0722
 2744SOL     OW19867   2.709   2.327   8.978 -0.0712  0.4755 -0.4048
 2744SOL    HW119868   2.633   2.382   8.960  1.7266  2.1333 -2.8756
 2744SOL    HW219869   2.784   2.385   8.965  1.7346 -1.1797  2.5967
 2745SOL     OW19870   3.229   1.236   3.664  0.0021 -0.7142 -0.0978
 2745SOL    HW119871   3.161   1.173   3.688  0.2841 -1.4805 -1.3175
 2745SOL    HW219872   3.231   1.289   3.744 -1.6158  0.0794 -0.5819
 2746SOL     OW19873   1.611   0.431  10.102  0.2646 -0.2367  0.0784
 2746SOL    HW119874   1.570   0.349  10.131  1.6392 -1.0636 -0.3353
 2746SOL    HW219875   1.681   0.448  10.165  0.5619 -0.4615 -0.1908
 2747SOL     OW19876   1.266   1.657   3.450  0.6147 -0.1061 -0.1591
 2747SOL    HW119877   1.309   1.687   3.530  0.4155  0.7663 -0.3747
 2747SOL    HW219878   1.232   1.744   3.429  1.1588  0.4856  1.4005
 2748SOL     OW19879   4.696   2.763  11.169 -0.3848 -0.4607  0.0576
 2748SOL    HW119880   4.719   2.845  11.125  0.1167  0.0625  1.2903
 2748SOL    HW219881   0.038   2.747  11.223 -0.1624  2.6409  0.6439
 2749SOL     OW19882   1.435   3.470   4.916  0.1528 -0.1553  0.3897
 2749SOL    HW119883   1.476   3.468   4.830  0.9101 -0.6195  0.7527
 2749SOL    HW219884   1.461   3.557   4.947 -1.5120 -0.0894  1.6436
 2750SOL     OW19885   1.849   3.760  16.058 -0.1099 -0.7842  0.0480
 2750SOL    HW119886   1.757   3.741  16.041 -0.9339  1.1908  2.4707
 2750SOL    HW219887   1.898   3.747  15.976  2.1423  1.8728  0.9604
 2751SOL     OW19888   3.322   4.292   8.577 -0.0112 -0.3145 -0.0428
 2751SOL    HW119889   3.326   4.352   8.651  2.2576  0.5377 -0.8616
 2751SOL    HW219890   3.256   4.335   8.523  0.3180  0.8929  0.5171
 2752SOL     OW19891   2.696   2.163   3.469 -0.6580  0.2780 -0.2362
 2752SOL    HW119892   2.660   2.145   3.382 -1.2618 -0.8914  0.2482
 2752SOL    HW219893   2.787   2.185   3.446  0.0513 -1.7134  0.5878
 2753SOL     OW19894   0.853   1.028   7.193  0.1908  0.1263  0.4248
 2753SOL    HW119895   0.887   0.969   7.126  0.0841 -1.6952  1.9887
 2753SOL    HW219896   0.839   0.963   7.262 -1.7015 -0.0633 -0.1304
 2754SOL     OW19897   1.059   0.775  14.907  0.0712 -0.2205 -0.0538
 2754SOL    HW119898   1.008   0.741  14.981  0.7423 -0.4282  0.3158
 2754SOL    HW219899   1.027   0.722  14.834 -1.9264  1.0028 -0.0828
 2755SOL     OW19900   4.216   2.263   1.574  0.2933 -0.5082 -0.1050
 2755SOL    HW119901   4.236   2.224   1.489 -0.9006  1.1357 -1.1304
 2755SOL    HW219902   4.297   2.306   1.599  0.2676  0.0367 -1.0026
 2756SOL     OW19903   0.307   0.532   4.278 -0.2452  0.3123 -0.2879
 2756SOL    HW119904   0.267   0.455   4.318  1.1110  0.8443  2.0547
 2756SOL    HW219905   0.395   0.526   4.315 -0.2746 -1.6749 -0.5566
 2757SOL     OW19906   1.614   0.959   1.420 -0.3133  0.4718 -0.4571
 2757SOL    HW119907   1.606   0.870   1.385  0.9342  0.3047 -0.3142
 2757SOL    HW219908   1.689   1.004   1.380  0.3719 -2.2329 -2.1929
 2758SOL     OW19909   1.110   1.070   4.017 -0.5772  0.1107 -0.5002
 2758SOL    HW119910   1.084   1.024   3.937 -0.1726  1.5343 -1.4499
 2758SOL    HW219911   1.205   1.069   4.011 -0.5366 -0.4852  0.2963
 2759SOL     OW19912   4.288   1.332   7.794  0.5153  0.6913 -0.3827
 2759SOL    HW119913   4.381   1.329   7.771  0.6738 -0.4127  0.4149
 2759SOL    HW219914   4.245   1.351   7.711  1.2220  0.1650 -0.8670
 2760SOL     OW19915   3.484   0.434   9.277 -0.2381  0.0507 -0.4554
 2760SOL    HW119916   3.552   0.471   9.221  0.5698  0.4256  0.7718
 2760SOL    HW219917   3.523   0.423   9.364 -1.8922  1.1467  0.4425
 2761SOL     OW19918   0.213   2.870   6.311 -0.5576 -0.0654  0.2243
 2761SOL    HW119919   0.173   2.949   6.348 -0.4642  0.3703 -0.6086
 2761SOL    HW219920   0.302   2.901   6.293 -0.6292  0.3975  0.6663
 2762SOL     OW19921   3.463   3.894   6.466  0.7011 -0.0260  0.4459
 2762SOL    HW119922   3.376   3.910   6.431  0.5866 -1.2172  0.1772
 2762SOL    HW219923   3.452   3.950   6.542  1.4548 -0.9932  1.2725
 2763SOL     OW19924   1.886   2.962   4.137 -0.0116 -1.0539 -0.1881
 2763SOL    HW119925   1.884   2.946   4.043 -2.9718  0.9848 -0.4643
 2763SOL    HW219926   1.858   3.053   4.145  0.4594 -0.9961  0.7926
 2764SOL     OW19927   3.407   1.675   1.270  0.1681  0.4900 -0.4170
 2764SOL    HW119928   3.372   1.717   1.348  1.6735  2.1253 -0.6261
 2764SOL    HW219929   3.495   1.652   1.299 -0.2241  0.8243  1.0545
 2765SOL     OW19930   2.821   0.390   9.124  0.3547  0.0912  0.5567
 2765SOL    HW119931   2.785   0.443   9.195  0.9324  2.3682 -0.8622
 2765SOL    HW219932   2.746   0.396   9.065  1.4137  2.2594 -0.5399
 2766SOL     OW19933   0.724   2.039  12.777  1.0947 -0.4030 -0.2721
 2766SOL    HW119934   0.791   1.999  12.722  1.9808 -0.6549  0.9904
 2766SOL    HW219935   0.653   2.049  12.713  0.2154 -1.8631  0.4797
 2767SOL     OW19936   0.883   1.391   0.576 -0.0059  0.0677  0.0842
 2767SOL    HW119937   0.915   1.441   0.501  1.3561 -0.2939  0.4352
 2767SOL    HW219938   0.789   1.413   0.570 -0.0266  0.3602  1.5355
 2768SOL     OW19939   4.406   4.211   7.949 -0.5809  0.7550 -0.1491
 2768SOL    HW119940   4.325   4.186   7.993 -1.0900  2.1075 -0.3157
 2768SOL    HW219941   4.437   4.121   7.939 -2.9888 -0.1147  0.1779
 2769SOL     OW19942   4.320   0.549   4.343 -0.3653 -0.3541 -0.2715
 2769SOL    HW119943   4.340   0.456   4.352 -0.9199 -0.3454  1.1138
 2769SOL    HW219944   4.251   0.548   4.277  2.0942 -0.5424 -2.8110
 2770SOL     OW19945   0.910   0.659   8.399  0.0504  0.2552  0.1506
 2770SOL    HW119946   0.859   0.580   8.380 -0.8851  0.8117  0.3532
 2770SOL    HW219947   0.984   0.637   8.343  1.6004 -0.7459  2.5581
 2771SOL     OW19948   2.186   1.808   3.123 -0.5211 -0.6972  0.3712
 2771SOL    HW119949   2.115   1.775   3.067  0.9851 -0.4789 -1.6553
 2771SOL    HW219950   2.239   1.730   3.108  0.3923 -0.6463  3.2773
 2772SOL     OW19951   1.699   1.579   6.947 -0.5524 -0.0639 -0.0874
 2772SOL    HW119952   1.689   1.588   7.042  2.8614 -1.7791  0.4208
 2772SOL    HW219953   1.669   1.489   6.931  0.9775 -0.8022  1.1983
 2773SOL     OW19954   1.403   4.055   2.464  0.4348  0.2097  0.0377
 2773SOL    HW119955   1.474   4.108   2.500  1.7346 -1.8218  0.5103
 2773SOL    HW219956   1.422   3.971   2.507  0.2292 -0.0933 -0.4582
 2774SOL     OW19957   2.552   0.350   7.929  0.0151 -0.0568  0.8848
 2774SOL    HW119958   2.480   0.412   7.944 -0.6992 -0.7883  0.4665
 2774SOL    HW219959   2.512   0.267   7.903 -0.5171  0.9712 -1.6110
 2775SOL     OW19960   0.488   4.217   6.854  0.4709  0.9570 -0.0387
 2775SOL    HW119961   0.462   4.302   6.889  0.7784 -0.2967  3.2444
 2775SOL    HW219962   0.581   4.235   6.844  0.9406 -0.6350  1.4431
 2776SOL     OW19963   4.537   2.614  12.250  0.4424 -0.1090 -0.1450
 2776SOL    HW119964   4.512   2.549  12.184 -1.3357  0.9113 -0.4618
 2776SOL    HW219965   4.463   2.673  12.240  1.6747  1.2553 -1.0849
 2777SOL     OW19966   2.047   1.148   3.013  0.7284  0.0540 -0.2441
 2777SOL    HW119967   2.099   1.080   2.971 -1.0269 -0.7423 -1.1128
 2777SOL    HW219968   2.047   1.217   2.947  0.2870  1.8235  1.6065
 2778SOL     OW19969   1.368   3.122  10.183  0.4208 -0.1538  0.7736
 2778SOL    HW119970   1.388   3.206  10.141 -0.2559 -1.2046 -1.6685
 2778SOL    HW219971   1.291   3.094  10.133  0.8108 -1.1854  0.7678
 2779SOL     OW19972   1.123   2.867  16.923  0.3574 -0.4590  0.2796
 2779SOL    HW119973   1.154   2.830  17.005 -0.8198  1.0472  1.3893
 2779SOL    HW219974   1.028   2.861  16.926  0.2982  0.6821  0.7947
 2780SOL     OW19975   0.913   2.415   7.095  0.2549  0.1950 -0.0500
 2780SOL    HW119976   0.854   2.386   7.164 -0.5558  0.3045 -0.7003
 2780SOL    HW219977   0.989   2.368   7.128 -1.5106 -2.9976 -0.4686
 2781SOL     OW19978   2.663   2.452   4.344  0.8045  0.3149  0.2429
 2781SOL    HW119979   2.693   2.521   4.403 -0.8807 -0.0594  1.5727
 2781SOL    HW219980   2.568   2.461   4.356  0.5568  0.0738 -1.5289
 2782SOL     OW19981   3.144   1.622   3.565  0.1566 -0.5558 -0.4899
 2782SOL    HW119982   3.076   1.579   3.618  1.4051  0.4556  1.9428
 2782SOL    HW219983   3.216   1.640   3.626 -0.3013  0.9240 -0.3748
 2783SOL     OW19984   0.383   1.058   5.269 -0.6038 -0.0070 -0.3184
 2783SOL    HW119985   0.428   0.986   5.225  0.0639 -0.1438  0.6066
 2783SOL    HW219986   0.462   1.099   5.304  0.1359 -0.9547 -0.8750
 2784SOL     OW19987   1.658   2.230   1.773  0.4201 -0.5778  0.5927
 2784SOL    HW119988   1.599   2.305   1.776  1.1704  0.0118  0.6591
 2784SOL    HW219989   1.602   2.155   1.794  2.1905 -2.5416 -1.5884
 2785SOL     OW19990   1.893   3.781   8.683  0.6450 -0.5873 -0.2733
 2785SOL    HW119991   1.837   3.782   8.760 -1.5874  1.8037 -1.9275
 2785SOL    HW219992   1.849   3.712   8.633  1.2169 -2.0684  1.2573
 2786SOL     OW19993   2.802   3.367   8.181 -0.2543  0.2952 -0.4953
 2786SOL    HW119994   2.716   3.402   8.204  0.1902  0.1124  1.4220
 2786SOL    HW219995   2.830   3.314   8.256 -0.1827  0.3239 -0.5010
 2787SOL     OW19996   1.702   1.893   6.054  0.0466  0.1501  0.2371
 2787SOL    HW119997   1.654   1.838   6.116  0.3295  1.2894  1.4592
 2787SOL    HW219998   1.735   1.831   5.989 -2.1341  0.9803 -1.6701
 2788SOL     OW19999   2.730   2.298   9.275 -0.4692  0.1122 -0.3688
 2788SOL    HW120000   2.758   2.248   9.198  3.4434 -0.1490  1.1943
 2788SOL    HW220001   2.636   2.310   9.261 -0.5502  0.6783  0.6926
 2789SOL     OW20002   3.228   1.224   5.697 -0.0533 -0.2237  0.0748
 2789SOL    HW120003   3.241   1.285   5.624 -2.7318  1.5603  1.0945
 2789SOL    HW220004   3.220   1.283   5.772 -0.5354  0.1429 -0.2654
 2790SOL     OW20005   4.586   1.970   3.835 -0.0737 -0.0425  0.3426
 2790SOL    HW120006   4.520   1.903   3.850  2.8984 -2.7964  1.1731
 2790SOL    HW220007   4.532   2.049   3.847  1.6069  0.6492  3.3385
 2791SOL     OW20008   0.757   1.814   9.387  0.3607  0.4620  0.0546
 2791SOL    HW120009   0.845   1.847   9.367 -0.0644  1.8769  0.4785
 2791SOL    HW220010   0.732   1.855   9.470 -0.8392 -0.3301  0.0827
 2792SOL     OW20011   0.095   4.528   2.963 -0.4224  0.3379 -0.2598
 2792SOL    HW120012   0.145   4.609   2.970 -0.4359  0.1843  1.8317
 2792SOL    HW220013   0.080   4.515   2.870  3.2875 -4.1256 -0.2756
 2793SOL     OW20014   4.709   1.921   4.160  0.8571  0.1056  0.4233
 2793SOL    HW120015   0.060   1.956   4.138  0.3192  1.5196  0.5602
 2793SOL    HW220016   4.676   1.983   4.225  0.1233  0.8685 -0.6758
 2794SOL     OW20017   4.371   2.399   8.480  0.0248 -0.3064  0.0453
 2794SOL    HW120018   4.440   2.446   8.433  0.1037 -0.0912  0.3762
 2794SOL    HW220019   4.325   2.468   8.528  1.1305  0.0020  0.6498
 2795SOL     OW20020   2.201   0.832   6.685 -0.0151 -0.9344 -0.0633
 2795SOL    HW120021   2.285   0.866   6.714 -0.0846  0.5877 -1.6888
 2795SOL    HW220022   2.174   0.909   6.634  0.5651 -1.4830 -1.1962
 2796SOL     OW20023   4.430   0.830  17.122 -0.6530  0.3132 -0.1892
 2796SOL    HW120024   4.371   0.890  17.168 -2.7845 -3.1369  1.6022
 2796SOL    HW220025   4.390   0.743  17.133  0.8438 -0.1351  1.6850
 2797SOL     OW20026   2.918   4.137   1.313 -0.2673 -0.4616 -0.1564
 2797SOL    HW120027   2.908   4.057   1.365  2.5132 -1.7684 -1.6449
 2797SOL    HW220028   2.892   4.115   1.224 -1.4771  1.1297 -0.1987
 2798SOL     OW20029   0.868   1.894   8.869 -0.0469 -0.0719 -0.0797
 2798SOL    HW120030   0.915   1.885   8.951 -1.9537  2.1490  1.2747
 2798SOL    HW220031   0.890   1.983   8.842  1.8890 -0.6656 -0.4605
 2799SOL     OW20032   1.441   3.059   1.192 -0.7069  0.2767 -0.6557
 2799SOL    HW120033   1.424   2.991   1.127 -2.5977 -0.6768  0.8178
 2799SOL    HW220034   1.396   3.131   1.149 -0.2176  0.1786 -1.3333
 2800SOL     OW20035   1.101   0.861   3.324 -0.2709 -0.2934 -0.4807
 2800SOL    HW120036   1.061   0.905   3.398  1.5251 -0.4782  0.5950
 2800SOL    HW220037   1.168   0.807   3.366 -0.3598 -0.7761 -0.9508
 2801SOL     OW20038   0.315   2.547   5.067 -0.1771  0.0757  0.2220
 2801SOL    HW120039   0.355   2.617   5.119  3.3870 -0.4454 -1.8166
 2801SOL    HW220040   0.321   2.475   5.129  0.0346  1.1360  1.4423
 2802SOL     OW20041   0.683   2.651   8.338 -0.1363 -0.1917  0.7156
 2802SOL    HW120042   0.590   2.673   8.347  0.1713  1.1349  0.5870
 2802SOL    HW220043   0.686   2.660   8.242  0.2186 -1.2411  0.6292
 2803SOL     OW20044   2.111   2.941   7.952  0.0315  0.5174 -0.4988
 2803SOL    HW120045   2.123   2.920   7.860  0.6766 -0.9066 -0.0971
 2803SOL    HW220046   2.185   2.891   7.986 -0.2146  1.5149  1.5217
 2804SOL     OW20047   2.214   2.984  11.935  0.4980  0.1868 -0.0333
 2804SOL    HW120048   2.132   3.032  11.927  0.2471 -0.6962 -2.7589
 2804SOL    HW220049   2.201   2.926  12.010  0.7129 -0.5883 -0.5941
 2805SOL     OW20050   0.917   2.948  14.615 -0.3917 -0.1409  0.0604
 2805SOL    HW120051   0.919   2.864  14.569  1.5993 -0.3219  0.4719
 2805SOL    HW220052   0.999   2.986  14.583  0.3491 -1.8831 -0.0942
 2806SOL     OW20053   0.832   4.233  14.917  0.3387 -0.2018 -0.6815
 2806SOL    HW120054   0.754   4.185  14.887  0.7518  0.7480 -3.2705
 2806SOL    HW220055   0.800   4.323  14.916  0.4923 -0.1448 -0.4837
 2807SOL     OW20056   2.201   0.537   4.960  0.3315 -0.0641 -0.0735
 2807SOL    HW120057   2.233   0.563   4.873  1.6428  3.1018  1.3434
 2807SOL    HW220058   2.137   0.468   4.944  0.3996  0.0172 -0.6981
 2808SOL     OW20059   2.162   2.778   6.132  0.3954 -0.5694 -0.1684
 2808SOL    HW120060   2.172   2.710   6.066 -0.0472 -1.6505  0.8772
 2808SOL    HW220061   2.112   2.844   6.084  1.7140  0.4818 -0.0936
 2809SOL     OW20062   2.671   0.936   6.821  0.5253 -0.0047 -0.2368
 2809SOL    HW120063   2.761   0.933   6.789  0.9127 -0.1423  0.8608
 2809SOL    HW220064   2.681   1.021   6.864 -2.0515  0.0571  0.2763
 2810SOL     OW20065   1.764   3.233   5.206 -0.2957  0.1342 -0.2936
 2810SOL    HW120066   1.730   3.221   5.118  0.8953  1.5326 -0.9294
 2810SOL    HW220067   1.714   3.312   5.228  0.6348  0.6427 -0.0199
 2811SOL     OW20068   2.178   1.299   9.252  0.1091 -0.0446  0.1309
 2811SOL    HW120069   2.205   1.207   9.260  0.5961  0.1257  0.4478
 2811SOL    HW220070   2.148   1.286   9.162  2.5751  1.9403 -0.9696
 2812SOL     OW20071   0.941   2.568  11.122  0.1856  0.0889  0.0748
 2812SOL    HW120072   0.947   2.473  11.113 -0.7065 -0.2257  2.7023
 2812SOL    HW220073   0.938   2.573  11.218 -1.4385 -0.4630  0.0496
 2813SOL     OW20074   1.004   2.461   6.143 -0.2028 -0.1902 -0.0599
 2813SOL    HW120075   0.959   2.509   6.212  1.2999  0.0786  0.7412
 2813SOL    HW220076   1.094   2.460   6.177 -0.6086  2.0252  1.0809
 2814SOL     OW20077   1.706   4.444  16.192 -0.1211  0.1574 -0.1391
 2814SOL    HW120078   1.704   4.514  16.127 -0.8209 -2.2285 -2.7291
 2814SOL    HW220079   1.613   4.423  16.193  0.2392 -1.4501  0.3149
 2815SOL     OW20080   1.028   1.180   8.476  0.4507 -0.3351  0.1387
 2815SOL    HW120081   0.982   1.110   8.429 -0.2483 -0.9672  1.7563
 2815SOL    HW220082   0.975   1.176   8.556  1.9420 -1.0783  1.0895
 2816SOL     OW20083   1.998   3.982   6.369 -0.1377 -0.1641 -0.0280
 2816SOL    HW120084   2.011   4.005   6.461 -1.4196 -1.3877  0.4590
 2816SOL    HW220085   1.976   4.072   6.344 -0.4031 -0.5250 -1.0719
 2817SOL     OW20086   2.381   3.075   4.454 -0.1814 -0.2103 -0.3055
 2817SOL    HW120087   2.461   3.128   4.457 -0.4117  0.2753 -2.3863
 2817SOL    HW220088   2.419   2.988   4.469 -1.8172 -0.8675  0.0011
 2818SOL     OW20089   1.800   0.777   9.747 -0.0368 -0.3626  0.0661
 2818SOL    HW120090   1.790   0.706   9.811  4.3565 -2.2456 -1.3211
 2818SOL    HW220091   1.784   0.848   9.809 -2.2745  1.0774 -2.1855
 2819SOL     OW20092   0.915   3.377   6.719 -0.2141  0.8184 -0.4056
 2819SOL    HW120093   0.851   3.447   6.707 -3.0972 -1.6047  0.9676
 2819SOL    HW220094   0.933   3.341   6.633 -1.3265 -1.6397  0.4001
 2820SOL     OW20095   1.342   1.922   8.705 -0.0675  0.0722  0.1598
 2820SOL    HW120096   1.333   1.874   8.788 -2.2836  1.0318  0.4772
 2820SOL    HW220097   1.298   1.860   8.647  2.2446 -1.6855  0.3009
 2821SOL     OW20098   1.975   0.174   5.890 -0.0667 -0.8810  0.1084
 2821SOL    HW120099   1.986   0.267   5.911  5.0191 -1.0833 -1.7205
 2821SOL    HW220100   2.027   0.168   5.809  1.2139 -0.4973  0.8957
 2822SOL     OW20101   2.952   2.455   8.425 -0.3034  0.1644 -0.2568
 2822SOL    HW120102   2.926   2.540   8.461  0.4777  0.6419 -0.8420
 2822SOL    HW220103   3.044   2.452   8.450 -1.2973 -0.2171  3.4101
 2823SOL     OW20104   3.120   3.327   2.582 -0.1184  0.2840 -0.1330
 2823SOL    HW120105   3.161   3.287   2.506  1.0421 -0.7289  1.0150
 2823SOL    HW220106   3.124   3.248   2.637  0.2889 -1.9647 -3.4009
 2824SOL     OW20107   2.600   1.034  12.139  0.1792 -0.1924  0.2537
 2824SOL    HW120108   2.610   1.037  12.235 -0.0264  1.7659  0.2223
 2824SOL    HW220109   2.630   1.123  12.122  1.4915 -0.2465  2.1772
 2825SOL     OW20110   2.895   3.856   7.706  0.3339  0.3293  0.1627
 2825SOL    HW120111   2.883   3.808   7.788  1.2609 -1.9730 -1.0610
 2825SOL    HW220112   2.855   3.801   7.639  2.5482  0.0488 -0.9163
 2826SOL     OW20113   2.360   2.385  16.335 -0.1807 -0.6321  0.3551
 2826SOL    HW120114   2.430   2.320  16.322 -1.2708 -1.7093 -0.1233
 2826SOL    HW220115   2.293   2.346  16.391  1.1818 -1.0076  1.7160
 2827SOL     OW20116   0.425   1.339   0.044  0.6408 -0.2621  0.5762
 2827SOL    HW120117   0.502   1.341   0.101  1.3318  1.0256 -0.3814
 2827SOL    HW220118   0.357   1.374   0.101  1.4928 -1.8555  2.5636
 2828SOL     OW20119   2.360   4.333  14.303  0.0112  0.3791  0.5825
 2828SOL    HW120120   2.373   4.421  14.337 -1.2734  0.9995 -0.5468
 2828SOL    HW220121   2.430   4.291  14.352  0.9321  0.2790 -0.8242
 2829SOL     OW20122   0.259   2.024   8.407 -0.1992 -0.6129 -0.0160
 2829SOL    HW120123   0.206   2.097   8.376  1.3103  0.2153 -0.6464
 2829SOL    HW220124   0.300   1.999   8.324  1.0426 -0.6875  0.6175
 2830SOL     OW20125   3.820   1.385  13.182  0.0846  0.2522 -0.1286
 2830SOL    HW120126   3.785   1.469  13.212 -0.7318  0.2792 -1.1576
 2830SOL    HW220127   3.827   1.340  13.266 -4.2765 -0.4707 -0.1337
 2831SOL     OW20128   4.006   1.574   5.823  0.2284  0.0647  0.1502
 2831SOL    HW120129   3.994   1.661   5.862  3.5918  0.1622  0.9733
 2831SOL    HW220130   4.088   1.555   5.868  0.4290 -3.2112 -1.6366
 2832SOL     OW20131   3.217   1.690  17.196 -0.7498  0.4447  0.2769
 2832SOL    HW120132   3.238   1.597  17.205 -0.6244  0.4935  0.4823
 2832SOL    HW220133   3.302   1.727  17.173 -0.2442 -0.9992 -0.2096
 2833SOL     OW20134   2.727   2.184   3.006 -0.9072  0.2158  0.3493
 2833SOL    HW120135   2.737   2.149   2.917  1.3333  1.2178  0.1975
 2833SOL    HW220136   2.793   2.135   3.055 -0.9906 -0.2201  0.0235
 2834SOL     OW20137   1.213   3.427   2.617  0.3764  0.1407 -0.7389
 2834SOL    HW120138   1.155   3.428   2.541  0.9592 -0.2710 -1.1882
 2834SOL    HW220139   1.154   3.463   2.683  1.0953  1.3330 -0.7420
 2835SOL     OW20140   4.611   4.270  16.548 -0.5275  0.0206  0.2092
 2835SOL    HW120141   4.551   4.340  16.574  0.6163  1.0115  0.2149
 2835SOL    HW220142   4.613   4.276  16.452 -1.0461  0.8495  0.2441
 2836SOL     OW20143   4.257   0.224   5.297 -0.2254 -0.0665 -0.8432
 2836SOL    HW120144   4.352   0.207   5.297 -0.3076 -0.5214  1.4337
 2836SOL    HW220145   4.266   0.317   5.317 -1.7471 -0.1741  0.3120
 2837SOL     OW20146   2.080   1.958  13.725  0.0769  0.0825  0.3441
 2837SOL    HW120147   2.141   1.924  13.659 -0.4609  0.4177 -0.3251
 2837SOL    HW220148   2.120   1.904  13.793  1.4631 -0.9262 -1.2776
 2838SOL     OW20149   2.420   2.882   5.320 -0.4041  0.1436  0.4060
 2838SOL    HW120150   2.416   2.801   5.370  1.4156 -1.6609 -2.3809
 2838SOL    HW220151   2.357   2.856   5.252  0.7528 -2.2595  0.2908
 2839SOL     OW20152   3.444   2.000   2.205 -0.1161  0.2124  0.4903
 2839SOL    HW120153   3.356   1.990   2.241  0.2909 -1.6307  0.9665
 2839SOL    HW220154   3.482   1.912   2.210  0.1320  0.2116 -1.2940
 2840SOL     OW20155   1.898   2.562   2.545  0.1078 -0.3495  0.0210
 2840SOL    HW120156   1.977   2.615   2.549 -0.0867 -0.0414 -0.2531
 2840SOL    HW220157   1.852   2.574   2.628 -0.4743 -2.4585  0.0107
 2841SOL     OW20158   0.862   3.698   4.895 -0.0643 -0.6051 -0.0226
 2841SOL    HW120159   0.852   3.775   4.951  2.0087 -0.4805  0.2048
 2841SOL    HW220160   0.799   3.717   4.826  0.0112  2.8921  0.8239
 2842SOL     OW20161   4.237   4.431   2.378  0.0403  0.1061  0.1094
 2842SOL    HW120162   4.215   4.524   2.381 -0.0336  0.1194 -0.7943
 2842SOL    HW220163   4.150   4.395   2.395  1.5362 -2.7362  1.6738
 2843SOL     OW20164   2.397   2.288   9.978 -0.0774  0.2243 -0.4492
 2843SOL    HW120165   2.395   2.202  10.020  2.9961 -0.1272 -1.0927
 2843SOL    HW220166   2.487   2.310   9.999 -0.4874  2.0079 -0.5149
 2844SOL     OW20167   1.681   4.579   4.492 -0.3283  0.5157  0.6784
 2844SOL    HW120168   1.698   4.547   4.404  0.4587 -0.2176  1.0961
 2844SOL    HW220169   1.673   4.497   4.541 -2.4885 -0.1469 -0.7785
 2845SOL     OW20170   2.126   0.226   0.372 -0.3786 -0.5247  0.2680
 2845SOL    HW120171   2.069   0.168   0.423 -1.3458 -1.1287 -1.5133
 2845SOL    HW220172   2.098   0.207   0.283 -0.9051  1.5204  0.0124
 2846SOL     OW20173   1.895   3.022   7.746  0.1665 -0.3152  0.1685
 2846SOL    HW120174   1.972   2.966   7.735  0.5015  0.1217  0.2754
 2846SOL    HW220175   1.837   2.966   7.694 -0.7854  1.2332 -0.4581
 2847SOL     OW20176   1.222   4.172   4.531 -0.0776  0.1670 -0.1231
 2847SOL    HW120177   1.266   4.136   4.609  1.7341  1.3754 -0.5833
 2847SOL    HW220178   1.137   4.199   4.565 -0.6268 -2.8501  0.8846
 2848SOL     OW20179   3.994   1.827   0.033 -0.4747 -0.3026 -1.0859
 2848SOL    HW120180   4.050   1.780   0.095  0.1478  0.7440 -0.8368
 2848SOL    HW220181   3.962   1.749  17.730 -0.5212 -0.5515 -0.6030
 2849SOL     OW20182   3.636   1.024  17.003  0.5890  0.0422 -0.4474
 2849SOL    HW120183   3.584   0.983  17.072 -2.3346  2.7168 -1.0876
 2849SOL    HW220184   3.701   1.071  17.055  0.4582 -0.2221 -0.0441
 2850SOL     OW20185   2.121   2.787   4.170 -0.3584 -0.7367 -0.0507
 2850SOL    HW120186   2.044   2.825   4.128 -0.6062 -0.0399  1.0397
 2850SOL    HW220187   2.185   2.855   4.148 -2.1656  1.2612  0.9388
 2851SOL     OW20188   0.885   3.170   6.036  0.9706  0.5298  0.4976
 2851SOL    HW120189   0.850   3.192   6.122 -0.2537 -0.2892  0.2115
 2851SOL    HW220190   0.875   3.075   6.038  0.2800  0.5577 -1.2816
 2852SOL     OW20191   1.150   3.119   8.376  0.2856  0.0437 -0.0399
 2852SOL    HW120192   1.123   3.190   8.435 -1.3661  0.6847 -1.5630
 2852SOL    HW220193   1.204   3.069   8.437  0.2502  0.3265  0.2250
 2853SOL     OW20194   2.112   3.034  11.007  0.3830 -0.7655 -0.0224
 2853SOL    HW120195   2.114   2.993  11.093 -0.2524  0.1513  0.4261
 2853SOL    HW220196   2.019   3.055  10.995  0.1509 -0.7668  1.9243
 2854SOL     OW20197   2.648   3.850   2.848 -0.1040 -0.2307 -0.1294
 2854SOL    HW120198   2.606   3.934   2.870  2.2430  1.1719 -1.0191
 2854SOL    HW220199   2.571   3.793   2.842 -1.0400  0.9028  0.9419
 2855SOL     OW20200   3.280   0.308   6.231  0.4193 -0.2707 -0.4344
 2855SOL    HW120201   3.348   0.373   6.250 -0.6605  0.4076  1.0667
 2855SOL    HW220202   3.246   0.345   6.149 -1.1002  0.9029  0.7291
 2856SOL     OW20203   4.474   0.953   2.455 -0.6830 -0.2873  0.1389
 2856SOL    HW120204   4.557   0.998   2.437 -0.2354 -1.1525  0.0550
 2856SOL    HW220205   4.421   1.025   2.490  2.2559  1.6827  0.5949
 2857SOL     OW20206   3.513   2.444   4.848  0.0245 -0.6300 -1.0405
 2857SOL    HW120207   3.441   2.483   4.799  0.3914  1.0151 -0.2644
 2857SOL    HW220208   3.487   2.352   4.858 -4.0010  0.8634  2.1979
 2858SOL     OW20209   0.416   4.497  10.626  0.4692  0.2090 -0.5825
 2858SOL    HW120210   0.388   4.494  10.717 -0.8929  2.2084 -0.9168
 2858SOL    HW220211   0.422   4.402  10.621 -1.2677  0.0562  0.2263
 2859SOL     OW20212   3.327   1.356   0.650 -0.0495 -0.0016  0.0480
 2859SOL    HW120213   3.235   1.330   0.638 -0.1290 -0.7254  2.2000
 2859SOL    HW220214   3.336   1.443   0.610  0.5705  0.0062  0.2066
 2860SOL     OW20215   2.802   0.639   4.859  0.1306 -0.1440 -0.0861
 2860SOL    HW120216   2.772   0.558   4.899 -0.5815  0.1537 -0.0115
 2860SOL    HW220217   2.892   0.620   4.831 -0.4993 -1.1556 -1.4546
 2861SOL     OW20218   0.775   3.081   9.004  0.4995 -0.4178  0.6539
 2861SOL    HW120219   0.735   3.005   8.963  0.3985 -0.6280  1.1420
 2861SOL    HW220220   0.730   3.089   9.088  0.4832  0.4664  0.5625
 2862SOL     OW20221   0.802   0.164   3.975  0.2326 -0.3057 -0.0624
 2862SOL    HW120222   0.734   0.100   3.954  0.3920 -0.4631 -0.1017
 2862SOL    HW220223   0.773   0.249   3.943 -0.2113 -0.3648  0.1886
 2863SOL     OW20224   0.642   0.084   2.071  0.1881 -0.7110  0.8518
 2863SOL    HW120225   0.647   4.731   2.107  2.6136 -1.2923 -0.8959
 2863SOL    HW220226   0.663   0.130   2.153  3.6319  0.7692 -0.8405
 2864SOL     OW20227   4.148   3.471  16.629 -0.5322  0.1398  1.1478
 2864SOL    HW120228   4.119   3.522  16.705  0.8131  1.3929  0.8314
 2864SOL    HW220229   4.117   3.531  16.562  2.7345 -1.1441 -1.5360
 2865SOL     OW20230   0.272   1.801  11.345  0.2913  0.1140  0.0697
 2865SOL    HW120231   0.224   1.756  11.276  0.1155  0.3911  0.0165
 2865SOL    HW220232   0.310   1.871  11.293 -0.2555 -1.2830 -2.2094
 2866SOL     OW20233   3.730   4.531   3.644 -0.2653  0.3104 -0.5209
 2866SOL    HW120234   3.773   4.479   3.711  0.3415  0.2272 -0.9709
 2866SOL    HW220235   3.782   4.611   3.646  0.2887 -0.0287 -1.0837
 2867SOL     OW20236   3.559   1.064   3.449 -0.0169  0.5329  0.1001
 2867SOL    HW120237   3.589   0.987   3.400 -0.7329 -0.3369  1.0350
 2867SOL    HW220238   3.634   1.123   3.441 -0.3950  0.8531 -1.0716
 2868SOL     OW20239   0.201   4.274   8.238 -0.2918  0.4830  0.2799
 2868SOL    HW120240   0.294   4.251   8.235 -0.5291 -0.4171 -0.2221
 2868SOL    HW220241   0.219   4.362   8.206  1.5794  0.7440  2.0643
 2869SOL     OW20242   1.706   4.566  16.475  0.0433  0.6641  0.0883
 2869SOL    HW120243   1.652   4.517  16.412 -0.5636 -0.7012  1.6601
 2869SOL    HW220244   1.753   4.632  16.425  3.0437 -0.7170  1.0161
 2870SOL     OW20245   3.079   1.532   0.843  0.5635  0.0475 -0.0446
 2870SOL    HW120246   3.141   1.549   0.914  2.6543 -0.7091 -1.6906
 2870SOL    HW220247   3.023   1.463   0.877 -1.2623  2.3476  1.5840
 2871SOL     OW20248   3.184   2.009   9.548 -0.1387  0.7068  0.0007
 2871SOL    HW120249   3.236   2.089   9.557  0.0353  0.5935  0.0234
 2871SOL    HW220250   3.122   2.023   9.619 -1.0755 -1.9627 -0.2875
 2872SOL     OW20251   1.031   2.554   4.557  0.0165 -0.4862  0.4747
 2872SOL    HW120252   0.954   2.593   4.598 -0.3161 -0.3998 -0.2266
 2872SOL    HW220253   1.078   2.528   4.637  0.7024 -1.9927 -0.4175
 2873SOL     OW20254   0.052   1.018   1.760  0.1504  0.2569 -0.2993
 2873SOL    HW120255   0.015   0.930   1.751 -0.0867  0.6642 -3.1046
 2873SOL    HW220256   0.115   1.007   1.832  0.9483  0.5461 -0.9541
 2874SOL     OW20257   2.901   2.210   8.073  0.3618 -0.3092 -0.3716
 2874SOL    HW120258   2.892   2.115   8.072 -1.4579 -0.1681  2.2445
 2874SOL    HW220259   2.844   2.240   8.003  0.3828  2.0529  0.6091
 2875SOL     OW20260   2.623   0.459   1.337 -0.2095  0.3879 -0.5886
 2875SOL    HW120261   2.589   0.410   1.412 -0.9939  1.8621  0.0272
 2875SOL    HW220262   2.656   0.530   1.393 -0.6656 -1.1459  1.6212
 2876SOL     OW20263   2.475   1.335   7.400  0.0227 -0.4930 -0.4161
 2876SOL    HW120264   2.464   1.245   7.372 -1.3349 -0.5473  0.2802
 2876SOL    HW220265   2.389   1.353   7.437  0.2173 -0.2389 -0.0858
 2877SOL     OW20266   0.379   1.360   8.174 -0.3553 -0.3722  0.3407
 2877SOL    HW120267   0.409   1.421   8.107 -0.9943 -1.2448 -0.7467
 2877SOL    HW220268   0.331   1.300   8.118 -0.2044 -0.5412  0.3931
 2878SOL     OW20269   3.838   3.895   6.778  0.4880 -0.5310 -0.0990
 2878SOL    HW120270   3.892   3.910   6.855  0.0604 -0.4185  0.1742
 2878SOL    HW220271   3.909   3.893   6.714 -1.3345  0.5885 -2.1684
 2879SOL     OW20272   3.468   4.515   1.662 -0.3629  0.4946  0.0049
 2879SOL    HW120273   3.421   4.443   1.703 -0.9171 -0.4394 -2.2392
 2879SOL    HW220274   3.441   4.509   1.570  0.8758  0.1325 -0.3448
 2880SOL     OW20275   3.972   2.932   4.011  0.5703 -0.7656 -0.0563
 2880SOL    HW120276   4.008   2.948   3.924  2.3460 -0.9759  0.6501
 2880SOL    HW220277   4.003   3.006   4.063 -0.4865 -0.6652  0.4342
 2881SOL     OW20278   1.941   2.693   9.634  0.6326 -0.1622 -0.0208
 2881SOL    HW120279   1.895   2.663   9.712 -0.2831 -0.3097 -0.6149
 2881SOL    HW220280   1.899   2.631   9.574  1.7271 -0.2433 -0.6942
 2882SOL     OW20281   4.629   0.069  12.636  0.1452 -0.5741  0.3675
 2882SOL    HW120282   4.627   4.713  12.608 -0.8557 -0.6004  0.5337
 2882SOL    HW220283   4.536   0.093  12.641 -0.3449 -2.0189 -1.6818
 2883SOL     OW20284   1.133   0.427  13.275  0.0629 -0.1215 -0.0632
 2883SOL    HW120285   1.130   0.334  13.251 -0.6419 -0.9219  3.1241
 2883SOL    HW220286   1.041   0.452  13.280 -0.0082 -0.3796 -0.0656
 2884SOL     OW20287   1.936   2.267   0.027 -0.2486 -0.2569  0.5878
 2884SOL    HW120288   1.858   2.212   0.026 -0.8165  0.5596  0.0993
 2884SOL    HW220289   1.896   2.347   0.061  1.0801  0.0620  1.3995
 2885SOL     OW20290   4.255   0.811   9.562 -0.4201 -0.4852 -0.3518
 2885SOL    HW120291   4.240   0.904   9.541  1.8522 -0.0744 -0.1594
 2885SOL    HW220292   4.345   0.819   9.593 -0.9922 -1.0087  1.4130
 2886SOL     OW20293   0.539   2.246   1.194 -0.1767  0.0210 -0.1767
 2886SOL    HW120294   0.471   2.290   1.246  2.0994 -1.1730  3.8733
 2886SOL    HW220295   0.577   2.187   1.259 -1.6803 -0.3433  0.3677
 2887SOL     OW20296   1.061   2.422   8.574 -0.2826  0.5413  0.6690
 2887SOL    HW120297   0.991   2.363   8.547 -0.8957  1.3906  0.3907
 2887SOL    HW220298   1.110   2.434   8.493  0.0866 -2.6756  0.4241
 2888SOL     OW20299   1.640   3.246   0.986  1.0693  0.0100  0.2242
 2888SOL    HW120300   1.670   3.160   1.016  3.5298  0.6160 -0.4846
 2888SOL    HW220301   1.549   3.226   0.963  1.5385 -2.9370  0.9134
 2889SOL     OW20302   1.019   0.234   9.523  0.5864  0.3259 -0.4507
 2889SOL    HW120303   1.088   0.278   9.473  0.7748 -1.1285 -1.4765
 2889SOL    HW220304   0.991   0.307   9.578 -0.8427 -0.4933 -0.0872
 2890SOL     OW20305   2.713   1.786   1.452  0.2756 -0.8942 -0.5744
 2890SOL    HW120306   2.733   1.816   1.364 -0.7207  0.1963 -0.4324
 2890SOL    HW220307   2.653   1.712   1.441  0.0225 -0.4207 -2.2884
 2891SOL     OW20308   1.718   2.318   8.218  0.0329 -0.0076 -0.6120
 2891SOL    HW120309   1.798   2.284   8.258  0.2311  3.1036  1.6259
 2891SOL    HW220310   1.754   2.376   8.150 -3.2114  1.7257 -0.8548
 2892SOL     OW20311   3.200   1.960   0.623  0.9171 -0.0569 -0.6163
 2892SOL    HW120312   3.258   2.032   0.647  0.1765  1.2344 -2.7938
 2892SOL    HW220313   3.177   1.913   0.703  1.5251 -0.4241 -0.6537
 2893SOL     OW20314   3.984   4.314   2.409  0.3881  0.4457 -0.0326
 2893SOL    HW120315   3.959   4.335   2.319  0.7542 -1.4675 -0.5869
 2893SOL    HW220316   3.961   4.221   2.408 -1.8344  1.0077  2.9751
 2894SOL     OW20317   0.990   2.040   4.868  0.0395  0.0193  0.0358
 2894SOL    HW120318   0.915   2.073   4.818 -0.4483 -1.5521 -0.2766
 2894SOL    HW220319   0.964   2.085   4.949  0.2841  2.1475 -1.0693
 2895SOL     OW20320   0.475   3.890   7.149 -0.2784 -0.3677 -0.3309
 2895SOL    HW120321   0.515   3.805   7.128 -0.6154 -0.5509 -0.2237
 2895SOL    HW220322   0.416   3.868   7.220 -1.8038 -0.4388 -1.6207
 2896SOL     OW20323   3.750   0.512   2.396 -0.2180 -0.2139  0.6968
 2896SOL    HW120324   3.663   0.473   2.397  0.5983 -2.0759 -0.8886
 2896SOL    HW220325   3.801   0.432   2.400  0.7215  0.3268 -0.5655
 2897SOL     OW20326   0.514   1.432   5.415  0.5225 -0.5572 -0.1250
 2897SOL    HW120327   0.472   1.517   5.405  1.4465  0.2401  2.5600
 2897SOL    HW220328   0.501   1.403   5.325  1.7790 -1.0894 -0.1291
 2898SOL     OW20329   0.606   4.166  10.377  0.1113 -0.3074 -0.3022
 2898SOL    HW120330   0.635   4.080  10.407 -0.7967  0.0046  1.5408
 2898SOL    HW220331   0.535   4.175  10.442  0.5015 -1.2437  0.2506
 2899SOL     OW20332   0.592   2.898   8.054 -0.2923 -0.0813  0.2965
 2899SOL    HW120333   0.550   2.944   7.982 -0.9673 -1.2048 -0.0197
 2899SOL    HW220334   0.653   2.967   8.082  0.4144 -0.5889  0.0080
 2900SOL     OW20335   2.714   3.734   5.216  0.4704  0.2728  0.3112
 2900SOL    HW120336   2.632   3.772   5.248  0.2744  0.8403 -0.8977
 2900SOL    HW220337   2.693   3.756   5.126 -1.2100  0.2624  0.6879
 2901SOL     OW20338   1.887   4.280  11.755 -0.0675  0.0836  0.1567
 2901SOL    HW120339   1.843   4.330  11.825 -0.1688 -0.8618  0.7700
 2901SOL    HW220340   1.966   4.333  11.748  0.5662 -0.6691  1.5752
 2902SOL     OW20341   0.276   1.762   3.617  1.3693 -0.7166  0.1305
 2902SOL    HW120342   0.223   1.822   3.669  1.3172 -0.2826 -0.4242
 2902SOL    HW220343   0.339   1.828   3.588  2.2829 -1.8074 -0.3586
 2903SOL     OW20344   1.330   2.116   9.814  0.0386 -0.0535 -0.2159
 2903SOL    HW120345   1.249   2.067   9.797 -0.1211  0.2265 -0.2705
 2903SOL    HW220346   1.308   2.189   9.756  0.2830 -1.0063 -1.4984
 2904SOL     OW20347   0.081   1.977  15.500 -0.3991 -0.2857 -0.1187
 2904SOL    HW120348   0.116   2.011  15.418 -1.3384 -0.9716 -0.8100
 2904SOL    HW220349   0.090   1.884  15.480 -1.1257 -0.5686  0.8744
 2905SOL     OW20350   0.629   1.537   3.694 -0.0609  0.3897  0.0267
 2905SOL    HW120351   0.635   1.606   3.628 -0.6166 -0.4989 -0.9525
 2905SOL    HW220352   0.715   1.546   3.735 -1.1889  3.5020  1.6515
 2906SOL     OW20353   0.177   1.013   4.713  0.1616  0.3209 -0.2915
 2906SOL    HW120354   0.136   1.037   4.629 -0.9750 -2.5894 -0.5641
 2906SOL    HW220355   0.127   0.933   4.733 -1.6115  1.9190  1.6446
 2907SOL     OW20356   3.585   1.637  16.681  0.0734  0.1259 -0.2304
 2907SOL    HW120357   3.674   1.654  16.651  0.4382 -3.0730 -0.9935
 2907SOL    HW220358   3.520   1.677  16.623 -0.7722 -0.1878  0.4994
 2908SOL     OW20359   2.601   1.560   4.571 -0.0825  0.0372 -0.0571
 2908SOL    HW120360   2.665   1.500   4.535 -0.7573  0.0689 -1.3285
 2908SOL    HW220361   2.546   1.503   4.625 -0.0313  3.2567  3.4010
 2909SOL     OW20362   1.335   3.702  14.115 -0.1600 -0.2453  0.1310
 2909SOL    HW120363   1.385   3.772  14.156 -0.2080  0.2616 -0.6607
 2909SOL    HW220364   1.330   3.731  14.024 -0.7224 -0.0482  0.2213
 2910SOL     OW20365   0.254   0.801   6.109 -0.4017  0.1112 -0.3453
 2910SOL    HW120366   0.165   0.819   6.138 -0.2211  0.8322 -0.2506
 2910SOL    HW220367   0.247   0.832   6.018 -0.1205 -0.6939 -0.6449
 2911SOL     OW20368   2.687   4.362  11.719  0.5159  0.3544 -0.0102
 2911SOL    HW120369   2.760   4.356  11.781 -0.1077 -1.3089  0.5569
 2911SOL    HW220370   2.725   4.423  11.656 -1.4744  1.2272 -0.3764
 2912SOL     OW20371   0.294   0.763   7.905 -0.0960  0.0593  0.4418
 2912SOL    HW120372   0.280   0.839   7.960  3.0573  0.3368  0.8729
 2912SOL    HW220373   0.388   0.764   7.887  0.0313 -0.8042  1.0324
 2913SOL     OW20374   2.493   2.454   2.815  0.1066 -0.1718  0.2268
 2913SOL    HW120375   2.491   2.378   2.873  0.7753  0.0104  0.4860
 2913SOL    HW220376   2.499   2.529   2.875  0.7867  0.5670 -0.7574
 2914SOL     OW20377   0.275   2.084  10.964 -0.5660  0.7115  0.1978
 2914SOL    HW120378   0.206   2.131  10.919  0.6202  2.0749 -0.1671
 2914SOL    HW220379   0.350   2.103  10.908 -0.8631  1.4442  0.0537
 2915SOL     OW20380   1.863   2.910   6.340  0.3751  0.3318 -0.8785
 2915SOL    HW120381   1.832   2.999   6.354  1.9513  0.6369  0.7345
 2915SOL    HW220382   1.823   2.860   6.411  2.3800  0.5078  0.3891
 2916SOL     OW20383   2.314   2.176   7.913 -0.0341  0.6854 -0.2982
 2916SOL    HW120384   2.272   2.204   7.832  2.1607  0.7526 -1.3856
 2916SOL    HW220385   2.386   2.126   7.874 -1.0995 -0.7522 -0.4370
 2917SOL     OW20386   0.077   3.484   5.484  0.0141 -0.6508  0.0289
 2917SOL    HW120387   0.035   3.447   5.562 -0.6706  0.4102  0.1611
 2917SOL    HW220388   0.030   3.563   5.457  3.4886  0.9586 -1.1902
 2918SOL     OW20389   2.632   3.182   8.951 -0.1775 -0.6150 -0.0664
 2918SOL    HW120390   2.592   3.199   9.036 -0.5633 -0.3527 -0.3009
 2918SOL    HW220391   2.562   3.215   8.895  0.3223 -1.1619 -1.0178
 2919SOL     OW20392   1.860   3.337  16.331 -0.0457  0.2785  0.0514
 2919SOL    HW120393   1.830   3.350  16.421  0.7164 -1.4151  0.5536
 2919SOL    HW220394   1.851   3.425  16.295 -0.1118 -0.3960 -1.6189
 2920SOL     OW20395   4.188   1.371   5.311 -0.1888 -0.0124 -0.0703
 2920SOL    HW120396   4.281   1.351   5.323 -0.2650 -0.4027 -0.0997
 2920SOL    HW220397   4.180   1.338   5.222 -0.5098  0.1578 -0.1044
 2921SOL     OW20398   1.519   2.995   6.471  0.7288 -0.1084  0.0087
 2921SOL    HW120399   1.512   3.013   6.565 -0.7479 -2.1572  0.2775
 2921SOL    HW220400   1.425   3.007   6.458  0.7438 -0.3310 -0.3051
 2922SOL     OW20401   0.724   1.276   2.345  0.7942  0.4278 -0.0094
 2922SOL    HW120402   0.652   1.275   2.282  1.2226 -1.0371 -0.4806
 2922SOL    HW220403   0.697   1.342   2.408 -1.9590 -0.8136  0.1035
 2923SOL     OW20404   1.973   4.659  15.423 -0.3441 -0.1214 -0.1224
 2923SOL    HW120405   1.955   4.637  15.514  0.2216 -2.2974 -0.5357
 2923SOL    HW220406   1.947   4.579  15.378  0.0113 -0.1494 -0.2771
 2924SOL     OW20407   2.952   3.570   2.842  0.0730  0.0499 -0.0263
 2924SOL    HW120408   2.912   3.509   2.903 -2.9765  0.5538 -1.5599
 2924SOL    HW220409   3.013   3.515   2.792 -1.7926 -0.1181 -2.1040
 2925SOL     OW20410   3.657   4.024   3.774  0.2156  0.4911 -0.3887
 2925SOL    HW120411   3.697   4.001   3.857 -2.2088  0.4679  0.7819
 2925SOL    HW220412   3.621   3.943   3.736  2.3813  0.2630 -1.9607
 2926SOL     OW20413   2.894   2.028   7.629  0.0924 -0.0205  0.1955
 2926SOL    HW120414   2.836   1.969   7.580 -0.1297  0.2616  0.1191
 2926SOL    HW220415   2.947   1.968   7.682 -1.5468 -0.9131  0.8261
 2927SOL     OW20416   1.699   4.617  15.989 -0.2128  0.1392  0.2259
 2927SOL    HW120417   1.708   4.702  15.945  0.8660 -0.0827  0.0214
 2927SOL    HW220418   1.665   4.558  15.923 -1.0053  0.1341  0.6392
 2928SOL     OW20419   4.320   0.458   6.851  0.2982  0.1637 -0.6749
 2928SOL    HW120420   4.366   0.390   6.802  0.2749  0.1153 -0.6293
 2928SOL    HW220421   4.394   0.477   6.908  0.0213 -0.3120 -0.1581
 2929SOL     OW20422   1.188   1.842  16.749  0.3532 -0.4799  0.3014
 2929SOL    HW120423   1.145   1.915  16.793 -2.1355 -0.8923 -1.4632
 2929SOL    HW220424   1.276   1.868  16.778  1.4356 -1.4855 -2.0787
 2930SOL     OW20425   4.609   3.602  14.808  0.1279  0.1125 -0.4274
 2930SOL    HW120426   4.661   3.632  14.883 -0.1984 -1.1530  0.3209
 2930SOL    HW220427   4.689   3.581  14.759 -0.1814  0.3010 -1.0000
 2931SOL     OW20428   0.160   2.074   5.088  0.8878  0.1146 -0.4253
 2931SOL    HW120429   0.124   2.011   5.150 -0.0164  0.9245 -0.1202
 2931SOL    HW220430   0.250   2.079   5.120  1.2837 -2.3921 -1.1972
 2932SOL     OW20431   0.184   3.326   5.115  0.4904  0.1755 -0.1566
 2932SOL    HW120432   0.149   3.414   5.100 -0.5368 -0.4580 -1.3763
 2932SOL    HW220433   0.151   3.274   5.043  0.0025  1.4178 -0.8368
 2933SOL     OW20434   4.316   0.833   5.693  0.3904 -0.1612 -0.3524
 2933SOL    HW120435   4.272   0.775   5.631  3.3661 -0.7211 -1.8952
 2933SOL    HW220436   4.384   0.773   5.721 -0.0411 -0.7440 -0.5674
 2934SOL     OW20437   0.613   0.627   7.376  0.5049  0.3272 -0.3986
 2934SOL    HW120438   0.670   0.563   7.334  1.1048  0.8663 -0.4027
 2934SOL    HW220439   0.533   0.610   7.325  0.9820 -2.2599 -0.2627
 2935SOL     OW20440   2.081   1.875  12.706 -0.4140  0.2535 -0.2550
 2935SOL    HW120441   2.130   1.819  12.646  1.1264 -1.9650  3.1002
 2935SOL    HW220442   2.082   1.964  12.670 -1.3642  0.2606 -0.2782
 2936SOL     OW20443   3.774   0.213  13.901  0.3663  0.2502  0.0902
 2936SOL    HW120444   3.762   0.217  13.996 -0.1523 -1.2430  0.0993
 2936SOL    HW220445   3.751   0.123  13.878 -0.6543  0.5143  0.0871
 2937SOL     OW20446   1.208   3.024   4.703 -0.0767 -0.0056 -0.1661
 2937SOL    HW120447   1.229   3.100   4.757 -0.8876 -0.3073  0.5652
 2937SOL    HW220448   1.247   2.950   4.750  3.1337  1.0539 -1.1195
 2938SOL     OW20449   1.581   1.215   4.351  0.3341  0.1561  0.5905
 2938SOL    HW120450   1.597   1.153   4.280 -1.0106  0.8374 -0.3001
 2938SOL    HW220451   1.497   1.254   4.327 -0.4494 -1.0436  1.3798
 2939SOL     OW20452   4.367   2.477   1.680 -0.3427  0.4385  0.0836
 2939SOL    HW120453   4.425   2.492   1.605  0.9726  0.0582  1.0204
 2939SOL    HW220454   4.427   2.510   1.747 -0.0056  0.2770 -0.1318
 2940SOL     OW20455   0.824   3.262  17.515  0.2103 -0.0484  0.3698
 2940SOL    HW120456   0.852   3.343  17.559 -2.0716  0.4343  0.9331
 2940SOL    HW220457   0.819   3.288  17.423 -1.4044 -2.2936 -0.1625
 2941SOL     OW20458   1.368   0.916   3.203  0.1210 -0.0586  0.0730
 2941SOL    HW120459   1.292   0.920   3.261 -0.7354 -2.0604 -0.9063
 2941SOL    HW220460   1.336   0.844   3.148  0.5150  1.4755 -2.1798
 2942SOL     OW20461   2.845   0.524   5.634 -0.6048 -0.0653  0.2970
 2942SOL    HW120462   2.821   0.613   5.659 -0.0041  0.2203 -0.1645
 2942SOL    HW220463   2.854   0.499   5.726 -0.7267  1.7393  0.8051
 2943SOL     OW20464   3.009   1.329   8.995 -0.1990  0.2086 -0.3294
 2943SOL    HW120465   3.066   1.259   9.024  0.1677  0.3673 -0.6705
 2943SOL    HW220466   3.049   1.403   9.040  0.7497  0.7853 -2.1084
 2944SOL     OW20467   1.544   3.716  14.687 -0.6733  0.4642  0.1225
 2944SOL    HW120468   1.588   3.728  14.603  0.7054  0.9870  0.9131
 2944SOL    HW220469   1.544   3.621  14.701  1.9279  0.2495 -1.3592
 2945SOL     OW20470   2.953   2.468   6.643 -0.3989 -0.1255 -0.3663
 2945SOL    HW120471   2.997   2.432   6.720 -1.2045  0.3082  0.2913
 2945SOL    HW220472   2.884   2.525   6.677  0.6319  0.8603  0.1005
 2946SOL     OW20473   2.879   3.102   1.712  0.2707  0.2592 -0.2024
 2946SOL    HW120474   2.865   3.108   1.617  0.6752  0.6937 -0.2323
 2946SOL    HW220475   2.794   3.068   1.741  0.3207  0.1226 -0.2135
 2947SOL     OW20476   1.401   3.195   4.416  0.1420  0.1655  1.1614
 2947SOL    HW120477   1.353   3.251   4.476  1.6301  1.4127  1.1989
 2947SOL    HW220478   1.414   3.115   4.468 -1.2110 -1.5910 -1.1927
 2948SOL     OW20479   2.686   0.421   8.142 -0.0566 -0.0993 -0.3534
 2948SOL    HW120480   2.633   0.416   8.062  1.2026  1.9339 -1.3222
 2948SOL    HW220481   2.624   0.466   8.198 -0.3898 -1.4488  0.3626
 2949SOL     OW20482   0.206   0.774  13.479 -0.2140 -0.5997  0.0807
 2949SOL    HW120483   0.231   0.798  13.390 -1.3394 -1.6997 -0.5489
 2949SOL    HW220484   0.146   0.699  13.469  0.9760 -1.6876  1.1924
 2950SOL     OW20485   1.570   3.532  11.032  0.6404 -0.4487  0.0436
 2950SOL    HW120486   1.617   3.616  11.028 -0.4954  0.2346  1.0467
 2950SOL    HW220487   1.528   3.532  11.118 -1.9082  2.3556 -1.1969
 2951SOL     OW20488   3.825   0.826  13.741 -0.3350 -0.5798 -0.7120
 2951SOL    HW120489   3.882   0.752  13.764 -1.7173 -1.3662  0.1151
 2951SOL    HW220490   3.771   0.844  13.817 -1.6995 -1.5035 -1.4546
 2952SOL     OW20491   4.376   4.339  10.691 -0.7205  0.2577  0.5223
 2952SOL    HW120492   4.418   4.276  10.632 -1.3931  0.6646 -0.4007
 2952SOL    HW220493   4.286   4.341  10.659 -0.8389  3.7441  1.1046
 2953SOL     OW20494   0.989   2.754  13.720 -0.2519 -0.4210  0.3186
 2953SOL    HW120495   0.904   2.775  13.680  0.7822 -0.8332 -2.1157
 2953SOL    HW220496   0.979   2.661  13.701 -1.1156 -0.3925  0.6376
 2954SOL     OW20497   0.411   3.936   7.832 -0.4242  0.6833  0.1354
 2954SOL    HW120498   0.410   4.022   7.873  1.8284  0.1453  1.3024
 2954SOL    HW220499   0.317   3.915   7.831 -0.5969  1.4111  1.0025
 2955SOL     OW20500   3.217   1.506   4.574  0.3394 -0.7733 -0.2485
 2955SOL    HW120501   3.298   1.525   4.622  0.3686  0.4680 -0.7912
 2955SOL    HW220502   3.222   1.413   4.552  0.5790 -0.7266 -0.3821
 2956SOL     OW20503   1.009   3.111  12.842 -0.1726 -0.2268 -0.1388
 2956SOL    HW120504   1.005   3.074  12.930  1.5965 -0.0580  0.0246
 2956SOL    HW220505   0.929   3.163  12.845  0.1237  0.1616  1.0527
 2957SOL     OW20506   0.497   0.131   3.202 -0.3078  0.5848 -0.3943
 2957SOL    HW120507   0.544   0.211   3.226 -0.8334  0.3039  1.5285
 2957SOL    HW220508   0.564   0.067   3.179 -0.3720  0.5750 -0.5564
 2958SOL     OW20509   4.043   1.658  13.283  0.1109 -0.6836  0.3005
 2958SOL    HW120510   4.053   1.596  13.356  0.0999 -1.1001 -0.0510
 2958SOL    HW220511   4.091   1.612  13.214 -0.8171  0.2536 -0.9663
 2959SOL     OW20512   3.944   3.895   5.838  0.0280 -0.1699  0.4617
 2959SOL    HW120513   3.874   3.831   5.825  1.1091 -0.7582 -2.3741
 2959SOL    HW220514   3.910   3.926   5.922  1.4293 -0.3807  1.1054
 2960SOL     OW20515   0.242   1.077   1.974  0.4997  0.1371 -0.2453
 2960SOL    HW120516   0.291   1.013   2.025  2.4313  0.1225 -2.1192
 2960SOL    HW220517   0.297   1.153   1.991 -2.8856  2.8772 -1.4386
 2961SOL     OW20518   1.116   2.747  13.145 -0.2968  0.1062  0.1608
 2961SOL    HW120519   1.183   2.679  13.139 -1.5166 -1.1691  1.2475
 2961SOL    HW220520   1.075   2.729  13.229 -0.8971  0.3563 -0.0805
 2962SOL     OW20521   2.520   0.013  17.413  0.6880  0.0816  0.2646
 2962SOL    HW120522   2.572   0.094  17.413  3.6041 -1.8247  1.6296
 2962SOL    HW220523   2.539   4.709  17.497  0.5632  1.5781  1.0006
 2963SOL     OW20524   4.158   1.082  11.408 -0.1253  0.2002 -0.2721
 2963SOL    HW120525   4.115   1.100  11.491  0.4258  0.2765  0.0005
 2963SOL    HW220526   4.246   1.055  11.435 -0.4433  1.0472  1.6260
 2964SOL     OW20527   3.137   2.260   4.899 -0.1818  0.2970 -0.2878
 2964SOL    HW120528   3.215   2.259   4.843 -0.0862 -1.2470 -0.1339
 2964SOL    HW220529   3.087   2.329   4.857 -0.7564 -1.0863 -1.8911
 2965SOL     OW20530   3.530   0.360   5.238  0.0918  0.6005  0.0096
 2965SOL    HW120531   3.575   0.297   5.294 -0.3071 -0.3862 -0.7879
 2965SOL    HW220532   3.600   0.422   5.218  3.1443 -2.9581 -0.1962
 2966SOL     OW20533   3.900   2.856  17.190  0.3193 -0.4159  0.0729
 2966SOL    HW120534   3.853   2.859  17.273  0.8899 -0.3598  0.3985
 2966SOL    HW220535   3.875   2.944  17.164 -0.6232 -0.3285  1.3036
 2967SOL     OW20536   4.533   0.635   0.883  0.0378  0.4343 -0.0024
 2967SOL    HW120537   4.483   0.691   0.943  2.9364  0.0609  2.7388
 2967SOL    HW220538   4.501   0.659   0.796  0.6251 -0.3521 -0.4362
 2968SOL     OW20539   2.059   1.741   9.620 -0.2285  0.4340  0.1976
 2968SOL    HW120540   2.021   1.653   9.611  0.0142  0.0795  2.5942
 2968SOL    HW220541   2.116   1.723   9.695  0.6830  1.7308 -0.1995
 2969SOL     OW20542   2.473   4.251  16.142  0.5001  0.4893 -0.0203
 2969SOL    HW120543   2.391   4.226  16.186  0.9111 -2.6545 -1.0643
 2969SOL    HW220544   2.434   4.302  16.070  0.6528  1.4202  0.5563
 2970SOL     OW20545   2.534   1.802   3.447 -0.3311 -0.2517  0.0823
 2970SOL    HW120546   2.521   1.790   3.353  1.8802  3.0428 -0.6208
 2970SOL    HW220547   2.618   1.845   3.432  1.7796 -3.4607  2.8356
 2971SOL     OW20548   3.208   2.184  11.855  0.2024 -0.6120  0.6246
 2971SOL    HW120549   3.218   2.127  11.931 -1.6663  1.1177  2.1753
 2971SOL    HW220550   3.143   2.133  11.807 -1.3445 -0.0810  2.1194
 2972SOL     OW20551   4.642   0.116  17.567 -0.2501  0.4064 -0.4778
 2972SOL    HW120552   4.708   0.074  17.621 -0.9383 -0.9711 -0.7068
 2972SOL    HW220553   4.576   0.141  17.631 -0.8516 -0.3130 -0.8119
 2973SOL     OW20554   3.548   1.786   6.851 -0.5617  0.3503 -0.0145
 2973SOL    HW120555   3.523   1.877   6.867  2.2393  1.7415 -3.3642
 2973SOL    HW220556   3.632   1.780   6.896  0.1046 -2.1575 -1.5952
 2974SOL     OW20557   2.252   3.856   3.538 -0.1163 -0.4246  0.0284
 2974SOL    HW120558   2.320   3.789   3.540 -1.7528 -2.0924 -0.6021
 2974SOL    HW220559   2.297   3.927   3.492 -0.8823  0.6935  1.0245
 2975SOL     OW20560   2.038   4.730   0.953 -0.0526  0.1164 -0.2199
 2975SOL    HW120561   2.121   4.717   0.907  0.7588 -0.2076  1.3259
 2975SOL    HW220562   1.982   4.668   0.908  0.1851  0.3899 -0.8979
 2976SOL     OW20563   1.050   2.831   3.851 -0.2020 -0.0820 -0.2098
 2976SOL    HW120564   0.956   2.846   3.853 -0.5344 -2.1903  0.0949
 2976SOL    HW220565   1.084   2.920   3.847 -0.5182 -0.0265 -1.4644
 2977SOL     OW20566   2.574   2.094   1.223  0.5517 -0.0507  0.0784
 2977SOL    HW120567   2.636   2.022   1.211  1.5154  1.2581 -2.8081
 2977SOL    HW220568   2.518   2.068   1.296 -0.1743  1.2286 -0.0123
 2978SOL     OW20569   1.647   3.355   9.209  0.2749  0.7376 -0.5169
 2978SOL    HW120570   1.569   3.310   9.178 -0.1899  0.7065  0.6992
 2978SOL    HW220571   1.700   3.341   9.131  0.7620  0.0774 -0.0666
 2979SOL     OW20572   4.694   3.398   2.448 -0.4224 -0.2340  0.3776
 2979SOL    HW120573   0.031   3.338   2.467  1.4722  2.0496  0.3419
 2979SOL    HW220574   4.696   3.451   2.528  2.2689 -0.6898  0.6126
 2980SOL     OW20575   1.916   3.410   8.551  0.0353  0.7437  0.1311
 2980SOL    HW120576   1.940   3.404   8.458  1.2029  2.7658  0.3171
 2980SOL    HW220577   1.833   3.456   8.540  0.1175  0.9203  0.2593
 2981SOL     OW20578   2.907   3.620   1.494  0.0531  0.6121  0.0965
 2981SOL    HW120579   2.910   3.608   1.589  0.2124  0.3191  0.0547
 2981SOL    HW220580   2.821   3.579   1.484  0.2225  0.7342 -1.9659
 2982SOL     OW20581   1.050   0.262  12.812 -0.3404  0.5269 -0.0028
 2982SOL    HW120582   1.074   0.179  12.853  0.0796  1.1310  0.9559
 2982SOL    HW220583   1.110   0.324  12.852 -1.1061 -0.3291  2.4349
 2983SOL     OW20584   4.684   2.239   5.072  0.1477 -0.6774  0.2216
 2983SOL    HW120585   4.610   2.177   5.075  0.2252 -0.8342 -1.1212
 2983SOL    HW220586   0.025   2.182   5.067 -0.5110 -1.6039  0.5082
 2984SOL     OW20587   1.793   0.757  13.817  0.2100  0.3674 -0.1567
 2984SOL    HW120588   1.773   0.764  13.911  1.7445  1.8234  0.0725
 2984SOL    HW220589   1.879   0.798  13.808  0.6682 -0.4961  0.3046
 2985SOL     OW20590   4.673   4.360  11.116  0.2563 -0.7176 -1.2691
 2985SOL    HW120591   4.671   4.436  11.174  0.2012 -2.1958  0.7026
 2985SOL    HW220592   4.580   4.340  11.109  0.2414 -0.8830 -0.6447
 2986SOL     OW20593   2.450   1.960   7.783 -0.3736 -0.2723 -0.2334
 2986SOL    HW120594   2.506   1.937   7.708 -0.1544 -0.1508 -0.1049
 2986SOL    HW220595   2.367   1.924   7.750 -0.2502 -1.3595  0.6457
 2987SOL     OW20596   1.709   3.268   6.076  0.1521  0.2082  0.4507
 2987SOL    HW120597   1.758   3.251   5.996  2.3883 -0.7920  2.0466
 2987SOL    HW220598   1.684   3.176   6.082 -2.7674  1.0318  1.0984
 2988SOL     OW20599   2.456   3.694   8.974 -0.4121  0.3346 -0.4029
 2988SOL    HW120600   2.548   3.666   8.976 -0.7118 -0.6505 -0.8712
 2988SOL    HW220601   2.458   3.758   8.903  0.8227  0.3226 -0.3743
 2989SOL     OW20602   1.615   1.591  17.441  0.1714  0.5695  0.0369
 2989SOL    HW120603   1.710   1.594  17.453  0.6114  2.3577 -3.7776
 2989SOL    HW220604   1.609   1.622  17.351  3.0656 -1.8690 -0.9995
 2990SOL     OW20605   0.821   1.590   1.528  0.3729  0.1623 -0.5514
 2990SOL    HW120606   0.904   1.622   1.492  1.1395 -2.1501 -0.8291
 2990SOL    HW220607   0.804   1.516   1.469 -1.7522  0.9029 -0.8687
 2991SOL     OW20608   0.519   0.599  16.000  0.5816 -0.1077 -0.3240
 2991SOL    HW120609   0.589   0.588  16.064  0.1921 -1.6773 -0.1610
 2991SOL    HW220610   0.450   0.539  16.029  0.6776  0.2009  0.5391
 2992SOL     OW20611   0.563   0.195   3.537 -0.0653  0.4038  0.3772
 2992SOL    HW120612   0.634   0.137   3.509 -0.3677 -1.2122  3.0042
 2992SOL    HW220613   0.598   0.280   3.510 -0.5260 -0.0859 -1.7978
 2993SOL     OW20614   2.349   4.060   4.531 -0.7773  0.3950 -0.1151
 2993SOL    HW120615   2.411   4.120   4.489  0.1264  0.6100  1.5321
 2993SOL    HW220616   2.311   4.124   4.591  1.0910  2.0053 -0.6623
 2994SOL     OW20617   0.401   3.947   3.577  0.4400 -0.2391 -0.3349
 2994SOL    HW120618   0.329   3.933   3.638 -0.2514 -0.5341 -1.2244
 2994SOL    HW220619   0.482   3.922   3.622  0.4371 -1.0379 -0.7871
 2995SOL     OW20620   4.275   1.292   6.689 -0.0024  0.8152 -0.1560
 2995SOL    HW120621   4.245   1.372   6.646 -0.8773 -0.3028 -1.6185
 2995SOL    HW220622   4.250   1.311   6.780  0.7245  0.3929  0.1353
 2996SOL     OW20623   2.941   2.997   5.208  0.6332  0.2396 -0.1389
 2996SOL    HW120624   2.911   3.069   5.152  2.0062  0.6131 -0.4049
 2996SOL    HW220625   2.859   2.977   5.253  1.3872  0.4632  1.3481
 2997SOL     OW20626   0.839   3.311  10.656  0.6317  0.2286 -0.1600
 2997SOL    HW120627   0.892   3.374  10.704 -0.3164  0.0932  1.0807
 2997SOL    HW220628   0.885   3.231  10.683 -1.8293 -0.3477  2.3733
 2998SOL     OW20629   0.075   3.011   5.658  0.2257  0.7540 -0.3427
 2998SOL    HW120630   0.102   2.920   5.671  0.3862  0.7728 -0.5594
 2998SOL    HW220631   0.116   3.052   5.734 -1.0299 -1.2722  1.4266
 2999SOL     OW20632   4.409   2.541   3.845  0.0252  0.7375  0.1213
 2999SOL    HW120633   4.481   2.603   3.857  1.3748 -1.4373  3.2703
 2999SOL    HW220634   4.415   2.495   3.929  1.1974 -0.4795 -0.6248
 3000SOL     OW20635   0.643   1.387  15.507  0.2172 -0.5013  0.5114
 3000SOL    HW120636   0.714   1.416  15.450 -0.2839 -1.5911 -0.6752
 3000SOL    HW220637   0.588   1.342  15.442 -0.4871 -1.1158  1.5397
 3001SOL     OW20638   1.427   4.008   3.486  0.4078 -0.1580  0.0058
 3001SOL    HW120639   1.385   4.008   3.400 -1.0292  2.5533  0.6887
 3001SOL    HW220640   1.453   4.101   3.486  2.4059 -0.7198  0.9991
 3002SOL     OW20641   3.457   0.824   7.032  0.0231  0.1739  0.2714
 3002SOL    HW120642   3.414   0.861   7.108 -1.7251  0.7320 -0.9905
 3002SOL    HW220643   3.514   0.751   7.057  0.3699  0.8532  1.4563
 3003SOL     OW20644   0.209   3.699   4.396 -0.1354  0.3272  0.3190
 3003SOL    HW120645   0.271   3.666   4.461  0.0373 -1.5179 -0.7870
 3003SOL    HW220646   0.249   3.785   4.386 -0.9215  0.7519  0.8477
 3004SOL     OW20647   1.349   4.190   5.205 -0.2582  0.2439 -0.0530
 3004SOL    HW120648   1.379   4.273   5.168 -2.4737  0.2108 -1.9357
 3004SOL    HW220649   1.428   4.142   5.180 -0.1853 -0.3826  1.3971
 3005SOL     OW20650   3.332   1.656   8.087 -0.1263 -0.8956  0.9007
 3005SOL    HW120651   3.404   1.602   8.121  0.7827 -0.6376 -0.6364
 3005SOL    HW220652   3.296   1.698   8.166 -0.8535 -0.9619  0.6073
 3006SOL     OW20653   0.503   0.312  17.471  0.3079  0.0437 -0.2220
 3006SOL    HW120654   0.532   0.399  17.500 -0.9612  0.0366  1.0967
 3006SOL    HW220655   0.411   0.308  17.499  0.4181  1.0387  0.2789
 3007SOL     OW20656   2.225   4.299   8.261  0.5407  0.0601 -0.3803
 3007SOL    HW120657   2.163   4.231   8.287  0.5572  0.2305  0.1009
 3007SOL    HW220658   2.170   4.375   8.245 -0.4166  0.0558  2.9361
 3008SOL     OW20659   4.205   3.901   5.384 -0.0051 -0.3577  0.5448
 3008SOL    HW120660   4.173   3.907   5.474 -0.1849 -1.7135  0.5682
 3008SOL    HW220661   4.168   3.816   5.361 -2.0482  1.1280 -1.5692
 3009SOL     OW20662   1.546   0.759   6.501 -0.2637 -0.0490  0.5103
 3009SOL    HW120663   1.608   0.686   6.505  1.5616  1.4377 -1.1570
 3009SOL    HW220664   1.581   0.810   6.428 -0.6936 -0.6280 -0.0975
 3010SOL     OW20665   4.365   4.178   6.964  0.0461 -0.3893  0.2971
 3010SOL    HW120666   4.357   4.214   7.052  0.2171  2.6879 -0.9456
 3010SOL    HW220667   4.441   4.122   6.980 -0.2580 -1.1528 -0.9465
 3011SOL     OW20668   4.044   2.237   8.802 -0.2132  0.2697  0.0197
 3011SOL    HW120669   3.992   2.198   8.873 -0.0587  0.0471  0.0077
 3011SOL    HW220670   3.978   2.297   8.766 -0.7616  0.5263  1.4131
 3012SOL     OW20671   2.052   2.456   8.541 -0.9295  0.0930  0.0373
 3012SOL    HW120672   2.139   2.479   8.509 -0.2946 -1.4846  0.6285
 3012SOL    HW220673   2.064   2.467   8.636 -0.4884 -0.0016 -0.0078
 3013SOL     OW20674   1.900   1.184   5.888  0.3365 -0.4331  0.1795
 3013SOL    HW120675   1.907   1.187   5.984  1.8033  1.6611  0.0136
 3013SOL    HW220676   1.992   1.198   5.867 -0.0278 -0.9251 -1.7608
 3014SOL     OW20677   4.664   4.571  15.019  0.2050  0.0850  0.2028
 3014SOL    HW120678   4.732   4.534  14.964  0.8407 -1.7917  2.2389
 3014SOL    HW220679   4.604   4.614  14.957 -1.0251 -1.0631  0.5924
 3015SOL     OW20680   3.230   2.110   8.824 -0.4121  0.2738  0.3375
 3015SOL    HW120681   3.295   2.180   8.825  0.7005 -0.7513  0.0751
 3015SOL    HW220682   3.151   2.151   8.857  0.5857  2.0199  0.5161
 3016SOL     OW20683   4.137   2.495   3.065 -0.1799 -0.2234  0.1669
 3016SOL    HW120684   4.202   2.499   2.994  0.9031 -1.1933  1.1028
 3016SOL    HW220685   4.185   2.460   3.140 -0.5750 -1.9023 -0.3450
 3017SOL     OW20686   4.432   1.326   8.804 -0.2276  0.2977 -0.5279
 3017SOL    HW120687   4.480   1.282   8.873 -0.5796 -0.4581 -0.7600
 3017SOL    HW220688   4.490   1.327   8.728 -0.9561  0.2276 -1.0858
 3018SOL     OW20689   0.315   0.442  12.862 -0.0248 -0.5537 -0.0246
 3018SOL    HW120690   0.368   0.407  12.791  1.2736  1.7581 -0.2074
 3018SOL    HW220691   0.357   0.522  12.894 -0.0813 -1.0546  1.2858
 3019SOL     OW20692   1.590   3.698   2.215 -0.0971 -0.2968  0.3836
 3019SOL    HW120693   1.600   3.633   2.285  1.7106  0.5667  0.9264
 3019SOL    HW220694   1.511   3.746   2.238  0.9364  1.7154 -0.2682
 3020SOL     OW20695   4.370   2.433   3.602 -0.0634 -0.2714 -0.2718
 3020SOL    HW120696   4.387   2.338   3.599 -0.6973 -0.4854  2.6405
 3020SOL    HW220697   4.370   2.447   3.697 -3.1483 -0.7269 -0.2074
 3021SOL     OW20698   3.946   3.678   9.128 -0.1594  0.1715 -0.1209
 3021SOL    HW120699   4.035   3.694   9.096 -1.5738  3.5240 -2.3397
 3021SOL    HW220700   3.905   3.634   9.054  1.9890 -1.9981 -0.0308
 3022SOL     OW20701   2.551   1.647   7.913  0.5320 -0.6980  0.0321
 3022SOL    HW120702   2.624   1.708   7.910 -0.6006  0.6613 -0.2572
 3022SOL    HW220703   2.519   1.670   8.001 -3.1627  0.1687 -1.5261
 3023SOL     OW20704   0.728   2.441  15.820 -0.0657 -0.5051  0.0133
 3023SOL    HW120705   0.707   2.397  15.903 -0.4342 -1.3451 -0.5148
 3023SOL    HW220706   0.808   2.489  15.840  0.4695 -1.7721  0.9456
 3024SOL     OW20707   4.582   4.014   9.078  0.0695 -0.3204  0.3967
 3024SOL    HW120708   4.658   4.062   9.045  0.7511 -1.1681  0.7540
 3024SOL    HW220709   4.531   4.004   8.998  1.5209  0.4410 -0.6132
 3025SOL     OW20710   4.083   2.836   5.723 -0.1567 -0.1393 -0.2057
 3025SOL    HW120711   4.144   2.857   5.652  0.0818 -0.3304 -0.0595
 3025SOL    HW220712   4.093   2.915   5.775  2.3123  0.0135 -0.9029
 3026SOL     OW20713   0.962   4.327   7.280  0.3523  0.5075  0.1973
 3026SOL    HW120714   0.868   4.342   7.274 -0.1153 -1.9559  1.5080
 3026SOL    HW220715   0.968   4.235   7.306  2.6666  0.4664 -0.4424
 3027SOL     OW20716   2.738   2.809   2.817  0.5209 -0.2279  0.0201
 3027SOL    HW120717   2.727   2.800   2.723 -0.1336 -0.8476  0.1576
 3027SOL    HW220718   2.815   2.753   2.827  3.4170  3.8380  0.2952
 3028SOL     OW20719   1.057   0.236   8.436  0.0517  0.3005  0.0106
 3028SOL    HW120720   1.070   0.330   8.448 -0.4876  0.3170  0.4569
 3028SOL    HW220721   1.056   0.222   8.342  2.0448 -0.2024  0.0606
 3029SOL     OW20722   3.695   1.908   3.246 -0.3680 -0.1415 -0.4813
 3029SOL    HW120723   3.658   1.853   3.178 -0.2829  0.6524 -1.1641
 3029SOL    HW220724   3.665   1.992   3.212  1.4192  0.2340 -1.1035
 3030SOL     OW20725   3.330   2.972  15.847  0.8178  0.2866  0.4271
 3030SOL    HW120726   3.253   2.916  15.853 -0.4879  1.8403 -1.5009
 3030SOL    HW220727   3.351   3.003  15.935  0.2382  0.8034  0.3788
 3031SOL     OW20728   2.151   1.201   8.361  0.2904  0.0644 -0.4528
 3031SOL    HW120729   2.216   1.240   8.421  1.4108 -0.3524 -1.4047
 3031SOL    HW220730   2.192   1.117   8.342 -0.1790  0.1361 -1.7376
 3032SOL     OW20731   3.713   0.583   3.535 -0.6680 -0.2180  0.0065
 3032SOL    HW120732   3.658   0.526   3.587  0.9786 -0.8169  1.1081
 3032SOL    HW220733   3.775   0.516   3.505 -0.3870  0.2939 -0.5590
 3033SOL     OW20734   2.421   1.934   2.822 -0.3721  0.2702  0.2328
 3033SOL    HW120735   2.462   1.984   2.751 -1.0636 -0.1192 -0.4363
 3033SOL    HW220736   2.329   1.951   2.801 -0.5050 -0.4633  0.2331
 3034SOL     OW20737   4.044   4.298   1.159 -0.1363  0.2036  0.4206
 3034SOL    HW120738   3.977   4.238   1.193  1.4217 -0.9639  1.4223
 3034SOL    HW220739   4.123   4.276   1.209  0.6494 -2.4297 -1.9767
 3035SOL     OW20740   1.011   0.677  16.869  0.0429 -0.3795 -0.0651
 3035SOL    HW120741   1.078   0.611  16.849  1.0802  0.1948  1.4613
 3035SOL    HW220742   1.035   0.714  16.954 -2.8603  0.1243  0.5127
 3036SOL     OW20743   0.319   3.580  12.082 -0.5607 -0.3046 -0.3052
 3036SOL    HW120744   0.366   3.506  12.045 -0.2397  0.0183 -0.5391
 3036SOL    HW220745   0.361   3.639  12.020 -1.7285  1.1735  0.2947
 3037SOL     OW20746   2.739   1.382   9.399  0.3670  0.2229  0.1052
 3037SOL    HW120747   2.813   1.321   9.396  0.4236  0.3648 -1.4263
 3037SOL    HW220748   2.672   1.336   9.451 -0.0136 -1.0651 -1.5199
 3038SOL     OW20749   1.641   3.727  12.224  0.2664  0.3393  0.0235
 3038SOL    HW120750   1.713   3.718  12.286 -0.1287  1.9277  0.7056
 3038SOL    HW220751   1.690   3.700  12.147 -0.3841 -0.1060 -0.2406
 3039SOL     OW20752   0.247   0.071  17.713 -0.0314  0.3263 -0.1172
 3039SOL    HW120753   0.222   4.722   0.010 -2.5186  0.4547 -1.4866
 3039SOL    HW220754   0.310   0.099   0.039  1.4624 -0.1445 -1.3172
 3040SOL     OW20755   0.799   4.225   5.135  0.9272 -0.3610 -0.4001
 3040SOL    HW120756   0.796   4.172   5.056 -1.0191 -1.3153  0.3196
 3040SOL    HW220757   0.873   4.185   5.180  0.2782 -0.4613  0.5760
 3041SOL     OW20758   3.738   0.966  16.017 -0.8422  0.4148  0.0568
 3041SOL    HW120759   3.676   1.031  15.985 -0.7053  0.7365  0.4481
 3041SOL    HW220760   3.676   0.894  16.027  0.8573 -1.3628 -2.1966
 3042SOL     OW20761   4.314   0.846   2.253 -0.3030  0.8087 -0.1694
 3042SOL    HW120762   4.380   0.884   2.311  1.1557 -1.2590 -0.4611
 3042SOL    HW220763   4.361   0.807   2.179  0.6228 -1.0561  1.4060
 3043SOL     OW20764   3.178   3.622  14.563  0.2952  0.4878  0.2707
 3043SOL    HW120765   3.096   3.668  14.544  0.4155  0.3076 -0.6792
 3043SOL    HW220766   3.212   3.679  14.632  1.0043 -0.1878  0.4817
 3044SOL     OW20767   3.299   1.797   8.350 -0.2425 -0.0372 -0.0104
 3044SOL    HW120768   3.344   1.826   8.429 -1.2730 -0.9495  0.9023
 3044SOL    HW220769   3.300   1.881   8.303  0.0232 -0.5230 -0.8706
 3045SOL     OW20770   4.227   0.121  14.878 -0.0479  0.8655  0.2987
 3045SOL    HW120771   4.137   0.090  14.888 -0.0850  1.5311  1.9672
 3045SOL    HW220772   4.228   0.163  14.964 -3.2163  1.8258 -0.1194
 3046SOL     OW20773   1.081   3.425  16.919  0.6392 -0.3916 -0.0013
 3046SOL    HW120774   1.090   3.346  16.866 -0.4605  0.8050 -1.9719
 3046SOL    HW220775   1.169   3.458  16.933  0.3107  0.9764 -1.2517
 3047SOL     OW20776   1.512   1.755   3.955  0.3542  0.4768  0.3922
 3047SOL    HW120777   1.569   1.831   3.966  0.5610  0.0245  2.4741
 3047SOL    HW220778   1.575   1.683   3.960  1.1610  1.3150  1.9483
 3048SOL     OW20779   4.568   3.562  16.492 -0.3487  0.4229 -0.4278
 3048SOL    HW120780   4.524   3.636  16.534  0.4628 -0.8179  2.6445
 3048SOL    HW220781   4.493   3.503  16.481  0.9326 -1.4274  0.8468
 3049SOL     OW20782   1.831   3.001   2.795 -0.2844  0.3106 -0.3787
 3049SOL    HW120783   1.824   2.944   2.872  0.6925  0.2462 -0.3293
 3049SOL    HW220784   1.780   2.956   2.728  0.9938  0.1831 -1.2727
 3050SOL     OW20785   2.403   4.150   4.086  0.5892 -0.1225  0.7074
 3050SOL    HW120786   2.410   4.196   4.002  3.3816 -2.7132 -0.4861
 3050SOL    HW220787   2.477   4.186   4.136 -0.1695  2.7384 -0.2514
 3051SOL     OW20788   2.192   4.619   4.395  0.0580  0.1190 -0.2074
 3051SOL    HW120789   2.153   4.552   4.339 -0.9295 -0.9035  1.6925
 3051SOL    HW220790   2.113   4.670   4.414 -1.3915 -1.7679 -1.1382
 3052SOL     OW20791   0.890   3.842   2.401 -0.0683 -0.1578  0.5515
 3052SOL    HW120792   0.911   3.923   2.447  0.3807 -0.3106  0.6159
 3052SOL    HW220793   0.978   3.821   2.369 -0.4753 -1.3117  0.1805
 3053SOL     OW20794   2.021   0.188   4.253  0.2627 -0.1835 -0.2289
 3053SOL    HW120795   2.039   0.185   4.158  0.4309 -0.0191 -0.2024
 3053SOL    HW220796   2.098   0.146   4.292 -0.4044 -0.0881  1.1755
 3054SOL     OW20797   4.343   3.383   7.160  0.4703 -0.4107  0.2872
 3054SOL    HW120798   4.315   3.306   7.112 -0.7663  0.1211  0.1727
 3054SOL    HW220799   4.261   3.406   7.203  0.2378 -0.0316 -0.3704
 3055SOL     OW20800   0.881   0.665   6.995 -0.4928 -0.3305 -0.1414
 3055SOL    HW120801   0.965   0.703   7.022 -0.5394 -0.2096 -0.1634
 3055SOL    HW220802   0.883   0.570   6.996 -2.0642 -0.3715 -0.1622
 3056SOL     OW20803   1.575   1.908   5.725 -0.2110 -0.2806  0.0053
 3056SOL    HW120804   1.486   1.904   5.760 -1.0591  2.3740 -1.8763
 3056SOL    HW220805   1.616   1.968   5.787 -1.6636 -0.1245  0.8074
 3057SOL     OW20806   3.352   3.912   7.797 -0.7728 -0.7322  0.1845
 3057SOL    HW120807   3.428   3.883   7.847 -1.8977 -0.5106  2.0163
 3057SOL    HW220808   3.370   4.006   7.787 -0.8063 -0.7175  0.2650
 3058SOL     OW20809   2.666   2.401   0.254  0.6967 -0.3127 -0.0626
 3058SOL    HW120810   2.668   2.484   0.207 -0.4200 -1.4787 -2.2238
 3058SOL    HW220811   2.721   2.342   0.201 -0.9787 -2.4972  0.6303
 3059SOL     OW20812   0.782   0.617  16.726  0.2754 -0.2534  0.4395
 3059SOL    HW120813   0.863   0.633  16.774  0.7474  0.1528 -0.4957
 3059SOL    HW220814   0.754   0.707  16.710 -1.1417 -0.5989  1.0326
 3060SOL     OW20815   0.247   2.721   3.158 -0.6541 -0.7619  0.3384
 3060SOL    HW120816   0.197   2.772   3.222 -0.2469  0.2654 -0.1615
 3060SOL    HW220817   0.277   2.800   3.115  1.2057 -2.0802 -0.7719
 3061SOL     OW20818   2.748   4.251  15.336 -0.6854  0.7471  0.4865
 3061SOL    HW120819   2.705   4.336  15.324  1.1828  1.5256 -0.6646
 3061SOL    HW220820   2.723   4.207  15.254  0.6765  1.4954 -0.3302
 3062SOL     OW20821   3.985   2.522   4.144 -0.2719  0.4856  0.6791
 3062SOL    HW120822   4.036   2.445   4.168  0.3125  0.6149 -0.1861
 3062SOL    HW220823   4.017   2.565   4.066 -2.1402  1.5621  0.4999
 3063SOL     OW20824   1.819   3.362   2.202  0.0864  0.3637  0.3180
 3063SOL    HW120825   1.817   3.373   2.297  1.2378 -2.8504  0.7279
 3063SOL    HW220826   1.764   3.284   2.193  2.8588 -1.5960  0.2417
 3064SOL     OW20827   0.871   0.040   8.470  1.0517  0.2643 -0.4491
 3064SOL    HW120828   0.946   0.097   8.486 -0.8682  2.3595  1.1679
 3064SOL    HW220829   0.809   0.089   8.416 -1.0367 -1.2781  0.5100
 3065SOL     OW20830   2.455   3.079  12.644  0.2772  0.1077 -0.3082
 3065SOL    HW120831   2.476   2.986  12.636  2.1901  0.5629 -0.5007
 3065SOL    HW220832   2.431   3.067  12.736 -1.4443 -1.4740 -0.9690
 3066SOL     OW20833   0.919   1.822   5.677  0.2093  0.6876  0.1584
 3066SOL    HW120834   0.996   1.772   5.650  0.7560  2.1799 -1.0226
 3066SOL    HW220835   0.943   1.903   5.632 -0.7290 -0.6902 -2.8759
 3067SOL     OW20836   4.707   2.459   6.300  0.8962 -0.1423 -1.1030
 3067SOL    HW120837   0.004   2.438   6.388  0.0188 -3.6587 -1.6228
 3067SOL    HW220838   4.698   2.551   6.322  1.9430  0.3554 -2.8015
 3068SOL     OW20839   0.431   3.626   3.224 -0.4714 -0.0330 -0.4640
 3068SOL    HW120840   0.346   3.585   3.210  0.7083 -2.1290 -1.5197
 3068SOL    HW220841   0.396   3.691   3.284  1.4206  2.4288 -2.0146
 3069SOL     OW20842   0.425   4.499  14.796 -0.1026  0.2044  0.0846
 3069SOL    HW120843   0.419   4.529  14.705  2.2481  1.1104  0.2103
 3069SOL    HW220844   0.516   4.472  14.809 -0.0084 -0.6667 -2.3411
 3070SOL     OW20845   3.233   0.846   7.454  0.6242 -0.1268 -0.5565
 3070SOL    HW120846   3.281   0.766   7.477  0.6128 -0.5955 -2.1840
 3070SOL    HW220847   3.152   0.823   7.500  1.3149 -2.2530 -0.3822
 3071SOL     OW20848   1.628   1.964   2.101  0.0271  0.1223 -0.4404
 3071SOL    HW120849   1.621   1.886   2.047 -0.4417  1.3642 -2.1873
 3071SOL    HW220850   1.723   1.971   2.111  0.0216 -0.1040 -0.2263
 3072SOL     OW20851   2.278   1.061   1.906 -0.2499  0.1518 -0.3449
 3072SOL    HW120852   2.185   1.060   1.928 -0.1457 -1.8475 -0.0066
 3072SOL    HW220853   2.275   1.117   1.828  1.6838  2.0932  0.9817
 3073SOL     OW20854   3.096   1.089   5.487 -0.2581  0.1593  0.3267
 3073SOL    HW120855   3.022   1.069   5.544  0.7480 -1.9909  0.9107
 3073SOL    HW220856   3.154   1.118   5.558 -0.0209 -2.3962  1.2006
 3074SOL     OW20857   2.358   4.647  15.736  0.0517  0.4270 -0.4219
 3074SOL    HW120858   2.332   4.588  15.806 -0.9681 -0.4372 -1.5120
 3074SOL    HW220859   2.441   4.680  15.770  0.9806 -2.4019  0.0437
 3075SOL     OW20860   4.681   2.211  14.715 -0.0534  0.2813  0.0395
 3075SOL    HW120861   4.733   2.223  14.794 -0.0529 -0.6939  0.1920
 3075SOL    HW220862   4.598   2.249  14.743  1.0942  1.7804  1.3915
 3076SOL     OW20863   0.424   2.384   3.448 -0.0985 -0.6191 -0.0587
 3076SOL    HW120864   0.481   2.429   3.510 -0.8518  1.0377 -0.5701
 3076SOL    HW220865   0.453   2.293   3.457 -3.0222 -1.5532 -0.1305
 3077SOL     OW20866   0.183   3.687   1.221  0.1799  0.3688  0.3169
 3077SOL    HW120867   0.122   3.749   1.181 -0.3126 -1.2686 -1.4176
 3077SOL    HW220868   0.251   3.752   1.241  1.0811 -1.2474  2.4996
 3078SOL     OW20869   4.067   1.929   0.292 -0.5962  0.3313  0.1627
 3078SOL    HW120870   4.100   1.963   0.209 -3.3556 -1.1618 -1.5550
 3078SOL    HW220871   4.141   1.927   0.352  1.3970  0.3192 -2.3199
 3079SOL     OW20872   3.185   3.363   4.258  0.5202 -0.1401 -0.2779
 3079SOL    HW120873   3.271   3.354   4.218 -0.2766 -2.4398 -1.4178
 3079SOL    HW220874   3.122   3.326   4.197  1.3583 -1.2770 -0.4479
 3080SOL     OW20875   1.382   3.291   8.819  0.2235  0.1633 -0.3080
 3080SOL    HW120876   1.419   3.206   8.796 -1.2950 -0.9519  1.2661
 3080SOL    HW220877   1.350   3.256   8.902  0.7688  1.2819  0.3770
 3081SOL     OW20878   2.004   2.053   4.632 -0.5178  0.2571  0.6943
 3081SOL    HW120879   2.023   2.139   4.593 -0.8924 -0.2898 -0.6935
 3081SOL    HW220880   1.915   2.047   4.596 -0.0075 -1.9807 -0.1876
 3082SOL     OW20881   0.973   1.902  13.487 -0.3295 -0.1393  0.4979
 3082SOL    HW120882   1.022   1.925  13.566  0.9881  0.4375 -0.4834
 3082SOL    HW220883   1.031   1.844  13.437 -0.3388  0.4466 -0.2007
 3083SOL     OW20884   3.879   2.067  16.851  0.0934 -0.0748 -0.1340
 3083SOL    HW120885   3.831   2.021  16.920 -2.2679  2.1915 -0.2602
 3083SOL    HW220886   3.967   2.030  16.862  0.2273  0.6074  1.0642
 3084SOL     OW20887   0.339   1.490   3.423  0.6572  0.1264  0.0318
 3084SOL    HW120888   0.348   1.585   3.415 -0.6045  0.6581  4.9859
 3084SOL    HW220889   0.411   1.460   3.368  0.5939 -3.2069  1.7734
 3085SOL     OW20890   2.358   0.008   7.053 -0.3445 -0.2368  0.8223
 3085SOL    HW120891   2.394   4.657   7.072  0.4087  0.1324  1.0909
 3085SOL    HW220892   2.425   0.059   7.098 -1.3678  1.2601  0.6685
 3086SOL     OW20893   4.575   2.116   2.279 -0.2831 -0.0156 -0.8376
 3086SOL    HW120894   4.667   2.140   2.281 -0.5491  1.2847 -4.3128
 3086SOL    HW220895   4.557   2.153   2.192  1.4031  2.3211 -0.1804
 3087SOL     OW20896   2.975   1.994   0.997  0.3873  0.0540  0.0575
 3087SOL    HW120897   2.989   2.088   0.996 -0.0479  0.1469  2.5372
 3087SOL    HW220898   3.067   1.970   0.984  0.1431 -0.6215 -0.4425
 3088SOL     OW20899   1.171   2.234   4.779  0.1004  0.2157  0.2379
 3088SOL    HW120900   1.136   2.145   4.787  0.9185 -0.1308 -0.0042
 3088SOL    HW220901   1.156   2.258   4.871  3.5870  4.2353 -0.2136
 3089SOL     OW20902   3.256   4.369  17.353 -0.0377 -0.2461  0.8830
 3089SOL    HW120903   3.330   4.362  17.413  0.5419  0.8272  0.2989
 3089SOL    HW220904   3.252   4.274  17.342  0.5371 -0.0755 -0.9346
 3090SOL     OW20905   2.779   2.244   8.336 -0.0297  0.1101  0.0091
 3090SOL    HW120906   2.832   2.262   8.258 -1.9195 -0.3672 -1.3791
 3090SOL    HW220907   2.821   2.310   8.391 -0.7938 -0.1226  0.8724
 3091SOL     OW20908   0.361   0.130  14.873 -0.1841 -0.2992 -0.3925
 3091SOL    HW120909   0.303   0.198  14.907 -0.8466 -0.9485 -0.2450
 3091SOL    HW220910   0.349   0.137  14.778 -2.6449 -4.1165 -0.3417
 3092SOL     OW20911   2.548   3.579  10.519  0.0113 -0.3762  0.0928
 3092SOL    HW120912   2.575   3.501  10.470 -2.6060 -1.4193  0.2996
 3092SOL    HW220913   2.458   3.555  10.543 -1.0449  2.7855 -0.7238
 3093SOL     OW20914   2.120   1.515   9.808 -0.9671 -0.2091  0.4449
 3093SOL    HW120915   2.109   1.555   9.894 -1.3048  0.4561  0.0886
 3093SOL    HW220916   2.109   1.421   9.821  0.2215 -0.0369  2.6367
 3094SOL     OW20917   4.465   3.091  17.292  0.0972  0.1518 -0.3208
 3094SOL    HW120918   4.458   3.121  17.201 -1.2254  0.2707 -0.1865
 3094SOL    HW220919   4.446   2.997  17.287  1.2972 -0.1440  0.6523
 3095SOL     OW20920   4.382   4.306   3.356  0.1193  0.0145 -0.5079
 3095SOL    HW120921   4.343   4.357   3.285  0.6911  1.9298  0.5614
 3095SOL    HW220922   4.363   4.350   3.439 -0.3481 -0.6824 -0.2480
 3096SOL     OW20923   2.823   0.589   9.832  0.4322  0.2752  0.6987
 3096SOL    HW120924   2.738   0.584   9.874 -0.4417  1.0771 -0.9863
 3096SOL    HW220925   2.850   0.497   9.832 -0.1205  0.1096 -0.7647
 3097SOL     OW20926   2.924   1.556   9.609 -0.5016  0.0732 -0.1375
 3097SOL    HW120927   2.889   1.565   9.520 -1.4394 -1.2536  0.1095
 3097SOL    HW220928   2.854   1.578   9.671  0.9494  0.9497  1.1800
 3098SOL     OW20929   0.449   2.039   0.250  0.5660 -0.0662 -0.4122
 3098SOL    HW120930   0.542   2.044   0.273  0.3389 -1.8108  0.9280
 3098SOL    HW220931   0.408   1.997   0.326 -0.4212  1.1783 -0.2770
 3099SOL     OW20932   3.106   4.698   7.559  0.0629  0.0737  0.1295
 3099SOL    HW120933   3.112   0.044   7.609 -0.1084 -0.5319  1.1182
 3099SOL    HW220934   3.084   4.725   7.470 -3.5322 -1.4128  0.5823
 3100SOL     OW20935   2.078   3.775   3.777  0.3632 -0.3284 -0.0927
 3100SOL    HW120936   2.050   3.698   3.728  1.7398  1.0679 -3.0546
 3100SOL    HW220937   2.152   3.805   3.724 -0.5118  1.3836 -0.3288
 3101SOL     OW20938   0.577   4.215  11.538  0.1923  0.5417  0.5934
 3101SOL    HW120939   0.642   4.147  11.519  0.1142  0.8041 -0.5800
 3101SOL    HW220940   0.579   4.184  11.629  1.9450  0.7040  0.6223
 3102SOL     OW20941   0.721   3.714   0.799 -0.0473 -0.6283  0.2907
 3102SOL    HW120942   0.687   3.784   0.744 -3.0495 -1.1176  1.5154
 3102SOL    HW220943   0.687   3.743   0.884 -1.5073 -0.4335 -0.3628
 3103SOL     OW20944   0.271   0.508   1.197  0.4149 -0.9563 -0.1804
 3103SOL    HW120945   0.326   0.453   1.253 -0.8553  0.0149  2.0549
 3103SOL    HW220946   0.225   0.565   1.259 -0.8501  0.1296 -2.1450
 3104SOL     OW20947   1.014   0.947   4.277 -0.2763 -0.4501 -0.3874
 3104SOL    HW120948   1.049   0.998   4.204 -1.5770  0.3915 -0.4200
 3104SOL    HW220949   1.089   0.892   4.300  0.1584 -0.7664 -2.5661
 3105SOL     OW20950   1.352   4.232   0.117  0.2867 -0.1775 -0.1155
 3105SOL    HW120951   1.311   4.201   0.197 -0.3796 -0.6170 -0.6222
 3105SOL    HW220952   1.369   4.156   0.060 -0.6057 -0.6167  0.2084
 3106SOL     OW20953   3.074   3.826  15.702 -0.0665 -0.0954  0.0604
 3106SOL    HW120954   2.980   3.812  15.698  0.5163 -3.7518 -1.4010
 3106SOL    HW220955   3.099   3.787  15.786 -0.5063 -0.9006 -0.1795
 3107SOL     OW20956   4.110   3.553   7.356 -0.4033 -0.1375  0.0205
 3107SOL    HW120957   4.063   3.523   7.433 -1.7851 -2.1747 -1.5921
 3107SOL    HW220958   4.043   3.525   7.294 -1.1595 -2.2007  1.7696
 3108SOL     OW20959   1.066   4.160   3.231  0.5153  0.2853  0.0476
 3108SOL    HW120960   1.066   4.251   3.262  0.8342  1.0956 -2.3336
 3108SOL    HW220961   1.147   4.132   3.274  0.3548  1.0964  0.8977
 3109SOL     OW20962   2.217   3.278   2.543 -0.3370  0.2373  0.4768
 3109SOL    HW120963   2.214   3.190   2.504  1.2455 -0.6547  2.3601
 3109SOL    HW220964   2.311   3.282   2.559 -0.3583 -2.6909  1.4504
 3110SOL     OW20965   4.445   0.119   6.307  0.2208 -0.0517 -0.1956
 3110SOL    HW120966   4.429   0.197   6.254 -0.1437  1.9774  2.8914
 3110SOL    HW220967   4.529   0.139   6.347 -0.5251  0.1332  1.2604
 3111SOL     OW20968   2.807   3.135   1.437  0.1762 -0.1984  0.0452
 3111SOL    HW120969   2.774   3.084   1.362 -3.0127  0.0854  1.2578
 3111SOL    HW220970   2.886   3.171   1.396 -0.6919 -0.0770 -1.5431
 3112SOL     OW20971   3.664   0.978   2.381 -0.3227  0.5313  0.3657
 3112SOL    HW120972   3.595   0.971   2.446 -2.4126 -0.5354 -1.9804
 3112SOL    HW220973   3.736   0.950   2.438  1.3022  0.1236 -1.8769
 3113SOL     OW20974   0.985   1.505   1.918 -0.2266 -0.5469  0.4176
 3113SOL    HW120975   1.010   1.597   1.920 -4.1674  0.5786 -2.0615
 3113SOL    HW220976   0.891   1.517   1.909 -0.5155 -2.6129  0.6376
 3114SOL     OW20977   4.282   4.056   6.157  0.4082 -0.2097  0.2785
 3114SOL    HW120978   4.267   4.144   6.121 -0.5920 -0.2854  0.5109
 3114SOL    HW220979   4.265   4.066   6.251  1.5159  2.1205  0.2506
 3115SOL     OW20980   2.604   0.067  11.239  0.0942  0.1277  0.0540
 3115SOL    HW120981   2.547   0.002  11.279 -1.7692  1.1316 -0.9134
 3115SOL    HW220982   2.574   0.145  11.287 -0.5979  1.8737 -3.2089
 3116SOL     OW20983   3.517   2.385   2.780  0.2085 -0.2897  0.1656
 3116SOL    HW120984   3.426   2.399   2.752  0.9188  2.2210 -0.9136
 3116SOL    HW220985   3.565   2.404   2.699 -2.8328  0.3829 -1.5044
 3117SOL     OW20986   0.411   0.519   0.276 -0.6589 -0.1266 -0.6588
 3117SOL    HW120987   0.325   0.536   0.314 -1.5343 -1.7853 -1.9356
 3117SOL    HW220988   0.439   0.441   0.325 -1.0075 -1.5982 -2.8327
 3118SOL     OW20989   2.773   3.937   4.045 -0.0652  0.0989 -0.4525
 3118SOL    HW120990   2.751   3.941   4.138 -0.7783  1.2133 -0.6645
 3118SOL    HW220991   2.869   3.933   4.046 -0.1833 -2.4024 -0.3863
 3119SOL     OW20992   1.179   1.255   3.481  0.1477  0.0766 -0.3370
 3119SOL    HW120993   1.126   1.334   3.490  1.3380  0.8122  0.4017
 3119SOL    HW220994   1.176   1.247   3.386 -1.6367  1.2404 -0.3795
 3120SOL     OW20995   0.642   1.251   3.732 -0.1117  0.4699 -0.2439
 3120SOL    HW120996   0.550   1.259   3.707 -0.5507 -0.5929  1.0393
 3120SOL    HW220997   0.665   1.344   3.729 -2.4777  1.0921  0.5994
 3121SOL     OW20998   3.929   1.694   2.998 -0.3982  0.4647 -0.3869
 3121SOL    HW120999   3.835   1.708   3.005 -0.9288 -0.7737 -5.2499
 3121SOL    HW221000   3.943   1.712   2.905 -0.5509  0.5096 -0.4011
 3122SOL     OW21001   2.622   0.295  17.326  0.0827 -0.1372  0.0556
 3122SOL    HW121002   2.608   0.343  17.408  3.3018 -0.9807  1.0990
 3122SOL    HW221003   2.714   0.318  17.311 -0.2142  0.1097 -1.3828
 3123SOL     OW21004   0.606   1.770   5.346 -0.9319 -0.5113 -0.3264
 3123SOL    HW121005   0.524   1.745   5.305 -2.0511  0.7685  1.1348
 3123SOL    HW221006   0.668   1.742   5.279  1.5553  1.1235  1.2337
 3124SOL     OW21007   1.371   0.924  11.667 -0.7503 -0.5799 -0.3746
 3124SOL    HW121008   1.380   1.017  11.649 -2.6218  0.0254  1.8380
 3124SOL    HW221009   1.430   0.879  11.606 -0.8757 -0.7833 -0.3443
 3125SOL     OW21010   2.722   4.018   4.941 -0.6191  0.3879  0.3098
 3125SOL    HW121011   2.800   3.962   4.945  0.4725  1.9114  0.4085
 3125SOL    HW221012   2.717   4.045   4.850 -0.6919 -0.2993  0.1091
 3126SOL     OW21013   2.824   3.920   9.866  0.4798  0.2773 -0.5747
 3126SOL    HW121014   2.786   3.941   9.952 -1.3642  0.1548 -1.3583
 3126SOL    HW221015   2.772   3.979   9.810 -0.2589  2.1663  2.0854
 3127SOL     OW21016   3.886   4.683   6.493 -0.2672  0.0206  0.1314
 3127SOL    HW121017   3.905   0.041   6.506  0.1378 -0.3451  2.1199
 3127SOL    HW221018   3.791   4.680   6.485 -0.1989  0.8339 -0.9576
 3128SOL     OW21019   3.556   1.956   2.473 -0.5247  0.1466  0.3438
 3128SOL    HW121020   3.582   2.030   2.528 -0.8487  0.1379  0.5090
 3128SOL    HW221021   3.508   1.993   2.399  0.0602  2.0742  0.9332
 3129SOL     OW21022   1.090   1.578   5.640 -0.1162 -0.5302  0.0966
 3129SOL    HW121023   1.003   1.558   5.675 -0.2856  2.6406  1.4168
 3129SOL    HW221024   1.079   1.561   5.546  0.5163 -1.3155  0.1612
 3130SOL     OW21025   0.498   3.418   6.422  0.0579 -0.0870 -0.5335
 3130SOL    HW121026   0.413   3.439   6.383  0.0936  1.1914  0.0673
 3130SOL    HW221027   0.475   3.371   6.502  4.7434 -0.9673  0.2760
 3131SOL     OW21028   3.905   3.206  15.816  0.0144  0.2811 -0.1163
 3131SOL    HW121029   3.854   3.260  15.756  0.0777 -1.0152 -1.3432
 3131SOL    HW221030   3.972   3.168  15.759  0.6308 -0.3607  1.0437
 3132SOL     OW21031   0.724   2.613  17.440  0.0002 -0.0165  0.2831
 3132SOL    HW121032   0.736   2.537  17.497 -2.3233 -0.0469  0.7303
 3132SOL    HW221033   0.726   2.687  17.501  0.3212 -0.5071  0.8670
 3133SOL     OW21034   3.661   0.731   6.097 -0.2317 -0.4309 -0.5354
 3133SOL    HW121035   3.673   0.750   6.004 -1.7834 -1.2212 -0.8833
 3133SOL    HW221036   3.653   0.818   6.137 -1.5018 -1.9115  2.3728
 3134SOL     OW21037   4.067   3.490   6.454 -0.2436 -0.6802 -0.1358
 3134SOL    HW121038   4.005   3.554   6.417 -0.7306 -0.2192  1.4853
 3134SOL    HW221039   4.154   3.515   6.424  0.4332 -2.2674  0.5186
 3135SOL     OW21040   4.037   0.150   3.291 -0.0132  0.0569  0.6516
 3135SOL    HW121041   3.972   0.219   3.282  1.3409  1.2347 -0.2016
 3135SOL    HW221042   4.020   0.087   3.220 -2.0833  0.3594  0.9003
 3136SOL     OW21043   1.699   3.796  13.511 -0.4999 -0.2766  0.2638
 3136SOL    HW121044   1.737   3.875  13.472 -0.7818  0.2699  1.0967
 3136SOL    HW221045   1.740   3.799  13.598 -0.5744 -0.0888  0.2937
 3137SOL     OW21046   2.587   2.752  10.744  0.0019  0.0469  0.1208
 3137SOL    HW121047   2.608   2.845  10.748  2.1341 -0.3803 -1.3984
 3137SOL    HW221048   2.493   2.762  10.724  0.6254 -0.1778 -2.9555
 3138SOL     OW21049   3.381   0.322   3.857 -0.3703 -0.2915 -0.4333
 3138SOL    HW121050   3.383   0.227   3.874 -1.5594  0.4310  3.7635
 3138SOL    HW221051   3.392   0.336   3.951  1.5279 -1.5477 -0.4591
 3139SOL     OW21052   3.970   1.318   7.410  0.8758 -0.5047  0.1760
 3139SOL    HW121053   3.974   1.409   7.439 -1.4798 -0.7121  1.1329
 3139SOL    HW221054   3.885   1.308   7.453  1.7858 -0.6719  1.9823
 3140SOL     OW21055   3.614   3.181   2.517  0.7381 -0.1099  0.1712
 3140SOL    HW121056   3.662   3.262   2.498  1.7477 -0.7175  0.1002
 3140SOL    HW221057   3.605   3.179   2.612 -1.3075 -0.1065 -0.0398
 3141SOL     OW21058   1.765   2.227   5.511  0.2714  0.3036 -0.7164
 3141SOL    HW121059   1.676   2.212   5.542  0.7602  0.2655  0.6873
 3141SOL    HW221060   1.751   2.301   5.453  1.0644  0.9351 -0.1000
 3142SOL     OW21061   3.431   2.077  16.545  0.3470 -0.1705 -0.7044
 3142SOL    HW121062   3.498   2.130  16.588  1.1565 -0.5286 -1.5142
 3142SOL    HW221063   3.426   2.101  16.453 -0.8873  0.8946 -0.3464
 3143SOL     OW21064   0.913   3.278   4.519 -0.5318  0.2613  0.1187
 3143SOL    HW121065   0.857   3.354   4.532  1.0769  1.4114  0.2537
 3143SOL    HW221066   0.958   3.297   4.437 -2.4799  0.2887 -0.9305
 3144SOL     OW21067   1.728   3.685   9.577 -0.3891 -0.4951  0.1117
 3144SOL    HW121068   1.804   3.699   9.633 -0.1850 -1.2352  0.0269
 3144SOL    HW221069   1.695   3.772   9.558  0.6007  0.4221  2.5874
 3145SOL     OW21070   4.688   0.671   8.186  0.3170  0.5153  0.7236
 3145SOL    HW121071   4.618   0.664   8.251  0.8218  1.0304  1.3222
 3145SOL    HW221072   0.018   0.611   8.222  1.3152  0.5078 -1.1474
 3146SOL     OW21073   3.611   0.367   1.407  0.4602  0.6380  0.0010
 3146SOL    HW121074   3.542   0.336   1.348  0.2866 -1.7427  1.4022
 3146SOL    HW221075   3.679   0.372   1.341  0.1072 -2.3154 -0.5985
 3147SOL     OW21076   3.938   1.350   5.085 -0.5854 -0.2827  0.8774
 3147SOL    HW121077   3.853   1.378   5.120 -0.4055  0.3028  0.8484
 3147SOL    HW221078   3.913   1.258   5.075  0.0042 -0.3175 -0.2370
 3148SOL     OW21079   2.317   2.638   0.289  0.4194  0.4930 -0.3935
 3148SOL    HW121080   2.332   2.627   0.195  2.0872 -2.1586  0.1643
 3148SOL    HW221081   2.264   2.717   0.295 -0.7612 -0.3759  0.5484
 3149SOL     OW21082   4.076   4.577   8.386 -0.3394 -0.1463  0.1296
 3149SOL    HW121083   4.017   4.505   8.407 -1.4014  0.2722 -1.3967
 3149SOL    HW221084   4.162   4.536   8.398  0.1445 -0.0481 -3.0909
 3150SOL     OW21085   4.350   3.058   9.128  0.1346  0.1110 -0.1921
 3150SOL    HW121086   4.268   3.013   9.107 -0.7245  1.6243 -0.1061
 3150SOL    HW221087   4.325   3.141   9.170 -0.6556 -0.3031  0.1470
 3151SOL     OW21088   3.461   3.174   6.457  0.0919  0.0454 -0.9453
 3151SOL    HW121089   3.414   3.103   6.500  2.3499 -1.5738 -1.1422
 3151SOL    HW221090   3.403   3.247   6.479  0.5177  0.5678 -1.5346
 3152SOL     OW21091   1.785   4.259  14.077 -0.1410  0.4253 -0.6536
 3152SOL    HW121092   1.831   4.320  14.134 -0.5815  1.4874 -1.4424
 3152SOL    HW221093   1.797   4.288  13.987  1.4110  1.2369 -0.2042
 3153SOL     OW21094   1.820   0.261   2.469  0.2378 -0.2518  0.0138
 3153SOL    HW121095   1.737   0.242   2.427 -0.2778 -0.8301  1.2869
 3153SOL    HW221096   1.892   0.216   2.423 -0.4043 -0.1455 -1.0820
 3154SOL     OW21097   1.067   2.757  11.537 -0.5044 -0.4312  0.0442
 3154SOL    HW121098   1.157   2.766  11.508 -0.6633  4.1702  0.9634
 3154SOL    HW221099   1.086   2.705  11.615  0.2727  0.1684  0.2465
 3155SOL     OW21100   0.725   0.533   2.506  0.2696  0.2286 -0.5396
 3155SOL    HW121101   0.745   0.551   2.414  1.8075  1.0469 -0.0452
 3155SOL    HW221102   0.632   0.552   2.514  0.3704  1.8864 -3.1350
 3156SOL     OW21103   0.685   1.484   2.583  0.1924 -0.3105  0.3628
 3156SOL    HW121104   0.717   1.521   2.665 -1.5564 -1.2521  1.4629
 3156SOL    HW221105   0.618   1.431   2.626  0.5217 -1.5618 -0.7002
 3157SOL     OW21106   3.727   2.989   8.584  0.1723  0.1210 -0.3317
 3157SOL    HW121107   3.724   3.083   8.599 -2.2842 -0.3271  2.1682
 3157SOL    HW221108   3.638   2.960   8.606 -0.0896  1.4354  0.3462
 3158SOL     OW21109   1.769   0.682   7.624  0.5377  0.3452 -0.6800
 3158SOL    HW121110   1.691   0.732   7.602  0.1288  0.1593  0.3444
 3158SOL    HW221111   1.833   0.716   7.561  0.6948  0.7937 -0.2814
 3159SOL     OW21112   1.934   3.913   6.806 -0.0511 -0.4917 -0.8632
 3159SOL    HW121113   1.940   3.987   6.746  1.2791 -0.3797 -0.6012
 3159SOL    HW221114   1.951   3.962   6.887 -3.6873  0.9755 -0.9845
 3160SOL     OW21115   4.607   0.361   0.996 -0.3614  0.1642  0.5778
 3160SOL    HW121116   4.542   0.310   0.948  2.3010 -2.0737 -0.6337
 3160SOL    HW221117   4.603   0.450   0.962 -1.8504  0.5735  1.8182
 3161SOL     OW21118   2.085   1.879   1.062 -0.1130  0.3324  0.0302
 3161SOL    HW121119   2.054   1.805   1.115 -1.0107 -0.2868 -1.3534
 3161SOL    HW221120   2.081   1.840   0.975 -2.5674  1.7677 -0.4779
 3162SOL     OW21121   1.634   3.567   1.230 -0.1623 -0.2787 -0.0484
 3162SOL    HW121122   1.598   3.562   1.319 -2.0148 -0.4155 -0.7923
 3162SOL    HW221123   1.565   3.597   1.170 -0.0849 -1.6586 -0.8442
 3163SOL     OW21124   1.651   2.658  13.197  0.2597 -0.0649 -0.0686
 3163SOL    HW121125   1.666   2.750  13.177  0.3050  0.1191  0.8258
 3163SOL    HW221126   1.555   2.661  13.197  0.2992  1.2953 -0.5879
 3164SOL     OW21127   4.069   1.296  17.535  0.0929 -0.3268 -0.2771
 3164SOL    HW121128   4.088   1.353  17.610 -1.9665 -1.1780  0.9133
 3164SOL    HW221129   4.102   1.337  17.455 -0.2002 -0.1462 -0.3061
 3165SOL     OW21130   0.918   0.594   2.699 -0.3940 -0.1402  0.5025
 3165SOL    HW121131   0.864   0.578   2.621 -1.1048  1.9758  0.5719
 3165SOL    HW221132   0.928   0.500   2.715 -1.1297 -0.3200 -0.1042
 3166SOL     OW21133   0.860   3.817   7.954 -0.0365 -0.2587 -0.2766
 3166SOL    HW121134   0.932   3.797   7.895  0.3180 -1.5312  0.5824
 3166SOL    HW221135   0.830   3.730   7.983  0.2792  0.1140  1.1820
 3167SOL     OW21136   1.739   4.310   6.589  0.1254 -0.8546  0.6575
 3167SOL    HW121137   1.703   4.350   6.669 -0.3958 -0.3493  0.1726
 3167SOL    HW221138   1.677   4.240   6.570 -1.9078  1.0861  0.0823
 3168SOL     OW21139   1.717   3.217   6.901 -0.1222 -0.0608  0.1437
 3168SOL    HW121140   1.707   3.139   6.956 -1.1812  0.2444  0.3936
 3168SOL    HW221141   1.809   3.228   6.923 -0.3078  1.6528  0.0562
 3169SOL     OW21142   1.929   3.490   3.957 -0.3459 -0.5566  0.2713
 3169SOL    HW121143   2.011   3.501   4.006  0.9474 -0.7698 -1.8079
 3169SOL    HW221144   1.957   3.517   3.869 -0.3790 -0.7354  0.2074
 3170SOL     OW21145   2.237   1.051   3.505 -0.1340  0.1879 -0.2204
 3170SOL    HW121146   2.245   1.025   3.413  0.3846  2.4573 -0.8269
 3170SOL    HW221147   2.167   0.990   3.529  0.0643 -0.6597 -1.7758
 3171SOL     OW21148   0.996   1.053   9.608  0.1593 -0.1362  0.1316
 3171SOL    HW121149   0.953   1.053   9.522  0.9462 -0.3322 -0.2554
 3171SOL    HW221150   1.085   1.032   9.581 -0.0069 -0.6840  0.0117
 3172SOL     OW21151   1.156   1.027   6.280 -0.0902  0.1306 -0.1506
 3172SOL    HW121152   1.231   1.087   6.275  0.1645 -0.3874 -2.3825
 3172SOL    HW221153   1.171   0.951   6.225  3.2447  0.6800  0.0236
 3173SOL     OW21154   0.027   1.599   8.205 -0.2445  0.2294  0.6149
 3173SOL    HW121155   4.707   1.540   8.256  0.6703 -1.4099 -0.2483
 3173SOL    HW221156   0.113   1.562   8.225  0.3023  1.0916 -0.1422
 3174SOL     OW21157   1.510   3.934  17.260  0.4807 -0.9365  0.1714
 3174SOL    HW121158   1.443   3.985  17.306  0.7601  0.9452 -1.4767
 3174SOL    HW221159   1.540   3.994  17.191  0.8435  2.0178  2.8829
 3175SOL     OW21160   0.695   4.678   0.157  0.3539  0.1384  0.9114
 3175SOL    HW121161   0.621   4.645   0.106  0.1565  0.8885  0.7025
 3175SOL    HW221162   0.743   4.732   0.094 -1.4060 -1.8371 -2.0899
 3176SOL     OW21163   3.284   0.866   4.803  0.3792  0.2100  0.6125
 3176SOL    HW121164   3.194   0.868   4.770  0.1377 -0.7284  1.2393
 3176SOL    HW221165   3.283   0.935   4.870 -0.4833 -0.0021  0.8073
 3177SOL     OW21166   3.875   0.289   2.452 -0.4533  0.2990 -0.2444
 3177SOL    HW121167   3.952   0.339   2.481 -1.0818 -0.9305  3.5721
 3177SOL    HW221168   3.894   0.210   2.505 -0.3826  0.0475 -0.6459
 3178SOL     OW21169   2.254   2.091   9.625  0.3635  0.0096  0.2609
 3178SOL    HW121170   2.298   2.067   9.544  0.1764  1.3356 -0.2360
 3178SOL    HW221171   2.319   2.052   9.683 -0.5494  0.3828  1.5581
 3179SOL     OW21172   3.436   1.264  12.703 -0.2085 -0.2999  0.0337
 3179SOL    HW121173   3.464   1.251  12.794  0.1941  0.2880 -0.0056
 3179SOL    HW221174   3.490   1.342  12.690 -1.7080  0.8919  0.8134
 3180SOL     OW21175   0.225   0.297   4.450 -0.1198 -0.1668  0.1024
 3180SOL    HW121176   0.187   0.236   4.513 -1.2005 -1.4425 -1.7722
 3180SOL    HW221177   0.203   0.249   4.370 -1.5585 -0.0026  0.4084
 3181SOL     OW21178   3.669   2.228   6.418 -0.2020 -0.2206  0.2454
 3181SOL    HW121179   3.765   2.224   6.420 -0.2739 -3.2202 -2.0947
 3181SOL    HW221180   3.643   2.316   6.444  1.2364  0.3008 -0.0384
 3182SOL     OW21181   3.586   2.480   6.544 -0.0813  0.1729  0.3245
 3182SOL    HW121182   3.525   2.553   6.552 -1.6868 -1.2308  0.6112
 3182SOL    HW221183   3.549   2.432   6.617 -1.6530  2.8533  1.2692
 3183SOL     OW21184   3.163   2.351   6.278 -0.2591 -0.3677 -0.2652
 3183SOL    HW121185   3.221   2.276   6.278 -0.4821 -0.5461  1.4081
 3183SOL    HW221186   3.097   2.312   6.335 -0.8129  1.1782  0.1667
 3184SOL     OW21187   3.265   2.282   6.878  0.1745  0.4833  0.2512
 3184SOL    HW121188   3.181   2.323   6.855 -0.2599  0.8784  2.5574
 3184SOL    HW221189   3.249   2.192   6.907 -0.4948  0.9028  1.2173
 3185SOL     OW21190   2.488   4.655   6.259  0.0432  0.0099 -0.3605
 3185SOL    HW121191   2.456   4.622   6.343  1.6726  1.5864  0.8673
 3185SOL    HW221192   2.400   4.647   6.222 -0.5127 -0.7317  1.1189
 3186SOL     OW21193   2.025   3.729   8.401 -0.1471 -0.4458 -0.1239
 3186SOL    HW121194   1.944   3.681   8.384 -0.8175  0.5406  0.2880
 3186SOL    HW221195   2.024   3.792   8.330 -0.0067 -0.2842  0.0161
 3187SOL     OW21196   2.868   0.433   3.812  0.1105  0.4899 -0.3251
 3187SOL    HW121197   2.825   0.509   3.772  0.2187 -0.4508 -2.1930
 3187SOL    HW221198   2.859   0.369   3.742 -0.3190  2.3699 -2.0075
 3188SOL     OW21199   4.079   2.582   7.375 -0.7921  0.2657  0.4685
 3188SOL    HW121200   4.054   2.669   7.344 -1.5229 -0.9565 -2.4412
 3188SOL    HW221201   4.007   2.531   7.338 -2.1827  0.0180  3.5554
 3189SOL     OW21202   1.339   3.442  16.650 -0.1347  0.5654  0.1018
 3189SOL    HW121203   1.392   3.520  16.633  0.4646  0.3182  0.8156
 3189SOL    HW221204   1.297   3.428  16.566  2.8051 -1.4113 -1.0434
 3190SOL     OW21205   0.019   3.685   8.859 -0.6044 -0.0793 -0.5916
 3190SOL    HW121206   4.730   3.673   8.951 -1.1674  1.2645 -0.5725
 3190SOL    HW221207   0.111   3.658   8.865 -0.9152 -0.5114  2.3680
 3191SOL     OW21208   3.397   2.678   9.447  0.0856 -0.1763 -0.0445
 3191SOL    HW121209   3.395   2.769   9.474 -3.2126 -0.6735  1.4030
 3191SOL    HW221210   3.484   2.652   9.477  0.1016 -1.4088 -1.1584
 3192SOL     OW21211   0.044   0.762   8.517  0.2896  0.1807  0.0236
 3192SOL    HW121212   0.084   0.675   8.510  1.0080  0.4294  0.8970
 3192SOL    HW221213   4.686   0.746   8.510  0.3283  0.3258 -0.7641
 3193SOL     OW21214   4.716   2.404   4.489 -0.2143  0.0725 -0.2081
 3193SOL    HW121215   4.652   2.347   4.445 -0.5291  1.4247 -1.5102
 3193SOL    HW221216   4.717   2.373   4.579 -0.4574  1.2495  0.1961
 3194SOL     OW21217   1.225   1.139  16.101 -0.0155 -0.0401 -0.2599
 3194SOL    HW121218   1.290   1.199  16.065 -0.9828  0.7813 -0.6460
 3194SOL    HW221219   1.174   1.196  16.158  0.1288 -1.2369  1.0816
 3195SOL     OW21220   2.580   1.453   3.780 -0.4426  0.0353  0.2028
 3195SOL    HW121221   2.536   1.412   3.855  0.7083 -0.6799  0.5082
 3195SOL    HW221222   2.569   1.547   3.788 -1.4234 -0.1055  0.5475
 3196SOL     OW21223   3.267   4.303   8.078  0.0222  0.2779 -0.0451
 3196SOL    HW121224   3.290   4.372   8.016  1.9305  0.5083  0.8954
 3196SOL    HW221225   3.199   4.260   8.026 -0.6279  1.7014 -0.3571
 3197SOL     OW21226   1.786   2.625  11.229 -0.1976  0.3592  0.3553
 3197SOL    HW121227   1.863   2.572  11.249 -1.3717 -0.3035  3.0977
 3197SOL    HW221228   1.800   2.645  11.136  2.2865  1.1808  0.9123
 3198SOL     OW21229   4.243   0.741  16.509 -0.1894  0.1310  0.3476
 3198SOL    HW121230   4.328   0.773  16.479  0.7085 -0.2942  2.4117
 3198SOL    HW221231   4.191   0.821  16.514  1.7255  1.4493 -0.7594
 3199SOL     OW21232   1.522   3.602   9.055  0.0991 -0.4901 -0.2319
 3199SOL    HW121233   1.579   3.527   9.036  1.3334  0.4980 -0.4486
 3199SOL    HW221234   1.454   3.592   8.988 -1.0567  1.1428  0.7016
 3200SOL     OW21235   1.255   3.047   8.854 -0.4909  0.0325 -0.1787
 3200SOL    HW121236   1.184   3.055   8.918 -1.1962  0.8406 -1.0473
 3200SOL    HW221237   1.238   2.958   8.822  1.3363 -0.3193 -0.1282
 3201SOL     OW21238   1.284   2.252   4.294  0.3726 -0.1440  0.0165
 3201SOL    HW121239   1.228   2.322   4.261  0.2631  0.2151  0.9619
 3201SOL    HW221240   1.224   2.251   4.369  0.0663  0.1444 -0.2269
 3202SOL     OW21241   1.023   0.584  14.401  0.4484  0.1392 -0.1534
 3202SOL    HW121242   1.086   0.516  14.376  0.3948  0.5885 -1.5176
 3202SOL    HW221243   1.079   0.660  14.419 -2.2933  1.6331  1.9729
 3203SOL     OW21244   4.295   1.134  16.680 -0.2680  0.1560  0.1400
 3203SOL    HW121245   4.217   1.094  16.641 -0.1885 -0.2903  0.4324
 3203SOL    HW221246   4.324   1.077  16.752 -1.6306 -1.6837 -0.7524
 3204SOL     OW21247   3.479   0.607   7.766  0.3954 -0.1061  0.8237
 3204SOL    HW121248   3.418   0.621   7.694  1.6250 -3.2583 -0.8190
 3204SOL    HW221249   3.445   0.522   7.795  1.7049 -0.7362  0.5086
 3205SOL     OW21250   0.434   0.717  12.826  0.1671 -0.9302  0.2540
 3205SOL    HW121251   0.455   0.682  12.740  2.3212 -0.2621  0.5175
 3205SOL    HW221252   0.380   0.793  12.803  3.2735  1.1278 -0.2185
 3206SOL     OW21253   1.653   0.525  17.034 -0.3355 -0.1323 -0.0778
 3206SOL    HW121254   1.705   0.522  16.953 -1.6476 -1.7359 -0.8643
 3206SOL    HW221255   1.689   0.599  17.083 -0.1006  0.5825 -1.3118
 3207SOL     OW21256   1.860   4.564  17.190 -0.2356 -0.5208  0.5727
 3207SOL    HW121257   1.864   4.648  17.143 -0.3644 -0.4261  0.7356
 3207SOL    HW221258   1.815   4.595  17.268 -0.3039  1.6974 -0.3489
 3208SOL     OW21259   3.598   4.584  10.369 -0.1477  0.3365  0.3534
 3208SOL    HW121260   3.632   4.603  10.456  2.0009  0.3522 -0.4771
 3208SOL    HW221261   3.572   4.492  10.368 -1.0490  0.6040 -1.2539
 3209SOL     OW21262   4.423   1.511   6.292  0.3420  0.0062 -0.0851
 3209SOL    HW121263   4.471   1.537   6.214 -0.9753  1.6978 -0.3311
 3209SOL    HW221264   4.423   1.596   6.336 -1.4959 -0.1085  0.1126
 3210SOL     OW21265   3.366   4.332   3.243 -0.1650 -0.0928  0.2139
 3210SOL    HW121266   3.435   4.307   3.181  0.8168  1.4812  0.6703
 3210SOL    HW221267   3.402   4.411   3.284 -1.3381  0.0969  0.8608
 3211SOL     OW21268   2.539   2.093   2.624  0.2841 -0.3960  0.1662
 3211SOL    HW121269   2.493   2.172   2.597  3.7375  0.6320 -2.7209
 3211SOL    HW221270   2.624   2.121   2.591  0.1120  1.2184  1.1087
 3212SOL     OW21271   1.632   1.700   1.984 -0.3773  0.2482  0.6941
 3212SOL    HW121272   1.681   1.703   1.901 -0.9133  0.3880  0.3813
 3212SOL    HW221273   1.570   1.634   1.952  0.7339 -0.2529 -0.4746
 3213SOL     OW21274   2.664   3.732   6.028 -0.0063  0.2875  0.2618
 3213SOL    HW121275   2.577   3.759   5.999 -1.7169 -2.2387  3.0769
 3213SOL    HW221276   2.658   3.637   6.034 -0.5508  0.3514  0.6711
 3214SOL     OW21277   0.417   2.104  13.295 -0.1532  0.2979  0.1006
 3214SOL    HW121278   0.400   2.177  13.235 -0.3797 -0.3088 -0.5702
 3214SOL    HW221279   0.333   2.059  13.307 -0.5509  0.7022 -1.1750
 3215SOL     OW21280   4.271   2.711   4.162 -0.1508 -0.2242  0.0802
 3215SOL    HW121281   4.281   2.636   4.220 -1.3999 -1.2319 -1.0252
 3215SOL    HW221282   4.351   2.757   4.188  0.6302 -2.4439  1.5360
 3216SOL     OW21283   3.617   2.521   9.556  0.2949 -0.1403  0.5754
 3216SOL    HW121284   3.596   2.507   9.649 -0.1241 -0.9372  0.3580
 3216SOL    HW221285   3.614   2.428   9.535 -1.5950  0.1027 -0.2554
 3217SOL     OW21286   4.002   2.453  14.821  0.1739 -0.3263  0.6166
 3217SOL    HW121287   4.006   2.393  14.895  3.2573  1.5668  1.9908
 3217SOL    HW221288   4.085   2.498  14.839 -0.2404  1.7980 -2.7224
 3218SOL     OW21289   3.841   4.509  10.237  0.9107  0.1381 -0.4937
 3218SOL    HW121290   3.858   4.591  10.283  1.3542 -0.2548  0.0534
 3218SOL    HW221291   3.756   4.490  10.278  0.2089  3.3058 -0.4518
 3219SOL     OW21292   3.331   1.814   3.968 -0.6162 -0.1150  0.2288
 3219SOL    HW121293   3.353   1.857   4.051 -0.2261 -2.1033  1.1676
 3219SOL    HW221294   3.411   1.832   3.919 -1.9617  1.5484 -1.3335
 3220SOL     OW21295   2.195   1.731   0.482  0.2230  0.9228 -0.3038
 3220SOL    HW121296   2.270   1.756   0.535 -0.4053 -0.7035  1.3646
 3220SOL    HW221297   2.235   1.736   0.396 -0.4155  0.4985 -0.6293
 3221SOL     OW21298   4.002   0.645   9.226  0.3201 -0.3599 -0.5448
 3221SOL    HW121299   4.091   0.610   9.215  1.3487  1.8316  0.7142
 3221SOL    HW221300   4.018   0.732   9.264 -0.4033 -0.1359 -0.7561
 3222SOL     OW21301   1.948   0.741   3.359  0.7977 -0.6545 -0.2774
 3222SOL    HW121302   1.879   0.782   3.307 -0.9177 -0.0628  2.4933
 3222SOL    HW221303   1.907   0.655   3.369 -0.2112 -0.3510 -1.8850
 3223SOL     OW21304   0.144   0.729   4.215 -0.1894 -0.7992  0.4622
 3223SOL    HW121305   0.060   0.697   4.181  0.7075 -0.1245 -2.3519
 3223SOL    HW221306   0.196   0.652   4.236 -2.1938 -2.3644 -0.2820
 3224SOL     OW21307   3.331   2.135   1.303 -0.8399  0.2586 -0.0270
 3224SOL    HW121308   3.258   2.171   1.254 -1.7802  0.3124  1.3883
 3224SOL    HW221309   3.371   2.064   1.253 -1.5194 -1.5565  1.9499
 3225SOL     OW21310   1.549   3.899   4.219 -0.1676  0.1052 -0.1715
 3225SOL    HW121311   1.557   3.960   4.145 -0.5367  1.3864  0.8625
 3225SOL    HW221312   1.638   3.910   4.253 -0.3213 -0.5502  0.4274
 3226SOL     OW21313   2.875   1.713   6.827 -0.3974 -0.3074 -0.2541
 3226SOL    HW121314   2.782   1.725   6.809 -0.3077  1.6863  0.5215
 3226SOL    HW221315   2.907   1.803   6.838 -0.3893 -0.4115  0.5694
 3227SOL     OW21316   2.058   1.157  12.126 -0.7253 -0.0642 -0.2473
 3227SOL    HW121317   2.135   1.131  12.076  1.4619  0.6780  2.7784
 3227SOL    HW221318   2.085   1.124  12.211 -0.1531 -1.2242 -0.8833
 3228SOL     OW21319   1.402   3.207  16.800  0.5047 -0.3237 -0.0990
 3228SOL    HW121320   1.348   3.277  16.764 -0.6045 -0.8465  0.5294
 3228SOL    HW221321   1.487   3.250  16.810  0.5490 -0.5780  0.6626
 3229SOL     OW21322   2.845   3.025   8.998 -0.3354  0.0755 -0.1003
 3229SOL    HW121323   2.868   3.107   9.041  0.6604 -1.7840  2.9107
 3229SOL    HW221324   2.762   3.044   8.956 -0.4724 -2.8195 -1.1501
 3230SOL     OW21325   3.982   2.236   8.390  0.3797 -0.0412  0.1819
 3230SOL    HW121326   3.890   2.247   8.367  0.0371  1.0680  2.0375
 3230SOL    HW221327   4.014   2.327   8.396 -1.2674  0.3418  2.7607
 3231SOL     OW21328   1.529   0.143  16.147  0.1744 -0.4535  0.5532
 3231SOL    HW121329   1.612   0.116  16.109  0.0007 -1.3121  0.7948
 3231SOL    HW221330   1.557   0.152  16.238 -0.1294 -1.0970  0.7067
 3232SOL     OW21331   1.308   0.967  10.623  0.2140 -0.2903 -0.2936
 3232SOL    HW121332   1.315   0.979  10.718 -2.1236 -1.9515  0.1162
 3232SOL    HW221333   1.224   0.922  10.616 -0.1372  0.1339  0.9848
 3233SOL     OW21334   0.623   4.002   5.350 -0.4629  0.3903  0.3082
 3233SOL    HW121335   0.647   4.071   5.412  1.1985 -0.1405  0.2441
 3233SOL    HW221336   0.550   3.968   5.403  1.6700 -1.1125  2.2464
 3234SOL     OW21337   3.844   1.352   3.728  0.0941 -0.2468 -0.2142
 3234SOL    HW121338   3.937   1.362   3.747 -0.4124  1.9457  1.1138
 3234SOL    HW221339   3.835   1.263   3.762  0.4352 -0.4934 -0.7676
 3235SOL     OW21340   1.496   0.267   3.877 -0.4938  0.0283 -0.1687
 3235SOL    HW121341   1.553   0.248   3.802  0.4164  0.8077  0.3214
 3235SOL    HW221342   1.478   0.360   3.862  2.0293  0.3896 -1.0606
 3236SOL     OW21343   1.190   2.068  13.817  0.0878 -0.2518 -0.2894
 3236SOL    HW121344   1.101   2.101  13.809  0.3638  1.3434  3.1337
 3236SOL    HW221345   1.234   2.126  13.878 -0.8478  1.4073 -1.2094
 3237SOL     OW21346   4.393   0.052  17.386  0.2469  0.0808 -0.0480
 3237SOL    HW121347   4.385   4.696  17.413 -2.4861  0.9687  2.1906
 3237SOL    HW221348   4.372   0.098  17.468  1.7624  1.3138 -0.3558
 3238SOL     OW21349   3.713   1.734   2.405  0.4614  0.0126  0.1809
 3238SOL    HW121350   3.668   1.702   2.327  2.1653 -0.4498 -0.6032
 3238SOL    HW221351   3.660   1.812   2.422 -0.9712 -1.0223  0.5414
 3239SOL     OW21352   3.036   0.163   7.756 -0.0665  0.2500  0.1415
 3239SOL    HW121353   3.023   0.123   7.842  1.3686  1.3282  0.8677
 3239SOL    HW221354   3.077   0.247   7.774 -0.2899  0.5292 -0.6585
 3240SOL     OW21355   0.503   3.879   2.990 -0.4842 -0.5181 -0.9751
 3240SOL    HW121356   0.570   3.872   2.921 -0.8305  0.8990 -1.4553
 3240SOL    HW221357   0.456   3.958   2.965 -1.4520 -0.4116  1.1752
 3241SOL     OW21358   3.396   0.088  16.647 -0.0920  0.4894 -0.4400
 3241SOL    HW121359   3.334   0.069  16.577  0.3636 -2.0038 -0.1999
 3241SOL    HW221360   3.383   0.004  16.692  0.4883  0.8107  0.3412
 3242SOL     OW21361   3.461   2.683   5.530  0.1768  0.6778 -0.0997
 3242SOL    HW121362   3.437   2.703   5.439 -0.8268 -0.2252 -0.0297
 3242SOL    HW221363   3.536   2.740   5.549  0.6618 -0.7328  2.2165
 3243SOL     OW21364   2.119   3.275   6.100  0.1511  0.7984  0.1247
 3243SOL    HW121365   2.090   3.283   6.191  1.6225 -0.1949  0.6917
 3243SOL    HW221366   2.064   3.344   6.064 -0.7297  0.8042  1.4753
 3244SOL     OW21367   1.356   0.129   8.885  0.0567  0.5343 -0.5648
 3244SOL    HW121368   1.349   0.155   8.793  0.9496  0.0124 -0.7776
 3244SOL    HW221369   1.450   0.135   8.902 -0.2402  1.5325  0.7113
 3245SOL     OW21370   1.968   3.014   3.121 -0.5933  0.2049  0.3085
 3245SOL    HW121371   1.904   3.060   3.176 -0.5577  1.4806 -0.7106
 3245SOL    HW221372   1.913   2.945   3.082 -2.0019  2.0806 -1.0563
 3246SOL     OW21373   4.182   0.450   7.095  0.4662 -0.3664  0.2595
 3246SOL    HW121374   4.238   0.430   7.170 -1.7766 -2.9933  1.2107
 3246SOL    HW221375   4.250   0.433   7.029 -2.7486  0.9078 -3.3725
 3247SOL     OW21376   1.569   0.519   8.112  0.1968 -0.1234  0.2432
 3247SOL    HW121377   1.598   0.428   8.122  0.1975 -0.1882 -0.3264
 3247SOL    HW221378   1.583   0.532   8.018  3.1855 -0.1335  0.7071
 3248SOL     OW21379   2.020   4.452   8.651  0.2033  0.1043 -0.0129
 3248SOL    HW121380   1.973   4.375   8.683  1.3107 -1.4177 -2.0831
 3248SOL    HW221381   2.093   4.423   8.597 -2.4424 -1.2024 -2.8146
 3249SOL     OW21382   1.784   2.529   6.526  0.1755 -0.0077  0.3513
 3249SOL    HW121383   1.809   2.524   6.434 -0.5160 -0.5647  0.1871
 3249SOL    HW221384   1.762   2.620   6.546  0.7134  0.9489 -3.4667
 3250SOL     OW21385   3.123   3.965   1.040 -0.1014  0.1957 -0.3686
 3250SOL    HW121386   3.044   4.014   1.018 -1.2425 -1.6543 -0.3305
 3250SOL    HW221387   3.185   4.034   1.014 -1.6183  1.9488  0.6571
 3251SOL     OW21388   3.580   0.014  11.064  0.1243  0.0963  0.2671
 3251SOL    HW121389   3.496   0.047  11.034  0.2105 -1.5327 -1.7762
 3251SOL    HW221390   3.602   0.075  11.135 -2.1405  3.0145 -1.5575
 3252SOL     OW21391   0.409   1.112   2.393  0.3133 -0.0419  0.1316
 3252SOL    HW121392   0.401   1.208   2.387  0.7246 -0.1303 -1.8406
 3252SOL    HW221393   0.477   1.093   2.458 -0.3958 -2.6871  0.0621
 3253SOL     OW21394   2.023   0.725  16.699 -0.2890 -0.4720 -0.2454
 3253SOL    HW121395   2.073   0.645  16.689  1.7986  0.7613  0.3980
 3253SOL    HW221396   2.016   0.740  16.794 -1.1865 -0.8475 -0.2487
 3254SOL     OW21397   2.820   2.046   9.955  0.0576  0.3060  0.2605
 3254SOL    HW121398   2.847   1.971   9.903  0.4154  0.6674 -0.0799
 3254SOL    HW221399   2.740   2.060   9.904  0.3439  2.8023  0.5017
 3255SOL     OW21400   0.144   3.129   7.800  0.0979 -0.1313 -0.5634
 3255SOL    HW121401   0.197   3.208   7.798  1.0628 -0.7658 -0.2704
 3255SOL    HW221402   0.203   3.057   7.824 -1.1895 -1.4728 -1.3496
 3256SOL     OW21403   0.580   0.331  11.681  0.2394  0.0591 -0.3660
 3256SOL    HW121404   0.525   0.265  11.638 -0.8895 -0.3839  1.7829
 3256SOL    HW221405   0.589   0.394  11.609  3.4598 -0.3815 -0.3536
 3257SOL     OW21406   0.055   2.014   7.514 -0.0626  0.2405 -0.1058
 3257SOL    HW121407   0.134   1.961   7.520 -0.9521 -1.1420 -0.6946
 3257SOL    HW221408   0.093   2.089   7.468  0.0029  0.3119  0.0661
 3258SOL     OW21409   4.690   0.201   0.090  0.3679  0.0868 -0.2543
 3258SOL    HW121410   4.653   0.191   0.178  0.9922  1.5750  0.1813
 3258SOL    HW221411   0.040   0.241   0.106 -0.6040  1.9415  0.3411
 3259SOL     OW21412   0.354   0.362   2.119 -0.5728  0.0712  0.1870
 3259SOL    HW121413   0.285   0.342   2.181 -1.7343  1.4241 -0.6856
 3259SOL    HW221414   0.385   0.272   2.106  1.1705  0.4740  1.4908
 3260SOL     OW21415   3.695   3.980   4.735  0.0025 -0.0019 -0.0557
 3260SOL    HW121416   3.637   4.029   4.794 -0.2931 -0.2233 -0.1616
 3260SOL    HW221417   3.714   4.057   4.681 -2.2869 -1.0121 -2.3628
 3261SOL     OW21418   0.156   1.344   3.789  0.0507  0.0950 -0.0569
 3261SOL    HW121419   0.201   1.429   3.793 -0.1597  0.1371  1.4257
 3261SOL    HW221420   0.162   1.341   3.694 -1.1946 -1.2564 -0.0920
 3262SOL     OW21421   3.567   0.887   9.257 -0.1094 -0.5307 -0.0893
 3262SOL    HW121422   3.597   0.838   9.334  1.0465  1.6361  0.8576
 3262SOL    HW221423   3.644   0.885   9.199 -1.4431  1.9359 -1.9389
 3263SOL     OW21424   3.948   2.427  12.083 -0.2891  0.0178  0.0503
 3263SOL    HW121425   3.917   2.435  11.993 -0.3675  1.6067  0.2125
 3263SOL    HW221426   3.900   2.498  12.126  1.1925  2.6319 -2.6356
 3264SOL     OW21427   3.335   4.119   5.713  0.4413  0.1226  0.2076
 3264SOL    HW121428   3.399   4.135   5.782 -0.3405  2.7474  0.3342
 3264SOL    HW221429   3.268   4.171   5.756  0.2613 -0.1907  0.3083
 3265SOL     OW21430   2.399   0.843  10.284  0.8355 -0.2598 -0.1965
 3265SOL    HW121431   2.311   0.865  10.254  1.3617  2.4192  0.1936
 3265SOL    HW221432   2.453   0.838  10.205  1.1442  2.8420 -0.1702
 3266SOL     OW21433   3.424   0.287  11.561  0.6128 -0.3481 -0.0784
 3266SOL    HW121434   3.500   0.340  11.538  1.5538 -1.0051  1.5369
 3266SOL    HW221435   3.459   0.198  11.552  2.3368  0.1137  2.0797
 3267SOL     OW21436   1.608   0.031  11.842  0.1170 -0.6725 -0.2058
 3267SOL    HW121437   1.667   0.063  11.910  0.1020 -1.0523 -0.0196
 3267SOL    HW221438   1.533   0.008  11.895 -0.2725 -1.4390 -1.0823
 3268SOL     OW21439   2.026   1.563   1.869  0.3808  0.0800 -0.0476
 3268SOL    HW121440   2.011   1.507   1.793  0.3782  2.0185 -1.4860
 3268SOL    HW221441   2.014   1.493   1.933 -0.5799 -0.9084 -1.3191
 3269SOL     OW21442   3.815   1.934   1.466  0.0450 -0.0347 -0.0866
 3269SOL    HW121443   3.865   1.985   1.403 -1.3684 -2.9852 -3.6162
 3269SOL    HW221444   3.869   1.957   1.542 -0.5858 -0.5567  0.5362
 3270SOL     OW21445   2.854   1.858   2.547  0.1404 -1.1040 -0.3034
 3270SOL    HW121446   2.805   1.920   2.493 -1.4784 -2.4512 -0.3905
 3270SOL    HW221447   2.840   1.908   2.628  3.4449 -0.1853 -0.2776
 3271SOL     OW21448   2.402   0.886  12.047  0.1140 -0.1564 -0.2619
 3271SOL    HW121449   2.470   0.936  12.093  0.2764  0.4025 -1.1177
 3271SOL    HW221450   2.336   0.955  12.045 -1.0015 -1.1609  1.4568
 3272SOL     OW21451   2.737   0.588   2.542  0.1077  0.4261  0.1123
 3272SOL    HW121452   2.711   0.664   2.490  2.3530  1.1806  0.1059
 3272SOL    HW221453   2.824   0.616   2.570  0.3827 -0.9278  0.6241
 3273SOL     OW21454   3.810   2.632   0.981 -0.3401  0.0093  0.2025
 3273SOL    HW121455   3.881   2.677   0.935 -0.0384 -0.1223  0.5325
 3273SOL    HW221456   3.740   2.696   0.977  0.1587  0.6118  0.9536
 3274SOL     OW21457   1.496   1.704   3.034 -0.8430  0.6094 -0.4246
 3274SOL    HW121458   1.476   1.651   3.112 -1.1597 -0.3207 -1.1411
 3274SOL    HW221459   1.418   1.690   2.982 -1.9311 -0.6164  1.5248
 3275SOL     OW21460   2.122   4.102   2.897  0.0243 -0.9249  0.1498
 3275SOL    HW121461   2.071   4.182   2.908  1.0262 -0.1041 -1.1944
 3275SOL    HW221462   2.129   4.088   2.803  1.1300  0.4646  0.0256
 3276SOL     OW21463   4.176   4.496   8.663 -0.1618  1.0952 -0.0298
 3276SOL    HW121464   4.203   4.587   8.671  0.3389  0.9332  0.1560
 3276SOL    HW221465   4.247   4.460   8.716 -1.0802  0.6854  0.9298
 3277SOL     OW21466   2.303   4.537  15.973  0.1604  0.8463 -0.1903
 3277SOL    HW121467   2.243   4.477  16.016  1.9785 -1.1421 -0.4431
 3277SOL    HW221468   2.271   4.621  16.007 -0.6213  0.3890  0.1846
 3278SOL     OW21469   2.279   4.310   5.063 -0.6610 -0.2150 -0.2560
 3278SOL    HW121470   2.186   4.312   5.043 -1.2367  1.2505  2.4653
 3278SOL    HW221471   2.274   4.249   5.137  0.8397  0.1624  0.1764
 3279SOL     OW21472   1.779   1.345   4.782  0.7585 -0.6505 -0.7876
 3279SOL    HW121473   1.799   1.252   4.778 -2.2612 -1.2885 -1.1815
 3279SOL    HW221474   1.710   1.356   4.716  0.4146 -1.7624 -0.6056
 3280SOL     OW21475   3.495   0.679   8.401  0.1667 -0.5501 -0.0849
 3280SOL    HW121476   3.416   0.687   8.347 -0.3887  2.1125  1.1141
 3280SOL    HW221477   3.452   0.647   8.480  0.0671 -0.9196 -0.2878
 3281SOL     OW21478   3.213   4.074   5.288 -0.0628  0.1282 -0.4176
 3281SOL    HW121479   3.301   4.104   5.266  0.8383 -1.3070  1.1581
 3281SOL    HW221480   3.229   3.983   5.313  0.3042  1.0918  2.8589
 3282SOL     OW21481   3.848   2.407   3.094  0.0343 -0.1771  0.1324
 3282SOL    HW121482   3.802   2.475   3.143 -5.1046 -1.4588 -2.9338
 3282SOL    HW221483   3.931   2.448   3.070 -0.5896  1.2944  0.4411
 3283SOL     OW21484   2.925   1.036   5.700  0.0898  0.3945 -0.5793
 3283SOL    HW121485   2.985   1.075   5.764  0.3179 -1.6708  0.4639
 3283SOL    HW221486   2.840   1.063   5.735 -0.5248 -0.6299 -1.2741
 3284SOL     OW21487   3.055   1.186   0.287 -0.2095 -0.1554  0.1384
 3284SOL    HW121488   3.105   1.231   0.355  1.1022 -1.6978  0.2115
 3284SOL    HW221489   2.990   1.253   0.267  0.3264  0.9499  2.1656
 3285SOL     OW21490   3.250   4.022   9.618 -0.4252  0.0829  0.3746
 3285SOL    HW121491   3.177   3.969   9.586 -0.2989 -0.2416  0.6279
 3285SOL    HW221492   3.314   3.954   9.640  1.3317  1.7548  0.5259
 3286SOL     OW21493   3.127   3.619   5.183  0.5021 -0.3741  0.4121
 3286SOL    HW121494   3.202   3.614   5.124 -0.5443  0.4206 -0.9847
 3286SOL    HW221495   3.113   3.528   5.209  2.0516 -0.6696  0.2137
 3287SOL     OW21496   1.198   3.777   5.933  0.3828  0.1324 -0.7146
 3287SOL    HW121497   1.161   3.838   5.869  0.3295 -1.5659 -2.2977
 3287SOL    HW221498   1.256   3.734   5.870  0.4628  1.4177 -1.5228
 3288SOL     OW21499   0.038   2.764  16.815 -0.5339  0.4050 -0.3469
 3288SOL    HW121500   0.037   2.712  16.735  0.6581 -0.4221  0.1708
 3288SOL    HW221501   4.728   2.842  16.784  0.1397  0.7132 -0.5525
 3289SOL     OW21502   3.308   3.646  12.699 -0.0953 -0.0494 -0.1458
 3289SOL    HW121503   3.321   3.724  12.646  0.6066 -0.2500 -0.2608
 3289SOL    HW221504   3.263   3.588  12.637 -0.0755 -0.6289  0.3817
 3290SOL     OW21505   4.126   2.308   4.234 -0.1758 -0.4455  0.2452
 3290SOL    HW121506   4.098   2.329   4.323 -0.5406  0.4491 -0.0682
 3290SOL    HW221507   4.220   2.303   4.250  0.7050  2.2319 -4.0647
 3291SOL     OW21508   2.149   4.460   7.312  0.0102  0.4472 -0.3698
 3291SOL    HW121509   2.156   4.544   7.359 -0.3854  0.4814 -0.3704
 3291SOL    HW221510   2.240   4.432   7.306 -0.0593 -0.3341  2.1580
 3292SOL     OW21511   3.348   3.523   3.960  0.4379 -0.1286 -0.5185
 3292SOL    HW121512   3.359   3.436   3.999 -3.5261  0.3547  1.6252
 3292SOL    HW221513   3.403   3.566   4.026 -1.0695 -1.4706  1.5987
 3293SOL     OW21514   4.492   1.305   4.292  0.2645  0.1130 -0.9220
 3293SOL    HW121515   4.461   1.215   4.284 -0.6189  0.0940  2.4879
 3293SOL    HW221516   4.474   1.331   4.383  0.6156  0.0665 -0.8353
 3294SOL     OW21517   0.060   0.151  14.193  0.0510  0.3110  0.5877
 3294SOL    HW121518   0.148   0.176  14.166  0.6509  0.2305  2.4549
 3294SOL    HW221519   0.015   0.133  14.110 -0.4782  0.3596  0.8628
 3295SOL     OW21520   4.146   3.625   3.090 -0.1736  0.1401 -0.0024
 3295SOL    HW121521   4.212   3.692   3.109 -0.6115  0.7754 -0.7656
 3295SOL    HW221522   4.106   3.610   3.176 -0.0255  0.5870  0.1474
 3296SOL     OW21523   0.096   2.165   2.313  0.2198 -0.0215 -0.2170
 3296SOL    HW121524   0.146   2.194   2.390 -0.1262  0.5978 -0.2236
 3296SOL    HW221525   0.167   2.122   2.266  0.5191  0.1741  0.0581
 3297SOL     OW21526   2.339   3.989   8.038 -0.1560  0.4870  0.5156
 3297SOL    HW121527   2.334   4.077   8.000 -0.6760 -0.4779 -1.6514
 3297SOL    HW221528   2.253   3.976   8.077  0.6311 -1.9788  1.4385
 3298SOL     OW21529   4.225   2.345   0.351  0.4829 -1.1919  0.3227
 3298SOL    HW121530   4.160   2.408   0.382  0.3652 -2.1839  2.1309
 3298SOL    HW221531   4.195   2.343   0.260 -0.7749 -0.0725  0.7134
 3299SOL     OW21532   0.385   4.222   8.710 -0.3710 -0.3739 -0.8650
 3299SOL    HW121533   0.357   4.256   8.794 -1.0152  0.3095 -1.3563
 3299SOL    HW221534   0.358   4.285   8.644  1.4209 -0.4204 -1.6508
 3300SOL     OW21535   1.002   1.966   5.227  0.1531 -0.3588 -0.6897
 3300SOL    HW121536   1.090   1.996   5.204  0.6528 -0.9446  0.4322
 3300SOL    HW221537   0.990   2.004   5.313  1.5784  2.1040 -1.5936
 3301SOL     OW21538   2.981   3.226   4.142  0.7320 -0.3937  0.3591
 3301SOL    HW121539   2.949   3.154   4.088  1.8147  0.0315 -0.8308
 3301SOL    HW221540   2.908   3.289   4.143  2.0634  1.1652 -0.4773
 3302SOL     OW21541   3.644   2.601   4.003 -0.1384 -0.0947 -0.6210
 3302SOL    HW121542   3.580   2.569   4.066 -0.6753  0.8693 -0.6764
 3302SOL    HW221543   3.618   2.693   3.990 -2.9739 -0.8516 -0.4030
 3303SOL     OW21544   3.682   2.387   7.616 -0.1123  0.5860  0.2769
 3303SOL    HW121545   3.605   2.432   7.581 -0.8927 -0.6102  0.4518
 3303SOL    HW221546   3.652   2.301   7.643 -0.8815  0.9946  0.7158
 3304SOL     OW21547   0.474   0.657   5.652 -0.5294 -0.0954 -0.4116
 3304SOL    HW121548   0.421   0.596   5.704  0.3453  0.3977  1.0543
 3304SOL    HW221549   0.558   0.625   5.686 -0.7831 -1.3812 -0.9793
 3305SOL     OW21550   4.417   2.469   4.737  0.6466 -0.1293 -0.3740
 3305SOL    HW121551   4.382   2.550   4.775 -0.2944  0.0926 -1.7100
 3305SOL    HW221552   4.490   2.503   4.687 -0.0635 -1.0067 -1.9875
 3306SOL     OW21553   1.590   4.261  10.189 -0.0823 -0.4683 -0.6982
 3306SOL    HW121554   1.622   4.347  10.162 -0.5355 -0.0872 -0.0359
 3306SOL    HW221555   1.623   4.262  10.279  1.5269  0.3667 -1.2981
 3307SOL     OW21556   1.206   0.884   6.071  0.0409 -0.6431  0.5351
 3307SOL    HW121557   1.293   0.917   6.049 -0.3568 -0.0236 -0.0945
 3307SOL    HW221558   1.215   0.793   6.042 -0.2229 -1.0557  1.7479
 3308SOL     OW21559   0.823   0.067  14.452 -0.3745 -0.2422  0.1158
 3308SOL    HW121560   0.783   0.014  14.521  0.5217 -0.9165  0.1175
 3308SOL    HW221561   0.856   4.734  14.394 -5.2638 -1.8383 -0.7679
 3309SOL     OW21562   0.964   2.359  12.744 -0.1138 -0.2789  0.6812
 3309SOL    HW121563   1.046   2.361  12.795 -0.8823 -1.2282  1.9576
 3309SOL    HW221564   0.940   2.271  12.775 -0.6764 -0.7176 -0.9783
 3310SOL     OW21565   0.625   2.990  10.775 -0.7137  0.0525  0.2621
 3310SOL    HW121566   0.707   2.943  10.763 -0.4083  1.3725 -2.7790
 3310SOL    HW221567   0.633   3.048  10.700  0.5792  0.6074  0.8482
 3311SOL     OW21568   3.775   3.050  11.933 -0.1580 -0.4528  0.1809
 3311SOL    HW121569   3.820   3.071  12.015  0.4163  0.4506 -0.3698
 3311SOL    HW221570   3.701   2.995  11.959 -0.8864  0.3297 -0.2798
 3312SOL     OW21571   1.710   4.294   3.409 -0.2514  0.2817  0.2989
 3312SOL    HW121572   1.721   4.200   3.394 -1.3634  0.2303 -0.2441
 3312SOL    HW221573   1.616   4.299   3.426  0.1527 -0.8136  2.8411
 3313SOL     OW21574   0.682   1.759   3.552  0.0416  0.5580 -0.0830
 3313SOL    HW121575   0.613   1.824   3.565  0.7656  1.3982 -0.4775
 3313SOL    HW221576   0.756   1.810   3.583  0.5286 -0.1082 -0.1476
 3314SOL     OW21577   1.294   2.963   5.959 -0.4066  0.0381 -0.1803
 3314SOL    HW121578   1.338   3.016   6.025  0.9066 -0.9864 -0.2252
 3314SOL    HW221579   1.216   3.012   5.933 -0.2975 -0.1536 -0.8859
 3315SOL     OW21580   2.092   0.294  15.952 -0.5351  0.4587  0.0756
 3315SOL    HW121581   2.123   0.376  15.914  1.8153  0.0045  1.0208
 3315SOL    HW221582   2.056   0.249  15.875 -0.0761  0.7126 -0.2865
 3316SOL     OW21583   1.179   1.260   9.997 -0.4309 -0.0448  0.3212
 3316SOL    HW121584   1.130   1.183  10.028  0.5264  0.1247  2.2344
 3316SOL    HW221585   1.222   1.221   9.921  1.1697 -1.2241  1.8340
 3317SOL     OW21586   2.987   1.801   5.432  0.1933  0.1340 -0.0981
 3317SOL    HW121587   2.896   1.771   5.441 -0.0898  0.1866 -2.7202
 3317SOL    HW221588   3.036   1.769   5.508 -1.2107 -0.2368  0.6523
 3318SOL     OW21589   3.764   2.148   5.810  0.2268  0.3415 -0.0978
 3318SOL    HW121590   3.845   2.149   5.861 -0.1922  2.4047  0.5295
 3318SOL    HW221591   3.760   2.053   5.803 -1.0883  0.2721  1.5682
 3319SOL     OW21592   3.360   2.265  11.632  0.6304  0.1752 -0.4239
 3319SOL    HW121593   3.415   2.329  11.676 -0.7723 -0.1788  1.8466
 3319SOL    HW221594   3.303   2.240  11.704  0.8314  0.9381 -0.0043
 3320SOL     OW21595   4.482   0.183   1.570 -1.0208  0.5932 -0.4009
 3320SOL    HW121596   4.572   0.179   1.603 -1.0244 -4.0511 -0.9830
 3320SOL    HW221597   4.494   0.212   1.479 -0.9549  1.4297 -0.1283
 3321SOL     OW21598   2.169   4.602   2.975  0.4130 -0.1422 -0.0530
 3321SOL    HW121599   2.116   4.569   3.047  2.1898  0.3983  1.5172
 3321SOL    HW221600   2.260   4.581   2.998  1.0092  1.4519 -0.9327
 3322SOL     OW21601   3.703   2.036  15.555  0.1196 -0.5482  0.3040
 3322SOL    HW121602   3.618   1.998  15.577 -0.3716  0.7120  0.5612
 3322SOL    HW221603   3.758   1.969  15.595  1.2885  0.8874  1.1003
 3323SOL     OW21604   3.207   2.934   5.163 -0.1642  0.0023  0.8127
 3323SOL    HW121605   3.238   3.024   5.152  1.6603 -0.4339  2.3889
 3323SOL    HW221606   3.113   2.945   5.178 -0.0400 -0.4249  1.8407
 3324SOL     OW21607   0.632   4.224   3.670  0.0389  0.5566  0.0330
 3324SOL    HW121608   0.621   4.140   3.715  0.3659  0.3478 -0.2787
 3324SOL    HW221609   0.709   4.202   3.617 -0.2772  0.4993 -0.4049
 3325SOL     OW21610   1.871   4.456  14.242 -0.0480 -0.0093  0.0774
 3325SOL    HW121611   1.786   4.484  14.276  0.7921  0.2873  1.9418
 3325SOL    HW221612   1.911   4.432  14.326  0.1946 -0.1354 -0.0756
 3326SOL     OW21613   3.018   1.474   1.985  0.1345 -0.1427 -0.2902
 3326SOL    HW121614   3.046   1.509   1.900  0.0753 -0.2982 -0.3734
 3326SOL    HW221615   2.929   1.449   1.962 -0.6040  2.3136 -0.1073
 3327SOL     OW21616   3.940   1.799   5.168  0.0470  0.6616  0.1453
 3327SOL    HW121617   3.988   1.794   5.250  2.7877  2.5065 -1.3527
 3327SOL    HW221618   3.853   1.832   5.190 -0.7667 -0.7831 -0.8760
 3328SOL     OW21619   4.336   2.812  12.285 -0.1613  0.0242  0.0540
 3328SOL    HW121620   4.315   2.803  12.378 -0.5106 -0.3786 -0.0608
 3328SOL    HW221621   4.247   2.812  12.248 -1.0242  0.4351  2.1317
 3329SOL     OW21622   0.149   0.515   4.882 -0.5414  0.7062  0.1836
 3329SOL    HW121623   0.184   0.487   4.967 -0.1370  1.9313  0.4158
 3329SOL    HW221624   0.210   0.467   4.827  0.4570  2.4303 -0.1869
 3330SOL     OW21625   2.890   3.800   8.000 -0.2033 -0.2272  0.2092
 3330SOL    HW121626   2.904   3.708   8.024  0.5933 -0.2821 -0.4610
 3330SOL    HW221627   2.980   3.830   8.012 -0.4275  0.3128  0.5372
 3331SOL     OW21628   2.686   4.336   7.097 -0.0956  0.3017 -0.1013
 3331SOL    HW121629   2.744   4.276   7.050  2.6459  2.5480  0.4258
 3331SOL    HW221630   2.750   4.390   7.144 -0.0547  0.5863 -0.4845
 3332SOL     OW21631   1.337   3.571   2.311 -0.2262  0.0410 -0.0955
 3332SOL    HW121632   1.391   3.520   2.372  0.3410 -0.1395 -0.7472
 3332SOL    HW221633   1.361   3.538   2.225  0.3422  0.1537  0.0180
 3333SOL     OW21634   1.893   1.801   1.729  0.4549  0.2575  0.0654
 3333SOL    HW121635   1.846   1.721   1.751 -0.7357  0.9825  0.1458
 3333SOL    HW221636   1.962   1.803   1.794  1.1819  0.7674 -0.7140
 3334SOL     OW21637   3.235   1.057   3.979 -0.6400 -0.4774 -0.5364
 3334SOL    HW121638   3.215   0.968   4.008 -1.8961 -0.6496 -1.9140
 3334SOL    HW221639   3.273   1.094   4.058 -0.9140 -1.1991 -0.0625
 3335SOL     OW21640   2.561   2.169  15.553 -0.0419 -0.0052 -0.4178
 3335SOL    HW121641   2.635   2.229  15.555 -0.6956  0.8062 -0.4945
 3335SOL    HW221642   2.483   2.222  15.540 -0.1653 -0.5359 -1.8183
 3336SOL     OW21643   1.981   2.083   1.343  0.2947  0.5877  0.3144
 3336SOL    HW121644   2.042   2.018   1.308  0.3949  1.0276 -0.3288
 3336SOL    HW221645   1.941   2.038   1.417  1.0267  0.0087  0.3520
 3337SOL     OW21646   0.841   2.926   8.437 -0.3916 -0.3084 -0.3273
 3337SOL    HW121647   0.804   2.846   8.398 -0.6980 -1.4364  2.2826
 3337SOL    HW221648   0.884   2.971   8.364  1.8090  0.5966  1.5364
 3338SOL     OW21649   1.556   0.253   4.155  0.4211  0.5282 -0.0432
 3338SOL    HW121650   1.504   0.330   4.175 -0.3708 -0.5435  1.9033
 3338SOL    HW221651   1.541   0.248   4.060 -1.6564  1.8150  0.2242
 3339SOL     OW21652   0.059   2.163  16.885  0.4508 -0.3542  0.1827
 3339SOL    HW121653   0.023   2.105  16.817 -2.5785 -0.2499  1.6911
 3339SOL    HW221654   0.144   2.127  16.908  0.9212  2.3119  2.6138
 3340SOL     OW21655   3.706   0.043   7.331 -0.2428 -0.1873 -0.7186
 3340SOL    HW121656   3.625   0.095   7.331  0.1896  0.4782  0.1842
 3340SOL    HW221657   3.769   0.112   7.310 -0.9393  0.0826 -1.9524
 3341SOL     OW21658   1.928   3.677   0.305 -0.2121 -0.3641  0.4771
 3341SOL    HW121659   1.974   3.750   0.348  1.4911 -1.3624  0.3704
 3341SOL    HW221660   1.976   3.610   0.355 -0.7372 -1.8099 -0.9724
 3342SOL     OW21661   1.808   3.240  17.581  0.1942  0.4770 -0.4393
 3342SOL    HW121662   1.752   3.225  17.658  1.3049  0.5956  0.4025
 3342SOL    HW221663   1.854   3.320  17.608  1.9077 -0.1212 -1.5924
 3343SOL     OW21664   2.118   1.494   0.012  0.1372  0.5267 -0.1658
 3343SOL    HW121665   2.187   1.428   0.003  1.2099  1.6152  0.0977
 3343SOL    HW221666   2.174   1.565   0.041 -0.0541  0.2915  0.7712
 3344SOL     OW21667   1.049   0.229   8.936 -0.1518 -0.1051  0.3006
 3344SOL    HW121668   1.054   0.321   8.959 -0.4689  0.1161 -0.5044
 3344SOL    HW221669   1.143   0.212   8.930  0.5619  4.4526 -1.1788
 3345SOL     OW21670   3.535   1.156   9.072 -0.1412 -0.5671  0.4791
 3345SOL    HW121671   3.468   1.209   9.115  0.5265 -0.9794  2.0424
 3345SOL    HW221672   3.570   1.108   9.148  1.0123 -0.2341  0.1479
 3346SOL     OW21673   2.230   2.731  10.971 -0.0083  0.4150 -0.0515
 3346SOL    HW121674   2.263   2.646  10.942  1.7545  0.3989  2.0129
 3346SOL    HW221675   2.281   2.789  10.914 -1.2436  1.7490  0.1872
 3347SOL     OW21676   1.661   4.601  12.263 -0.3326 -0.2092 -0.4338
 3347SOL    HW121677   1.736   4.632  12.213  0.4065 -0.5959  0.4280
 3347SOL    HW221678   1.659   4.657  12.341  0.4014  0.4268 -0.8695
 3348SOL     OW21679   3.598   3.138   2.790 -0.4427 -0.2652  0.8292
 3348SOL    HW121680   3.603   3.226   2.827  2.3827  0.1299 -0.5112
 3348SOL    HW221681   3.677   3.098   2.826 -0.8513 -0.8280  1.1152
 3349SOL     OW21682   1.551   3.574   4.218 -0.1477  0.2739 -0.9084
 3349SOL    HW121683   1.598   3.601   4.139  0.3721 -0.2763 -0.7831
 3349SOL    HW221684   1.508   3.656   4.242  0.6917  0.1275  1.0685
 3350SOL     OW21685   0.609   2.947  12.646  0.1399 -0.2780 -0.5962
 3350SOL    HW121686   0.582   2.874  12.589 -0.6227  0.4272 -1.1254
 3350SOL    HW221687   0.702   2.954  12.624  0.1363  3.0134  0.4429
 3351SOL     OW21688   2.252   0.400   3.780  0.5003 -0.2447  0.3654
 3351SOL    HW121689   2.304   0.361   3.850  5.0598  2.5283 -1.5420
 3351SOL    HW221690   2.268   0.350   3.700 -1.3089 -0.9847  0.4431
 3352SOL     OW21691   1.331   3.211   4.877 -0.2692 -0.1469  0.0162
 3352SOL    HW121692   1.372   3.298   4.875  1.1207 -0.7873  0.3549
 3352SOL    HW221693   1.351   3.168   4.960 -0.0401  1.5089  0.8139
 3353SOL     OW21694   3.770   1.471   8.109 -0.1927  0.4855 -0.1604
 3353SOL    HW121695   3.730   1.477   8.023 -0.0084 -2.4569 -0.4272
 3353SOL    HW221696   3.684   1.476   8.152 -0.7758  0.1720 -1.2967
 3354SOL     OW21697   3.087   1.831   1.350  0.1370  0.6284 -0.3168
 3354SOL    HW121698   3.086   1.924   1.371  1.0970  0.0771  2.1315
 3354SOL    HW221699   3.170   1.806   1.391  1.4322  1.1832 -2.5804
 3355SOL     OW21700   4.246   1.698   3.538 -0.0466  0.6616  0.2854
 3355SOL    HW121701   4.157   1.672   3.514 -0.5461  0.1218  2.6238
 3355SOL    HW221702   4.230   1.764   3.605 -0.0228  0.5283  0.4232
 3356SOL     OW21703   4.196   1.537  13.086 -0.2270 -0.1292  0.1387
 3356SOL    HW121704   4.163   1.536  12.996 -1.1320 -2.3339  0.4950
 3356SOL    HW221705   4.252   1.460  13.082  0.3463  0.1745  2.5115
 3357SOL     OW21706   1.295   2.515   1.194  0.5322  0.0704 -0.5110
 3357SOL    HW121707   1.244   2.434   1.190  0.3851  0.1869 -0.9811
 3357SOL    HW221708   1.343   2.510   1.112  1.2260  1.4214 -0.1878
 3358SOL     OW21709   1.057   2.665   2.353 -0.2033  0.0109  0.0276
 3358SOL    HW121710   1.012   2.583   2.331 -0.6036  0.0597  0.6406
 3358SOL    HW221711   0.992   2.735   2.356  0.0039  0.1270  1.8483
 3359SOL     OW21712   0.399   3.754   0.192  0.0875 -0.1481  0.6705
 3359SOL    HW121713   0.463   3.714   0.133 -2.0883  0.5903 -2.2175
 3359SOL    HW221714   0.349   3.809   0.132  1.4569 -0.2470 -0.5735
 3360SOL     OW21715   0.878   1.713   8.398 -0.8029  0.1862 -0.0851
 3360SOL    HW121716   0.915   1.708   8.486  1.3947  3.8277 -0.8226
 3360SOL    HW221717   0.813   1.643   8.408  1.3924 -1.9825 -0.8138
 3361SOL     OW21718   3.683   0.110   6.769  0.4393 -0.0166 -0.3303
 3361SOL    HW121719   3.601   0.067   6.792  0.2107  0.0667 -0.9949
 3361SOL    HW221720   3.656   0.162   6.693 -1.0098 -2.8050 -1.7086
 3362SOL     OW21721   2.336   0.150   9.209  0.3249  0.4200  0.6643
 3362SOL    HW121722   2.270   0.212   9.241 -0.1321  0.1842  0.1906
 3362SOL    HW221723   2.291   0.119   9.130  1.2924  0.8645 -0.0568
 3363SOL     OW21724   4.465   2.876   2.325 -0.3096 -0.0543 -0.3710
 3363SOL    HW121725   4.378   2.869   2.285 -0.9595  2.3616  0.5918
 3363SOL    HW221726   4.524   2.868   2.251 -0.5147 -1.5235 -0.3754
 3364SOL     OW21727   1.021   1.820  10.109  0.2881  0.0959  0.2270
 3364SOL    HW121728   0.983   1.873  10.039  1.5964  0.0906 -0.5045
 3364SOL    HW221729   0.948   1.823  10.170 -1.7118  0.6327 -2.1859
 3365SOL     OW21730   0.391   2.385  17.332 -0.4966  0.4064 -0.1249
 3365SOL    HW121731   0.371   2.478  17.340 -0.3030  0.6695 -2.7824
 3365SOL    HW221732   0.364   2.382  17.241 -0.7828 -0.4550 -0.0064
 3366SOL     OW21733   2.657   1.053   5.669 -0.3850  0.5840  0.4520
 3366SOL    HW121734   2.592   1.094   5.725 -0.8433  0.9568 -0.3547
 3366SOL    HW221735   2.602   1.029   5.594 -1.2531 -0.8048  1.5496
 3367SOL     OW21736   4.701   2.465   7.392 -0.1404 -0.3762 -0.4103
 3367SOL    HW121737   0.044   2.506   7.355  0.9992 -1.6611  0.5787
 3367SOL    HW221738   4.654   2.541   7.426 -1.0143 -1.6910  1.3172
 3368SOL     OW21739   1.453   0.341   7.290  0.0971  0.1651 -0.6555
 3368SOL    HW121740   1.501   0.307   7.214 -0.8732  0.6733 -1.5083
 3368SOL    HW221741   1.512   0.320   7.362 -1.1195  1.2855  0.6669
 3369SOL     OW21742   4.526   3.568   4.575 -0.3518 -0.3126 -0.5629
 3369SOL    HW121743   4.603   3.557   4.631 -0.4829 -0.6103 -0.4427
 3369SOL    HW221744   4.572   3.595   4.496  1.3778 -0.8373  0.2730
 3370SOL     OW21745   1.068   3.410  11.191 -0.5597  0.2051  0.2911
 3370SOL    HW121746   1.019   3.489  11.214 -0.1696  0.5380 -0.0110
 3370SOL    HW221747   1.027   3.342  11.244 -0.5491 -1.2104 -1.5334
 3371SOL     OW21748   1.058   1.356   8.241  0.1686  0.2575 -0.1631
 3371SOL    HW121749   0.967   1.387   8.248 -0.3237 -1.1487 -0.3573
 3371SOL    HW221750   1.054   1.282   8.301  1.5844 -0.0062 -0.3870
 3372SOL     OW21751   1.699   1.365   2.122 -0.6324 -0.0771  0.3510
 3372SOL    HW121752   1.736   1.444   2.161 -1.2897  0.6179 -0.4048
 3372SOL    HW221753   1.635   1.397   2.058  0.4538  0.0764 -0.6730
 3373SOL     OW21754   0.707   1.919   5.855 -0.3888  0.2742 -0.7083
 3373SOL    HW121755   0.619   1.917   5.817 -0.1192  0.3453 -1.3425
 3373SOL    HW221756   0.757   1.877   5.785 -0.1218  0.6467 -0.7473
 3374SOL     OW21757   3.858   0.164  10.422 -0.4870  0.1681  0.1540
 3374SOL    HW121758   3.937   0.206  10.456  1.3004 -2.3119 -0.9770
 3374SOL    HW221759   3.829   0.227  10.356 -0.8948 -1.5038 -1.2527
 3375SOL     OW21760   4.709   4.018   9.631 -0.1759 -0.1859 -0.0999
 3375SOL    HW121761   4.711   4.073   9.710 -1.1562  1.5169 -1.2595
 3375SOL    HW221762   4.618   4.029   9.604  0.2483  1.0372 -1.0280
 3376SOL     OW21763   3.201   0.288   2.024  0.4790 -0.1652  0.3609
 3376SOL    HW121764   3.125   0.231   2.009  0.8160 -0.7403  0.8598
 3376SOL    HW221765   3.253   0.269   1.946 -1.8233  0.0735 -1.2682
 3377SOL     OW21766   4.025   0.779   1.948 -0.4754  0.2034 -0.3229
 3377SOL    HW121767   4.089   0.847   1.970 -0.6574  0.7124 -1.3491
 3377SOL    HW221768   4.076   0.712   1.904 -0.3985  0.0524 -0.0049
 3378SOL     OW21769   4.479   3.994   4.027 -0.4579  0.4112  0.0328
 3378SOL    HW121770   4.553   4.046   4.059 -0.5236 -0.2367  1.2414
 3378SOL    HW221771   4.413   4.011   4.094  2.2523 -1.8419  3.3320
 3379SOL     OW21772   4.135   1.334   2.399  0.4792  0.3468  0.2675
 3379SOL    HW121773   4.074   1.333   2.325 -3.1319 -1.9003  3.2609
 3379SOL    HW221774   4.083   1.348   2.478  0.1380  0.7073 -0.0218
 3380SOL     OW21775   2.018   1.022   4.029  0.0724 -0.7698 -0.1442
 3380SOL    HW121776   1.930   0.986   4.040  0.2118 -1.5942 -1.6842
 3380SOL    HW221777   2.042   0.972   3.950  2.3794 -0.1963  0.1921
 3381SOL     OW21778   3.375   1.764   3.486 -0.1875  0.0778 -0.0767
 3381SOL    HW121779   3.284   1.786   3.467 -0.7825 -1.5138  0.9772
 3381SOL    HW221780   3.368   1.715   3.568  0.0887  0.4747  0.1892
 3382SOL     OW21781   1.379   4.453   6.668  0.0055 -0.2691 -0.8477
 3382SOL    HW121782   1.465   4.455   6.711 -1.1648 -1.6630  1.5048
 3382SOL    HW221783   1.380   4.537   6.620  2.6822 -0.3942 -1.0477
 3383SOL     OW21784   0.823   3.142   7.214  0.8540 -0.8926  0.6987
 3383SOL    HW121785   0.816   3.140   7.310  0.8740  1.4736  0.7693
 3383SOL    HW221786   0.752   3.085   7.184  2.1179 -1.9445 -0.2504
 3384SOL     OW21787   2.760   1.295   5.625 -0.3812 -0.6928 -0.2056
 3384SOL    HW121788   2.743   1.201   5.635 -1.4043 -0.5142 -0.2559
 3384SOL    HW221789   2.681   1.309   5.573 -2.3228 -0.8702  2.7142
 3385SOL     OW21790   4.610   2.089   7.263 -0.2362 -0.0283  0.0072
 3385SOL    HW121791   4.639   2.090   7.354  0.3304 -0.6539 -0.1642
 3385SOL    HW221792   4.688   2.059   7.215  0.0265  0.7445 -0.0506
 3386SOL     OW21793   3.700   1.389   4.046  0.2172  0.4187 -0.3407
 3386SOL    HW121794   3.787   1.374   4.009  0.4572  1.6963 -0.3140
 3386SOL    HW221795   3.715   1.471   4.094 -1.0876  0.3542  0.1552
 3387SOL     OW21796   0.384   2.804   5.607 -0.4763 -0.0471 -0.5187
 3387SOL    HW121797   0.385   2.765   5.520 -0.7163 -0.0585 -0.5163
 3387SOL    HW221798   0.367   2.892   5.574  1.1690  0.3149 -0.4084
 3388SOL     OW21799   3.713   2.731   6.871 -0.2519 -0.3475 -0.5501
 3388SOL    HW121800   3.648   2.733   6.941  1.3338  0.1329  0.9207
 3388SOL    HW221801   3.785   2.700   6.926 -1.2060  0.7806  1.3023
 3389SOL     OW21802   1.732   3.820   7.119  0.1721 -0.4095 -0.0977
 3389SOL    HW121803   1.657   3.791   7.170  1.0963 -0.8230  1.0214
 3389SOL    HW221804   1.809   3.775   7.152  0.3340 -0.3859 -0.4382
 3390SOL     OW21805   0.416   4.102   6.599 -0.3842 -0.7093  0.1572
 3390SOL    HW121806   0.486   4.153   6.559 -0.1093 -0.8729  0.4292
 3390SOL    HW221807   0.404   4.149   6.682  2.0502  0.2664 -0.0458
 3391SOL     OW21808   1.249   4.257  15.793 -0.3437 -0.5407  0.6319
 3391SOL    HW121809   1.264   4.343  15.833 -0.8378 -0.8811  1.5433
 3391SOL    HW221810   1.162   4.262  15.753 -0.1223 -2.7041 -0.1301
 3392SOL     OW21811   0.376   0.087   2.015 -0.0662  0.4537  0.6767
 3392SOL    HW121812   0.469   0.075   2.036  0.0761  3.5219  1.7367
 3392SOL    HW221813   0.328   0.004   2.021 -4.3667  2.8715 -1.1383
 3393SOL     OW21814   2.836   0.768   9.149  0.2635 -0.4885  0.0925
 3393SOL    HW121815   2.823   0.703   9.218 -2.3464 -0.0249  0.0258
 3393SOL    HW221816   2.900   0.827   9.187  2.4372 -1.6456 -1.7582
 3394SOL     OW21817   4.209   1.002   4.569  0.2933 -0.3497  0.5168
 3394SOL    HW121818   4.170   0.942   4.633 -2.4935 -1.1068 -1.8810
 3394SOL    HW221819   4.136   1.016   4.509  0.7043  1.5051  0.4703
 3395SOL     OW21820   3.033   3.914   9.512 -0.3462  0.0594 -0.3019
 3395SOL    HW121821   2.985   3.843   9.553  0.5339 -0.8181 -0.7931
 3395SOL    HW221822   2.979   3.951   9.442 -1.1071  0.3268  0.4330
 3396SOL     OW21823   3.083   1.582   9.120 -0.8370 -0.1736 -0.2600
 3396SOL    HW121824   3.163   1.612   9.165 -2.2847 -1.8883  3.5000
 3396SOL    HW221825   3.013   1.630   9.164  1.1195  2.2978  0.2295
 3397SOL     OW21826   3.103   0.853   4.415 -0.2869 -0.1518  0.2095
 3397SOL    HW121827   3.071   0.779   4.364 -1.9174 -0.9697  2.4697
 3397SOL    HW221828   3.026   0.872   4.468  0.7737 -1.1281  2.0982
 3398SOL     OW21829   0.887   0.375   6.636 -0.0479 -0.0542  0.3213
 3398SOL    HW121830   0.951   0.425   6.585 -2.6134  1.0777 -1.7820
 3398SOL    HW221831   0.914   0.406   6.723 -0.0447  0.9855 -0.0494
 3399SOL     OW21832   0.011   1.301  14.623  0.1028 -0.3352  0.1811
 3399SOL    HW121833   0.036   1.218  14.583  0.2230  0.4739 -1.4254
 3399SOL    HW221834   0.089   1.353  14.604  0.0016 -0.1004  0.3993
 3400SOL     OW21835   3.692   3.121  15.952 -0.2705 -0.1709 -0.7836
 3400SOL    HW121836   3.661   3.058  15.887 -0.1689 -1.3806  0.3370
 3400SOL    HW221837   3.769   3.156  15.907  0.0630  0.0043 -0.0687
 3401SOL     OW21838   4.073   2.683   3.954  0.6243 -0.1444 -0.4367
 3401SOL    HW121839   4.148   2.687   4.013 -0.8075  0.9691  1.3005
 3401SOL    HW221840   4.013   2.751   3.984 -0.8550 -1.8967  0.6005
 3402SOL     OW21841   1.651   0.826  10.783  1.1060 -0.5057 -0.0696
 3402SOL    HW121842   1.688   0.783  10.860  0.2000  0.9254  1.1879
 3402SOL    HW221843   1.600   0.897  10.822  1.3914 -0.1813 -0.2861
 3403SOL     OW21844   2.372   4.407   8.824 -0.1776  0.2257 -0.1088
 3403SOL    HW121845   2.404   4.332   8.874  0.7942 -1.0389 -2.6211
 3403SOL    HW221846   2.323   4.462   8.885 -1.2064 -0.6286 -0.1584
 3404SOL     OW21847   0.107   2.551   3.798 -0.1049 -0.1256 -0.1258
 3404SOL    HW121848   0.103   2.609   3.722 -0.2974  3.4728  2.6652
 3404SOL    HW221849   0.021   2.563   3.837  0.0740  0.8981 -0.0619
 3405SOL     OW21850   0.941   0.451   0.553 -0.2440  0.4979 -0.3172
 3405SOL    HW121851   1.000   0.436   0.626 -1.2338 -0.7426  0.2207
 3405SOL    HW221852   0.857   0.425   0.592 -0.3363  0.1883 -0.7202
 3406SOL     OW21853   4.652   2.317  13.871  0.3804 -0.0829 -0.4828
 3406SOL    HW121854   4.635   2.314  13.965 -0.1571 -0.9362 -0.6091
 3406SOL    HW221855   4.563   2.330  13.838 -0.5571 -1.7515  1.4336
 3407SOL     OW21856   1.369   2.258  11.799 -0.6514 -0.2139 -0.0631
 3407SOL    HW121857   1.388   2.303  11.881  1.3172 -0.6594 -0.2727
 3407SOL    HW221858   1.284   2.219  11.820 -0.0065 -1.6249 -0.0584
 3408SOL     OW21859   3.740   3.873   6.420  0.4397  0.4094  0.0198
 3408SOL    HW121860   3.776   3.954   6.457  0.8715  0.2649 -0.0733
 3408SOL    HW221861   3.650   3.878   6.451  0.2237 -0.7693 -0.4088
 3409SOL     OW21862   4.377   2.600  15.659  0.3432  0.6945  0.3848
 3409SOL    HW121863   4.379   2.504  15.668  1.2747  0.7550  0.8680
 3409SOL    HW221864   4.459   2.624  15.616 -0.8513  0.8838 -1.7478
 3410SOL     OW21865   0.872   2.199  14.219 -0.0858  0.0770  0.3115
 3410SOL    HW121866   0.781   2.226  14.204 -0.0471 -0.3892 -0.8081
 3410SOL    HW221867   0.923   2.245  14.153  1.4596 -0.1842  1.3330
 3411SOL     OW21868   4.525   0.295   5.628  0.1053 -0.5261 -0.0034
 3411SOL    HW121869   4.434   0.267   5.632  0.3636 -1.4506 -0.5758
 3411SOL    HW221870   4.550   0.296   5.720  0.7492  0.2509 -0.1820
 3412SOL     OW21871   3.544   0.372   7.066 -0.3961 -0.0414  0.1687
 3412SOL    HW121872   3.596   0.291   7.067 -0.6656 -0.2457 -2.9258
 3412SOL    HW221873   3.505   0.362   6.979  0.9108 -0.4651 -0.3852
 3413SOL     OW21874   3.633   1.686   5.019 -0.6448  0.4556  0.0562
 3413SOL    HW121875   3.553   1.737   5.008 -0.7422 -0.1909 -2.2561
 3413SOL    HW221876   3.703   1.751   5.011 -0.5850  0.3386 -0.4033
 3414SOL     OW21877   2.436   3.204  12.972  0.2524 -0.6308  0.0587
 3414SOL    HW121878   2.409   3.295  12.963  2.4884 -0.0023 -0.2128
 3414SOL    HW221879   2.531   3.213  12.984  0.0201  0.4659  1.0148
 3415SOL     OW21880   0.911   4.409   6.492  0.4317 -0.2721 -0.3057
 3415SOL    HW121881   0.926   4.363   6.575 -0.8038  0.7925  0.5241
 3415SOL    HW221882   0.976   4.479   6.504  2.0298 -1.5680 -1.4881
 3416SOL     OW21883   4.054   4.207   8.259 -0.1849 -0.3897 -0.5793
 3416SOL    HW121884   4.059   4.265   8.334  0.4872  2.4244 -2.8007
 3416SOL    HW221885   3.998   4.255   8.199  1.2806  0.7052 -1.0875
 3417SOL     OW21886   1.405   4.650   7.319  0.2233  0.0905 -0.4156
 3417SOL    HW121887   1.470   4.660   7.249 -0.0983  2.9349 -0.3439
 3417SOL    HW221888   1.404   4.555   7.325  0.8938  0.1954  1.4066
 3418SOL     OW21889   0.791   3.273  15.269  0.3111 -0.2462 -0.1695
 3418SOL    HW121890   0.832   3.189  15.287  0.1828 -0.6833 -1.8809
 3418SOL    HW221891   0.794   3.280  15.173  0.0542 -3.0743 -0.3678
 3419SOL     OW21892   4.445   0.891   9.320  0.8084  0.0134 -0.0911
 3419SOL    HW121893   4.421   0.980   9.347  2.2001  0.3855 -0.0673
 3419SOL    HW221894   4.515   0.864   9.378 -0.1369  2.6729  2.3052
 3420SOL     OW21895   1.092   0.558   1.649  0.5565  0.0765 -0.2636
 3420SOL    HW121896   1.057   0.493   1.709  0.6913  0.4888  0.2583
 3420SOL    HW221897   1.058   0.639   1.686  0.5195 -0.7669  1.5106
 3421SOL     OW21898   4.449   0.432  11.097  0.3090 -0.2574 -0.1058
 3421SOL    HW121899   4.493   0.502  11.146 -2.1234  0.7297  0.6481
 3421SOL    HW221900   4.374   0.484  11.068  1.8722  2.0531 -0.0192
 3422SOL     OW21901   0.448   3.778   2.541 -0.4058  0.0024  0.3504
 3422SOL    HW121902   0.535   3.774   2.581  0.4171  0.2208 -1.4357
 3422SOL    HW221903   0.443   3.719   2.466 -0.0271  1.0045 -0.4710
 3423SOL     OW21904   3.450   1.073  14.943  0.0731 -0.0743  0.3585
 3423SOL    HW121905   3.355   1.076  14.956  0.4096 -1.4123  3.0875
 3423SOL    HW221906   3.482   1.126  15.017  2.2089  0.2853 -0.8312
 3424SOL     OW21907   2.455   0.268   2.037 -0.0293 -0.1398 -0.0793
 3424SOL    HW121908   2.435   0.263   2.131  4.2462 -1.6157  0.7816
 3424SOL    HW221909   2.540   0.224   2.034  0.7801  1.1073  4.0163
 3425SOL     OW21910   3.451   2.932   0.560 -0.5307 -0.7911 -0.0442
 3425SOL    HW121911   3.367   2.974   0.581  0.4756 -0.0037  2.2758
 3425SOL    HW221912   3.519   2.984   0.601 -0.0169 -2.1515  0.7943
 3426SOL     OW21913   1.987   1.049   1.961  0.1282 -0.0594  0.5768
 3426SOL    HW121914   1.901   1.056   2.003 -1.1322 -0.9922 -1.8289
 3426SOL    HW221915   2.026   0.967   1.991  0.6962 -0.0735 -0.1903
 3427SOL     OW21916   1.760   3.814   5.294  0.5930 -0.6185  0.3190
 3427SOL    HW121917   1.790   3.904   5.281  0.1689 -0.6617 -0.9832
 3427SOL    HW221918   1.840   3.772   5.327  0.3323  0.3342  2.1540
 3428SOL     OW21919   2.815   4.587   9.796 -0.0823  0.0319 -0.0533
 3428SOL    HW121920   2.817   4.514   9.734 -1.0406  0.9707 -1.1802
 3428SOL    HW221921   2.902   4.582   9.835 -0.2180  1.8066  0.5054
 3429SOL     OW21922   0.920   3.757   6.538  0.3950  0.5963 -0.0080
 3429SOL    HW121923   0.901   3.698   6.465 -2.0374  0.3066  0.8452
 3429SOL    HW221924   0.833   3.781   6.570  1.1381  1.8093  1.0902
 3430SOL     OW21925   0.213   1.609  12.275  0.3385 -0.1113  0.4423
 3430SOL    HW121926   0.137   1.645  12.230  1.2631 -1.0748 -1.8677
 3430SOL    HW221927   0.194   1.516  12.264  1.9425 -0.4668  0.6162
 3431SOL     OW21928   2.034   0.887   3.596 -0.1879  0.2655  0.1901
 3431SOL    HW121929   1.973   0.959   3.579  0.1572  0.0942 -1.7217
 3431SOL    HW221930   2.005   0.813   3.542  0.8848 -1.2148  1.6142
 3432SOL     OW21931   3.211   1.623   6.505  0.3292 -0.2621 -0.4124
 3432SOL    HW121932   3.231   1.658   6.418  1.7276  1.4207  0.5631
 3432SOL    HW221933   3.282   1.562   6.524  0.2206  0.1133  1.2588
 3433SOL     OW21934   4.080   1.563  12.862 -0.0985  0.5614 -0.1219
 3433SOL    HW121935   4.077   1.657  12.878  4.1139  0.5352  0.8016
 3433SOL    HW221936   4.034   1.542  12.781 -1.0588  2.1479  0.0234
 3434SOL     OW21937   2.146   3.219   3.367  0.5511  0.2752 -0.0503
 3434SOL    HW121938   2.090   3.142   3.374  0.2534  0.2273 -3.0080
 3434SOL    HW221939   2.085   3.281   3.327  0.0445  0.5731  1.1725
 3435SOL     OW21940   3.245   4.027   3.516 -0.0900  0.0975 -0.2879
 3435SOL    HW121941   3.247   3.931   3.521 -0.5540  0.1586  1.1144
 3435SOL    HW221942   3.193   4.055   3.440 -0.8028 -1.9737 -0.5609
 3436SOL     OW21943   4.594   0.087   3.703  0.5199 -1.2694 -0.3344
 3436SOL    HW121944   4.654   0.025   3.745  2.7417  1.6310  0.7575
 3436SOL    HW221945   4.646   0.166   3.686  1.7962 -1.6864  1.5801
 3437SOL     OW21946   4.242   1.243  10.256 -0.0595  0.4763  0.2285
 3437SOL    HW121947   4.285   1.320  10.293  0.9266  0.5964 -1.1740
 3437SOL    HW221948   4.149   1.267  10.249  0.2243  1.1008 -1.4539
 3438SOL     OW21949   4.664   0.806  11.383 -0.1777  0.7227  0.2659
 3438SOL    HW121950   4.649   0.827  11.475  0.3973  0.7042  0.3613
 3438SOL    HW221951   0.015   0.846  11.386  0.7725 -1.2345 -0.9145
 3439SOL     OW21952   4.372   3.821   5.005  0.5367  0.4257 -0.0261
 3439SOL    HW121953   4.308   3.751   4.990 -0.9605  1.7373  0.2913
 3439SOL    HW221954   4.394   3.855   4.919  2.6669  2.9800  1.5265
 3440SOL     OW21955   1.185   4.138   5.430 -0.1147 -0.6601 -0.5633
 3440SOL    HW121956   1.229   4.153   5.346  0.1063  0.0150 -0.3267
 3440SOL    HW221957   1.216   4.051   5.453 -1.4247 -1.0726 -0.3378
 3441SOL     OW21958   3.275   3.257  14.216 -0.0344 -0.3266 -0.0083
 3441SOL    HW121959   3.298   3.328  14.156  0.3017 -0.0346  0.4590
 3441SOL    HW221960   3.269   3.302  14.301  1.4943  0.2005 -0.1830
 3442SOL     OW21961   2.780   2.258   0.728 -0.1123  0.2603 -0.3333
 3442SOL    HW121962   2.774   2.354   0.725  2.6155  0.4922  1.5371
 3442SOL    HW221963   2.713   2.237   0.663  0.2347  1.4245 -1.0718
 3443SOL     OW21964   1.105   3.852   7.187 -0.1729 -0.3751 -0.5328
 3443SOL    HW121965   1.170   3.874   7.120 -1.0876  0.6474 -1.0820
 3443SOL    HW221966   1.021   3.892   7.165  0.0599 -1.2719 -3.0482
 3444SOL     OW21967   2.660   4.626  17.151 -0.0421  0.0602  0.0708
 3444SOL    HW121968   2.610   4.650  17.073 -1.4410  1.1471  1.3094
 3444SOL    HW221969   2.587   4.633  17.212 -0.1623 -1.0568  0.0623
 3445SOL     OW21970   4.374   4.151   8.575 -0.2118 -0.2075  0.2951
 3445SOL    HW121971   4.284   4.126   8.558 -0.1704  0.0152 -0.2398
 3445SOL    HW221972   4.412   4.132   8.490  1.4906 -1.9125  1.4321
 3446SOL     OW21973   3.847   3.277   7.703 -0.2043  0.3711  0.0454
 3446SOL    HW121974   3.885   3.265   7.790 -3.1452 -0.6064  1.2006
 3446SOL    HW221975   3.872   3.193   7.665 -1.2695 -0.2796  0.7829
 3447SOL     OW21976   2.395   0.991   6.749  0.1758 -0.2448 -0.7250
 3447SOL    HW121977   2.399   1.082   6.779  0.0626 -0.8600  1.1510
 3447SOL    HW221978   2.487   0.966   6.752 -0.0078 -0.7838  0.4643
 3448SOL     OW21979   2.289   4.413  11.243  0.3426 -0.6338  0.7670
 3448SOL    HW121980   2.331   4.407  11.157  0.1734  0.8042  0.5798
 3448SOL    HW221981   2.370   4.407  11.293 -0.3335  0.9062  2.0740
 3449SOL     OW21982   3.334   0.613   7.530  0.3370  0.4913  0.2423
 3449SOL    HW121983   3.250   0.570   7.542  1.7843 -2.3587  0.1417
 3449SOL    HW221984   3.374   0.555   7.465 -1.1710  1.2414 -1.3557
 3450SOL     OW21985   4.513   2.233   6.225  0.2709  0.1569 -0.0252
 3450SOL    HW121986   4.450   2.281   6.278  0.9452  0.0850  0.8282
 3450SOL    HW221987   4.585   2.295   6.234  0.3477 -0.2930  2.3611
 3451SOL     OW21988   0.842   2.522  16.552  0.6700  0.2653 -0.2206
 3451SOL    HW121989   0.903   2.591  16.578 -0.2212  1.1807 -0.6004
 3451SOL    HW221990   0.789   2.566  16.486 -0.1889 -0.1079  0.2245
 3452SOL     OW21991   2.587   1.327  11.590 -0.3837 -0.0868  0.1999
 3452SOL    HW121992   2.596   1.373  11.506 -0.3258  2.9147  1.8541
 3452SOL    HW221993   2.675   1.290  11.592  0.5296  1.9341 -1.5833
 3453SOL     OW21994   3.009   0.247   2.405  0.0144  0.4397  0.0524
 3453SOL    HW121995   3.049   0.311   2.464  0.9939 -0.7526  0.6895
 3453SOL    HW221996   3.083   0.229   2.347  1.3908  0.6917  1.7406
 3454SOL     OW21997   1.128   4.521   4.526  0.4830  0.1831 -0.4189
 3454SOL    HW121998   1.187   4.523   4.602 -1.1782  0.6091  0.8704
 3454SOL    HW221999   1.063   4.458   4.557  2.2939 -0.5654  1.8814
 3455SOL     OW22000   2.077   4.156  15.620 -0.1395  0.1260  0.6187
 3455SOL    HW122001   2.096   4.102  15.697 -1.9413 -0.3867  0.7051
 3455SOL    HW222002   2.018   4.101  15.568 -0.3070  0.6986  0.2130
 3456SOL     OW22003   4.314   4.259   1.265  0.0689 -0.8458  0.1155
 3456SOL    HW122004   4.404   4.234   1.246 -0.0026 -1.3860  0.4895
 3456SOL    HW222005   4.331   4.306   1.347 -0.7296  1.8794 -1.2866
 3457SOL     OW22006   1.379   1.371   4.210 -0.0614 -0.2572  0.0083
 3457SOL    HW122007   1.288   1.380   4.240  0.4794 -0.3852  1.7043
 3457SOL    HW222008   1.403   1.463   4.225 -0.1548 -0.5209  1.8327
 3458SOL     OW22009   4.606   1.420   2.107  0.5446 -0.0139 -0.6770
 3458SOL    HW122010   4.658   1.339   2.108  0.3719 -0.1519 -2.4239
 3458SOL    HW222011   4.521   1.383   2.083  0.4344 -0.2383  0.0823
 3459SOL     OW22012   3.972   0.705   2.412  0.1958  0.3769  0.6733
 3459SOL    HW122013   3.939   0.777   2.465 -2.0011  0.2859 -0.5755
 3459SOL    HW222014   3.905   0.636   2.408 -1.6552  2.1067  2.2904
 3460SOL     OW22015   0.347   1.953   2.344 -0.3119 -0.2819 -0.8429
 3460SOL    HW122016   0.370   1.870   2.304 -1.1484 -2.0577  2.3062
 3460SOL    HW222017   0.374   1.933   2.434  0.9537  1.5028 -0.8308
 3461SOL     OW22018   0.347   1.530   3.765 -0.5739 -0.1033 -0.7136
 3461SOL    HW122019   0.316   1.617   3.740  1.7666  0.2494 -2.3898
 3461SOL    HW222020   0.422   1.526   3.706 -1.4696 -0.7221 -1.8203
 3462SOL     OW22021   2.066   0.310  14.612  0.1218  0.0292  0.1037
 3462SOL    HW122022   2.083   0.403  14.602 -1.2084  0.3249  0.6046
 3462SOL    HW222023   2.056   0.283  14.521  0.0624 -1.7504  0.6259
 3463SOL     OW22024   2.481   2.789   0.573  0.1006 -1.2616  0.0041
 3463SOL    HW122025   2.480   2.709   0.625 -0.6287 -0.3614  1.3692
 3463SOL    HW222026   2.499   2.760   0.483  0.0609 -0.6865 -0.1905
 3464SOL     OW22027   0.092   1.662   4.596 -0.2635  0.2513  0.3495
 3464SOL    HW122028   0.018   1.704   4.639  0.6600  1.5375  0.6779
 3464SOL    HW222029   0.085   1.678   4.502 -1.7404  0.7050  0.5421
 3465SOL     OW22030   1.948   2.265   7.782  0.1658 -0.8987 -0.4927
 3465SOL    HW122031   2.040   2.240   7.772 -0.1460 -1.5704 -1.6714
 3465SOL    HW222032   1.918   2.230   7.866  1.3533 -1.7521 -0.4156
 3466SOL     OW22033   4.558   2.404  15.231  0.6590  0.1791 -0.0260
 3466SOL    HW122034   4.530   2.394  15.140 -0.6117  2.1551  0.1542
 3466SOL    HW222035   4.535   2.495  15.248  1.6779  0.3572  0.3813
 3467SOL     OW22036   0.447   4.617   5.708  0.3185  0.5168  0.6513
 3467SOL    HW122037   0.397   4.564   5.646  0.8745  1.6368 -0.7356
 3467SOL    HW222038   0.488   4.674   5.644  0.1435 -1.8126 -1.5195
 3468SOL     OW22039   0.908   2.017   8.010  0.1516 -0.8335 -0.2143
 3468SOL    HW122040   0.841   1.984   8.070  0.9139  2.5604  2.4634
 3468SOL    HW222041   0.961   2.060   8.077 -2.1530 -0.0702  1.1145
 3469SOL     OW22042   1.625   0.855   8.930 -0.1044 -0.2221 -0.0100
 3469SOL    HW122043   1.606   0.824   8.841 -0.6101  0.1500 -0.0302
 3469SOL    HW222044   1.575   0.937   8.932 -0.6583 -0.5664  0.0899
 3470SOL     OW22045   3.937   4.236   0.221 -0.0332 -0.3961  0.0684
 3470SOL    HW122046   3.878   4.162   0.239  0.3998 -0.3534  1.6825
 3470SOL    HW222047   3.987   4.242   0.303  0.4555 -0.0018 -0.2601
 3471SOL     OW22048   1.530   3.865   5.398  0.5035  0.4081 -0.0343
 3471SOL    HW122049   1.607   3.851   5.341  0.6738 -0.9112  0.5173
 3471SOL    HW222050   1.570   3.879   5.484 -0.3326 -0.7365  0.5345
 3472SOL     OW22051   3.550   2.938   4.978  0.4741  0.4155 -0.1155
 3472SOL    HW122052   3.595   2.865   5.021  0.2435  0.7781  0.7301
 3472SOL    HW222053   3.520   2.906   4.893  1.0136  0.1715 -0.2126
 3473SOL     OW22054   0.194   3.587   6.692 -0.6852  0.3499  0.7063
 3473SOL    HW122055   0.160   3.620   6.609  1.6256 -2.5540 -1.3978
 3473SOL    HW222056   0.127   3.520   6.707  0.6729 -1.3605 -0.9144
 3474SOL     OW22057   0.326   2.535   6.033 -0.1313 -0.0953 -0.3970
 3474SOL    HW122058   0.239   2.496   6.031  0.8393 -2.4492  2.3353
 3474SOL    HW222059   0.338   2.565   5.943  3.8361 -2.3980 -0.6463
 3475SOL     OW22060   3.197   2.798   7.917 -0.3868 -0.4497  0.2131
 3475SOL    HW122061   3.263   2.836   7.975 -1.5267  2.0423 -0.1071
 3475SOL    HW222062   3.235   2.713   7.896 -0.0095  0.0461 -1.1510
 3476SOL     OW22063   2.177   3.778  16.423  0.0438  0.1955 -0.1302
 3476SOL    HW122064   2.273   3.775  16.422  0.0037 -1.6136  1.8839
 3476SOL    HW222065   2.167   3.854  16.480 -1.6153  0.7701 -1.1665
 3477SOL     OW22066   3.545   3.471  10.234 -0.2979  0.0099 -0.1394
 3477SOL    HW122067   3.489   3.546  10.218 -0.1675 -0.4979 -3.0095
 3477SOL    HW222068   3.629   3.511  10.255 -1.8211  0.7624  4.5531
 3478SOL     OW22069   4.621   0.374  13.190  0.0263 -0.3399 -0.3552
 3478SOL    HW122070   4.675   0.319  13.133 -2.6112  0.0371 -3.1717
 3478SOL    HW222071   4.666   0.456  13.170 -2.2326  1.6290  2.6295
 3479SOL     OW22072   2.852   4.358   9.657  0.2433 -0.4231  0.0051
 3479SOL    HW122073   2.772   4.325   9.698  0.4887  0.5421  1.2691
 3479SOL    HW222074   2.910   4.282   9.661 -0.5749 -1.0051  0.8439
 3480SOL     OW22075   1.381   1.720   3.688 -0.4437 -0.1944  0.8049
 3480SOL    HW122076   1.442   1.645   3.689  0.6130  0.6658  0.8652
 3480SOL    HW222077   1.399   1.756   3.775  1.2080  1.2171 -0.1378
 3481SOL     OW22078   1.823   1.770  10.206  0.4705 -0.2950  0.3306
 3481SOL    HW122079   1.840   1.732  10.120 -1.3753 -2.6277  1.0029
 3481SOL    HW222080   1.756   1.834  10.183  1.3243  0.0946 -1.0552
 3482SOL     OW22081   1.664   4.282   1.099  0.5577  0.0197  0.2992
 3482SOL    HW122082   1.733   4.215   1.106  1.6565  1.1229 -0.0215
 3482SOL    HW222083   1.716   4.359   1.079  0.0211  0.3764  0.2729
 3483SOL     OW22084   2.577   2.901   8.718  0.7861 -0.0602 -0.2287
 3483SOL    HW122085   2.598   2.856   8.637  1.0570 -1.0247  0.3805
 3483SOL    HW222086   2.634   2.848   8.774 -1.4788 -1.6831  0.5309
 3484SOL     OW22087   3.025   1.045   4.761  0.5580  0.1132  0.2710
 3484SOL    HW122088   2.938   1.012   4.779  0.0194  0.4517 -1.7013
 3484SOL    HW222089   3.052   1.075   4.848  1.1129 -2.9037  1.1195
 3485SOL     OW22090   4.633   2.897   0.024 -0.0963 -0.0650  0.3196
 3485SOL    HW122091   4.700   2.945  17.715 -1.3115 -0.0630 -1.3328
 3485SOL    HW222092   4.650   2.805   0.002 -0.9631 -0.5648  1.7225
 3486SOL     OW22093   0.025   2.645   2.729 -0.0490  0.0272 -0.3456
 3486SOL    HW122094   4.694   2.697   2.684  0.1099 -0.6522 -1.3609
 3486SOL    HW222095   0.032   2.688   2.815 -0.2409 -2.2083  0.7738
 3487SOL     OW22096   4.064   2.145  16.370 -0.1972 -0.3009  0.0072
 3487SOL    HW122097   4.156   2.166  16.354 -0.2225 -0.8230 -0.8499
 3487SOL    HW222098   4.071   2.110  16.459 -0.7260 -0.2046  0.0845
 3488SOL     OW22099   0.661   3.060  14.689 -0.3012  0.1350  0.5899
 3488SOL    HW122100   0.696   3.133  14.638  1.5395 -1.6658 -0.7191
 3488SOL    HW222101   0.735   2.999  14.687 -0.5464 -0.0600 -2.7127
 3489SOL     OW22102   0.089   1.078   5.301 -0.0458  0.1211  0.0342
 3489SOL    HW122103   0.182   1.084   5.320 -0.2199 -1.9290  1.4289
 3489SOL    HW222104   0.096   1.015   5.229 -1.6711 -0.4625  0.3978
 3490SOL     OW22105   1.786   4.274   8.331  0.4828 -0.4538  0.1036
 3490SOL    HW122106   1.731   4.348   8.359 -1.0034 -0.6840 -2.2174
 3490SOL    HW222107   1.734   4.267   8.251  1.3130  0.2284 -0.5058
 3491SOL     OW22108   4.328   2.091   1.150 -0.3704  0.6605  0.5800
 3491SOL    HW122109   4.303   2.072   1.060 -0.3884 -0.8127  0.8976
 3491SOL    HW222110   4.278   2.029   1.204 -0.4485  0.7424  0.6016
 3492SOL     OW22111   1.529   1.935   4.915  0.3283 -0.0154  0.2593
 3492SOL    HW122112   1.571   1.914   4.998  0.1034  0.2748  0.4459
 3492SOL    HW222113   1.544   1.860   4.858 -0.5914 -0.5944  0.7863
 3493SOL     OW22114   0.099   3.636  14.364 -0.3565  0.1639  0.0815
 3493SOL    HW122115   0.066   3.672  14.281  1.2076  0.5244 -0.3869
 3493SOL    HW222116   0.025   3.591  14.405  1.3619 -1.8995  0.8976
 3494SOL     OW22117   3.169   2.140  12.349  0.4709  0.4675  0.3397
 3494SOL    HW122118   3.220   2.098  12.419 -1.3403 -2.5053 -0.1340
 3494SOL    HW222119   3.158   2.227  12.387  0.8225  1.4497 -1.7880
 3495SOL     OW22120   4.399   3.372   8.942  0.4941 -0.0551  0.3028
 3495SOL    HW122121   4.465   3.339   9.003  1.5514  1.0371 -0.2422
 3495SOL    HW222122   4.448   3.440   8.895 -0.6694 -0.2651 -1.2229
 3496SOL     OW22123   0.292   3.673   8.852  0.0993  0.6321 -0.2770
 3496SOL    HW122124   0.359   3.739   8.870  1.9115 -1.7216  1.6984
 3496SOL    HW222125   0.334   3.594   8.887  0.9461  1.7306  1.2029
 3497SOL     OW22126   0.982   0.688   8.012 -0.1546  0.4342  0.1468
 3497SOL    HW122127   0.899   0.710   8.055 -0.1274 -1.1522  1.0046
 3497SOL    HW222128   0.999   0.760   7.952 -2.7574  1.4527  0.6346
 3498SOL     OW22129   0.892   0.758   2.053  0.3100 -0.5539 -0.7840
 3498SOL    HW122130   0.956   0.826   2.074 -0.0074 -0.7350  0.7934
 3498SOL    HW222131   0.933   0.718   1.977  1.0628 -0.1093 -0.6078
 3499SOL     OW22132   1.584   2.142  16.014 -0.2664  0.3577 -0.1851
 3499SOL    HW122133   1.585   2.238  16.015  0.2804  0.3475  0.2554
 3499SOL    HW222134   1.615   2.127  16.104  0.5802  1.1009 -0.3510
 3500SOL     OW22135   1.037   1.501  13.008  0.1394 -0.3996  0.6285
 3500SOL    HW122136   1.078   1.545  13.082 -0.4234  3.4705 -1.3657
 3500SOL    HW222137   1.011   1.424  13.058  1.3820  0.2448  2.2846
 3501SOL     OW22138   0.448   0.100   0.668  0.2247  0.7667 -0.6084
 3501SOL    HW122139   0.429   0.015   0.707  1.0649  0.6879 -0.3602
 3501SOL    HW222140   0.533   0.083   0.628  0.2471  0.6036 -0.4924
 3502SOL     OW22141   1.309   3.316   9.447 -0.0926 -0.6351  0.2586
 3502SOL    HW122142   1.382   3.372   9.419 -0.2639 -0.4464  0.1863
 3502SOL    HW222143   1.241   3.379   9.471  0.2453 -0.7704  1.6216
 3503SOL     OW22144   1.310   0.874  14.685  0.2275 -0.3343 -0.5494
 3503SOL    HW122145   1.229   0.854  14.732  0.5846  2.0648  1.1130
 3503SOL    HW222146   1.371   0.811  14.725  0.7092 -0.5640 -1.6608
 3504SOL     OW22147   3.739   4.604  10.841 -0.0393 -0.5005  0.4510
 3504SOL    HW122148   3.779   4.689  10.862  2.1945 -1.1948 -1.0417
 3504SOL    HW222149   3.666   4.623  10.782 -0.4919 -1.5635  0.6621
 3505SOL     OW22150   0.419   4.357   4.326  0.1041 -0.2121  0.0356
 3505SOL    HW122151   0.343   4.387   4.376  1.7689 -1.3448  3.2978
 3505SOL    HW222152   0.492   4.384   4.382 -0.1833  1.8661 -0.5911
 3506SOL     OW22153   1.711   0.829   1.155  0.2067  0.2970 -0.2653
 3506SOL    HW122154   1.760   0.772   1.215 -1.9177 -1.7703 -0.4744
 3506SOL    HW222155   1.630   0.779   1.167 -0.2311  0.9129 -0.6186
 3507SOL     OW22156   3.265   2.048   5.797  0.4167 -0.2095 -0.1240
 3507SOL    HW122157   3.230   2.066   5.885  3.1230  0.5854  0.7846
 3507SOL    HW222158   3.316   2.126   5.779  0.2342 -0.5877 -2.2601
 3508SOL     OW22159   3.621   0.239   4.550  0.1791 -0.4248  0.5469
 3508SOL    HW122160   3.668   0.192   4.481 -0.5090 -0.5352  0.1535
 3508SOL    HW222161   3.662   0.189   4.620  0.1007  1.1900  1.7572
 3509SOL     OW22162   0.327   1.201   6.312  0.4666 -0.1074  0.1287
 3509SOL    HW122163   0.407   1.154   6.289  1.2833  0.2890  2.1467
 3509SOL    HW222164   0.360   1.241   6.393  0.8182 -3.4549  1.6278
 3510SOL     OW22165   4.242   1.535   5.977 -0.0526  0.2794 -0.6008
 3510SOL    HW122166   4.210   1.620   6.007  0.0227  0.9710 -2.4943
 3510SOL    HW222167   4.317   1.526   6.035  0.4070  0.7632 -1.1200
 3511SOL     OW22168   2.654   1.430  11.332 -0.0227 -0.2353 -0.3802
 3511SOL    HW122169   2.745   1.445  11.305 -0.2621 -1.9165 -2.0842
 3511SOL    HW222170   2.602   1.455  11.256  1.3362  2.4373 -0.4086
 3512SOL     OW22171   3.765   1.270   3.469  0.4279 -0.1790 -0.5735
 3512SOL    HW122172   3.826   1.198   3.482 -0.2755 -0.6070  0.3382
 3512SOL    HW222173   3.788   1.329   3.541 -0.8659  1.0738 -1.1788
 3513SOL     OW22174   0.550   3.617  17.451 -0.0835 -0.1007 -0.6621
 3513SOL    HW122175   0.632   3.603  17.404  0.4486  3.7962 -0.9061
 3513SOL    HW222176   0.495   3.559  17.399 -0.6906  0.6964 -0.9129
 3514SOL     OW22177   2.047   0.440   8.767 -0.3933 -0.4580  0.0370
 3514SOL    HW122178   2.085   0.358   8.734  0.4608 -1.1927  2.9278
 3514SOL    HW222179   2.040   0.412   8.858  0.3171  1.7154  0.7460
 3515SOL     OW22180   0.680   0.100   0.458  0.7830 -0.6250  0.4968
 3515SOL    HW122181   0.748   0.161   0.431  0.5895  0.6183  2.7554
 3515SOL    HW222182   0.701   0.014   0.423 -1.2441 -1.6860  1.8226
 3516SOL     OW22183   1.285   1.160   9.763  0.4541  0.2032 -0.4081
 3516SOL    HW122184   1.379   1.145   9.756  0.7311  3.4222 -3.6392
 3516SOL    HW222185   1.245   1.087   9.716  0.8052 -0.3300  0.1331
 3517SOL     OW22186   4.369   2.621   3.388 -0.1244 -0.1440  0.1308
 3517SOL    HW122187   4.364   2.571   3.470 -0.2561 -1.0596 -0.4352
 3517SOL    HW222188   4.360   2.542   3.335  0.3082 -0.6628  0.8250
 3518SOL     OW22189   0.899   2.409  10.593  0.4173 -0.0363  1.0114
 3518SOL    HW122190   0.829   2.469  10.619  0.6252  0.4616  0.4080
 3518SOL    HW222191   0.958   2.465  10.544  0.9079 -1.1520  0.3213
 3519SOL     OW22192   2.340   1.874   8.782 -0.0296 -0.3417 -0.2302
 3519SOL    HW122193   2.388   1.793   8.767  0.1503 -0.6616  2.1008
 3519SOL    HW222194   2.295   1.884   8.697 -2.7438  2.2248  1.5153
 3520SOL     OW22195   3.400   3.683   3.767 -0.0462  0.3280  0.4215
 3520SOL    HW122196   3.382   3.605   3.818  0.0421  0.6930  1.0159
 3520SOL    HW222197   3.374   3.750   3.830 -0.9900 -0.1437  0.5160
 3521SOL     OW22198   2.417   1.828   0.266 -0.3765  0.9297 -0.2094
 3521SOL    HW122199   2.484   1.761   0.283 -0.4715  0.0396 -3.4588
 3521SOL    HW222200   2.474   1.904   0.259  2.8034 -1.3934  0.3105
 3522SOL     OW22201   0.869   0.288   8.695  0.0036 -0.5566 -0.3648
 3522SOL    HW122202   0.964   0.289   8.682 -0.0353 -0.5638 -0.6392
 3522SOL    HW222203   0.862   0.200   8.732 -0.4441 -0.0599  0.7325
 3523SOL     OW22204   2.547   0.408  17.574  0.6310 -0.0279  0.3217
 3523SOL    HW122205   2.561   0.354  17.652  1.7494  0.5064  0.4931
 3523SOL    HW222206   2.451   0.400  17.573  0.6792 -0.5950  0.3998
 3524SOL     OW22207   2.892   0.054   4.906  0.0107  0.0415  0.0106
 3524SOL    HW122208   2.910   4.706   4.862 -3.1668 -0.9014  0.5421
 3524SOL    HW222209   2.797   0.049   4.911 -0.0711 -0.9203 -2.3845
 3525SOL     OW22210   0.412   3.074   2.491  0.2501 -0.2577 -0.0090
 3525SOL    HW122211   0.405   3.059   2.397  2.0688  1.2039 -0.3736
 3525SOL    HW222212   0.426   2.987   2.528 -0.1462 -1.1570 -1.9848
 3526SOL     OW22213   4.521   0.449   3.039 -0.1738 -0.1943  0.7010
 3526SOL    HW122214   4.460   0.515   3.006 -1.2352 -2.0302 -0.9597
 3526SOL    HW222215   4.599   0.487   3.000 -0.8968  0.4144 -0.1535
 3527SOL     OW22216   1.236   3.592   4.456  0.0846  0.0759 -0.1759
 3527SOL    HW122217   1.273   3.530   4.519  0.4273 -0.2169 -0.6602
 3527SOL    HW222218   1.246   3.681   4.490  1.1393  0.5862 -1.8279
 3528SOL     OW22219   0.982   2.051  17.619 -0.0642  0.5080  0.3897
 3528SOL    HW122220   0.906   2.053  17.561  0.5089  2.0873 -0.2966
 3528SOL    HW222221   1.051   2.092  17.568 -1.4339 -0.5996 -2.3810
 3529SOL     OW22222   3.057   3.038   4.328  0.0779  0.4109  0.1476
 3529SOL    HW122223   3.039   3.096   4.254 -1.3704  1.1441  1.0798
 3529SOL    HW222224   3.036   3.090   4.405  1.4965 -2.1951  2.3078
 3530SOL     OW22225   1.258   0.842   6.783  0.3296 -0.0935  0.2755
 3530SOL    HW122226   1.209   0.817   6.704 -0.2629 -0.1670  0.6657
 3530SOL    HW222227   1.262   0.936   6.764  0.4476  0.1794  1.6576
 3531SOL     OW22228   0.446   0.378   3.807 -0.0475  0.0333  0.2334
 3531SOL    HW122229   0.449   0.473   3.794  0.9277  0.0186  0.3190
 3531SOL    HW222230   0.475   0.353   3.719  0.3264  0.0077  0.3642
 3532SOL     OW22231   2.647   3.153   5.108  0.1817  0.4304 -0.6147
 3532SOL    HW122232   2.613   3.216   5.170 -0.2392  0.8297 -1.2494
 3532SOL    HW222233   2.665   3.079   5.166  0.2910  1.1734  0.2977
 3533SOL     OW22234   0.065   3.907  12.954 -0.2773  0.4606  0.2932
 3533SOL    HW122235   0.054   3.951  12.870 -0.4819 -1.1960 -0.5415
 3533SOL    HW222236   0.082   3.985  13.006  0.1869 -0.5371  1.6367
 3534SOL     OW22237   4.288   0.454   7.651 -0.4845  0.6364 -0.0087
 3534SOL    HW122238   4.197   0.483   7.657 -1.3745 -2.5158  1.9821
 3534SOL    HW222239   4.342   0.522   7.611 -0.3763 -0.3861 -1.6248
 3535SOL     OW22240   2.086   3.611   7.752 -0.5657  0.5217  0.1459
 3535SOL    HW122241   2.053   3.539   7.806 -0.2747  0.1538 -0.1627
 3535SOL    HW222242   2.118   3.566   7.674  0.2105 -0.3287  0.9540
 3536SOL     OW22243   2.091   1.397  12.623 -0.3005 -0.0639  0.3991
 3536SOL    HW122244   2.024   1.335  12.595 -1.0870 -0.7468  3.7319
 3536SOL    HW222245   2.032   1.472  12.616  0.7228  0.4900 -2.4547
 3537SOL     OW22246   1.576   2.256  14.933 -0.0628  0.5580  0.2497
 3537SOL    HW122247   1.611   2.333  14.977  2.3183  0.0669 -0.7600
 3537SOL    HW222248   1.486   2.266  14.962  0.1704  0.9671  0.8308
 3538SOL     OW22249   0.010   3.569   5.849  0.3387  0.0387 -0.0655
 3538SOL    HW122250   0.016   3.647   5.794 -0.6195 -0.0635 -0.3128
 3538SOL    HW222251   4.659   3.583   5.888  0.1491  2.8870 -1.4828
 3539SOL     OW22252   0.464   0.940   3.843 -0.4206 -0.3492  0.0877
 3539SOL    HW122253   0.379   0.984   3.840 -0.1135  0.1543 -1.5118
 3539SOL    HW222254   0.486   0.987   3.923 -0.4521  0.8261 -0.5749
 3540SOL     OW22255   3.487   2.884  16.209 -0.3471  0.1511 -0.1139
 3540SOL    HW122256   3.414   2.837  16.251 -0.2022  1.8152  2.0042
 3540SOL    HW222257   3.442   2.945  16.151  1.8272  1.1804 -0.7063
 3541SOL     OW22258   3.338   2.242   4.318 -0.2668  0.4776 -0.3755
 3541SOL    HW122259   3.420   2.234   4.366 -1.0633 -4.3334  0.1201
 3541SOL    HW222260   3.274   2.228   4.388 -1.2920  2.8108 -0.8431
 3542SOL     OW22261   1.611   1.236   5.655 -0.4165 -0.7603  0.0421
 3542SOL    HW122262   1.590   1.257   5.746  0.7239 -1.1945  0.4162
 3542SOL    HW222263   1.623   1.324   5.621 -2.0927 -0.3987  0.3876
 3543SOL     OW22264   3.208   2.046   3.550 -0.3227 -0.8153 -0.0764
 3543SOL    HW122265   3.207   2.030   3.645  1.7860  2.7782  0.5384
 3543SOL    HW222266   3.121   2.084   3.537 -0.6340 -1.1683  0.9429
 3544SOL     OW22267   3.149   1.242   9.531  0.7649 -0.2742  0.0964
 3544SOL    HW122268   3.187   1.312   9.477  0.8188 -0.7722 -0.5084
 3544SOL    HW222269   3.156   1.281   9.619  1.4738  0.5785 -0.3395
 3545SOL     OW22270   3.656   0.096  17.016  0.6135 -0.7924 -0.5185
 3545SOL    HW122271   3.599   0.069  17.088  1.8455  0.8359  1.0765
 3545SOL    HW222272   3.612   0.169  16.973  1.5009  0.2353  0.2920
 3546SOL     OW22273   3.924   3.782  14.754  0.4209  0.4928 -0.3116
 3546SOL    HW122274   4.004   3.822  14.787 -0.2017  0.2728  1.4829
 3546SOL    HW222275   3.896   3.847  14.690  2.7345  1.2581 -0.5457
 3547SOL     OW22276   0.246   2.465   2.201 -0.3543  0.5384  0.3265
 3547SOL    HW122277   0.280   2.376   2.197  0.7631  0.9127  1.6403
 3547SOL    HW222278   0.165   2.437   2.243 -0.9208  1.5496 -0.1074
 3548SOL     OW22279   1.750   3.656   7.349 -0.2976  0.1664 -0.0494
 3548SOL    HW122280   1.699   3.583   7.313 -0.1356  0.4504 -0.8424
 3548SOL    HW222281   1.675   3.698   7.390 -1.8245 -1.8230 -0.8094
 3549SOL     OW22282   1.486   2.337   8.331 -0.8206  0.2758 -0.3176
 3549SOL    HW122283   1.488   2.246   8.362  1.3998  1.5504  3.3269
 3549SOL    HW222284   1.574   2.347   8.295  0.3013  1.2296  2.6422
 3550SOL     OW22285   2.360   1.998   8.130 -0.4372  0.6187 -0.0731
 3550SOL    HW122286   2.268   1.983   8.154 -0.8651  1.1145 -1.3675
 3550SOL    HW222287   2.361   2.041   8.045  0.0419  1.6987  0.4796
 3551SOL     OW22288   2.444   0.091   3.291 -0.1241 -0.6454  0.0890
 3551SOL    HW122289   2.488   0.141   3.223 -1.0083 -0.4913 -0.3670
 3551SOL    HW222290   2.463   0.003   3.258 -0.5134 -1.2552  1.5148
 3552SOL     OW22291   0.324   0.914   4.344 -0.4935 -0.5640 -0.1726
 3552SOL    HW122292   0.275   0.996   4.356  2.1606  0.7747  1.3792
 3552SOL    HW222293   0.265   0.856   4.295 -0.8326 -1.2195  0.9953
 3553SOL     OW22294   3.176   2.695   6.932  0.6258 -0.4899  0.4779
 3553SOL    HW122295   3.171   2.789   6.917  0.6172 -0.6100 -0.2626
 3553SOL    HW222296   3.159   2.658   6.845  0.9114 -1.0846  0.6796
 3554SOL     OW22297   3.166   2.377  12.504  0.4946 -0.3570  0.0256
 3554SOL    HW122298   3.178   2.371  12.599 -1.6783  1.3412  0.4317
 3554SOL    HW222299   3.202   2.464  12.487  3.2760 -1.2708  1.3717
 3555SOL     OW22300   1.793   0.310   8.582 -0.5336  0.2386  0.5671
 3555SOL    HW122301   1.776   0.378   8.646  0.7736 -0.1080  1.2850
 3555SOL    HW222302   1.886   0.316   8.561 -0.2905 -3.2266  0.5863
 3556SOL     OW22303   0.711   2.254   3.403 -0.2697 -0.2102 -0.5451
 3556SOL    HW122304   0.792   2.298   3.375 -1.8464  3.2234  0.2379
 3556SOL    HW222305   0.686   2.316   3.472 -1.5984 -1.0518 -0.2739
 3557SOL     OW22306   4.425   1.853  17.169 -0.2017 -0.6935  0.0934
 3557SOL    HW122307   4.390   1.896  17.090  0.3542  1.1229  0.8269
 3557SOL    HW222308   4.414   1.924  17.232 -0.8333 -3.0028  2.5628
 3558SOL     OW22309   1.565   4.563   8.917 -0.1716  0.3778  0.5079
 3558SOL    HW122310   1.574   4.658   8.929 -0.0000  0.2741  1.1985
 3558SOL    HW222311   1.652   4.547   8.953  0.0144  1.4448  0.5380
 3559SOL     OW22312   3.539   1.617   7.184 -0.8982 -0.3096  0.1009
 3559SOL    HW122313   3.627   1.580   7.183 -0.7739 -0.0033 -0.3118
 3559SOL    HW222314   3.485   1.538   7.179  1.2565 -1.7056 -1.0780
 3560SOL     OW22315   4.002   3.386   4.821 -0.1103  0.0254  0.3088
 3560SOL    HW122316   3.909   3.374   4.805 -0.1885  0.5243  0.4227
 3560SOL    HW222317   4.018   3.471   4.780  0.2590  0.4498  1.3348
 3561SOL     OW22318   1.793   0.234  13.658  0.1461  0.4479  0.0596
 3561SOL    HW122319   1.887   0.218  13.663  0.0573 -0.8464 -2.5663
 3561SOL    HW222320   1.787   0.329  13.666 -0.1473  0.4060  0.3704
 3562SOL     OW22321   2.919   4.254   8.364 -0.3559  0.0993 -0.3046
 3562SOL    HW122322   2.960   4.169   8.378  0.6826  0.4731 -1.0623
 3562SOL    HW222323   2.968   4.316   8.417 -0.5539  0.0689 -0.0833
 3563SOL     OW22324   1.748   0.289   8.139  0.4145 -0.0775 -0.0044
 3563SOL    HW122325   1.843   0.292   8.153  0.2584 -0.3851  1.1306
 3563SOL    HW222326   1.714   0.238   8.213 -1.1314  1.9593  0.6847
 3564SOL     OW22327   1.904   3.031   7.082 -0.0438  0.1959 -0.0556
 3564SOL    HW122328   1.952   3.106   7.048  2.7154 -1.1356  0.8737
 3564SOL    HW222329   1.900   3.051   7.176 -0.8869 -1.6379  0.2953
 3565SOL     OW22330   4.356   2.037   4.617  0.8561  0.0967  0.0937
 3565SOL    HW122331   4.270   2.045   4.575  0.5431  0.4777  0.8098
 3565SOL    HW222332   4.327   1.980   4.688 -2.2870 -0.1279 -1.3396
 3566SOL     OW22333   0.469   2.181  17.711  0.2793 -0.5569 -0.4770
 3566SOL    HW122334   0.534   2.118   0.003  1.8095  2.0077  1.4187
 3566SOL    HW222335   0.418   2.199   0.050  2.1676  1.3789  0.2952
 3567SOL     OW22336   3.819   3.141   5.576  0.1535 -0.6576  0.4140
 3567SOL    HW122337   3.736   3.169   5.537  0.8196 -1.5055 -1.6105
 3567SOL    HW222338   3.791   3.143   5.668 -0.0764 -1.0640  0.3580
 3568SOL     OW22339   2.936   2.589   4.429  0.0779  0.0628 -0.2216
 3568SOL    HW122340   3.007   2.548   4.380  1.7594 -0.6320  2.8126
 3568SOL    HW222341   2.906   2.649   4.360 -0.0494  0.1739 -0.0697
 3569SOL     OW22342   1.122   0.015   1.207  0.0593 -0.0780  0.2857
 3569SOL    HW122343   1.111   0.087   1.269  1.0402  0.2057  0.1310
 3569SOL    HW222344   1.095   4.674   1.258 -0.2593 -0.5651 -0.6301
 3570SOL     OW22345   1.399   0.812  14.096  0.3505 -0.2691  0.2831
 3570SOL    HW122346   1.390   0.851  14.009 -0.0246 -2.0270 -0.4776
 3570SOL    HW222347   1.362   0.874  14.158  0.1063 -0.5432  0.4116
 3571SOL     OW22348   2.266   2.993   2.673  0.1211 -0.4076  0.2356
 3571SOL    HW122349   2.274   3.003   2.578  0.9200  0.2524  0.3770
 3571SOL    HW222350   2.331   3.054   2.708 -0.3590  0.3658 -0.2313
 3572SOL     OW22351   4.615   3.022   2.117 -0.0322 -0.0708  0.3237
 3572SOL    HW122352   4.532   3.008   2.073  0.8037 -2.9312 -0.3499
 3572SOL    HW222353   4.658   3.074   2.049 -1.3085  0.5212 -0.0129
 3573SOL     OW22354   1.360   1.246   6.966  0.4322  0.7441 -0.2738
 3573SOL    HW122355   1.408   1.272   7.045 -0.6583  0.0926  0.6063
 3573SOL    HW222356   1.278   1.213   7.003  0.7338 -0.1245 -0.3937
 3574SOL     OW22357   0.940   0.698   3.827  0.1022 -0.3241 -0.4506
 3574SOL    HW122358   0.857   0.745   3.833 -0.7273 -1.8890  0.3012
 3574SOL    HW222359   0.988   0.755   3.767 -0.4906  0.4354 -0.1993
 3575SOL     OW22360   3.635   0.272   0.425  0.0949 -0.2866  0.0135
 3575SOL    HW122361   3.626   0.178   0.441 -4.6277  0.4717  1.9107
 3575SOL    HW222362   3.594   0.281   0.339 -1.9924 -0.2131  0.9963
 3576SOL     OW22363   2.038   1.243   4.405  0.4182 -0.4100  0.8448
 3576SOL    HW122364   2.113   1.183   4.413  0.9847  0.2233  0.2482
 3576SOL    HW222365   2.040   1.303   4.479 -2.2359 -0.4275  0.9134
 3577SOL     OW22366   2.846   4.253  10.776  0.4959  0.0998  0.0902
 3577SOL    HW122367   2.799   4.265  10.859 -1.0615 -2.1853 -0.4691
 3577SOL    HW222368   2.776   4.221  10.719  0.0019  1.4721 -0.0921
 3578SOL     OW22369   1.107   0.730   9.162  0.2545 -0.7592 -0.1808
 3578SOL    HW122370   1.023   0.745   9.206  0.5044  0.8746 -0.2398
 3578SOL    HW222371   1.172   0.729   9.232  0.2640  0.2790 -0.1724
 3579SOL     OW22372   1.766   2.253   7.562 -0.5603  0.5975  0.4068
 3579SOL    HW122373   1.698   2.225   7.623 -2.7814  4.3182 -0.3406
 3579SOL    HW222374   1.841   2.262   7.620  0.9133 -2.1613 -1.0906
 3580SOL     OW22375   2.897   4.432   7.240 -0.4937 -0.2541  0.2787
 3580SOL    HW122376   2.969   4.440   7.177  1.6994 -2.0658  2.5273
 3580SOL    HW222377   2.951   4.402   7.314 -0.6085  2.8976  1.6061
 3581SOL     OW22378   1.980   4.294   4.817  0.0247  0.3446  0.3834
 3581SOL    HW122379   2.010   4.209   4.850 -1.6454  0.0477  1.1138
 3581SOL    HW222380   1.888   4.298   4.843 -0.4534 -1.3471 -1.0747
 3582SOL     OW22381   0.790   4.088   2.591 -0.1034 -0.5581  0.6396
 3582SOL    HW122382   0.792   4.137   2.509 -1.9833 -0.5447  0.5912
 3582SOL    HW222383   0.844   4.146   2.645  0.6284 -1.5578  0.9834
 3583SOL     OW22384   4.306   4.660   4.611 -0.2117 -0.1481 -0.2007
 3583SOL    HW122385   4.276   4.575   4.643 -0.8340  0.8520  1.8710
 3583SOL    HW222386   4.344   4.691   4.693 -2.2804 -0.1434  0.7515
 3584SOL     OW22387   1.790   1.896  16.399 -0.3443 -0.0301 -0.5468
 3584SOL    HW122388   1.741   1.970  16.363 -2.0311 -1.4717 -1.2188
 3584SOL    HW222389   1.762   1.823  16.344  0.2717 -0.6931  0.0175
 3585SOL     OW22390   4.433   3.285   4.846  0.5244  0.5318  0.2192
 3585SOL    HW122391   4.506   3.225   4.863 -0.7428 -0.8533  0.7932
 3585SOL    HW222392   4.434   3.282   4.751  3.0964  0.1144  0.2623
 3586SOL     OW22393   0.911   0.078   4.698  0.0423 -0.5988  0.0144
 3586SOL    HW122394   0.869   0.040   4.775  0.1958  2.4836  1.6294
 3586SOL    HW222395   0.854   0.150   4.671  1.6012  0.3841 -0.6933
 3587SOL     OW22396   0.297   0.892  12.145  0.2284 -0.1399 -0.1436
 3587SOL    HW122397   0.356   0.955  12.102 -1.6767  0.6454 -1.5831
 3587SOL    HW222398   0.260   0.839  12.074  1.4909  0.1574 -1.0343
 3588SOL     OW22399   2.885   4.632   5.475  0.0018  0.2988 -0.8894
 3588SOL    HW122400   2.844   4.657   5.558  1.9306  0.6919 -0.0454
 3588SOL    HW222401   2.894   4.719   5.436 -2.1119 -0.7521 -3.6656
 3589SOL     OW22402   4.173   2.301   2.761 -0.1100 -0.0525 -0.4054
 3589SOL    HW122403   4.089   2.344   2.745  0.1511  0.6292  0.0643
 3589SOL    HW222404   4.231   2.367   2.798 -0.8866  1.2938 -1.5911
 3590SOL     OW22405   1.571   1.133   9.446  0.6792  0.2099  0.0682
 3590SOL    HW122406   1.535   1.115   9.533 -1.2358 -1.6999 -1.1068
 3590SOL    HW222407   1.647   1.180   9.479 -0.1790  0.7697  1.2677
 3591SOL     OW22408   0.097   3.603  12.250  0.3619  0.1203 -0.3685
 3591SOL    HW122409   0.125   3.647  12.330  0.2183  0.8799 -0.7382
 3591SOL    HW222410   0.178   3.598  12.199  1.2171 -2.3176  1.1977
 3592SOL     OW22411   2.859   1.250   7.540 -0.1925 -0.4978 -0.3969
 3592SOL    HW122412   2.865   1.250   7.445  0.7241 -3.1787 -0.3422
 3592SOL    HW222413   2.948   1.256   7.575  0.6281 -1.1040 -2.3770
 3593SOL     OW22414   2.334   3.306   1.846 -0.9318 -0.0182 -0.4561
 3593SOL    HW122415   2.411   3.326   1.899 -0.6633  0.1604 -0.9169
 3593SOL    HW222416   2.306   3.394   1.823  0.1034  1.3970  3.6363
 3594SOL     OW22417   1.101   0.405   1.241 -0.1117  0.3593  0.4065
 3594SOL    HW122418   1.064   0.488   1.271 -0.7682  0.5612 -0.9530
 3594SOL    HW222419   1.096   0.405   1.146 -1.7836  1.5916  0.4901
 3595SOL     OW22420   2.869   2.453   2.060 -0.1947  0.4799  0.2470
 3595SOL    HW122421   2.865   2.495   2.146  1.5663 -0.2854  0.7240
 3595SOL    HW222422   2.941   2.391   2.077 -0.5628 -0.2372 -0.7983
 3596SOL     OW22423   1.140   0.464   6.759  0.5982 -0.7633 -0.0049
 3596SOL    HW122424   1.220   0.494   6.802 -1.2482  0.4711  2.6576
 3596SOL    HW222425   1.142   0.371   6.780 -0.6423 -0.8577 -0.2950
 3597SOL     OW22426   2.276   3.455  17.488  0.2664 -0.6041  0.0275
 3597SOL    HW122427   2.331   3.497  17.554  0.0944 -1.0212  0.4377
 3597SOL    HW222428   2.334   3.457  17.412 -0.7407 -2.1887 -0.7722
 3598SOL     OW22429   0.486   2.356   1.957  0.0068 -0.2912 -0.4104
 3598SOL    HW122430   0.572   2.333   1.992  0.1176  0.7461  0.0252
 3598SOL    HW222431   0.498   2.326   1.867 -0.4449  1.4551 -1.0676
 3599SOL     OW22432   1.228   0.478  16.978 -0.2744  0.1326  0.2423
 3599SOL    HW122433   1.258   0.504  17.065 -1.4282  1.9927  0.1000
 3599SOL    HW222434   1.151   0.424  16.992 -1.7212  2.4565  1.3198
 3600SOL     OW22435   1.829   2.270  10.673 -0.0672 -0.1569 -0.4835
 3600SOL    HW122436   1.799   2.349  10.719 -1.1739  0.1018 -1.6554
 3600SOL    HW222437   1.746   2.223  10.662  0.8998 -1.5353 -1.8763
 3601SOL     OW22438   0.670   0.694   9.043 -0.0458  0.0055  0.1254
 3601SOL    HW122439   0.643   0.602   9.039 -0.0695  0.0371 -0.6003
 3601SOL    HW222440   0.728   0.704   8.967  0.6213 -2.2753  0.3334
 3602SOL     OW22441   3.157   2.339   2.379  0.2695  0.1980 -0.2569
 3602SOL    HW122442   3.168   2.394   2.302 -0.5278 -0.4702 -0.8459
 3602SOL    HW222443   3.063   2.342   2.395  0.2398 -2.4917  0.1003
 3603SOL     OW22444   0.524   1.960  17.140 -0.3858  0.0519 -0.0821
 3603SOL    HW122445   0.589   1.915  17.195 -1.5366 -1.3837  0.0962
 3603SOL    HW222446   0.454   1.966  17.205 -1.2391 -0.2977 -0.9762
 3604SOL     OW22447   3.491   0.151   7.611  0.2866 -0.2729  0.5397
 3604SOL    HW122448   3.527   0.239   7.614  0.7560 -0.5822  4.7417
 3604SOL    HW222449   3.452   0.163   7.525 -0.5333 -0.7298  0.8446
 3605SOL     OW22450   0.098   1.208  14.994 -0.4389 -0.0209 -0.0012
 3605SOL    HW122451   0.156   1.229  15.067 -0.1032  1.2782 -0.6441
 3605SOL    HW222452   0.021   1.262  15.015 -1.1073 -0.7306 -0.6007
 3606SOL     OW22453   4.526   2.553   1.883 -0.2112  0.0037 -0.3879
 3606SOL    HW122454   4.515   2.519   1.972 -2.1447 -1.1795 -1.0735
 3606SOL    HW222455   4.612   2.517   1.860 -0.6816 -0.5821 -1.2476
 3607SOL     OW22456   1.716   0.973   8.196 -0.1142 -0.2156 -0.3340
 3607SOL    HW122457   1.760   1.058   8.195  0.0991 -0.3063  1.2174
 3607SOL    HW222458   1.790   0.925   8.161 -0.4588  1.7732 -3.7732
 3608SOL     OW22459   0.969   2.668   5.014 -0.2635  0.7024  0.0526
 3608SOL    HW122460   0.920   2.588   5.034 -3.3989  3.1805  2.1065
 3608SOL    HW222461   1.024   2.644   4.939 -0.9263  0.9307 -0.5073
 3609SOL     OW22462   2.170   4.235   1.158 -0.5141  0.2526  0.3186
 3609SOL    HW122463   2.117   4.240   1.238 -0.3859 -0.4753  0.4462
 3609SOL    HW222464   2.177   4.324   1.124 -1.8166  0.0975 -0.3451
 3610SOL     OW22465   3.888   2.396  13.283  0.3635  0.3495 -0.0372
 3610SOL    HW122466   3.913   2.488  13.268 -1.7608  0.9028 -0.1621
 3610SOL    HW222467   3.889   2.359  13.195  1.3065  3.2877 -1.2914
 3611SOL     OW22468   3.794   3.375   4.064 -0.3561 -0.3861  0.5747
 3611SOL    HW122469   3.850   3.449   4.089  0.1372 -1.4299  2.5649
 3611SOL    HW222470   3.744   3.435   4.009 -0.2872  0.5271  1.5047
 3612SOL     OW22471   2.924   1.201   1.764  0.4006 -0.0168  0.2459
 3612SOL    HW122472   2.950   1.170   1.851  0.6084 -0.5114  0.0066
 3612SOL    HW222473   2.935   1.133   1.698 -0.9540 -0.6051  0.6173
 3613SOL     OW22474   0.538   2.125  10.457 -0.1790  0.2866  0.2461
 3613SOL    HW122475   0.474   2.171  10.402  1.6752  1.8200 -0.6246
 3613SOL    HW222476   0.506   2.035  10.450 -1.1909  0.6321  0.5089
 3614SOL     OW22477   4.231   1.557  10.836  1.0830 -0.4873  0.5772
 3614SOL    HW122478   4.146   1.550  10.793  0.6315  2.7988  0.9003
 3614SOL    HW222479   4.280   1.485  10.798  1.3644  0.5907 -1.1027
 3615SOL     OW22480   2.367   2.327   2.600  0.0533 -0.4956  0.3255
 3615SOL    HW122481   2.300   2.305   2.665 -0.2224  1.6955  0.7830
 3615SOL    HW222482   2.422   2.389   2.648  1.8529  0.1754 -2.6300
 3616SOL     OW22483   0.362   1.327   7.563 -0.3145 -0.4137 -0.3654
 3616SOL    HW122484   0.292   1.357   7.505 -0.7202 -2.0817 -0.7384
 3616SOL    HW222485   0.409   1.410   7.566 -0.5085 -0.3265  0.2091
 3617SOL     OW22486   0.033   1.304  15.254  0.6643  0.3071 -0.1647
 3617SOL    HW122487   0.039   1.386  15.302 -0.7448  1.4318 -1.9155
 3617SOL    HW222488   0.081   1.245  15.312  1.0020 -0.9494 -1.7063
 3618SOL     OW22489   1.595   4.499   3.790 -0.0395  0.3485  0.0452
 3618SOL    HW122490   1.682   4.483   3.826 -0.8754  0.0507  1.9671
 3618SOL    HW222491   1.540   4.439   3.841 -0.1959  2.8902  2.8975
 3619SOL     OW22492   0.632   1.802   5.000 -0.0647 -0.5298 -0.6181
 3619SOL    HW122493   0.540   1.788   5.022  0.2170 -0.2193  0.7737
 3619SOL    HW222494   0.648   1.733   4.936  3.1857 -0.7515  0.4532
 3620SOL     OW22495   1.900   0.985   6.644 -0.1507 -0.1901  0.6833
 3620SOL    HW122496   1.837   1.057   6.647 -0.2356 -0.3242  2.1139
 3620SOL    HW222497   1.974   1.025   6.689  1.4805 -0.5324 -1.7157
 3621SOL     OW22498   4.191   1.028   7.205  0.0579  0.5307  0.6003
 3621SOL    HW122499   4.285   1.022   7.188 -0.1125  1.1151 -0.5331
 3621SOL    HW222500   4.155   1.059   7.122 -0.1001  0.5430  0.6735
 3622SOL     OW22501   3.698   2.021   8.948  0.5360  0.7255  0.1981
 3622SOL    HW122502   3.678   1.973   9.028  0.7287  1.0292  0.4271
 3622SOL    HW222503   3.767   2.083   8.971  0.1932  0.3969  2.0856
 3623SOL     OW22504   2.730   1.367   1.508 -0.1095  0.4374  0.2989
 3623SOL    HW122505   2.735   1.277   1.541  0.2577  0.5907  0.6552
 3623SOL    HW222506   2.821   1.394   1.516  0.0725  0.2273 -1.1135
 3624SOL     OW22507   1.857   0.470   3.317  0.0898  0.3878 -0.1171
 3624SOL    HW122508   1.774   0.422   3.311  1.0547 -0.9195 -2.8006
 3624SOL    HW222509   1.869   0.475   3.223  1.8007 -1.6086  0.0020
 3625SOL     OW22510   1.080   2.980   0.939  0.3387 -0.0752  0.5487
 3625SOL    HW122511   1.050   3.042   1.006  0.3372 -1.0248  1.4239
 3625SOL    HW222512   1.137   2.924   0.991  0.0707 -0.5264  0.3513
 3626SOL     OW22513   1.454   1.021   8.245 -0.4777 -0.3103  0.4622
 3626SOL    HW122514   1.487   1.057   8.327  0.6071 -0.5115  0.1141
 3626SOL    HW222515   1.532   0.990   8.199  0.1642  0.8265  0.7838
 3627SOL     OW22516   2.153   3.904   4.339  0.0110  0.2981  0.3655
 3627SOL    HW122517   2.204   3.958   4.400  2.1506 -2.5782  1.1107
 3627SOL    HW222518   2.138   3.823   4.389 -0.5305 -0.7423 -1.5032
 3628SOL     OW22519   2.987   0.687  17.638  0.4541 -0.6032 -0.2275
 3628SOL    HW122520   2.940   0.753  17.689  0.4699 -0.2221 -0.7110
 3628SOL    HW222521   3.052   0.744  17.596 -0.1853 -0.8415 -1.5289
 3629SOL     OW22522   0.803   1.129   0.278  0.0899 -0.0137 -0.3498
 3629SOL    HW122523   0.798   1.047   0.229  2.4567 -1.3519  1.6606
 3629SOL    HW222524   0.873   1.105   0.338  0.2679  2.7517  0.5638
 3630SOL     OW22525   2.245   2.288   5.386 -0.2940 -0.1000 -0.5122
 3630SOL    HW122526   2.202   2.373   5.392 -0.0277 -0.0119  0.1590
 3630SOL    HW222527   2.289   2.297   5.301 -0.1690  1.7325 -0.2456
 3631SOL     OW22528   1.582   0.543  11.260  0.0397  0.1326 -0.0600
 3631SOL    HW122529   1.521   0.608  11.295  2.7108  1.4175  2.1883
 3631SOL    HW222530   1.577   0.583  11.173  1.5468 -2.4783 -1.3323
 3632SOL     OW22531   2.496   0.345   3.584  0.2967 -0.4911  1.0629
 3632SOL    HW122532   2.498   0.440   3.582  0.7208 -0.5098  0.6134
 3632SOL    HW222533   2.487   0.312   3.494 -1.3771  0.2641  0.9534
 3633SOL     OW22534   0.323   3.478   1.251  0.3504 -0.1670  0.2264
 3633SOL    HW122535   0.318   3.450   1.160  2.4690 -2.8661  0.9248
 3633SOL    HW222536   0.281   3.563   1.237  1.7356  0.5550  0.3564
 3634SOL     OW22537   0.964   2.115  11.058  0.0874 -0.0927  0.2705
 3634SOL    HW122538   0.999   2.168  11.130 -1.3172 -0.0918  0.9486
 3634SOL    HW222539   0.944   2.190  11.002 -0.9060 -1.4396 -1.1989
 3635SOL     OW22540   2.750   2.728   8.974 -0.0794  0.1987 -0.0436
 3635SOL    HW122541   2.666   2.740   9.017  0.2255  1.7054  0.1210
 3635SOL    HW222542   2.789   2.815   8.981  1.6129 -0.3765 -2.0075
 3636SOL     OW22543   4.505   0.559   5.101 -0.4964 -0.1905 -0.8418
 3636SOL    HW122544   4.490   0.515   5.185  0.2729  1.6551  0.2669
 3636SOL    HW222545   4.567   0.625   5.133 -0.9685  1.8616 -4.1288
 3637SOL     OW22546   0.149   4.352   4.478 -0.1861 -0.3219 -0.2873
 3637SOL    HW122547   0.216   4.393   4.533 -0.1409 -1.2285  0.3526
 3637SOL    HW222548   0.074   4.353   4.538  1.9279 -2.5668  2.3920
 3638SOL     OW22549   4.167   2.346  13.139 -0.3178  0.0382 -0.4628
 3638SOL    HW122550   4.162   2.260  13.181  0.2841  1.3264  2.2593
 3638SOL    HW222551   4.178   2.317  13.048  1.0410  0.7734 -0.5236
 3639SOL     OW22552   1.020   2.275   5.026 -0.3258  0.0828 -0.4047
 3639SOL    HW122553   0.951   2.341   5.034 -2.0364 -1.5962 -1.1867
 3639SOL    HW222554   1.076   2.304   5.098 -0.4437 -2.5628  0.7584
 3640SOL     OW22555   3.548   4.670   7.105 -0.0549 -0.0926  0.7421
 3640SOL    HW122556   3.621   4.612   7.085 -0.3231 -0.4049  0.6617
 3640SOL    HW222557   3.604   0.004   7.140  0.1880  0.5315 -0.8587
 3641SOL     OW22558   1.865   2.570   9.120 -0.2316  0.2816 -0.3773
 3641SOL    HW122559   1.775   2.555   9.150 -0.3397  0.0249 -0.8256
 3641SOL    HW222560   1.917   2.564   9.199  1.4539 -1.0488 -1.5759
 3642SOL     OW22561   2.126   0.135   3.220  0.0108 -0.3744 -0.2453
 3642SOL    HW122562   2.126   0.140   3.315 -2.2237 -0.9514 -0.2020
 3642SOL    HW222563   2.204   0.081   3.209  0.5072  0.5156 -1.1497
 3643SOL     OW22564   3.449   4.300   4.803 -0.0432 -0.1223  0.2775
 3643SOL    HW122565   3.437   4.267   4.714  0.2090  1.1046 -0.2125
 3643SOL    HW222566   3.364   4.341   4.821 -1.0626 -2.4229  0.7457
 3644SOL     OW22567   1.941   2.126   6.091 -0.1409  0.7073  0.4785
 3644SOL    HW122568   2.023   2.100   6.049 -1.5105 -1.3821 -0.8987
 3644SOL    HW222569   1.924   2.046   6.140 -2.1434 -0.3347 -1.9100
 3645SOL     OW22570   0.823   3.163   1.974 -0.1997  0.0480  0.0989
 3645SOL    HW122571   0.911   3.140   1.942 -0.2010 -0.8951  0.7894
 3645SOL    HW222572   0.842   3.160   2.067 -0.2880  0.1681  0.1209
 3646SOL     OW22573   3.460   0.685   4.682  0.1326 -0.4182  0.0495
 3646SOL    HW122574   3.546   0.695   4.723 -0.7595  2.0402  1.3792
 3646SOL    HW222575   3.411   0.742   4.741  0.4488  0.6316 -0.6993
 3647SOL     OW22576   0.034   3.288  14.792  0.4211 -0.6203  0.6743
 3647SOL    HW122577   4.702   3.305  14.858  1.4306  0.3672  1.4518
 3647SOL    HW222578   4.713   3.273  14.716  0.8581  0.3933  0.1510
 3648SOL     OW22579   2.647   0.493   5.417  0.2082  0.2768  0.1686
 3648SOL    HW122580   2.609   0.421   5.468 -0.1906 -0.0448 -0.5879
 3648SOL    HW222581   2.718   0.517   5.476 -0.7435  0.9513  1.0444
 3649SOL     OW22582   2.741   1.219  11.833  0.3957 -0.5973 -0.0166
 3649SOL    HW122583   2.741   1.154  11.763 -0.7132  1.2997 -1.7657
 3649SOL    HW222584   2.813   1.271  11.797  1.4922 -1.0737  1.4985
 3650SOL     OW22585   4.270   3.102  12.892 -0.3172  0.1414  0.5993
 3650SOL    HW122586   4.203   3.170  12.903 -1.7830 -1.1115 -0.5262
 3650SOL    HW222587   4.301   3.139  12.809 -0.4291 -1.0332  0.0384
 3651SOL     OW22588   4.727   2.811   8.392  0.1398 -0.0886  0.6080
 3651SOL    HW122589   4.689   2.896   8.414  0.5724 -0.3492  2.3838
 3651SOL    HW222590   0.082   2.836   8.375 -0.1504  0.2188 -0.5027
 3652SOL     OW22591   0.088   3.594   5.072 -0.0376 -0.1111  0.0180
 3652SOL    HW122592   4.728   3.605   5.075 -0.0441 -0.0630 -0.3547
 3652SOL    HW222593   0.106   3.642   5.152 -1.1034  1.4172 -0.6505
 3653SOL     OW22594   2.911   1.536   7.391 -0.0404 -0.1158  0.2802
 3653SOL    HW122595   2.890   1.582   7.310  1.7273 -0.9639 -0.6667
 3653SOL    HW222596   2.876   1.448   7.377 -1.3185  0.8025 -2.2998
 3654SOL     OW22597   0.316   3.033  15.743  0.0410  0.3094  0.1472
 3654SOL    HW122598   0.362   3.109  15.707 -1.1706 -0.2814 -2.6913
 3654SOL    HW222599   0.248   3.040  15.676 -0.2845 -1.7316  0.2614
 3655SOL     OW22600   1.989   2.917   2.007  0.1260 -0.1143 -0.3770
 3655SOL    HW122601   2.054   2.882   1.946 -0.0165  1.4822 -1.4456
 3655SOL    HW222602   1.925   2.957   1.948  1.5281  0.7309 -1.3275
 3656SOL     OW22603   0.103   3.305   8.124  0.2907  0.3145 -0.1431
 3656SOL    HW122604   0.190   3.328   8.156  1.1745 -2.8243 -0.2863
 3656SOL    HW222605   0.114   3.211   8.114 -0.4588  0.1541  0.5376
 3657SOL     OW22606   4.023   1.559  12.409  0.5751  0.5968 -0.4295
 3657SOL    HW122607   4.115   1.578  12.424  0.5586  0.1390  0.2862
 3657SOL    HW222608   4.029   1.489  12.344 -0.2799 -0.2676  0.4167
 3658SOL     OW22609   0.001   0.170   1.657  0.1237 -0.5556 -0.2560
 3658SOL    HW122610   0.096   0.176   1.650  0.0990 -0.6639 -0.6842
 3658SOL    HW222611   4.722   0.127   1.741 -0.6271 -1.7835 -1.0110
 3659SOL     OW22612   1.074   4.160   5.072 -0.4648 -0.1795 -0.0880
 3659SOL    HW122613   1.086   4.222   5.000 -2.0921  0.3445  0.0917
 3659SOL    HW222614   1.159   4.176   5.113 -0.2935 -0.2004 -0.4264
 3660SOL     OW22615   1.557   2.381   6.581  0.2168  0.2502  0.9273
 3660SOL    HW122616   1.644   2.416   6.567  0.4974 -0.5756  0.5804
 3660SOL    HW222617   1.577   2.340   6.666  1.4423  1.4990  1.2309
 3661SOL     OW22618   0.338   4.629  13.132 -0.1925 -0.0152 -0.1228
 3661SOL    HW122619   0.257   4.613  13.084 -0.6134 -0.1816  0.6403
 3661SOL    HW222620   0.370   4.705  13.084  2.1602 -0.3591  0.9154
 3662SOL     OW22621   1.859   4.473   0.507 -0.1001  0.3435  0.2627
 3662SOL    HW122622   1.952   4.456   0.496 -0.8413 -3.3789 -0.4747
 3662SOL    HW222623   1.828   4.420   0.580 -0.5794 -0.2894 -0.3962
 3663SOL     OW22624   2.637   0.804   2.362 -0.0884 -0.4938 -0.0235
 3663SOL    HW122625   2.611   0.896   2.361 -0.2593 -0.5438 -0.2191
 3663SOL    HW222626   2.728   0.824   2.340 -0.8644  1.5146 -1.3612
 3664SOL     OW22627   3.489   2.676   4.994  0.3322  0.4655  0.3415
 3664SOL    HW122628   3.408   2.701   4.949 -0.4234 -0.8541  0.9562
 3664SOL    HW222629   3.512   2.600   4.940 -1.9062 -0.9140  1.3178
 3665SOL     OW22630   0.502   0.484   1.674 -0.3283 -0.3123 -0.0284
 3665SOL    HW122631   0.551   0.544   1.730 -0.4427 -1.4991  1.3595
 3665SOL    HW222632   0.513   0.404   1.726 -0.5207  0.4906  1.2493
 3666SOL     OW22633   1.865   1.472  10.128  0.6751 -0.0596  0.1543
 3666SOL    HW122634   1.939   1.526  10.099 -1.1439  1.3775 -1.9189
 3666SOL    HW222635   1.791   1.526  10.098 -0.8923 -0.6550  2.9539
 3667SOL     OW22636   1.948   1.042   9.080  0.7885  0.1904 -0.8453
 3667SOL    HW122637   1.892   1.066   9.006 -0.8550 -1.6022 -0.1883
 3667SOL    HW222638   1.900   1.076   9.155 -1.6072 -1.9416 -1.3821
 3668SOL     OW22639   0.373   2.233   7.050 -0.3217 -0.4560 -0.4691
 3668SOL    HW122640   0.299   2.174   7.065  0.1833 -1.1636 -0.7860
 3668SOL    HW222641   0.340   2.306   7.102 -2.1493 -2.1702  0.8021
 3669SOL     OW22642   2.536   2.864   9.063 -0.3441 -0.0242 -0.1471
 3669SOL    HW122643   2.525   2.943   9.010  1.3557  0.4306  0.1925
 3669SOL    HW222644   2.456   2.872   9.117  0.2740  2.5458  0.3891
 3670SOL     OW22645   3.182   2.384  17.206  0.2029 -0.1469  0.1419
 3670SOL    HW122646   3.180   2.295  17.171 -3.0946 -0.0535  0.1103
 3670SOL    HW222647   3.273   2.411  17.213 -0.4804  2.5850 -1.5498
 3671SOL     OW22648   3.825   2.028   2.210  0.1692  0.1629 -0.3331
 3671SOL    HW122649   3.854   2.033   2.301 -0.2763 -0.1848 -0.1739
 3671SOL    HW222650   3.769   2.104   2.196  1.6178  1.0523 -1.2950
 3672SOL     OW22651   2.937   2.654   2.390  0.1254 -0.0025 -0.1596
 3672SOL    HW122652   3.027   2.657   2.423 -0.8195 -0.0770  2.4005
 3672SOL    HW222653   2.918   2.561   2.403  0.5626 -0.2546 -1.3297
 3673SOL     OW22654   1.107   1.041  10.151  0.5316 -0.0672  0.3597
 3673SOL    HW122655   1.118   1.083  10.236 -1.1675 -0.3566  0.7096
 3673SOL    HW222656   1.028   0.987  10.159  1.0109 -0.9171 -0.6180
 3674SOL     OW22657   2.155   0.975   1.150  0.3124 -0.4566 -0.2857
 3674SOL    HW122658   2.137   0.927   1.231  0.8891 -1.3687 -0.7056
 3674SOL    HW222659   2.248   0.997   1.155 -0.0860  0.8352  1.4845
 3675SOL     OW22660   0.372   3.052  14.539 -0.7925  0.1246 -0.1318
 3675SOL    HW122661   0.424   3.086  14.612 -0.8747  2.0933 -1.0022
 3675SOL    HW222662   0.430   3.057  14.464  0.2673 -1.0078  0.6061
 3676SOL     OW22663   4.634   3.412  11.974  0.4547  0.1421  0.2550
 3676SOL    HW122664   4.613   3.347  11.907  1.5847  0.6034 -0.5404
 3676SOL    HW222665   4.550   3.458  11.968  0.6908  0.5808  0.3476
 3677SOL     OW22666   1.634   2.201   1.411  0.1525  0.6977 -0.3034
 3677SOL    HW122667   1.705   2.141   1.388  0.4958  1.3591 -0.9758
 3677SOL    HW222668   1.570   2.145   1.455  0.1109  2.3230  1.7040
 3678SOL     OW22669   0.330   2.466  14.469  0.3314 -0.0454  0.5155
 3678SOL    HW122670   0.255   2.502  14.422 -0.4367 -1.2577  0.8356
 3678SOL    HW222671   0.371   2.418  14.397  0.1382  2.4784 -1.2805
 3679SOL     OW22672   3.488   2.124   7.144  0.0144  0.4049  0.1962
 3679SOL    HW122673   3.455   2.038   7.173  1.1836 -0.0544  0.1401
 3679SOL    HW222674   3.499   2.103   7.051 -0.4008  1.7266 -0.1494
 3680SOL     OW22675   0.914   3.704   2.013  0.3608  0.2790  0.1178
 3680SOL    HW122676   0.837   3.760   2.019  0.8359  1.1062 -1.2607
 3680SOL    HW222677   0.904   3.647   2.088  0.5037  0.4210  0.2449
 3681SOL     OW22678   3.928   4.725   4.873 -0.1398  0.5053  0.1689
 3681SOL    HW122679   3.971   4.731   4.958 -0.4161 -0.2442  0.3658
 3681SOL    HW222680   3.969   4.649   4.831  1.4484  0.4832  1.8035
 3682SOL     OW22681   4.397   3.349   1.946 -0.4058 -0.1159  0.3091
 3682SOL    HW122682   4.490   3.371   1.945 -0.8959  1.9597  0.5665
 3682SOL    HW222683   4.396   3.261   1.907 -1.0020  0.5957 -1.2821
 3683SOL     OW22684   0.343   0.152   9.541  0.4067  0.1133 -0.0253
 3683SOL    HW122685   0.306   0.201   9.467  1.3034  1.0264  0.1288
 3683SOL    HW222686   0.420   0.112   9.501 -0.1257 -0.4051 -0.5344
 3684SOL     OW22687   1.976   1.306   6.507 -0.1766 -0.4761 -0.6961
 3684SOL    HW122688   2.025   1.231   6.540 -0.5805  0.2992  1.7378
 3684SOL    HW222689   1.925   1.330   6.585 -0.5908  0.0291 -1.1222
 3685SOL     OW22690   4.642   4.652  15.279 -0.2162  0.3390  0.1948
 3685SOL    HW122691   4.735   4.661  15.301  0.0322 -2.5517  0.3022
 3685SOL    HW222692   4.649   4.623  15.188 -0.7640 -1.4574  0.7391
 3686SOL     OW22693   2.533   0.961   3.615 -1.2561  0.1304  0.4796
 3686SOL    HW122694   2.493   1.048   3.610 -2.8567 -0.5915  0.5581
 3686SOL    HW222695   2.517   0.926   3.527 -1.3206  0.4321  0.3711
 3687SOL     OW22696   3.701   2.073  12.271  0.2308 -0.3790 -0.2764
 3687SOL    HW122697   3.715   2.057  12.365 -0.5659 -1.7014 -0.3920
 3687SOL    HW222698   3.665   1.986  12.254 -0.0159 -0.3804  0.2570
 3688SOL     OW22699   0.644   0.452   7.147 -0.8040  0.3934  0.3172
 3688SOL    HW122700   0.598   0.369   7.158  0.7591 -0.5909 -0.5343
 3688SOL    HW222701   0.732   0.422   7.123 -0.7280 -0.3414  1.4965
 3689SOL     OW22702   4.584   0.979   3.585  0.3495  0.2299 -0.1760
 3689SOL    HW122703   4.618   1.068   3.573 -0.5022  0.8481  2.1167
 3689SOL    HW222704   4.611   0.955   3.673  0.0550 -2.5209 -0.8426
 3690SOL     OW22705   1.367   2.916   5.090  0.6262 -0.0952 -0.1027
 3690SOL    HW122706   1.383   2.864   5.168  0.2832  2.4734  1.6602
 3690SOL    HW222707   1.345   3.008   5.109 -1.3229 -0.6321  0.2121
 3691SOL     OW22708   2.050   3.339   6.700  0.5811 -0.0586 -0.1890
 3691SOL    HW122709   2.096   3.257   6.683 -0.3181 -0.1004 -2.3454
 3691SOL    HW222710   1.988   3.350   6.628 -1.5112 -0.5859  1.5207
 3692SOL     OW22711   0.625   2.741  17.021 -0.2187 -0.1755  0.4234
 3692SOL    HW122712   0.682   2.686  16.967  0.2251  0.0278  0.6849
 3692SOL    HW222713   0.634   2.825  16.975 -0.9968 -0.2656  0.1181
 3693SOL     OW22714   2.887   3.910  13.828  0.0877 -0.0519 -0.9679
 3693SOL    HW122715   2.921   3.869  13.907 -0.9059 -1.7321 -1.3876
 3693SOL    HW222716   2.794   3.900  13.851  0.2620 -0.1953 -0.3488
 3694SOL     OW22717   2.111   3.812   2.193  0.2295  0.2394  0.3050
 3694SOL    HW122718   2.133   3.727   2.153 -0.7247  0.3153 -0.3925
 3694SOL    HW222719   2.030   3.791   2.239  1.4592 -2.7970  1.1398
 3695SOL     OW22720   2.140   1.567   6.192 -0.2480  0.2234 -0.6231
 3695SOL    HW122721   2.212   1.629   6.200 -0.6573  0.6446 -0.2142
 3695SOL    HW222722   2.071   1.629   6.169  2.0588  2.6122 -0.9618
 3696SOL     OW22723   2.960   2.160   9.061 -0.1983 -0.3507 -0.0775
 3696SOL    HW122724   3.019   2.147   9.135 -2.1090  1.4295  1.7427
 3696SOL    HW222725   3.001   2.228   9.008  1.0601  0.1804  1.5963
 3697SOL     OW22726   3.283   3.416   0.567 -0.1267  0.1262  0.6134
 3697SOL    HW122727   3.248   3.452   0.649 -0.4667  2.6360 -0.6359
 3697SOL    HW222728   3.332   3.337   0.592  2.6704  1.6153 -0.1242
 3698SOL     OW22729   2.871   2.965  10.647  0.2562 -0.6785 -0.0133
 3698SOL    HW122730   2.850   3.011  10.728 -0.6387  1.2644 -1.3582
 3698SOL    HW222731   2.952   2.921  10.674  0.0173 -0.4645  1.0543
 3699SOL     OW22732   3.793   1.620   3.877  0.2668  0.0443 -0.0565
 3699SOL    HW122733   3.770   1.712   3.891 -1.0093 -0.3211  0.2097
 3699SOL    HW222734   3.710   1.584   3.847  0.4859 -1.0289  0.6114
 3700SOL     OW22735   1.689   3.202   1.960 -0.0324 -0.0942  0.5114
 3700SOL    HW122736   1.620   3.266   1.942 -0.9305 -1.5690 -1.2862
 3700SOL    HW222737   1.669   3.182   2.051 -0.1323  0.8662  0.6957
 3701SOL     OW22738   1.634   1.773  17.233  0.0845  0.2259 -0.4727
 3701SOL    HW122739   1.565   1.807  17.176  0.3466 -0.5511 -1.2328
 3701SOL    HW222740   1.705   1.820  17.190 -0.7844  1.3774 -0.6634
 3702SOL     OW22741   3.302   4.104   4.296  0.2033 -0.3170  0.3781
 3702SOL    HW122742   3.240   4.129   4.227  0.0861 -2.0694 -0.1484
 3702SOL    HW222743   3.387   4.108   4.252 -0.5596 -1.0835 -1.1739
 3703SOL     OW22744   3.039   2.353   5.623 -0.4956 -0.3552  0.2237
 3703SOL    HW122745   3.045   2.279   5.683  2.3113 -0.7458 -0.5412
 3703SOL    HW222746   3.112   2.331   5.565 -0.0864  1.8554 -0.1043
 3704SOL     OW22747   1.591   3.528   8.186 -0.6495  0.0734  0.4082
 3704SOL    HW122748   1.509   3.568   8.214  1.1006  1.9175  2.9095
 3704SOL    HW222749   1.601   3.568   8.099  0.7136 -1.6959 -0.2375
 3705SOL     OW22750   0.073   0.796   5.473 -0.8368 -0.2254  0.2707
 3705SOL    HW122751   0.148   0.852   5.492 -0.6749 -0.3620  0.0418
 3705SOL    HW222752   0.013   0.832   5.538  1.2537  2.3132  0.8118
 3706SOL     OW22753   2.906   3.607  13.456  0.0318  0.2325  0.4583
 3706SOL    HW122754   2.928   3.668  13.526  1.5932 -0.0855  0.2495
 3706SOL    HW222755   2.951   3.633  13.375  0.6203 -1.4242  0.2602
 3707SOL     OW22756   1.617   0.496   3.534 -0.3004  0.1577  0.5578
 3707SOL    HW122757   1.600   0.585   3.502  1.9111  0.4255  0.0884
 3707SOL    HW222758   1.618   0.446   3.453 -0.5399  0.3308  0.4475
 3708SOL     OW22759   4.180   1.698   5.456 -0.4438  0.3297  0.3709
 3708SOL    HW122760   4.216   1.635   5.394 -1.0778  0.1222  0.2120
 3708SOL    HW222761   4.165   1.769   5.394  4.3608  0.7140 -0.3755
 3709SOL     OW22762   1.329   4.520   2.402 -0.2652 -0.1590  0.2144
 3709SOL    HW122763   1.357   4.436   2.365  0.8497 -0.7330  2.3668
 3709SOL    HW222764   1.412   4.558   2.432 -0.1243 -0.4814  0.2342
 3710SOL     OW22765   1.824   3.194  17.321  0.3360 -0.2675  0.5460
 3710SOL    HW122766   1.791   3.195  17.411 -0.8170 -3.1586  0.1541
 3710SOL    HW222767   1.900   3.252  17.328  0.2704 -0.3730  2.2391
 3711SOL     OW22768   2.108   1.068   4.705 -0.5673 -0.1989  0.2553
 3711SOL    HW122769   2.158   1.047   4.627 -0.5093 -0.6217  0.4076
 3711SOL    HW222770   2.171   1.121   4.754 -1.9082  0.4249  1.3137
 3712SOL     OW22771   3.772   1.388   4.575 -0.1677  0.0175  0.2870
 3712SOL    HW122772   3.679   1.368   4.573 -0.0929 -0.4087  1.3752
 3712SOL    HW222773   3.769   1.483   4.579 -0.6117 -0.1061  2.9720
 3713SOL     OW22774   2.194   3.642   5.547 -0.0177  0.1072 -0.4556
 3713SOL    HW122775   2.177   3.576   5.614  1.9846  0.2535  0.1851
 3713SOL    HW222776   2.259   3.690   5.598  1.5951 -2.8780  0.3082
 3714SOL     OW22777   1.692   2.794   6.546 -0.3647 -0.1610 -0.9074
 3714SOL    HW122778   1.727   2.868   6.595 -1.0094 -0.0532 -0.6119
 3714SOL    HW222779   1.612   2.835   6.513 -0.8022  0.8274  1.3938
 3715SOL     OW22780   0.240   0.618   3.298  0.2187 -0.2997 -0.3459
 3715SOL    HW122781   0.268   0.676   3.227 -0.0132  2.0962  1.5353
 3715SOL    HW222782   0.197   0.552   3.243 -0.9101  1.7071 -1.8790
 3716SOL     OW22783   2.301   4.387   9.926 -0.8167  0.2851  0.9084
 3716SOL    HW122784   2.341   4.473   9.917 -0.5813  0.3276  2.4384
 3716SOL    HW222785   2.263   4.386  10.013 -0.5333 -0.5275  1.0248
 3717SOL     OW22786   3.583   2.078   9.278  0.0823  0.4355  0.0425
 3717SOL    HW122787   3.515   2.122   9.228 -0.1216 -0.9725 -0.9175
 3717SOL    HW222788   3.570   2.120   9.363 -0.6390 -1.8266  1.0761
 3718SOL     OW22789   3.062   2.250   9.901 -0.4203  0.5345  0.6257
 3718SOL    HW122790   3.044   2.160   9.873  1.7694 -0.7295  3.2729
 3718SOL    HW222791   2.996   2.300   9.853  0.2056 -2.0100 -2.8776
 3719SOL     OW22792   0.710   3.445  11.517  0.6290  0.4755 -0.4156
 3719SOL    HW122793   0.640   3.433  11.453  0.0067 -0.0509  0.3559
 3719SOL    HW222794   0.728   3.353  11.537 -0.5775  0.4503  0.5919
 3720SOL     OW22795   2.943   0.657   2.202  0.2535 -0.2173  0.1350
 3720SOL    HW122796   2.924   0.728   2.264  0.9146  0.2722 -0.2212
 3720SOL    HW222797   2.982   0.715   2.137  1.0297  1.4570  2.0773
 3721SOL     OW22798   1.939   1.930   3.899  0.3345  0.7538  0.1794
 3721SOL    HW122799   1.990   1.875   3.958 -2.0071  0.4207  1.9015
 3721SOL    HW222800   1.997   2.006   3.897  2.0328 -0.5744 -0.9294
 3722SOL     OW22801   3.108   3.349   3.335  0.1678 -0.2164  0.0177
 3722SOL    HW122802   3.163   3.276   3.309  1.4351  1.2564 -1.4403
 3722SOL    HW222803   3.160   3.396   3.400 -2.7872  1.9661  0.8361
 3723SOL     OW22804   1.876   3.632  12.361 -0.1502 -0.3274  0.0723
 3723SOL    HW122805   1.892   3.605  12.271  0.2791 -1.6467  0.5479
 3723SOL    HW222806   1.927   3.572  12.415  0.9085  1.6170  1.2120
 3724SOL     OW22807   2.714   3.799   8.256 -0.0907  0.5616 -0.0333
 3724SOL    HW122808   2.785   3.809   8.193 -0.8783  1.2935 -0.8136
 3724SOL    HW222809   2.664   3.880   8.244  0.7895  1.0145 -0.5761
 3725SOL     OW22810   0.938   2.501  13.683  0.4269 -0.2444  0.2957
 3725SOL    HW122811   1.021   2.461  13.709  0.1223 -2.5841 -2.2397
 3725SOL    HW222812   0.895   2.434  13.630 -1.3222  0.3478  0.9871
 3726SOL     OW22813   1.175   4.571   7.655 -0.1798  0.0409  0.1698
 3726SOL    HW122814   1.109   4.552   7.721 -1.7313 -1.6646 -1.8427
 3726SOL    HW222815   1.116   4.573   7.579 -0.4822  0.2285  0.4093
 3727SOL     OW22816   2.247   2.324  16.039  0.2245  0.1070 -0.1629
 3727SOL    HW122817   2.280   2.340  16.128 -0.1889 -0.4229  0.0856
 3727SOL    HW222818   2.294   2.391  15.989  1.6297 -1.2140 -0.6540
 3728SOL     OW22819   2.499   2.601   2.458 -0.0200  0.8566 -0.3074
 3728SOL    HW122820   2.487   2.686   2.415  1.3293  1.3142  0.1956
 3728SOL    HW222821   2.428   2.599   2.522 -0.7614 -2.1657 -1.2045
 3729SOL     OW22822   4.690   2.862   2.918 -0.4045  0.4384  0.1920
 3729SOL    HW122823   0.022   2.930   2.910  0.3836 -0.1949  1.5588
 3729SOL    HW222824   4.612   2.910   2.890 -0.3501  0.3405 -0.1300
 3730SOL     OW22825   2.747   4.613   6.921 -0.1407  0.0112 -0.1291
 3730SOL    HW122826   2.776   4.550   6.855 -0.1464 -0.1524  0.0243
 3730SOL    HW222827   2.665   4.639   6.879 -0.9879 -0.9184  0.9158
 3731SOL     OW22828   0.970   4.045   8.468 -0.0811  0.3552 -0.0239
 3731SOL    HW122829   1.051   4.096   8.459 -0.6907  1.2653 -0.2474
 3731SOL    HW222830   0.932   4.044   8.381  0.4917 -1.4537 -0.2528
 3732SOL     OW22831   0.381   4.481   0.916 -0.3738  0.5717  0.5463
 3732SOL    HW122832   0.474   4.499   0.928 -0.1125 -0.8639  0.7836
 3732SOL    HW222833   0.375   4.496   0.822 -0.3369 -0.3622  0.3949
 3733SOL     OW22834   1.344   4.092   4.774 -0.1478  0.1596 -0.1863
 3733SOL    HW122835   1.375   4.103   4.864  1.1599  0.5907 -0.6899
 3733SOL    HW222836   1.262   4.046   4.792  0.3889 -0.5930  0.3123
 3734SOL     OW22837   2.708   1.453   2.878 -0.0699 -0.5771 -0.2407
 3734SOL    HW122838   2.700   1.534   2.829  1.7280 -0.7454 -0.7954
 3734SOL    HW222839   2.798   1.473   2.901  1.4941 -5.0653 -2.5243
 3735SOL     OW22840   0.241   0.790  11.894  0.1016 -0.0409 -0.4300
 3735SOL    HW122841   0.296   0.793  11.816 -0.1817 -0.0114 -0.6321
 3735SOL    HW222842   0.152   0.779  11.859 -0.5152  1.1253  0.7620
 3736SOL     OW22843   4.509   2.267  13.114  0.4512  0.1436 -0.1360
 3736SOL    HW122844   4.544   2.181  13.091 -0.4520 -0.2893  0.1225
 3736SOL    HW222845   4.438   2.280  13.050  0.6845  1.7568 -0.0721
 3737SOL     OW22846   3.604   3.456   4.366 -0.2498  1.0962 -0.6641
 3737SOL    HW122847   3.627   3.363   4.358  0.7709  1.2064  1.0920
 3737SOL    HW222848   3.674   3.488   4.423 -1.2698  2.2697 -0.0680
 3738SOL     OW22849   3.954   2.595  10.804  0.3025  0.0313 -0.4439
 3738SOL    HW122850   4.041   2.559  10.821  0.7760  2.4062  2.1890
 3738SOL    HW222851   3.904   2.569  10.881 -0.3273  0.5291 -0.6852
 3739SOL     OW22852   3.840   1.762  13.151  0.3134  0.3023  0.0347
 3739SOL    HW122853   3.914   1.734  13.205 -2.0225 -0.1532  3.0081
 3739SOL    HW222854   3.779   1.693  13.176  0.2347  1.0252  1.8770
 3740SOL     OW22855   3.934   2.400   7.626 -0.1207 -0.4501  0.1340
 3740SOL    HW122856   3.838   2.399   7.630 -0.1049 -0.9806  0.3942
 3740SOL    HW222857   3.948   2.475   7.569 -2.2808  0.4817  0.8295
 3741SOL     OW22858   2.602   0.003   6.665  0.7147 -0.2518  0.1593
 3741SOL    HW122859   2.638   4.728   6.577 -0.0063 -0.7913 -0.0770
 3741SOL    HW222860   2.601   0.099   6.666  0.5718 -0.2425 -1.2264
 3742SOL     OW22861   3.409   3.586   4.767 -0.0809  0.1552  0.3923
 3742SOL    HW122862   3.477   3.528   4.734 -1.1913  0.3909 -2.2982
 3742SOL    HW222863   3.391   3.537   4.847 -0.2402 -0.2527  0.1048
 3743SOL     OW22864   0.088   2.036   2.627  0.0788  0.4789  0.4600
 3743SOL    HW122865   4.733   2.054   2.652  0.3395 -0.3554  2.0366
 3743SOL    HW222866   0.087   1.953   2.580 -0.5667  1.5919 -1.4725
 3744SOL     OW22867   3.492   3.482  11.659  0.0889 -0.3808  0.1652
 3744SOL    HW122868   3.437   3.408  11.634 -0.8590  0.8132 -1.2952
 3744SOL    HW222869   3.447   3.550  11.610  1.3723 -1.1819 -2.1641
 3745SOL     OW22870   3.793   0.965   4.045 -0.3006 -1.2421 -0.4961
 3745SOL    HW122871   3.714   0.929   4.084  0.0762 -0.3787  1.0715
 3745SOL    HW222872   3.833   1.005   4.122 -2.5303 -0.2387  0.1428
 3746SOL     OW22873   3.009   0.844  14.881  0.1184 -0.3861 -0.3840
 3746SOL    HW122874   3.004   0.867  14.788  0.2401 -0.7211 -0.4727
 3746SOL    HW222875   3.104   0.845  14.893 -0.0332  0.5978  0.7264
 3747SOL     OW22876   2.803   4.469   7.766  0.5418  0.3542 -0.0127
 3747SOL    HW122877   2.766   4.456   7.853  1.0418  1.9001  0.4327
 3747SOL    HW222878   2.895   4.476   7.791  1.3571 -0.4082 -2.7150
 3748SOL     OW22879   3.852   0.551   5.120 -0.2292 -0.3452 -0.0021
 3748SOL    HW122880   3.844   0.474   5.064  0.9321 -0.8178  0.4872
 3748SOL    HW222881   3.761   0.582   5.116 -0.1776 -0.2079 -0.1277
 3749SOL     OW22882   1.289   0.324   1.767  1.1818 -1.0057 -0.2107
 3749SOL    HW122883   1.233   0.247   1.770 -0.5192  0.2241  0.1642
 3749SOL    HW222884   1.231   0.394   1.735 -0.9531 -4.0426 -2.8832
 3750SOL     OW22885   1.063   4.142   6.360 -0.5637  0.0368 -0.0837
 3750SOL    HW122886   1.058   4.047   6.360 -0.5596  0.0366 -0.1793
 3750SOL    HW222887   1.042   4.158   6.452  0.0116 -2.8332  0.5216
 3751SOL     OW22888   0.741   1.509   8.472  0.3935  0.0187 -0.6145
 3751SOL    HW122889   0.741   1.522   8.567  2.6252  1.2815 -0.7955
 3751SOL    HW222890   0.659   1.463   8.455  0.9992 -0.3772 -2.3858
 3752SOL     OW22891   2.197   2.416  17.039 -0.5338  0.1251 -0.3775
 3752SOL    HW122892   2.154   2.375  16.964 -3.0228 -0.6147  1.4311
 3752SOL    HW222893   2.130   2.480  17.067  2.9305  3.8623 -0.6442
 3753SOL     OW22894   0.980   0.893   2.313 -0.6250 -0.2274  0.0834
 3753SOL    HW122895   0.959   0.980   2.347 -1.6546 -1.4169  2.4862
 3753SOL    HW222896   1.011   0.839   2.386  1.7144  0.9606 -0.0292
 3754SOL     OW22897   3.764   2.581   9.294 -0.7044 -0.5332 -0.5809
 3754SOL    HW122898   3.851   2.543   9.292 -0.3049  0.1507  3.2010
 3754SOL    HW222899   3.749   2.582   9.389  1.3521  0.2807 -0.2603
 3755SOL     OW22900   2.663   3.035   7.583 -0.0044 -0.7805  1.1564
 3755SOL    HW122901   2.582   2.989   7.606 -0.0549 -0.8548  0.8343
 3755SOL    HW222902   2.687   3.081   7.663  1.0923 -1.1877  1.0589
 3756SOL     OW22903   1.475   4.607   5.771 -0.1553  0.1931  0.9041
 3756SOL    HW122904   1.512   4.545   5.833 -0.9976  0.8172  2.0361
 3756SOL    HW222905   1.384   4.580   5.785 -0.8493  1.9150 -0.3318
 3757SOL     OW22906   1.042   4.319  14.766 -0.2174  0.0459 -0.5823
 3757SOL    HW122907   0.966   4.284  14.813  1.8519 -1.2982  1.7275
 3757SOL    HW222908   1.029   4.265  14.688  0.4219 -2.2429  0.9141
 3758SOL     OW22909   3.453   1.993  10.623 -0.2711  0.0436 -0.4065
 3758SOL    HW122910   3.415   2.075  10.657  0.8700 -1.1175  3.5988
 3758SOL    HW222911   3.402   1.934  10.678 -0.1537  1.8620  1.6574
 3759SOL     OW22912   2.835   1.721   8.065 -0.8597  0.6314  0.1039
 3759SOL    HW122913   2.873   1.731   7.978 -1.5191 -0.4907 -0.3185
 3759SOL    HW222914   2.886   1.783   8.117 -0.2590  0.3207 -0.1173
 3760SOL     OW22915   1.662   2.645  14.532 -0.4771  0.3687  0.3544
 3760SOL    HW122916   1.610   2.720  14.561  1.1787  1.5166  0.4047
 3760SOL    HW222917   1.714   2.639  14.612 -3.5841  2.4048  2.5311
 3761SOL     OW22918   4.074   2.226   7.770  0.2316  0.0667 -0.3205
 3761SOL    HW122919   4.069   2.174   7.690  0.3589  1.8680 -1.5030
 3761SOL    HW222920   4.045   2.311   7.736  2.5043  0.6909 -0.7494
 3762SOL     OW22921   2.811   1.762   3.681 -0.0024 -0.1894 -0.3263
 3762SOL    HW122922   2.773   1.710   3.752 -0.1778 -0.9654 -0.9881
 3762SOL    HW222923   2.874   1.815   3.730 -0.0938  2.3986 -2.9887
 3763SOL     OW22924   0.360   1.192   0.454  0.6431  0.8101  0.3250
 3763SOL    HW122925   0.454   1.208   0.465  0.5885  1.2622  0.1441
 3763SOL    HW222926   0.327   1.209   0.542 -1.3509 -0.4402 -0.1903
 3764SOL     OW22927   1.502   3.023   7.637  0.1143 -0.3335  0.3028
 3764SOL    HW122928   1.567   3.041   7.569 -0.0027  0.7337  0.4800
 3764SOL    HW222929   1.510   3.099   7.694 -0.3720 -1.6938  2.1923
 3765SOL     OW22930   1.735   3.972   2.113 -0.0605  0.3297 -0.0227
 3765SOL    HW122931   1.646   3.975   2.149 -0.0806  1.3860 -0.1653
 3765SOL    HW222932   1.725   3.903   2.049 -3.3951  1.1296 -0.3747
 3766SOL     OW22933   1.474   2.025   9.267 -0.2002  0.4842 -0.1371
 3766SOL    HW122934   1.414   1.955   9.294 -0.5161  0.2162 -1.5363
 3766SOL    HW222935   1.558   1.992   9.299 -1.2033  1.6273  3.6934
 3767SOL     OW22936   2.652   2.592   9.706 -0.3044  0.0852 -0.1000
 3767SOL    HW122937   2.587   2.534   9.744  0.4959 -1.1451 -0.5911
 3767SOL    HW222938   2.681   2.647   9.779 -0.5351 -1.0208  0.8316
 3768SOL     OW22939   0.928   3.052   7.640 -0.3097  0.0186 -0.3749
 3768SOL    HW122940   0.895   2.976   7.592 -2.8481 -0.3411  1.9474
 3768SOL    HW222941   1.015   3.060   7.602 -1.1041 -0.4353 -2.2920
 3769SOL     OW22942   0.303   3.468  14.586  0.1312  0.2438 -0.2067
 3769SOL    HW122943   0.359   3.526  14.535 -0.0720  1.1749  0.6391
 3769SOL    HW222944   0.296   3.395  14.523 -3.1177 -0.2639  0.7822
 3770SOL     OW22945   3.523   0.207  10.473  0.2739 -0.1102 -0.9154
 3770SOL    HW122946   3.617   0.204  10.455  0.1311 -2.1898 -1.2366
 3770SOL    HW222947   3.483   0.130  10.434 -0.9672 -0.1973  0.5029
 3771SOL     OW22948   2.664   2.778   5.590 -0.3413  0.1120  0.1437
 3771SOL    HW122949   2.725   2.746   5.656 -0.4455 -0.1368  0.1213
 3771SOL    HW222950   2.709   2.840   5.532 -1.9337 -1.2156 -2.5247
 3772SOL     OW22951   0.038   3.282   4.859 -0.1658 -0.1169 -0.2809
 3772SOL    HW122952   0.106   3.230   4.817 -0.5679  0.0144 -1.1028
 3772SOL    HW222953   4.722   3.213   4.900 -1.7090  0.8703 -0.5012
 3773SOL     OW22954   0.535   4.264   0.607 -0.3958 -0.1015  0.5188
 3773SOL    HW122955   0.502   4.174   0.617  2.0091 -1.2541 -1.7059
 3773SOL    HW222956   0.616   4.246   0.655  0.0123 -4.1483 -1.6369
 3774SOL     OW22957   4.548   2.406  16.858  0.1205  0.0742  0.2036
 3774SOL    HW122958   4.641   2.401  16.879 -0.1651  0.7934  1.6341
 3774SOL    HW222959   4.509   2.371  16.938 -1.1058  0.0950 -0.3790
 3775SOL     OW22960   0.846   4.476  15.265 -0.3917  0.4642  0.1128
 3775SOL    HW122961   0.862   4.507  15.176  1.0983 -0.5129  0.0592
 3775SOL    HW222962   0.755   4.446  15.255 -0.5199  0.6902  0.5784
 3776SOL     OW22963   4.199   3.276   8.125 -0.3286  0.1729 -0.1056
 3776SOL    HW122964   4.192   3.370   8.137 -0.8906  0.0872  0.2612
 3776SOL    HW222965   4.288   3.249   8.149 -1.3973 -3.1496  0.1094
 3777SOL     OW22966   0.838   0.657   4.480 -0.0835 -0.5251  0.4183
 3777SOL    HW122967   0.877   0.576   4.515 -0.1757  0.1557  2.1023
 3777SOL    HW222968   0.820   0.709   4.559  0.8342 -2.2363  1.7692
 3778SOL     OW22969   3.943   2.719   5.163  0.4336 -0.4683 -0.0742
 3778SOL    HW122970   3.857   2.753   5.189  1.0306 -0.0506  1.3274
 3778SOL    HW222971   3.955   2.691   5.253 -1.1902  1.3556  0.7280
 3779SOL     OW22972   0.078   0.406   3.811 -0.2513  0.2361  0.2788
 3779SOL    HW122973   0.126   0.489   3.808 -0.2495  0.1469 -1.7592
 3779SOL    HW222974   0.026   0.407   3.731 -1.2019  1.3201  0.8980
 3780SOL     OW22975   0.256   2.683  16.960  0.1354  0.0202  0.3283
 3780SOL    HW122976   0.320   2.751  16.939  0.7380 -0.6243  0.0781
 3780SOL    HW222977   0.173   2.721  16.931 -1.0104 -2.8702 -0.1708
 3781SOL     OW22978   1.465   2.572  16.267 -0.1816  0.3083 -0.1068
 3781SOL    HW122979   1.509   2.626  16.333  1.1488  0.8334 -1.4327
 3781SOL    HW222980   1.390   2.621  16.235  0.1242  0.1723 -1.0132
 3782SOL     OW22981   3.904   1.819  12.318  0.2192 -0.7635  0.0927
 3782SOL    HW122982   3.910   1.785  12.229  1.1088 -0.2223 -0.0534
 3782SOL    HW222983   3.923   1.746  12.378 -1.9293  0.1460  1.8823
 3783SOL     OW22984   2.886   1.424   8.680  0.3889  0.5256 -0.4358
 3783SOL    HW122985   2.935   1.484   8.736  0.6969  0.0677 -0.2200
 3783SOL    HW222986   2.820   1.408   8.748  1.3029  1.4461  0.6705
 3784SOL     OW22987   0.182   1.314   3.522  0.7385  0.0474 -0.0345
 3784SOL    HW122988   0.235   1.236   3.536 -0.6808 -1.1358 -1.2870
 3784SOL    HW222989   0.240   1.382   3.485  2.3170 -1.4094 -0.2324
 3785SOL     OW22990   2.137   1.053  12.358 -0.0314  0.8174 -0.6159
 3785SOL    HW122991   2.224   1.087  12.379  1.8239 -3.6698 -1.0004
 3785SOL    HW222992   2.103   1.037  12.446 -1.1030  1.0410 -0.9914
 3786SOL     OW22993   2.611   1.025   5.397 -0.2536  0.0213  0.4067
 3786SOL    HW122994   2.655   1.109   5.388  0.3749 -0.4275 -0.7246
 3786SOL    HW222995   2.678   0.959   5.378 -1.3128 -0.1377 -2.7030
 3787SOL     OW22996   1.246   0.020   4.489 -0.0976  0.0200  0.0254
 3787SOL    HW122997   1.320   4.722   4.439  0.9972  0.1158  1.5811
 3787SOL    HW222998   1.185   4.684   4.470  0.7263  0.1032 -2.8141
 3788SOL     OW22999   1.611   2.759  16.430  0.1227 -0.1315  0.0947
 3788SOL    HW123000   1.606   2.854  16.416 -2.4906 -0.0525  1.5154
 3788SOL    HW223001   1.649   2.761  16.518  0.3771 -2.8745  0.0496
 3789SOL     OW23002   4.025   4.030   5.608 -0.3327 -0.6391  0.4254
 3789SOL    HW123003   3.953   4.094   5.610  0.6208  0.4458 -0.1893
 3789SOL    HW223004   4.002   3.982   5.688 -1.1109 -1.1609 -0.1125
 3790SOL     OW23005   2.445   1.698   0.663  0.3048  0.1795  0.1177
 3790SOL    HW123006   2.432   1.736   0.750  0.0155 -1.5438  0.8205
 3790SOL    HW223007   2.495   1.769   0.621 -1.1347  0.4976 -1.0696
 3791SOL     OW23008   1.977   0.892  16.158 -0.3697  0.0189 -0.5250
 3791SOL    HW123009   1.969   0.853  16.245 -3.3916 -1.9105 -1.6730
 3791SOL    HW223010   1.888   0.885  16.123 -0.7645  0.9247  0.2980
 3792SOL     OW23011   3.878   1.030  13.562  0.2805  0.4542 -0.8562
 3792SOL    HW123012   3.869   1.003  13.471 -1.4645  0.4693 -0.6916
 3792SOL    HW223013   3.909   0.950  13.602 -2.7514 -0.2713  0.0861
 3793SOL     OW23014   1.239   1.368   1.936 -0.2267 -0.1873 -0.1484
 3793SOL    HW123015   1.156   1.404   1.906 -0.5580 -0.3374  0.6062
 3793SOL    HW223016   1.261   1.429   2.007 -1.2409  0.9847 -0.8384
 3794SOL     OW23017   2.906   0.909   2.320 -0.0489  0.0133  0.4575
 3794SOL    HW123018   2.907   0.945   2.232  1.5681  0.4419  0.6482
 3794SOL    HW223019   2.916   0.990   2.371  1.5223 -1.3165  2.2396
 3795SOL     OW23020   3.949   1.130   4.226  0.5451 -0.0174  0.8117
 3795SOL    HW123021   3.939   1.089   4.311  0.7886 -1.4404  0.1624
 3795SOL    HW223022   3.972   1.217   4.260  0.2691 -0.1729  1.3923
 3796SOL     OW23023   2.689   1.685   1.725 -0.1915 -0.2094  0.1395
 3796SOL    HW123024   2.647   1.770   1.739  1.5752  0.8132 -0.8355
 3796SOL    HW223025   2.774   1.726   1.709 -0.4675 -0.5882 -2.2802
 3797SOL     OW23026   3.723   0.235  14.171  0.4460 -0.3046 -0.0937
 3797SOL    HW123027   3.756   0.297  14.237  2.6376  1.7650 -3.1250
 3797SOL    HW223028   3.631   0.230  14.196  0.9237 -1.2475  1.4411
 3798SOL     OW23029   1.656   1.060   3.133 -0.3094  0.1013  0.2011
 3798SOL    HW123030   1.668   1.087   3.042  0.5389 -0.4549  0.1458
 3798SOL    HW223031   1.655   1.139   3.187 -1.1046 -1.2356  2.1475
 3799SOL     OW23032   0.238   4.515   4.838  0.3901 -0.2753  0.3942
 3799SOL    HW123033   0.275   4.434   4.873  1.8576  0.5329  0.7032
 3799SOL    HW223034   0.237   4.493   4.745 -0.8270  0.8816  0.1221
 3800SOL     OW23035   3.452   0.527   6.167  0.5272  0.1742  0.2308
 3800SOL    HW123036   3.442   0.605   6.112 -0.3911  1.1422  1.7566
 3800SOL    HW223037   3.521   0.553   6.228  0.5095 -1.1700  0.8099
 3801SOL     OW23038   4.073   0.682  17.270 -0.2169 -0.4741  0.4869
 3801SOL    HW123039   4.089   0.612  17.333  0.6324 -2.4027 -1.8751
 3801SOL    HW223040   4.090   0.635  17.188 -0.8902 -2.3308  1.4010
 3802SOL     OW23041   3.644   1.091   8.527  0.0070  0.3103 -0.3778
 3802SOL    HW123042   3.553   1.062   8.521 -0.3695  1.7707 -1.9926
 3802SOL    HW223043   3.677   1.039   8.454  0.9193  0.3136  0.0276
 3803SOL     OW23044   0.163   0.267   9.324 -0.2771 -0.5053 -0.7120
 3803SOL    HW123045   0.154   0.197   9.259  0.2238 -0.4138 -0.8791
 3803SOL    HW223046   0.128   0.342   9.276 -0.3299 -0.4487 -0.5852
 3804SOL     OW23047   0.366   3.294  15.624 -0.1261 -0.2758  0.0436
 3804SOL    HW123048   0.336   3.304  15.534  2.4772 -0.1955 -0.8281
 3804SOL    HW223049   0.419   3.373  15.633 -0.9157  0.4613 -1.8304
 3805SOL     OW23050   1.222   3.789   1.476 -0.2043 -0.1077 -0.0258
 3805SOL    HW123051   1.267   3.809   1.558 -1.1410  3.1876 -0.3327
 3805SOL    HW223052   1.183   3.704   1.498 -0.1623  0.5213  2.4762
 3806SOL     OW23053   3.795   3.240   4.304 -0.0841 -0.0185  0.3156
 3806SOL    HW123054   3.890   3.232   4.302 -0.1903 -0.8599 -1.1188
 3806SOL    HW223055   3.777   3.277   4.218 -1.6728 -0.3259  0.5195
 3807SOL     OW23056   1.834   1.799   3.676 -0.3388 -0.0823 -0.3175
 3807SOL    HW123057   1.790   1.879   3.649 -0.2296 -0.6280 -2.0803
 3807SOL    HW223058   1.889   1.831   3.748 -2.0470 -1.5117  1.6452
 3808SOL     OW23059   4.297   3.685  10.560 -0.2273  0.5478 -0.3219
 3808SOL    HW123060   4.388   3.679  10.589 -1.0231  0.0705  2.1442
 3808SOL    HW223061   4.300   3.655  10.470  3.1504 -1.6704  0.5275
 3809SOL     OW23062   3.751   0.329   4.963  0.3054  0.4884  0.0641
 3809SOL    HW123063   3.662   0.339   4.931  0.7085  0.6764 -0.9741
 3809SOL    HW223064   3.740   0.240   4.999  0.2066 -0.1529 -1.5561
 3810SOL     OW23065   0.027   2.888   8.858 -0.1013 -0.3398  0.5368
 3810SOL    HW123066   4.687   2.946   8.860 -1.1534 -1.7381  1.6003
 3810SOL    HW223067   0.054   2.870   8.948 -0.6881 -0.3409  0.7092
 3811SOL     OW23068   1.479   4.199   8.584 -0.0121 -0.6086 -0.6578
 3811SOL    HW123069   1.547   4.138   8.612 -1.9551 -0.7781  3.7110
 3811SOL    HW223070   1.529   4.277   8.609 -0.3616  0.2162 -2.5271
 3812SOL     OW23071   3.107   2.065   6.587 -0.2310 -0.0953  0.2860
 3812SOL    HW123072   3.201   2.065   6.603  0.0200  1.8213 -1.0409
 3812SOL    HW223073   3.092   1.972   6.572  0.8611 -0.1409 -0.5640
 3813SOL     OW23074   1.267   2.877   0.177 -0.4808  0.0508  0.0982
 3813SOL    HW123075   1.242   2.865   0.268 -0.0687  0.1555  0.2223
 3813SOL    HW223076   1.199   2.819   0.141  2.1491 -3.4406  0.7842
 3814SOL     OW23077   0.190   4.182   3.167  0.3033 -1.0319 -0.2329
 3814SOL    HW123078   0.188   4.132   3.249 -1.0570 -1.8190 -0.7452
 3814SOL    HW223079   0.281   4.163   3.144  0.8588  1.3337  0.0041
 3815SOL     OW23080   1.326   0.221   7.013 -0.2719 -0.3296 -0.7074
 3815SOL    HW123081   1.368   0.193   6.931 -0.9758 -1.5279 -0.6460
 3815SOL    HW223082   1.392   0.283   7.043 -0.4393 -0.2149 -0.5759
 3816SOL     OW23083   1.211   2.494   6.766  0.3974 -0.0946 -0.3014
 3816SOL    HW123084   1.229   2.408   6.804 -0.8302  0.3001  1.1602
 3816SOL    HW223085   1.181   2.550   6.838  0.6659  1.2689 -1.2448
 3817SOL     OW23086   0.625   1.263   4.241 -0.6468  0.4295 -0.1666
 3817SOL    HW123087   0.667   1.341   4.206  0.1276  0.5417  1.0334
 3817SOL    HW223088   0.693   1.230   4.299 -0.7711 -0.1444 -0.3485
 3818SOL     OW23089   0.608   2.535   7.812 -0.1527 -0.4648  0.1309
 3818SOL    HW123090   0.579   2.448   7.839  0.5678 -0.0981  2.0769
 3818SOL    HW223091   0.536   2.560   7.754 -0.2278  1.1091  0.8989
 3819SOL     OW23092   3.280   1.494   8.865 -0.2652  0.3096 -0.0084
 3819SOL    HW123093   3.314   1.461   8.947  1.9814  0.1923 -0.9817
 3819SOL    HW223094   3.279   1.421   8.803 -1.5919  1.3440 -1.2090
 3820SOL     OW23095   4.105   3.516   8.676 -0.1257 -0.5043 -0.4509
 3820SOL    HW123096   4.093   3.610   8.666 -3.0267 -0.8633 -0.2660
 3820SOL    HW223097   4.187   3.494   8.631  0.4401  1.8631 -0.6048
 3821SOL     OW23098   0.370   3.021  13.410 -1.0525 -0.5386  0.5232
 3821SOL    HW123099   0.399   2.938  13.447  0.7165 -1.5641 -3.1753
 3821SOL    HW223100   0.287   3.026  13.459 -0.5454  1.9937  1.1348
 3822SOL     OW23101   4.083   4.100   3.873 -0.2558 -0.1358  0.2444
 3822SOL    HW123102   4.044   4.155   3.941 -2.0551 -1.2251  0.1059
 3822SOL    HW223103   4.013   4.103   3.808  1.1065 -0.5600 -1.2348
 3823SOL     OW23104   1.458   2.917   1.974 -0.0029 -0.9145  0.1959
 3823SOL    HW123105   1.500   2.860   2.038 -0.1990 -1.6117 -0.2977
 3823SOL    HW223106   1.528   2.961   1.925  2.2773 -3.1300  1.4397
 3824SOL     OW23107   0.279   0.341   6.585  0.1814 -0.2903 -0.2208
 3824SOL    HW123108   0.350   0.321   6.524 -1.1483 -0.9268 -1.5567
 3824SOL    HW223109   0.221   0.266   6.569 -0.4829 -0.1760  1.6071
 3825SOL     OW23110   4.095   3.537   4.565  0.1063 -0.1276 -0.2827
 3825SOL    HW123111   4.169   3.510   4.619  1.0052  2.6843 -0.1236
 3825SOL    HW223112   4.106   3.499   4.478 -3.2010 -1.7175  0.0208
 3826SOL     OW23113   1.214   1.813  13.902  0.0649 -0.1555  0.0543
 3826SOL    HW123114   1.223   1.903  13.871  0.9397 -0.3107 -0.1619
 3826SOL    HW223115   1.306   1.785  13.891  0.1806 -0.1539  1.0633
 3827SOL     OW23116   0.423   2.570   4.330  0.3129 -0.5107  0.5899
 3827SOL    HW123117   0.369   2.649   4.340 -1.1201 -1.4564  0.3756
 3827SOL    HW223118   0.508   2.612   4.341  0.8212 -0.5143 -3.4061
 3828SOL     OW23119   2.476   1.250   4.015  0.5556  0.2167 -0.1049
 3828SOL    HW123120   2.525   1.171   3.992 -1.6345 -1.3504  0.5862
 3828SOL    HW223121   2.503   1.259   4.107 -0.7212 -2.8005  0.5881
 3829SOL     OW23122   3.780   4.181  12.526  0.1349 -0.1599  0.0958
 3829SOL    HW123123   3.789   4.123  12.450  0.2816  0.2579 -0.2067
 3829SOL    HW223124   3.862   4.222  12.500 -0.3943  1.8151  1.5453
 3830SOL     OW23125   1.444   0.592   5.848 -0.1247 -0.2894  0.0527
 3830SOL    HW123126   1.435   0.681   5.814 -0.8144 -1.1279 -1.9933
 3830SOL    HW223127   1.486   0.544   5.777 -2.1814 -1.5154 -0.3410
 3831SOL     OW23128   0.457   3.117   5.861  0.0510  0.3594 -0.3938
 3831SOL    HW123129   0.443   3.107   5.955 -1.2640 -0.5511 -0.6824
 3831SOL    HW223130   0.377   3.159   5.832 -0.2013  0.5449  0.6038
 3832SOL     OW23131   1.152   1.087   2.496 -0.6424  0.1263 -0.0051
 3832SOL    HW123132   1.145   1.170   2.449 -1.3661  0.3095  0.4374
 3832SOL    HW223133   1.059   1.082   2.515 -0.6080  1.9007  0.6704
 3833SOL     OW23134   4.692   4.351   8.786 -0.0019 -0.2110 -0.0050
 3833SOL    HW123135   4.599   4.372   8.795 -0.2726 -1.2667 -0.3233
 3833SOL    HW223136   4.687   4.291   8.711  0.4943 -2.7132  1.9620
 3834SOL     OW23137   3.206   0.907   2.101  0.4537  0.4241 -0.5268
 3834SOL    HW123138   3.299   0.909   2.126  0.1044  0.6572  0.7385
 3834SOL    HW223139   3.203   0.852   2.023 -1.4351 -0.7503  0.3546
 3835SOL     OW23140   0.164   2.407   7.623 -0.4971  0.3271 -0.2487
 3835SOL    HW123141   0.175   2.398   7.717 -3.9994 -1.4193  0.0094
 3835SOL    HW223142   0.072   2.434   7.619 -0.3020  1.1376  0.8959
 3836SOL     OW23143   3.439   1.222  12.267  0.3382  0.2676 -0.3552
 3836SOL    HW123144   3.390   1.253  12.343  0.7241  1.3797 -0.5588
 3836SOL    HW223145   3.517   1.274  12.290 -0.7673  2.8215 -2.3325
 3837SOL     OW23146   3.684   1.442   7.854  0.3491  0.5703 -0.2798
 3837SOL    HW123147   3.643   1.371   7.903 -2.4954  2.6136  0.2369
 3837SOL    HW223148   3.736   1.395   7.788 -0.1402  0.0708 -0.3112
 3838SOL     OW23149   4.534   3.809   3.839  0.0107 -0.4480 -0.6799
 3838SOL    HW123150   4.507   3.864   3.913  1.1841 -0.5459 -0.1833
 3838SOL    HW223151   4.552   3.873   3.769 -1.1928 -1.4376 -1.8984
 3839SOL     OW23152   0.714   1.595   1.950  0.2713 -0.3596 -0.0839
 3839SOL    HW123153   0.634   1.647   1.961 -0.2250 -0.8454 -1.3888
 3839SOL    HW223154   0.745   1.589   2.040 -1.4061  1.9709  0.6506
 3840SOL     OW23155   3.166   4.008   8.575  0.0861 -0.1725 -0.6442
 3840SOL    HW123156   3.154   4.016   8.480 -2.0661 -0.9524 -0.4493
 3840SOL    HW223157   3.213   4.089   8.594  1.1090 -0.9969  0.3250
 3841SOL     OW23158   0.178   3.135   3.762  0.2017 -0.5912 -0.2017
 3841SOL    HW123159   0.235   3.179   3.698 -0.6395  1.2624  0.3171
 3841SOL    HW223160   0.142   3.070   3.701  2.6875 -1.8057 -0.3492
 3842SOL     OW23161   3.529   1.592   6.326  0.2991 -0.1761  0.1464
 3842SOL    HW123162   3.504   1.641   6.404 -0.6875  1.4042 -1.1495
 3842SOL    HW223163   3.570   1.512   6.358 -1.2001 -1.2511 -0.6438
 3843SOL     OW23164   0.297   3.486   0.954  0.1736 -0.2314 -0.9314
 3843SOL    HW123165   0.216   3.519   0.915 -0.1380  0.9430  0.7119
 3843SOL    HW223166   0.261   3.397   0.960  0.2456 -0.0131  3.0808
 3844SOL     OW23167   1.719   1.657   2.884 -0.1170  0.5738  0.0719
 3844SOL    HW123168   1.639   1.684   2.927 -0.1051  2.4665 -1.0725
 3844SOL    HW223169   1.727   1.705   2.801 -0.2338 -1.1100 -0.9030
 3845SOL     OW23170   3.924   1.957   6.737  0.3936 -0.1337 -0.1607
 3845SOL    HW123171   3.985   1.962   6.663  1.3683  0.0909  0.6522
 3845SOL    HW223172   3.868   2.030   6.708  1.2110 -0.0041 -1.4393
 3846SOL     OW23173   0.060   1.819  16.354  0.1184 -0.1664  0.5085
 3846SOL    HW123174   0.059   1.831  16.449  0.8609 -0.6067  0.5727
 3846SOL    HW223175   0.127   1.878  16.321 -0.6251  0.0317 -0.6584
 3847SOL     OW23176   0.548   1.209   1.493 -0.3394  0.0315  0.0562
 3847SOL    HW123177   0.572   1.301   1.483  1.3428 -0.6426 -2.1119
 3847SOL    HW223178   0.465   1.211   1.445  1.7833  0.8228 -3.5389
 3848SOL     OW23179   0.410   2.676   8.359 -0.5011 -0.7462 -0.1862
 3848SOL    HW123180   0.407   2.590   8.402  2.3327 -1.0196 -0.5424
 3848SOL    HW223181   0.348   2.720   8.416  1.3267  2.2195 -0.4782
 3849SOL     OW23182   0.097   4.561   2.062  0.3303 -0.0820  0.9693
 3849SOL    HW123183   0.117   4.629   2.127  1.2959  1.0569 -0.5148
 3849SOL    HW223184   0.136   4.482   2.100 -0.5091 -0.3636  1.2493
 3850SOL     OW23185   4.592   0.602   1.191 -0.1619  0.3849 -0.1181
 3850SOL    HW123186   4.508   0.621   1.150 -1.5714 -2.6316  1.3130
 3850SOL    HW223187   4.549   0.590   1.276  2.0888 -2.4672  0.6311
 3851SOL     OW23188   2.902   0.353  17.231  0.0287  0.1249  0.2898
 3851SOL    HW123189   2.961   0.289  17.271 -0.3346  0.4814  1.3893
 3851SOL    HW223190   2.938   0.427  17.280 -0.2660  0.8506 -0.5646
 3852SOL     OW23191   0.632   0.034  17.256 -0.3865 -0.4085  0.2728
 3852SOL    HW123192   0.599   0.072  17.337 -1.7232  2.1331 -1.4658
 3852SOL    HW223193   0.626   0.111  17.200  0.4792  0.0168  0.7681
 3853SOL     OW23194   2.546   1.585   1.394  0.2699  0.1064  0.4710
 3853SOL    HW123195   2.588   1.541   1.469  1.5179  0.8851  0.2375
 3853SOL    HW223196   2.601   1.544   1.327  2.8706  2.2484  1.2608
 3854SOL     OW23197   1.656   0.458   9.302  0.2110 -0.2694  0.3069
 3854SOL    HW123198   1.705   0.412   9.234 -0.3410  1.4596 -1.2628
 3854SOL    HW223199   1.721   0.517   9.340 -1.1980  1.7576 -0.4170
 3855SOL     OW23200   4.150   3.836   1.735 -0.0299  0.5781  0.0960
 3855SOL    HW123201   4.165   3.747   1.768  0.4043  0.4868 -0.3519
 3855SOL    HW223202   4.098   3.823   1.656 -0.8392 -1.3445  0.9501
 3856SOL     OW23203   0.427   3.469  17.257 -0.1666 -0.4319 -0.0762
 3856SOL    HW123204   0.379   3.408  17.201 -0.4450  0.1866 -0.5170
 3856SOL    HW223205   0.518   3.439  17.255  0.3783  1.2224 -0.1902
 3857SOL     OW23206   3.373   1.717  15.789 -0.2982  0.8350  0.1288
 3857SOL    HW123207   3.458   1.682  15.764 -0.4631  1.8873 -1.8629
 3857SOL    HW223208   3.346   1.646  15.847 -0.1750  0.6150 -0.0838
 3858SOL     OW23209   2.763   1.137  15.454 -0.0260  0.0924 -0.1658
 3858SOL    HW123210   2.792   1.059  15.501 -0.3893  1.2371  1.9709
 3858SOL    HW223211   2.705   1.181  15.517 -2.3181 -0.4006 -1.9366
 3859SOL     OW23212   2.003   4.429  11.025  0.1560 -0.2469 -0.2780
 3859SOL    HW123213   2.061   4.490  10.979 -0.2891  1.5146  1.5118
 3859SOL    HW223214   1.962   4.481  11.093  0.1002  1.3286 -1.5038
 3860SOL     OW23215   2.939   3.036   3.736  0.4815  0.7849  0.3488
 3860SOL    HW123216   2.952   3.068   3.647  2.3271  0.8085  0.6135
 3860SOL    HW223217   3.021   2.988   3.749 -0.0465 -0.5567 -1.2446
 3861SOL     OW23218   2.137   4.123  16.753  0.1167 -0.0027  0.2652
 3861SOL    HW123219   2.159   4.198  16.809  1.4307 -0.0139 -0.2432
 3861SOL    HW223220   2.192   4.053  16.788 -1.8149 -2.0886 -0.8986
 3862SOL     OW23221   4.377   4.519   7.459  0.1047 -0.0069  0.5751
 3862SOL    HW123222   4.432   4.509   7.537  0.2220 -1.1750  0.3373
 3862SOL    HW223223   4.443   4.509   7.390  0.8842  0.8987  1.1844
 3863SOL     OW23224   4.593   4.213   7.690 -0.0917  0.3638  0.0344
 3863SOL    HW123225   4.649   4.186   7.762 -1.7516 -1.8022  0.4844
 3863SOL    HW223226   4.661   4.232   7.625 -0.5507 -0.1908 -0.6054
 3864SOL     OW23227   4.721   0.473   6.085  0.4449  0.5983 -0.1893
 3864SOL    HW123228   0.016   0.497   5.998 -2.1206 -0.1390 -1.2686
 3864SOL    HW223229   0.062   0.424   6.116  0.0611 -0.6361 -1.1932
 3865SOL     OW23230   0.534   4.370   4.757 -1.1648  0.0838 -0.1871
 3865SOL    HW123231   0.471   4.309   4.796 -3.2348  1.3621 -1.5341
 3865SOL    HW223232   0.596   4.389   4.828 -0.0557  3.3372 -2.0188
 3866SOL     OW23233   4.179   2.685  16.994 -1.1621  0.3830  0.0473
 3866SOL    HW123234   4.251   2.681  16.931 -1.1076  1.4880  0.0437
 3866SOL    HW223235   4.120   2.616  16.963 -0.7650 -1.1386  2.7527
 3867SOL     OW23236   2.539   1.104   8.041  0.1756 -0.0427 -0.0878
 3867SOL    HW123237   2.513   1.053   8.118 -2.6157  1.2056 -0.1973
 3867SOL    HW223238   2.632   1.097   8.062  0.2704  0.1113 -0.4539
 3868SOL     OW23239   4.079   0.419   5.537  0.2433  0.2484  0.0047
 3868SOL    HW123240   4.050   0.352   5.477  3.5254 -2.0247  0.9561
 3868SOL    HW223241   4.144   0.369   5.586  0.6719  0.4284 -0.3809
 3869SOL     OW23242   0.569   3.242   8.688 -0.2526 -0.0349  0.3081
 3869SOL    HW123243   0.547   3.335   8.675  0.2034  0.2035  1.2602
 3869SOL    HW223244   0.538   3.221   8.776 -0.6024 -3.2816 -0.5894
 3870SOL     OW23245   4.349   4.588  11.034  0.3657 -0.1326 -0.2714
 3870SOL    HW123246   4.418   4.530  11.001  2.0689  3.1136 -2.4690
 3870SOL    HW223247   4.269   4.551  10.996 -0.4570  1.0276  0.3125
 3871SOL     OW23248   3.271   0.763   3.964 -0.1540 -0.3229  0.0756
 3871SOL    HW123249   3.212   0.754   3.890 -2.6703  2.0448  1.7966
 3871SOL    HW223250   3.355   0.780   3.923 -1.3358  2.8052 -1.0548
 3872SOL     OW23251   0.053   4.292   5.013 -0.2115 -0.3925  0.6148
 3872SOL    HW123252   4.709   4.308   5.064  0.2675 -1.3389  1.6717
 3872SOL    HW223253   0.119   4.342   5.061  0.3760 -0.9667  0.3999
 3873SOL     OW23254   4.241   3.714   3.802  0.2055 -0.1827 -0.5777
 3873SOL    HW123255   4.333   3.740   3.806 -0.1879  0.9880  0.7562
 3873SOL    HW223256   4.230   3.660   3.880  2.5507  0.2270  0.0207
 3874SOL     OW23257   4.657   2.732   6.288 -0.2712 -0.1478  0.2147
 3874SOL    HW123258   4.730   2.794   6.295  0.0680 -0.4445 -0.7008
 3874SOL    HW223259   4.620   2.758   6.204 -0.6184  0.0311  0.4247
 3875SOL     OW23260   2.939   4.135   1.853  0.7101  0.3996  0.1143
 3875SOL    HW123261   2.866   4.077   1.874  0.0204  1.1541 -0.1934
 3875SOL    HW223262   2.891   4.217   1.840 -0.4756 -0.1295  1.2352
 3876SOL     OW23263   3.418   0.014  10.295  0.5279 -0.0722 -0.1287
 3876SOL    HW123264   3.484   4.680  10.300 -0.0802 -0.6163  0.2936
 3876SOL    HW223265   3.341   4.710  10.336 -0.3185 -0.2830 -1.8780
 3877SOL     OW23266   2.881   1.488   5.790 -0.4263 -0.0851  0.1059
 3877SOL    HW123267   2.815   1.444   5.736 -0.4516  1.2843 -0.9676
 3877SOL    HW223268   2.944   1.417   5.802  0.6264  0.4274 -2.4493
 3878SOL     OW23269   3.836   2.619   5.580 -0.0536  0.7491 -0.3487
 3878SOL    HW123270   3.813   2.537   5.624  2.4112 -0.1409 -0.7230
 3878SOL    HW223271   3.809   2.687   5.642 -1.4694 -0.7918  0.7069
 3879SOL     OW23272   4.392   0.226   7.585  0.2829  0.1192 -0.2244
 3879SOL    HW123273   4.343   0.304   7.607  1.3408  0.8897 -0.5825
 3879SOL    HW223274   4.326   0.158   7.599 -0.0411  0.2801 -1.0023
 3880SOL     OW23275   1.548   0.597  15.435  0.5927 -0.0482 -0.0875
 3880SOL    HW123276   1.544   0.680  15.482 -0.2180  0.7598 -1.5843
 3880SOL    HW223277   1.642   0.586  15.418  0.4978 -1.0659  0.0157
 3881SOL     OW23278   0.830   3.129  13.530 -0.7896  0.5472 -0.6604
 3881SOL    HW123279   0.850   3.195  13.596  0.5109  0.3757 -0.8732
 3881SOL    HW223280   0.736   3.117  13.545 -0.9271 -1.0099 -2.6788
 3882SOL     OW23281   1.521   3.811   1.622  0.0452 -0.4096  0.0968
 3882SOL    HW123282   1.560   3.874   1.683 -1.7793 -1.3763  2.2847
 3882SOL    HW223283   1.564   3.826   1.538  0.3273  2.4989  0.7686
 3883SOL     OW23284   1.604   4.472   7.237 -0.2572  0.2905  0.1885
 3883SOL    HW123285   1.687   4.467   7.284 -0.9294  0.7764  1.4501
 3883SOL    HW223286   1.570   4.386   7.262  0.8719 -0.1720  0.1298
 3884SOL     OW23287   2.513   0.653   9.253 -0.4043  0.6027 -0.1661
 3884SOL    HW123288   2.453   0.658   9.328  0.3538  2.7682  0.2704
 3884SOL    HW223289   2.584   0.617   9.306 -0.7551 -1.2245 -0.9107
 3885SOL     OW23290   4.030   3.836  11.962  0.5135  0.2002 -0.5684
 3885SOL    HW123291   3.987   3.922  11.957 -0.3096 -0.1380  0.6911
 3885SOL    HW223292   4.021   3.806  12.052 -0.4354 -1.0233 -1.0831
 3886SOL     OW23293   0.400   0.275   5.583  0.3447 -0.0061 -0.0231
 3886SOL    HW123294   0.462   0.207   5.555 -1.4680 -0.3266 -3.2953
 3886SOL    HW223295   0.435   0.346   5.530 -2.4248 -0.7651 -2.8685
 3887SOL     OW23296   3.759   3.353  15.627  0.2715  0.0600 -0.1398
 3887SOL    HW123297   3.709   3.431  15.603 -1.0449 -1.0961 -1.2019
 3887SOL    HW223298   3.694   3.284  15.609  1.0207 -0.8400  0.6284
 3888SOL     OW23299   4.514   2.997   7.036  0.3185 -0.1850 -0.3919
 3888SOL    HW123300   4.529   2.905   7.017  0.7265 -0.6814  2.2176
 3888SOL    HW223301   4.601   3.032   7.019 -0.4060  0.3858 -2.8410
 3889SOL     OW23302   3.530   3.761  12.829  0.0771 -0.0549 -0.4689
 3889SOL    HW123303   3.591   3.810  12.773  0.6339 -0.1842  0.0221
 3889SOL    HW223304   3.452   3.772  12.775 -0.1217  0.5194 -0.0748
 3890SOL     OW23305   0.312   1.881   3.142  0.0725 -0.1563  0.3699
 3890SOL    HW123306   0.302   1.974   3.161 -2.0791 -0.5510  1.1669
 3890SOL    HW223307   0.221   1.863   3.117  0.0281 -2.5686  2.2659
 3891SOL     OW23308   1.911   4.383   7.047  0.0811 -0.6680 -0.0813
 3891SOL    HW123309   1.820   4.364   7.072 -0.2521 -3.1659 -3.2189
 3891SOL    HW223310   1.912   4.477   7.032  2.2078 -0.5948  0.5944
 3892SOL     OW23311   4.103   2.873   1.322  0.1670 -0.1184  0.6922
 3892SOL    HW123312   4.182   2.877   1.376  0.6292  0.9233 -0.0679
 3892SOL    HW223313   4.084   2.967   1.324 -0.1857 -0.2193  1.8175
 3893SOL     OW23314   2.171   2.641   9.786 -0.0524  0.0813 -0.0297
 3893SOL    HW123315   2.085   2.659   9.747  1.0678  0.1815 -2.4234
 3893SOL    HW223316   2.212   2.727   9.789 -1.2395  0.5787  1.9268
 3894SOL     OW23317   3.938   0.097   4.186 -0.2309  0.2270 -0.4399
 3894SOL    HW123318   3.990   0.110   4.106  1.5844 -0.0566  0.6801
 3894SOL    HW223319   4.001   0.116   4.256 -0.3718 -2.3807  0.3851
 3895SOL     OW23320   3.439   3.560   8.351 -0.1615 -0.1185  0.1602
 3895SOL    HW123321   3.421   3.471   8.322 -0.2920 -0.5823  1.6796
 3895SOL    HW223322   3.369   3.612   8.310 -0.3574  0.5531  1.3537
 3896SOL     OW23323   2.514   0.974   6.098  0.3684  0.7639 -0.2184
 3896SOL    HW123324   2.588   0.953   6.042 -0.8595 -1.3703 -1.0512
 3896SOL    HW223325   2.439   0.973   6.039  0.0804  1.2323  0.1393
 3897SOL     OW23326   1.037   3.094   9.030 -0.5511  0.3383 -0.1425
 3897SOL    HW123327   1.022   3.032   9.101 -2.1391  1.8776  0.8873
 3897SOL    HW223328   0.947   3.095   8.999  0.3306 -0.1782 -2.6699
 3898SOL     OW23329   1.446   1.181   3.542 -0.6018  0.2276  0.1959
 3898SOL    HW123330   1.483   1.221   3.463  1.9441 -1.7938  0.3760
 3898SOL    HW223331   1.354   1.200   3.527 -0.2290  0.6544 -1.5946
 3899SOL     OW23332   4.468   2.167   8.573  0.3723 -0.6158 -0.5822
 3899SOL    HW123333   4.458   2.255   8.536  0.2230  0.2911  1.6418
 3899SOL    HW223334   4.389   2.129   8.535  0.1313 -0.3766 -0.3133
 3900SOL     OW23335   2.645   2.798   8.441  0.2877  0.2639  0.3637
 3900SOL    HW123336   2.670   2.876   8.392 -4.0941  1.9461  0.8136
 3900SOL    HW223337   2.638   2.734   8.370  0.9136  1.3794 -0.7011
 3901SOL     OW23338   2.596   3.162   4.718 -0.3812 -0.2767 -0.2380
 3901SOL    HW123339   2.667   3.120   4.670  0.0750  1.5801 -1.1685
 3901SOL    HW223340   2.535   3.095   4.750  1.6113 -0.9421  2.2232
 3902SOL     OW23341   0.243   3.901   6.489  0.5226  0.5140  0.0254
 3902SOL    HW123342   0.299   3.859   6.424  0.0638 -0.3117  0.1549
 3902SOL    HW223343   0.310   3.952   6.535 -0.5803  0.8730  1.2236
 3903SOL     OW23344   0.262   2.651   2.549  0.4097 -0.3324 -0.5177
 3903SOL    HW123345   0.202   2.668   2.621  1.2680  1.1599 -0.1534
 3903SOL    HW223346   0.202   2.605   2.490  0.0787  1.7788 -1.8034
 3904SOL     OW23347   0.641   0.076  11.882  0.4506  0.0290 -0.2854
 3904SOL    HW123348   0.622   0.109  11.794  1.3921 -4.4551 -2.1416
 3904SOL    HW223349   0.572   0.108  11.940 -1.4612  0.8039 -2.9631
 3905SOL     OW23350   0.408   3.592   4.538 -0.1067  0.1114  0.4246
 3905SOL    HW123351   0.395   3.518   4.597 -1.2988 -0.4417 -0.5515
 3905SOL    HW223352   0.436   3.665   4.594 -2.1224  0.4390  1.0214
 3906SOL     OW23353   2.029   2.942   9.233  0.0047 -0.0833 -0.1339
 3906SOL    HW123354   1.977   2.963   9.310  2.2449 -1.4722  1.7428
 3906SOL    HW223355   2.019   2.847   9.238  0.1378 -0.0804  0.1409
 3907SOL     OW23356   3.443   2.779   6.318 -0.0464 -0.1847  0.0028
 3907SOL    HW123357   3.512   2.844   6.303 -0.8645  0.9065  0.9169
 3907SOL    HW223358   3.395   2.800   6.238  0.2505  0.2751 -0.0537
 3908SOL     OW23359   3.250   1.409   4.915 -0.1301  0.3126 -0.3912
 3908SOL    HW123360   3.246   1.395   5.010 -0.3252  1.4616 -0.2304
 3908SOL    HW223361   3.158   1.426   4.896 -0.3901 -0.3635  0.2606
 3909SOL     OW23362   3.248   0.992  13.230  0.1040 -0.6980 -0.1959
 3909SOL    HW123363   3.306   0.922  13.263 -1.9797 -2.1288  0.4583
 3909SOL    HW223364   3.286   1.074  13.263  2.6933 -0.8099 -2.8548
 3910SOL     OW23365   4.628   0.645  17.430 -0.1083 -0.2452 -1.3013
 3910SOL    HW123366   4.572   0.571  17.454 -0.6076  0.0959 -1.4100
 3910SOL    HW223367   4.715   0.611  17.412  0.3925 -0.3079  1.1735
 3911SOL     OW23368   2.752   3.946   2.596 -0.8554 -0.2208 -0.2083
 3911SOL    HW123369   2.691   3.903   2.536 -0.0443 -1.9197  0.1676
 3911SOL    HW223370   2.721   3.918   2.682 -0.6237  0.5099  0.1128
 3912SOL     OW23371   1.756   1.342  10.786 -0.2216 -0.1389 -0.0271
 3912SOL    HW123372   1.807   1.261  10.776  0.8440  0.3749  1.2986
 3912SOL    HW223373   1.695   1.332  10.712  0.6265 -0.6391 -0.6537
 3913SOL     OW23374   0.041   4.263   4.722  0.7595 -0.0656 -0.5256
 3913SOL    HW123375   4.685   4.235   4.724  1.2220 -1.5456  0.3779
 3913SOL    HW223376   0.061   4.269   4.816  1.1873  1.7493 -0.7388
 3914SOL     OW23377   0.591   0.618  13.753 -0.2363 -0.4900  0.6605
 3914SOL    HW123378   0.537   0.622  13.673 -0.1724  0.8386  0.6752
 3914SOL    HW223379   0.576   0.704  13.794 -0.4410 -1.1277  1.9289
 3915SOL     OW23380   1.907   0.583  14.408 -0.6506  0.1806  0.2124
 3915SOL    HW123381   1.933   0.580  14.500  1.0861 -1.2229 -0.3451
 3915SOL    HW223382   1.971   0.523  14.371  0.8705  1.9028  0.0177
 3916SOL     OW23383   0.526   3.996   2.355 -0.2778  0.6700  0.0723
 3916SOL    HW123384   0.527   3.913   2.402 -1.9598  1.2034  1.0513
 3916SOL    HW223385   0.617   4.004   2.325  0.2248  0.4157  1.5317
 3917SOL     OW23386   1.273   0.560   5.480  0.1549  0.0845  0.0186
 3917SOL    HW123387   1.284   0.651   5.451 -2.2664  0.7805  1.3537
 3917SOL    HW223388   1.193   0.539   5.432  0.8566  0.0635 -1.1406
 3918SOL     OW23389   1.628   0.579   7.832  0.2090 -0.4590 -0.0331
 3918SOL    HW123390   1.680   0.618   7.762  0.2400  0.6124  0.5872
 3918SOL    HW223391   1.546   0.628   7.821  0.5877 -0.2943 -2.1589
 3919SOL     OW23392   4.620   2.748   1.382  0.1503 -0.3811 -1.0166
 3919SOL    HW123393   4.579   2.720   1.464  0.5141  1.7283 -0.1046
 3919SOL    HW223394   4.714   2.744   1.400 -0.0060 -1.3535 -0.3964
 3920SOL     OW23395   3.359   3.052   1.146  0.4497 -0.0193 -1.0972
 3920SOL    HW123396   3.442   3.070   1.103  0.3273  0.5924 -1.0793
 3920SOL    HW223397   3.309   3.077   1.069 -1.0191 -0.2427 -0.2295
 3921SOL     OW23398   2.295   4.293   7.574  0.0441  0.2840 -0.1540
 3921SOL    HW123399   2.308   4.359   7.506 -1.1531  0.6333 -0.0567
 3921SOL    HW223400   2.317   4.350   7.647 -0.2809  0.5959 -0.2952
 3922SOL     OW23401   1.727   3.670   4.037  0.0541 -0.1010  0.2401
 3922SOL    HW123402   1.807   3.635   3.998 -0.2292 -0.5569  0.0705
 3922SOL    HW223403   1.734   3.764   4.024  1.5893 -0.4621 -1.5589
 3923SOL     OW23404   4.158   1.993  12.171  0.0736  0.5399 -0.1045
 3923SOL    HW123405   4.112   1.995  12.087  1.6963  0.4980 -0.9869
 3923SOL    HW223406   4.174   2.086  12.181  0.2806  0.7681 -2.6173
 3924SOL     OW23407   1.756   1.260   9.862  0.5691 -0.1853  0.0603
 3924SOL    HW123408   1.761   1.341   9.812 -1.1882 -0.8396 -1.1720
 3924SOL    HW223409   1.689   1.287   9.924 -0.7153 -0.2803 -1.2857
 3925SOL     OW23410   0.533   0.034  16.325  0.0915 -0.2050 -0.2987
 3925SOL    HW123411   0.528   4.695  16.266 -0.5315 -1.5131  1.4055
 3925SOL    HW223412   0.580   0.006  16.404  1.1164  0.1014 -0.7983
 3926SOL     OW23413   0.389   1.666  11.978  0.3273  0.3030 -0.4537
 3926SOL    HW123414   0.433   1.684  11.894  2.0380 -1.4119  0.0945
 3926SOL    HW223415   0.305   1.711  11.969  0.0094 -0.3852 -0.9279
 3927SOL     OW23416   0.822   4.652   3.638 -0.0961 -0.0530 -0.5955
 3927SOL    HW123417   0.783   4.721   3.692  1.0653 -1.2815  1.8218
 3927SOL    HW223418   0.795   4.687   3.553  1.9023 -0.3282 -1.3282
 3928SOL     OW23419   3.100   3.060   5.954 -0.1196 -0.2309 -0.6322
 3928SOL    HW123420   3.095   2.984   5.897 -2.6145 -1.4086  1.1767
 3928SOL    HW223421   3.026   3.115   5.927 -1.4073 -0.2565  2.8964
 3929SOL     OW23422   4.023   1.510  13.498  0.3722 -0.3456  0.0244
 3929SOL    HW123423   4.019   1.415  13.515 -0.0957 -0.1644  0.8969
 3929SOL    HW223424   4.002   1.559  13.576 -0.4157 -0.9746  0.2082
 3930SOL     OW23425   1.889   3.792  16.452  0.2887  0.5029 -0.1469
 3930SOL    HW123426   1.854   3.710  16.419 -0.4060  0.0182  1.7836
 3930SOL    HW223427   1.980   3.779  16.424  0.0494  0.6384 -0.9951
 3931SOL     OW23428   4.544   2.798  16.473 -0.5489 -0.2693  0.3492
 3931SOL    HW123429   4.532   2.876  16.419  1.0372 -0.7494 -0.6952
 3931SOL    HW223430   4.572   2.835  16.556  1.1902  1.3502 -0.9775
 3932SOL     OW23431   4.469   3.539   7.881  0.2275  0.2069 -0.3950
 3932SOL    HW123432   4.390   3.537   7.827 -0.9892 -0.2683  1.3944
 3932SOL    HW223433   4.455   3.472   7.949 -1.1598 -0.2614 -1.1528
 3933SOL     OW23434   0.918   3.482   2.186 -0.2738 -0.1269 -0.1388
 3933SOL    HW123435   0.997   3.437   2.157  0.6467  1.2602  0.2384
 3933SOL    HW223436   0.927   3.459   2.279 -0.7859  0.8886  0.1661
 3934SOL     OW23437   0.743   0.370   6.019 -0.2131 -0.3132 -0.2768
 3934SOL    HW123438   0.659   0.325   6.020 -0.8679  0.8749 -0.9184
 3934SOL    HW223439   0.789   0.325   6.089 -2.8079 -0.4896  1.3067
 3935SOL     OW23440   0.845   0.747   9.260 -0.4931  0.5323 -0.0686
 3935SOL    HW123441   0.790   0.741   9.339  1.6801  0.1592  1.4148
 3935SOL    HW223442   0.786   0.738   9.185  1.3551 -0.9776 -1.3288
 3936SOL     OW23443   4.272   1.032   3.309  0.5679 -0.0569 -0.4694
 3936SOL    HW123444   4.354   1.038   3.261  1.5933  0.8940  1.3914
 3936SOL    HW223445   4.234   1.114   3.278  1.7388  0.4105 -0.6677
 3937SOL     OW23446   1.935   0.715   8.737  0.4810 -0.0276  0.0795
 3937SOL    HW123447   1.968   0.628   8.760 -0.1143  0.0509  1.1928
 3937SOL    HW223448   1.909   0.750   8.822 -1.0168 -0.6175 -0.1408
 3938SOL     OW23449   4.271   2.633  16.576  0.8353 -0.4203  0.3024
 3938SOL    HW123450   4.302   2.683  16.651 -2.8776  0.1440  1.4734
 3938SOL    HW223451   4.178   2.655  16.579  0.6221 -1.3301  0.4065
 3939SOL     OW23452   0.523   0.573   4.450  0.0611  0.7310 -0.8319
 3939SOL    HW123453   0.552   0.515   4.520 -2.7092 -0.1214 -0.4014
 3939SOL    HW223454   0.574   0.653   4.460  0.1102  0.5263  0.5220
 3940SOL     OW23455   3.213   0.479   4.079  0.0272  0.4603 -0.3487
 3940SOL    HW123456   3.302   0.444   4.071 -0.0651  0.6964 -2.4811
 3940SOL    HW223457   3.232   0.572   4.092  1.4660 -0.1324  1.7185
 3941SOL     OW23458   3.550   4.630   5.201 -0.2246 -0.3239  0.1140
 3941SOL    HW123459   3.470   4.607   5.248 -0.8070 -0.3946 -0.9288
 3941SOL    HW223460   3.572   4.543   5.168  2.3161 -0.7284  2.7936
 3942SOL     OW23461   4.493   4.073   8.346 -0.6303  0.2873  0.2334
 3942SOL    HW123462   4.581   4.038   8.332 -0.4754  0.4030  0.9166
 3942SOL    HW223463   4.448   3.997   8.309 -0.5253  0.5280 -0.3795
 3943SOL     OW23464   1.404   3.178   9.217 -0.3305 -0.0215 -0.3575
 3943SOL    HW123465   1.380   3.195   9.308 -2.1196  0.7132 -0.9702
 3943SOL    HW223466   1.368   3.090   9.204  0.2493  0.1021 -2.8402
 3944SOL     OW23467   0.661   3.372   3.342  0.1991  0.3598 -0.0950
 3944SOL    HW123468   0.745   3.338   3.374  1.3235  1.0734 -2.2986
 3944SOL    HW223469   0.646   3.451   3.395  1.8398  0.3342  0.4207
 3945SOL     OW23470   3.445   4.543   7.375  0.0242  0.1899  0.3517
 3945SOL    HW123471   3.448   4.629   7.333  2.0167 -0.1003 -0.1154
 3945SOL    HW223472   3.449   4.559   7.469  0.3739  0.7618  0.2371
 3946SOL     OW23473   2.264   4.067   7.447 -1.2058 -0.2131 -0.1644
 3946SOL    HW123474   2.292   4.002   7.512 -0.6597 -0.2419 -0.4359
 3946SOL    HW223475   2.264   4.151   7.494  1.1535 -1.3110  1.8385
 3947SOL     OW23476   4.027   2.160   4.029 -0.0276 -0.1065  0.3888
 3947SOL    HW123477   4.070   2.219   4.091  1.8807 -1.2363  0.1663
 3947SOL    HW223478   4.101   2.107   3.998 -1.4477 -2.2742  0.6842
 3948SOL     OW23479   2.920   3.005   2.238 -0.3052  0.2444 -0.0359
 3948SOL    HW123480   2.850   3.016   2.174  1.5798  1.1436 -1.9326
 3948SOL    HW223481   2.873   3.044   2.312  1.4318  0.4926  0.9457
 3949SOL     OW23482   3.120   2.502   1.104  0.1788  0.3320 -0.0198
 3949SOL    HW123483   3.064   2.530   1.031 -2.0726  1.2445  2.0522
 3949SOL    HW223484   3.207   2.523   1.068  0.4164  1.7278  1.3653
 3950SOL     OW23485   1.409   4.528   3.443  0.2252  0.2887 -0.0181
 3950SOL    HW123486   1.388   4.450   3.494  0.5313  0.0980 -0.1817
 3950SOL    HW223487   1.439   4.596   3.504  2.4474 -1.7345  1.1481
 3951SOL     OW23488   0.532   2.113   9.747 -0.0855  0.5756 -0.1095
 3951SOL    HW123489   0.563   2.203   9.745 -0.2669  0.6896  1.6248
 3951SOL    HW223490   0.461   2.115   9.811  1.0666 -0.5997  1.2109
 3952SOL     OW23491   1.137   0.376   4.036  0.3022  0.5755  0.0914
 3952SOL    HW123492   1.073   0.325   4.084 -0.3442  1.5910  0.2979
 3952SOL    HW223493   1.121   0.466   4.064  1.7187  1.1093 -0.8127
 3953SOL     OW23494   4.495   0.681   1.780 -0.1141  0.8247  0.1580
 3953SOL    HW123495   4.546   0.664   1.701 -3.5504 -1.1475 -1.6128
 3953SOL    HW223496   4.441   0.753   1.748  0.9068  1.3493 -0.3979
 3954SOL     OW23497   0.008   4.469   5.479 -0.0420  0.8948  0.0455
 3954SOL    HW123498   4.669   4.484   5.538 -1.7187  2.3200 -2.4697
 3954SOL    HW223499   0.084   4.488   5.534  0.3147  0.9027 -0.4602
 3955SOL     OW23500   0.385   1.839  11.698  0.0469  0.2808  0.1196
 3955SOL    HW123501   0.468   1.828  11.653 -0.8807  1.2671 -1.8585
 3955SOL    HW223502   0.377   1.934  11.706 -0.3313  0.4892 -2.5713
 3956SOL     OW23503   3.747   3.593  14.844  0.1434 -0.2884  0.1710
 3956SOL    HW123504   3.825   3.646  14.824 -0.9631  0.6558 -1.6927
 3956SOL    HW223505   3.797   3.512  14.848  1.3235  0.3456 -1.2350
 3957SOL     OW23506   4.620   0.971  16.388  0.2053 -0.2496 -0.7628
 3957SOL    HW123507   4.526   0.955  16.392 -0.0534  1.4180  0.1313
 3957SOL    HW223508   4.632   0.943  16.298 -0.0531 -0.9300 -0.5836
 3958SOL     OW23509   2.009   0.768   7.129 -0.8479  0.2857  0.0177
 3958SOL    HW123510   2.085   0.764   7.072  0.2787 -1.7110  1.6595
 3958SOL    HW223511   1.940   0.720   7.083 -0.6798 -0.8378  0.9328
 3959SOL     OW23512   4.298   2.734   1.835  0.0374 -0.2624  0.0990
 3959SOL    HW123513   4.235   2.668   1.865  0.8607 -0.5076  1.2894
 3959SOL    HW223514   4.377   2.681   1.842 -0.5392 -1.3060 -1.4365
 3960SOL     OW23515   3.900   0.967   5.438  0.1885 -0.0990  0.0551
 3960SOL    HW123516   3.933   1.004   5.356 -2.0419 -0.7956 -1.1722
 3960SOL    HW223517   3.949   1.023   5.499 -0.7779 -0.0443  0.7950
 3961SOL     OW23518   1.255   4.639   8.539  0.1666  0.2083  0.0056
 3961SOL    HW123519   1.184   4.642   8.603  1.9890  0.1426  2.0411
 3961SOL    HW223520   1.258   4.550   8.506  3.3163  0.0619  0.6879
 3962SOL     OW23521   1.109   2.411   5.501 -0.4986 -0.2158 -0.0816
 3962SOL    HW123522   1.075   2.349   5.566  2.7581  1.1690  2.9262
 3962SOL    HW223523   1.163   2.465   5.558  0.6131  1.5850 -2.8674
 3963SOL     OW23524   4.323   4.639   9.010 -0.4664  0.3941 -0.4279
 3963SOL    HW123525   4.310   4.646   9.104  0.0419  1.2011 -0.4191
 3963SOL    HW223526   4.329   4.544   8.997 -0.5354 -0.0853  3.0444
 3964SOL     OW23527   2.112   1.628   9.204  0.5518  0.0725 -0.0717
 3964SOL    HW123528   2.143   1.699   9.148  0.7633  0.0268 -0.0142
 3964SOL    HW223529   2.171   1.555   9.182 -0.2529 -0.9148  1.0214
 3965SOL     OW23530   3.459   1.748   1.712  0.2298 -0.2156  0.2897
 3965SOL    HW123531   3.503   1.808   1.651  1.5431 -0.1276  1.3319
 3965SOL    HW223532   3.451   1.796   1.794  0.1825 -0.2579  0.3098
 3966SOL     OW23533   1.926   0.509   3.054 -0.2690  0.6732 -0.3163
 3966SOL    HW123534   1.979   0.589   3.044  0.6367  0.0271 -0.7064
 3966SOL    HW223535   1.868   0.520   2.978 -0.5760 -0.4648 -0.2415
 3967SOL     OW23536   0.407   0.307   6.300 -0.2667 -0.2248 -0.0086
 3967SOL    HW123537   0.417   0.391   6.255 -0.6015 -1.7655 -2.9426
 3967SOL    HW223538   0.315   0.311   6.324 -0.2215 -0.3278  0.1789
 3968SOL     OW23539   1.637   0.738  14.356 -0.4306  0.2159  0.4611
 3968SOL    HW123540   1.732   0.738  14.353 -0.4103  1.7376  0.9661
 3968SOL    HW223541   1.621   0.827  14.388 -2.7577  0.4702 -1.3532
 3969SOL     OW23542   2.249   0.862  17.088  0.1921  1.0920 -0.3540
 3969SOL    HW123543   2.252   0.837  16.996 -4.0916  0.0345 -0.1903
 3969SOL    HW223544   2.250   0.958  17.095  0.9260  0.8151  3.1530
 3970SOL     OW23545   4.522   2.915   5.883  0.0644 -0.6863 -0.0608
 3970SOL    HW123546   4.574   2.835   5.879 -0.4031 -0.9311 -1.1421
 3970SOL    HW223547   4.458   2.892   5.816 -0.0827 -0.1851 -0.0893
 3971SOL     OW23548   3.498   0.363   6.802  0.2811 -0.4368 -0.0572
 3971SOL    HW123549   3.557   0.336   6.732  0.4922  0.7114 -0.3137
 3971SOL    HW223550   3.521   0.455   6.794  2.4590 -0.9068  0.7189
 3972SOL     OW23551   4.583   0.912  17.470  0.0794  0.7763  0.1251
 3972SOL    HW123552   4.561   0.823  17.443  0.4512  0.5454  0.5778
 3972SOL    HW223553   4.669   0.904  17.512 -0.7582 -0.8230  1.5372
 3973SOL     OW23554   2.655   4.575   1.963  0.2325  0.0327 -0.0003
 3973SOL    HW123555   2.683   4.652   1.912 -1.2089  0.4759 -0.1237
 3973SOL    HW223556   2.739   4.548   2.001  0.8958  0.9592 -0.7875
 3974SOL     OW23557   0.020   2.845  10.438 -0.7544  0.7616  0.1494
 3974SOL    HW123558   4.727   2.776  10.377  1.4669  0.5277 -0.6293
 3974SOL    HW223559   0.006   2.812  10.527  0.6486  0.2139  0.1733
 3975SOL     OW23560   3.152   2.345   7.993 -0.0401 -0.4015  0.2490
 3975SOL    HW123561   3.124   2.325   7.904  2.2024 -0.4670 -0.4204
 3975SOL    HW223562   3.093   2.285   8.040 -1.5102  2.6606  2.3767
 3976SOL     OW23563   4.644   1.142   5.737 -0.1994  0.8149  0.6708
 3976SOL    HW123564   4.692   1.193   5.802  0.7634  0.1680  0.4575
 3976SOL    HW223565   4.629   1.202   5.664 -0.8498 -0.3772 -0.1753
 3977SOL     OW23566   4.353   3.763   6.675  0.0928 -0.6607 -0.0203
 3977SOL    HW123567   4.320   3.747   6.587 -2.1793  0.9116  0.5506
 3977SOL    HW223568   4.405   3.842   6.660 -0.1454 -0.8390 -1.7658
 3978SOL     OW23569   0.006   4.100   7.950 -0.5192 -0.3116 -0.4474
 3978SOL    HW123570   4.700   4.073   8.032  0.4644  2.0472  0.8198
 3978SOL    HW223571   0.071   4.030   7.939  0.7459  0.5278  1.5987
 3979SOL     OW23572   4.595   0.378   3.342 -0.1816  0.2725 -0.0710
 3979SOL    HW123573   4.582   0.424   3.259 -0.4198  0.0520 -0.1530
 3979SOL    HW223574   4.587   0.446   3.409  1.5263  0.0373  0.3724
 3980SOL     OW23575   4.556   1.701   6.898 -0.2277  0.0821 -0.4160
 3980SOL    HW123576   4.575   1.646   6.974 -1.0638 -0.6482 -0.7476
 3980SOL    HW223577   4.464   1.719   6.915 -0.9513 -1.4945 -2.7210
 3981SOL     OW23578   1.119   1.358   3.776  0.3891  0.2625 -0.0851
 3981SOL    HW123579   1.203   1.374   3.820  0.4801  1.2579 -0.6078
 3981SOL    HW223580   1.097   1.270   3.806 -2.8207  0.7007 -1.1913
 3982SOL     OW23581   1.176   0.188   7.567  0.5518 -0.0607 -0.1601
 3982SOL    HW123582   1.209   0.168   7.480  2.3654  0.6902  0.3442
 3982SOL    HW223583   1.081   0.200   7.560  0.4742  0.5303  1.7656
 3983SOL     OW23584   3.976   3.268   7.946  0.5754 -0.6112 -0.2975
 3983SOL    HW123585   4.050   3.243   8.002 -0.1767  1.4916  1.6391
 3983SOL    HW223586   3.956   3.357   7.975  2.4922 -0.0106 -0.8022
 3984SOL     OW23587   0.721   1.149   4.822  0.5169 -0.2371 -0.1212
 3984SOL    HW123588   0.717   1.244   4.808  0.6692 -0.1624  0.3445
 3984SOL    HW223589   0.631   1.126   4.843  1.7112 -3.2977  1.6117
 3985SOL     OW23590   4.541   4.188   5.995  0.9154 -0.2437 -0.3974
 3985SOL    HW123591   4.565   4.259   6.054 -1.4554  0.6806 -0.5418
 3985SOL    HW223592   4.446   4.184   5.984  0.9755 -4.4641  0.6037
 3986SOL     OW23593   4.492   2.341   7.281 -0.5705  0.1962 -0.1159
 3986SOL    HW123594   4.566   2.393   7.312 -1.3816  0.7747  0.8697
 3986SOL    HW223595   4.541   2.262   7.258  0.0398  0.3977  0.4783
 3987SOL     OW23596   2.818   1.136   3.776 -0.1694  0.5389  0.0114
 3987SOL    HW123597   2.908   1.124   3.807 -0.3322  0.2978  0.3865
 3987SOL    HW223598   2.783   1.192   3.846  1.1412  1.6534 -0.2198
 3988SOL     OW23599   1.944   4.109   6.611  0.2991  0.3540 -0.3226
 3988SOL    HW123600   1.906   4.197   6.617  3.1083  1.4465  1.4041
 3988SOL    HW223601   2.036   4.133   6.623  1.2273 -2.9624 -1.0117
 3989SOL     OW23602   3.353   2.435   5.210  0.0253 -0.3883  0.2109
 3989SOL    HW123603   3.401   2.480   5.141 -0.8396 -0.4585 -0.4352
 3989SOL    HW223604   3.425   2.427   5.273  0.5620 -0.1671 -0.3766
 3990SOL     OW23605   3.574   0.105   9.466 -0.2589  0.4878  0.0239
 3990SOL    HW123606   3.661   0.124   9.430 -1.0683  1.2046 -1.5668
 3990SOL    HW223607   3.538   0.188   9.436  1.4645  1.1985 -0.0839
 3991SOL     OW23608   2.665   3.647  15.948 -0.0190 -0.3329 -0.1458
 3991SOL    HW123609   2.699   3.563  15.979 -0.6620  0.0575  1.6577
 3991SOL    HW223610   2.704   3.703  16.015 -0.2412 -1.3585  0.8530
 3992SOL     OW23611   0.833   0.207   6.248  0.4707 -0.1988  0.3157
 3992SOL    HW123612   0.870   0.145   6.187 -1.1029 -0.7046 -0.1336
 3992SOL    HW223613   0.746   0.170   6.267 -0.0512  0.2428 -1.1923
 3993SOL     OW23614   4.391   2.238   0.516  0.5309  0.1050 -0.0509
 3993SOL    HW123615   4.322   2.281   0.465 -1.1796 -1.3089  1.0426
 3993SOL    HW223616   4.413   2.293   0.591  0.0554  0.4806 -0.1845
 3994SOL     OW23617   3.200   2.035   6.965  0.0141 -0.7755  1.0122
 3994SOL    HW123618   3.184   2.065   7.054 -2.1937 -1.6716  0.9118
 3994SOL    HW223619   3.160   1.949   6.958 -1.1866 -0.1504  0.2734
 3995SOL     OW23620   1.376   3.546   9.301  0.4174  0.0955  0.4438
 3995SOL    HW123621   1.419   3.588   9.376  1.4235 -2.0494  1.0772
 3995SOL    HW223622   1.437   3.553   9.228 -2.8391  0.1813 -2.2691
 3996SOL     OW23623   2.086   0.612   5.637  0.1604 -0.1615  0.2805
 3996SOL    HW123624   2.015   0.592   5.576  0.4472 -3.6623  1.0732
 3996SOL    HW223625   2.156   0.621   5.572  0.5303  1.1990  0.8658
 3997SOL     OW23626   3.205   1.379   3.882  0.0127  0.3980 -0.2012
 3997SOL    HW123627   3.284   1.368   3.935  0.5274  1.3888 -0.7690
 3997SOL    HW223628   3.167   1.447   3.936 -1.0316 -1.0318  0.8720
 3998SOL     OW23629   3.478   1.953  15.665  0.1470  0.1726  0.0308
 3998SOL    HW123630   3.390   1.980  15.639 -0.8638 -3.4372 -0.3863
 3998SOL    HW223631   3.455   1.883  15.727 -1.7605  0.9739  0.2374
 3999SOL     OW23632   1.926   3.691   2.961  0.2090 -0.4144 -0.1819
 3999SOL    HW123633   2.007   3.739   2.982  0.9827 -0.9617 -1.9156
 3999SOL    HW223634   1.912   3.722   2.872 -1.2259 -0.7837 -0.0764
 4000SOL     OW23635   1.878   1.695   1.294  0.2834  0.3382  0.2939
 4000SOL    HW123636   1.795   1.652   1.314  0.8664 -1.1973 -0.5352
 4000SOL    HW223637   1.854   1.745   1.216 -1.3211 -0.4404  0.3023
 4001SOL     OW23638   3.172   2.916   2.374 -0.1233  0.2729 -0.4133
 4001SOL    HW123639   3.107   2.889   2.310 -0.5578  2.3372 -0.8098
 4001SOL    HW223640   3.159   3.009   2.362 -0.7993  0.2235 -0.0397
 4002SOL     OW23641   1.091   4.334  12.328 -0.2375  0.2312  0.0285
 4002SOL    HW123642   1.092   4.246  12.364 -0.2859 -0.7478 -2.3819
 4002SOL    HW223643   1.041   4.393  12.384 -1.6606 -0.5625 -0.4097
 4003SOL     OW23644   1.802   1.020  10.579  0.4938  0.5872  0.1944
 4003SOL    HW123645   1.801   1.070  10.498 -0.8381  2.1306  1.1549
 4003SOL    HW223646   1.720   0.971  10.569  0.9163 -0.3231  1.1887
 4004SOL     OW23647   4.538   2.493  16.410  0.3102 -0.0843 -0.4288
 4004SOL    HW123648   4.467   2.442  16.449 -0.5825  0.4931 -1.3115
 4004SOL    HW223649   4.607   2.428  16.426 -0.3485 -0.6851 -0.0533
 4005SOL     OW23650   1.813   3.590   8.308  0.3850  0.6434  0.0510
 4005SOL    HW123651   1.826   3.649   8.234 -1.8347 -2.2327 -2.6219
 4005SOL    HW223652   1.724   3.561   8.289 -0.7679  2.3797  2.8267
 4006SOL     OW23653   1.959   2.594  12.718  0.5842 -0.1337  0.4006
 4006SOL    HW123654   1.954   2.658  12.646 -2.6107  0.5416  1.2544
 4006SOL    HW223655   1.880   2.610  12.769  0.0548  3.6720 -1.5400
 4007SOL     OW23656   0.693   0.322  14.440 -0.3114 -0.3602  0.2302
 4007SOL    HW123657   0.729   0.239  14.409 -2.5956 -1.4361  0.4506
 4007SOL    HW223658   0.752   0.339  14.513  1.0300 -1.2297 -0.6502
 4008SOL     OW23659   3.095   2.799   7.572 -0.2128 -0.1254  0.0414
 4008SOL    HW123660   3.049   2.852   7.637  0.8023 -0.2302  0.8294
 4008SOL    HW223661   3.035   2.833   7.505  0.0017  0.6901  0.2632
 4009SOL     OW23662   1.382   4.462  15.917  0.2034  0.0106  0.3556
 4009SOL    HW123663   1.394   4.445  16.011 -0.0978 -0.7714  0.2529
 4009SOL    HW223664   1.389   4.557  15.917 -2.3111  0.1757 -2.8255
 4010SOL     OW23665   2.776   1.622   7.669 -0.0653  0.6035  0.3415
 4010SOL    HW123666   2.740   1.538   7.696 -0.0577  0.6452  0.4803
 4010SOL    HW223667   2.803   1.604   7.579 -1.3101 -0.3025  0.1548
 4011SOL     OW23668   3.733   4.268   9.842  0.1136 -0.4853 -0.3214
 4011SOL    HW123669   3.639   4.272   9.826 -0.3203  0.4384  2.5479
 4011SOL    HW223670   3.748   4.180   9.877  0.5768 -0.3085 -0.0798
 4012SOL     OW23671   2.952   0.972   6.261  0.4483 -0.2420 -0.2606
 4012SOL    HW123672   2.893   0.909   6.221 -0.0327 -0.5872  0.9753
 4012SOL    HW223673   3.009   0.982   6.185  1.3377  0.5234  0.5047
 4013SOL     OW23674   0.807   2.047   4.334 -0.5319 -0.3534  0.2974
 4013SOL    HW123675   0.800   1.961   4.294  0.7070 -1.0700  1.6297
 4013SOL    HW223676   0.865   2.089   4.270 -0.2753  0.0737  0.8089
 4014SOL     OW23677   1.913   3.307   0.267  0.4950  0.1150 -0.4512
 4014SOL    HW123678   1.939   3.316   0.176  1.2344  0.6500 -0.1893
 4014SOL    HW223679   1.974   3.374   0.300 -0.3755 -0.0381  1.4938
 4015SOL     OW23680   3.790   0.801   2.088 -0.0355 -1.4245 -0.1220
 4015SOL    HW123681   3.761   0.876   2.036 -0.9706 -1.7554 -0.0872
 4015SOL    HW223682   3.863   0.767   2.037  1.2480  2.1234 -0.6730
 4016SOL     OW23683   2.766   0.868   3.747  0.0630  0.1569 -0.1226
 4016SOL    HW123684   2.794   0.944   3.798 -0.0696 -0.5691  1.0365
 4016SOL    HW223685   2.704   0.909   3.686 -0.8912 -0.0338  0.7194
 4017SOL     OW23686   2.876   2.036  14.190 -0.1893  0.4233  0.1032
 4017SOL    HW123687   2.916   2.063  14.272  1.4054  0.4709 -0.7019
 4017SOL    HW223688   2.847   2.120  14.156 -0.6663  0.4395  0.5500
 4018SOL     OW23689   2.711   3.394   1.435  0.3811  0.9885  0.2523
 4018SOL    HW123690   2.751   3.308   1.446  0.0585  1.2114  3.4139
 4018SOL    HW223691   2.636   3.367   1.382 -0.6208  0.8345  1.7399
 4019SOL     OW23692   0.878   1.496   3.831  0.3242  0.2554  0.1008
 4019SOL    HW123693   0.960   1.458   3.801  2.1377  2.7102  1.9739
 4019SOL    HW223694   0.903   1.530   3.917 -0.8357  0.2960  0.4257
 4020SOL     OW23695   1.374   0.980   7.163 -0.2240 -0.4368 -0.1813
 4020SOL    HW123696   1.352   0.892   7.133 -1.1496  0.0299 -0.8755
 4020SOL    HW223697   1.289   1.011   7.193  0.6600  1.9346 -0.1199
 4021SOL     OW23698   0.249   0.753   8.749  0.6142  0.5439  0.1487
 4021SOL    HW123699   0.327   0.719   8.704  0.9369  1.4667  0.0159
 4021SOL    HW223700   0.197   0.792   8.680 -0.1788  0.2119  0.5577
 4022SOL     OW23701   4.506   3.597   7.067 -0.3306  0.6009 -0.1846
 4022SOL    HW123702   4.520   3.586   6.973 -0.2041 -0.7813 -0.0106
 4022SOL    HW223703   4.428   3.543   7.080  1.1359 -1.3019  0.6309
 4023SOL     OW23704   2.296   2.684  13.496  0.1304 -0.3598  0.6164
 4023SOL    HW123705   2.270   2.629  13.422  0.2141 -1.3327  1.3130
 4023SOL    HW223706   2.346   2.748  13.445  1.3738 -1.0944  0.9198
 4024SOL     OW23707   0.721   3.833  11.369 -0.2022  0.1653  0.3511
 4024SOL    HW123708   0.763   3.855  11.452  0.4949  0.9312 -0.2003
 4024SOL    HW223709   0.632   3.812  11.397  0.9531 -2.3995  2.0759
 4025SOL     OW23710   1.878   3.696   2.259  0.2975  0.2149 -0.4870
 4025SOL    HW123711   1.830   3.654   2.331 -0.5772 -0.2071 -1.3142
 4025SOL    HW223712   1.801   3.743   2.227  0.0354 -0.1632 -0.4251
 4026SOL     OW23713   2.260   1.115   5.258 -0.2823  0.2421 -0.4047
 4026SOL    HW123714   2.265   1.042   5.197 -1.5166 -0.5545  0.4419
 4026SOL    HW223715   2.202   1.180   5.220 -1.3418 -0.1894  0.4905
 4027SOL     OW23716   2.593   2.995  10.597 -0.1008 -0.3096 -0.3796
 4027SOL    HW123717   2.663   2.938  10.566  0.6266 -0.2729  1.1920
 4027SOL    HW223718   2.535   2.999  10.521 -0.0155 -2.0183 -0.5420
 4028SOL     OW23719   0.414   2.422   2.551  0.3508  0.2018  0.2815
 4028SOL    HW123720   0.334   2.369   2.552  0.8777 -0.5872  1.0830
 4028SOL    HW223721   0.380   2.512   2.545  2.2247  0.8887  0.0764
 4029SOL     OW23722   1.040   1.276  16.218 -0.4304 -0.6586  0.2740
 4029SOL    HW123723   0.974   1.261  16.286  0.4327 -0.5809  1.1199
 4029SOL    HW223724   1.008   1.357  16.178  2.1246  0.7344  1.0585
 4030SOL     OW23725   1.779   0.108  12.080  0.2477  0.3684 -0.2941
 4030SOL    HW123726   1.803   0.179  12.139 -2.0136  0.7382  0.1861
 4030SOL    HW223727   1.837   0.034  12.097 -0.3875 -0.4357 -1.6198
 4031SOL     OW23728   0.018   2.878   1.820 -0.2221 -0.1521 -0.3807
 4031SOL    HW123729   0.090   2.922   1.774  2.0525 -1.0988  2.2588
 4031SOL    HW223730   0.011   2.941   1.891 -3.3079 -2.0541  1.0165
 4032SOL     OW23731   0.111   4.414   2.390  0.2729  0.0627  0.0636
 4032SOL    HW123732   0.163   4.412   2.310 -2.1084  0.3599 -1.4976
 4032SOL    HW223733   0.057   4.338   2.370 -1.6249  1.3651  0.1206
 4033SOL     OW23734   1.535   2.508   2.870  0.4087 -0.5004  0.0913
 4033SOL    HW123735   1.489   2.424   2.876  1.3135 -1.0387 -0.5381
 4033SOL    HW223736   1.473   2.554   2.815  1.3888 -1.7649 -2.0519
 4034SOL     OW23737   0.625   1.749   8.208 -0.5816 -0.2198  0.2423
 4034SOL    HW123738   0.623   1.670   8.155 -0.3879  0.1615 -0.3368
 4034SOL    HW223739   0.695   1.740   8.273 -1.4986 -0.6378  1.1776
 4035SOL     OW23740   3.079   0.381   7.271  0.0438  1.2593  0.7063
 4035SOL    HW123741   2.990   0.348   7.254  0.6791 -0.0291 -0.1273
 4035SOL    HW223742   3.069   0.396   7.365  0.2870 -1.2346  1.1352
 4036SOL     OW23743   3.432   3.270   8.230 -0.3433  0.4227 -0.2837
 4036SOL    HW123744   3.467   3.181   8.232  0.0006  0.5179 -1.4515
 4036SOL    HW223745   3.497   3.322   8.182 -1.3351  1.5696 -0.3746
 4037SOL     OW23746   3.058   2.207   2.126  0.2022  0.3019  0.3364
 4037SOL    HW123747   2.966   2.184   2.125  1.1390 -3.2967 -0.4250
 4037SOL    HW223748   3.087   2.145   2.193  0.8763 -0.1415 -0.3620
 4038SOL     OW23749   1.641   1.012  16.947 -0.2292 -0.0501 -0.0112
 4038SOL    HW123750   1.595   1.038  16.867  2.4541 -1.6668 -2.0929
 4038SOL    HW223751   1.695   1.086  16.972 -1.2050  0.7832 -0.3846
 4039SOL     OW23752   2.286   2.304  15.566  0.0644 -0.5252 -0.5044
 4039SOL    HW123753   2.286   2.258  15.650  0.2066 -3.3473 -2.0539
 4039SOL    HW223754   2.214   2.364  15.587 -0.5795 -0.9053 -1.6172
 4040SOL     OW23755   4.047   2.979  11.518  0.7729 -0.0638 -0.0025
 4040SOL    HW123756   4.091   2.894  11.506 -0.4294 -0.8624  1.2274
 4040SOL    HW223757   3.982   2.964  11.587  1.3474  1.1113  0.8005
 4041SOL     OW23758   1.891   0.852  11.521  0.1814  0.1295 -0.2938
 4041SOL    HW123759   1.820   0.913  11.504 -0.8353 -0.9994 -0.0709
 4041SOL    HW223760   1.960   0.917  11.537  1.1294 -0.3993 -2.1615
 4042SOL     OW23761   1.310   0.256   6.584  0.0844 -0.2148  0.2341
 4042SOL    HW123762   1.329   0.260   6.490 -1.2274 -2.2476 -0.1147
 4042SOL    HW223763   1.386   0.308   6.610  1.0593 -1.4148 -0.2482
 4043SOL     OW23764   4.531   1.588  13.584 -0.6717  0.4442  0.3351
 4043SOL    HW123765   4.496   1.676  13.598 -0.9872  0.8404 -2.9767
 4043SOL    HW223766   4.444   1.555  13.564 -0.2512 -0.0629 -0.6878
 4044SOL     OW23767   0.125   4.126  14.239  0.4365  0.0195  0.2178
 4044SOL    HW123768   0.061   4.072  14.285 -1.2724  1.9838  0.1134
 4044SOL    HW223769   0.081   4.209  14.221  0.1116  0.3674  2.6176
 4045SOL     OW23770   1.271   2.123   3.813 -0.3292 -0.4789  0.3744
 4045SOL    HW123771   1.208   2.085   3.874  1.5700  0.0293  2.6573
 4045SOL    HW223772   1.349   2.111   3.867 -0.4931 -0.6975  0.5656
 4046SOL     OW23773   2.213   3.412   3.562  0.5788  0.4722  0.0801
 4046SOL    HW123774   2.203   3.360   3.482 -2.3201  0.1886  0.6040
 4046SOL    HW223775   2.295   3.453   3.536 -0.1477  0.2595 -2.5596
 4047SOL     OW23776   2.691   0.092   1.815 -0.3250  0.1766 -0.3645
 4047SOL    HW123777   2.727   0.178   1.832  0.5698 -0.1332 -0.7225
 4047SOL    HW223778   2.741   0.058   1.741 -2.7593  0.7461 -2.2891
 4048SOL     OW23779   1.494   4.377   6.368  0.2497 -0.3135  0.4109
 4048SOL    HW123780   1.493   4.316   6.442  0.9524 -2.4744 -1.3310
 4048SOL    HW223781   1.464   4.456   6.413 -1.4270 -0.2284 -0.8196
 4049SOL     OW23782   4.254   1.197   8.075 -0.4178 -0.4569 -0.1645
 4049SOL    HW123783   4.159   1.194   8.074 -0.4808  1.8142 -0.7691
 4049SOL    HW223784   4.263   1.233   7.986 -1.4473  2.1683  0.7883
 4050SOL     OW23785   2.951   1.761   7.839  0.4225  0.3109  0.4697
 4050SOL    HW123786   3.045   1.746   7.829  0.2858  0.9317 -1.7978
 4050SOL    HW223787   2.914   1.725   7.758  0.7721  0.2497  0.3389
 4051SOL     OW23788   1.454   2.615   6.764  0.6912  0.0363  0.1094
 4051SOL    HW123789   1.368   2.579   6.743  0.3855  1.4519 -1.0634
 4051SOL    HW223790   1.489   2.622   6.675  1.1913  0.4616  0.3344
 4052SOL     OW23791   2.194   0.077   9.000 -0.0662  0.3706  0.8716
 4052SOL    HW123792   2.146   0.022   8.938 -0.6352 -0.5522  2.1323
 4052SOL    HW223793   2.198   0.155   8.944 -2.9172  0.4869  0.7895
 4053SOL     OW23794   4.101   1.902   7.823 -0.0335  0.1730 -0.0260
 4053SOL    HW123795   4.129   1.811   7.835 -1.3531 -0.3321 -0.7630
 4053SOL    HW223796   4.045   1.900   7.746  1.3317  2.2666 -1.0800
 4054SOL     OW23797   3.965   0.639  13.865  0.1505 -0.6514 -0.2128
 4054SOL    HW123798   4.017   0.570  13.824 -1.2717 -0.5922 -2.1293
 4054SOL    HW223799   3.908   0.587  13.921 -0.7696 -0.4634 -0.9773
 4055SOL     OW23800   2.969   2.420  12.923  0.4499  0.5866  0.2092
 4055SOL    HW123801   2.963   2.369  13.004 -1.5679  0.2119 -0.1838
 4055SOL    HW223802   3.021   2.360  12.869 -0.1985  0.7905 -0.6375
 4056SOL     OW23803   0.547   0.779   3.422  0.1479 -0.4258 -0.4377
 4056SOL    HW123804   0.522   0.757   3.512  1.4552 -0.8084 -0.1705
 4056SOL    HW223805   0.571   0.872   3.422 -0.0900 -0.3562  1.9506
 4057SOL     OW23806   2.417   3.219   2.199  0.1644 -0.1478 -0.2829
 4057SOL    HW123807   2.468   3.280   2.145  2.0777  0.8159  2.6014
 4057SOL    HW223808   2.328   3.215   2.165 -0.2637  0.7007  0.7587
 4058SOL     OW23809   3.173   0.137   4.700  0.0027 -0.1275 -0.1807
 4058SOL    HW123810   3.168   0.144   4.795 -3.1592 -1.3605 -0.2477
 4058SOL    HW223811   3.137   0.219   4.667 -1.0424 -0.5071  0.0084
 4059SOL     OW23812   0.895   4.693  11.156  0.1262  0.4153  0.0455
 4059SOL    HW123813   0.832   4.634  11.197 -1.0108  2.2707  0.9332
 4059SOL    HW223814   0.977   4.653  11.186 -0.6117  0.0394  1.5477
 4060SOL     OW23815   0.146   2.716  12.112 -0.3685 -0.1239 -0.0056
 4060SOL    HW123816   0.219   2.653  12.104  0.0198  0.3805 -0.4425
 4060SOL    HW223817   0.159   2.777  12.040 -1.4079  0.5482  0.3767
 4061SOL     OW23818   4.386   1.768   3.939  0.2786  0.0511 -0.2594
 4061SOL    HW123819   4.439   1.715   3.999 -0.5896  1.0487  1.4043
 4061SOL    HW223820   4.383   1.702   3.870 -2.5475  0.7015 -0.7292
 4062SOL     OW23821   2.877   4.718   6.005  0.0390  0.0239  0.0062
 4062SOL    HW123822   2.849   0.072   6.025  0.6907 -0.0712  1.3379
 4062SOL    HW223823   2.955   4.717   5.950  1.3380  3.2496  1.8088
 4063SOL     OW23824   4.518   1.091   3.038 -0.4506 -0.7310 -0.0896
 4063SOL    HW123825   4.469   1.172   3.023 -0.0961 -0.0550  2.3975
 4063SOL    HW223826   4.550   1.103   3.127  1.7710  2.7097 -1.3232
 4064SOL     OW23827   4.558   2.954  12.222  0.4685  0.0596 -0.1194
 4064SOL    HW123828   4.611   2.912  12.289  1.4363 -0.3804 -1.1742
 4064SOL    HW223829   4.473   2.916  12.243  1.2653 -2.0726 -0.7467
 4065SOL     OW23830   4.616   1.626   4.370  0.0209  0.6219  0.2507
 4065SOL    HW123831   4.583   1.714   4.387 -2.4005 -0.4465  1.0310
 4065SOL    HW223832   4.542   1.574   4.402 -0.0966  0.7593  0.2008
 4066SOL     OW23833   3.021   0.571   1.800 -0.2060  0.3089  0.3054
 4066SOL    HW123834   3.085   0.570   1.871  1.7820  0.5431 -1.4725
 4066SOL    HW223835   3.056   0.518   1.729  0.5379 -1.2664  1.8590
 4067SOL     OW23836   4.476   1.843   8.364  0.3683  0.5384 -0.4497
 4067SOL    HW123837   4.415   1.883   8.426 -1.3395 -2.4780 -0.1672
 4067SOL    HW223838   4.550   1.840   8.424  0.1327  0.3383 -0.1686
 4068SOL     OW23839   2.858   2.009   2.784  0.0347  0.0129  0.3840
 4068SOL    HW123840   2.947   1.976   2.790 -0.0581 -0.3126 -0.0370
 4068SOL    HW223841   2.869   2.102   2.761  1.6977 -0.6586 -1.5527
 4069SOL     OW23842   0.917   3.181   8.707 -0.2696 -0.2857  0.1083
 4069SOL    HW123843   0.928   3.218   8.794 -1.0046  0.6782 -0.2079
 4069SOL    HW223844   1.003   3.193   8.666 -1.2053  1.1242 -1.4510
 4070SOL     OW23845   4.732   2.413   5.297  0.0748  0.2496  0.0822
 4070SOL    HW123846   4.669   2.485   5.288  0.5663  0.5763 -0.7487
 4070SOL    HW223847   4.710   2.368   5.216  0.9006 -1.3887  0.7646
 4071SOL     OW23848   3.578   2.777   7.109  0.0275  1.0052  0.1299
 4071SOL    HW123849   3.619   2.751   7.191 -2.2647 -1.6755  0.4554
 4071SOL    HW223850   3.513   2.707   7.096  0.8644  0.3966 -0.7288
 4072SOL     OW23851   3.815   4.133  13.775  0.4677 -0.0013 -0.4415
 4072SOL    HW123852   3.838   4.078  13.700 -0.1918  1.2891 -1.5844
 4072SOL    HW223853   3.768   4.075  13.836 -1.0492  3.3840  1.6119
 4073SOL     OW23854   1.505   1.409   8.664  0.5280 -0.3942 -0.5047
 4073SOL    HW123855   1.559   1.458   8.603  1.3820  0.4477  0.9223
 4073SOL    HW223856   1.567   1.389   8.735  0.3156 -0.5985 -0.3754
 4074SOL     OW23857   3.786   4.566  15.485 -0.3832  0.1285 -0.0568
 4074SOL    HW123858   3.737   4.503  15.432  1.4142 -2.3461  1.2158
 4074SOL    HW223859   3.807   4.517  15.565 -2.3267 -0.9968 -0.2371
 4075SOL     OW23860   2.242   3.199   8.086 -0.2727 -0.3213 -0.0511
 4075SOL    HW123861   2.229   3.232   7.997  2.6355  2.0819  0.4183
 4075SOL    HW223862   2.189   3.120   8.073  2.2452 -2.1788  0.9530
 4076SOL     OW23863   3.861   3.156  15.000  0.1324 -0.7796  0.0366
 4076SOL    HW123864   3.880   3.213  14.926  3.0979 -0.1165  1.3131
 4076SOL    HW223865   3.823   3.230  15.048 -1.4270 -0.3386 -1.9021
 4077SOL     OW23866   2.161   4.193  11.866  0.1255  0.0928 -0.0483
 4077SOL    HW123867   2.162   4.267  11.806  0.2764  0.2906  0.2000
 4077SOL    HW223868   2.183   4.228  11.953  0.7645 -0.8065  0.1598
 4078SOL     OW23869   4.095   0.122  16.341  0.1432 -0.4762 -0.0406
 4078SOL    HW123870   4.143   0.197  16.376  1.0423 -1.5834  1.0774
 4078SOL    HW223871   4.046   0.163  16.270  0.8627  0.5385  0.0480
 4079SOL     OW23872   2.722   0.406   5.049  0.1080 -0.2522  0.5904
 4079SOL    HW123873   2.738   0.444   5.136 -1.8695  0.9696  0.4250
 4079SOL    HW223874   2.627   0.406   5.037  0.1538  0.5978  0.1947
 4080SOL     OW23875   1.053   0.513   4.537  0.0655  0.5624  0.1783
 4080SOL    HW123876   1.134   0.469   4.511  0.7678  1.2480  1.2366
 4080SOL    HW223877   1.082   0.601   4.558  0.4013  0.7310 -0.9802
 4081SOL     OW23878   3.409   4.147   2.755  0.0745 -0.1669 -0.4690
 4081SOL    HW123879   3.365   4.070   2.720  1.4105 -0.4009 -1.6264
 4081SOL    HW223880   3.496   4.134   2.717 -0.0294 -2.4498  0.1127
 4082SOL     OW23881   1.018   0.571   4.852 -0.4042  0.1614 -0.0763
 4082SOL    HW123882   1.103   0.538   4.825  0.3984  1.7658  0.4743
 4082SOL    HW223883   0.963   0.493   4.852 -1.2852  0.7783 -0.8566
 4083SOL     OW23884   2.776   2.297   7.596  0.1090  0.2214  0.0633
 4083SOL    HW123885   2.736   2.327   7.515  2.4461  1.6464 -0.5935
 4083SOL    HW223886   2.822   2.216   7.577 -0.0103  0.2379 -0.2871
 4084SOL     OW23887   2.953   4.326   9.278  0.0967 -0.2780 -0.3738
 4084SOL    HW123888   2.970   4.371   9.361  1.9130 -1.9247  0.1492
 4084SOL    HW223889   3.017   4.364   9.220  0.9717  0.7780  1.2912
 4085SOL     OW23890   1.415   3.540   5.939  0.0455 -0.0103  1.3414
 4085SOL    HW123891   1.504   3.563   5.915 -0.8689  0.1271 -1.9292
 4085SOL    HW223892   1.405   3.569   6.029 -0.3057  0.8278  1.0386
 4086SOL     OW23893   0.708   3.781   4.223  0.5901 -0.3495  0.3355
 4086SOL    HW123894   0.769   3.766   4.151  0.9043 -1.4265  0.8169
 4086SOL    HW223895   0.648   3.707   4.216  0.6156 -0.3264 -0.1161
 4087SOL     OW23896   3.625   4.333   8.144 -0.5132  0.3796  0.2519
 4087SOL    HW123897   3.615   4.420   8.107  4.1209  0.6681 -0.3371
 4087SOL    HW223898   3.718   4.313   8.131  0.0302  2.1864  1.4455
 4088SOL     OW23899   3.422   2.672   2.917  0.6624 -0.3034  0.0485
 4088SOL    HW123900   3.412   2.742   2.982  1.2435  0.3548 -0.5675
 4088SOL    HW223901   3.498   2.701   2.866 -0.3183 -0.0342 -1.2389
 4089SOL     OW23902   4.710   3.529   4.814  0.7662 -0.1708 -0.4890
 4089SOL    HW123903   0.005   3.439   4.824 -1.9738 -0.9535  0.8423
 4089SOL    HW223904   4.733   3.549   4.905  0.8100  0.9058 -0.7314
 4090SOL     OW23905   1.252   2.303  14.942 -0.3502  0.1937 -0.3581
 4090SOL    HW123906   1.265   2.261  14.857  2.0569  0.3703 -0.0651
 4090SOL    HW223907   1.222   2.387  14.906  1.4137  0.2509 -1.6924
 4091SOL     OW23908   3.345   3.706   2.383 -0.8306 -0.2277  0.2673
 4091SOL    HW123909   3.348   3.625   2.331 -0.2661  0.9296 -1.4951
 4091SOL    HW223910   3.260   3.695   2.426 -1.1478 -0.5759 -0.4433
 4092SOL     OW23911   2.307   1.895  13.604 -0.1089  0.0244  0.0209
 4092SOL    HW123912   2.393   1.896  13.646 -0.4467  1.1188  0.6864
 4092SOL    HW223913   2.308   1.945  13.523 -1.2904  1.2486  0.7516
 4093SOL     OW23914   2.266   2.039   0.902 -0.3557 -1.1928  0.3614
 4093SOL    HW123915   2.204   1.978   0.943 -2.6729 -0.2996 -1.7928
 4093SOL    HW223916   2.345   1.990   0.924  0.4818 -0.3062 -0.6523
 4094SOL     OW23917   1.458   0.274  12.276 -0.5436 -0.0946  0.4234
 4094SOL    HW123918   1.428   0.334  12.344 -0.3272 -0.3910  0.7789
 4094SOL    HW223919   1.549   0.302  12.287 -0.1616 -0.1880 -2.4410
 4095SOL     OW23920   0.796   0.119  17.685 -0.2215 -0.0809 -0.4062
 4095SOL    HW123921   0.846   0.153  17.611  0.2200  1.4045  0.5583
 4095SOL    HW223922   0.813   0.189   0.008 -1.4470 -0.9621  0.8980
 4096SOL     OW23923   0.744   0.153   6.834  0.1906  0.0062 -0.2538
 4096SOL    HW123924   0.776   0.243   6.829  0.0106  0.1670  1.7948
 4096SOL    HW223925   0.737   0.132   6.927 -0.7097  2.6576  0.2818
 4097SOL     OW23926   3.432   1.321   4.030 -0.2984 -0.6303 -0.2933
 4097SOL    HW123927   3.401   1.301   4.119 -0.6258 -0.8166 -0.4494
 4097SOL    HW223928   3.524   1.347   4.039 -1.0514  2.0595 -0.5025
 4098SOL     OW23929   0.824   0.176   2.299  0.5419 -0.3594 -0.2566
 4098SOL    HW123930   0.827   0.085   2.328  0.8292 -0.5249 -0.7936
 4098SOL    HW223931   0.821   0.220   2.384 -0.1872  0.7914 -0.8859
 4099SOL     OW23932   4.423   1.926   3.003  0.2873  0.1700  0.0386
 4099SOL    HW123933   4.354   1.992   2.994  0.5237  0.3427 -0.4689
 4099SOL    HW223934   4.368   1.854   3.034  0.8819 -1.2519 -2.2631
 4100SOL     OW23935   2.127   3.513   5.241  0.2846 -0.3444 -0.0550
 4100SOL    HW123936   2.216   3.480   5.246  0.4524  0.1739  0.4511
 4100SOL    HW223937   2.081   3.453   5.300 -0.3122 -0.5212 -0.6950
 4101SOL     OW23938   0.790   2.627   8.621  0.6685 -0.2229 -0.0406
 4101SOL    HW123939   0.772   2.635   8.527  0.4841  3.5717  0.2907
 4101SOL    HW223940   0.724   2.559   8.635 -0.7449  0.7561 -1.8894
 4102SOL     OW23941   0.562   1.386   5.998  0.6955  0.1400 -0.3538
 4102SOL    HW123942   0.468   1.366   5.999  0.3683  1.6947 -0.0783
 4102SOL    HW223943   0.583   1.395   6.091  0.7084  3.6185 -0.6761
 4103SOL     OW23944   4.180   4.137   3.312 -0.6356 -0.0012  0.1594
 4103SOL    HW123945   4.239   4.207   3.341 -1.3259  0.3976  0.5796
 4103SOL    HW223946   4.114   4.167   3.374  0.5233  0.9575  0.9392
 4104SOL     OW23947   2.956   1.674  13.474  0.1152  0.0297  0.4336
 4104SOL    HW123948   2.893   1.740  13.503 -1.7564 -0.2759 -2.9782
 4104SOL    HW223949   2.913   1.639  13.396  1.5311  1.4435 -0.9759
 4105SOL     OW23950   2.695   1.602  13.315  0.0312  0.3654  0.2905
 4105SOL    HW123951   2.668   1.636  13.229 -0.4176  3.1476  1.5284
 4105SOL    HW223952   2.712   1.511  13.291  2.5492  1.2543 -1.2522
 4106SOL     OW23953   0.596   3.810   3.951  0.0837 -0.3366 -0.2691
 4106SOL    HW123954   0.562   3.730   3.910  1.0729 -0.6054 -0.5474
 4106SOL    HW223955   0.526   3.830   4.013  1.4308 -0.9821  1.4311
 4107SOL     OW23956   3.648   2.245   0.869  0.0085  0.0553 -0.3263
 4107SOL    HW123957   3.664   2.309   0.800  1.3804  0.4992  0.3978
 4107SOL    HW223958   3.705   2.173   0.842  1.4640  0.0439  2.7609
 4108SOL     OW23959   3.371   3.083   5.822  0.2867  0.0510 -0.0565
 4108SOL    HW123960   3.300   3.093   5.885 -0.6562  0.7250 -1.2168
 4108SOL    HW223961   3.344   3.000   5.782 -0.3849  1.6093 -2.8592
 4109SOL     OW23962   1.910   3.083   8.107  0.2363  0.2928 -0.3804
 4109SOL    HW123963   1.946   3.038   8.183 -0.0075  2.7441  1.1952
 4109SOL    HW223964   1.967   3.052   8.036  1.0477  0.3031  0.2680
 4110SOL     OW23965   1.945   1.100   6.914 -0.1203 -0.9293 -0.4138
 4110SOL    HW123966   1.905   1.180   6.949  2.1661 -0.5090  1.2398
 4110SOL    HW223967   1.887   1.028   6.938  1.0635 -1.6911  0.1728
 4111SOL     OW23968   2.409   2.062   6.290 -0.0486 -0.7288  0.6380
 4111SOL    HW123969   2.332   2.055   6.346 -1.1516  1.2722 -0.6525
 4111SOL    HW223970   2.412   2.155   6.269  0.9311 -1.0381 -0.6485
 4112SOL     OW23971   3.049   0.879   9.292 -0.4233 -0.1706 -0.5061
 4112SOL    HW123972   3.132   0.899   9.249 -1.2676  0.1928 -1.9543
 4112SOL    HW223973   3.085   0.852   9.377 -0.5244 -0.9481 -0.7164
 4113SOL     OW23974   2.996   2.387   6.888  0.1714  0.4559  0.4378
 4113SOL    HW123975   2.929   2.318   6.888 -0.6214  1.2141 -0.2849
 4113SOL    HW223976   2.998   2.413   6.980 -0.7777  2.1040  0.0019
 4114SOL     OW23977   3.363   3.386   0.115  0.2304  0.2588  0.2642
 4114SOL    HW123978   3.332   3.306   0.159  1.9193 -0.0929  0.8074
 4114SOL    HW223979   3.278   3.420   0.085 -0.4303 -2.1971 -0.6588
 4115SOL     OW23980   2.074   3.851   8.910 -0.4875 -0.2069  0.2011
 4115SOL    HW123981   2.033   3.833   8.826  1.5169  0.5033 -0.9192
 4115SOL    HW223982   2.075   3.766   8.956 -1.6257 -0.5188 -0.3351
 4116SOL     OW23983   2.041   4.513   5.009  0.2578  0.3824 -0.1340
 4116SOL    HW123984   2.026   4.476   4.923  5.0093  0.0833 -0.8598
 4116SOL    HW223985   1.956   4.548   5.034 -0.9947 -0.7817 -2.7751
 4117SOL     OW23986   1.819   3.134   3.317  0.4684  0.0571  0.0549
 4117SOL    HW123987   1.733   3.135   3.275 -0.3571 -0.2919  1.7182
 4117SOL    HW223988   1.791   3.132   3.409  0.9648 -2.1669  0.1337
 4118SOL     OW23989   1.905   3.543   3.183  0.2484  0.4167 -0.5739
 4118SOL    HW123990   1.934   3.596   3.109 -2.9466  0.2559 -1.9209
 4118SOL    HW223991   1.961   3.465   3.177  1.5215  1.2210  0.8247
 4119SOL     OW23992   2.311   3.857   2.573  0.1224  0.0729  0.0473
 4119SOL    HW123993   2.246   3.928   2.583  1.9690  1.2649  3.7735
 4119SOL    HW223994   2.287   3.799   2.645 -1.7639  0.3132 -0.3866
 4120SOL     OW23995   0.304   1.895   7.247  0.3915 -0.1917  0.1660
 4120SOL    HW123996   0.385   1.942   7.269  0.2982 -0.7150  1.6037
 4120SOL    HW223997   0.328   1.806   7.221  0.0813 -0.0473 -0.6004
 4121SOL     OW23998   1.974   3.982  11.911  0.0867 -0.6377 -0.7867
 4121SOL    HW123999   1.954   4.029  11.992 -1.2245  0.3802 -1.6787
 4121SOL    HW224000   2.049   4.031  11.878 -1.0832  1.0593 -0.9540
 4122SOL     OW24001   2.868   1.699   9.235 -0.0455  0.3225 -0.8555
 4122SOL    HW124002   2.800   1.633   9.222  0.8424 -0.3804 -1.9256
 4122SOL    HW224003   2.825   1.784   9.220  0.0889 -0.0261 -3.3036
 4123SOL     OW24004   1.851   3.227   4.188 -0.0438  0.5157  0.8561
 4123SOL    HW124005   1.786   3.247   4.256 -1.6281 -2.7148  0.2822
 4123SOL    HW224006   1.922   3.285   4.217  0.0177  2.0289 -2.2356
 4124SOL     OW24007   4.319   0.246  16.772 -0.1891 -0.2575 -0.3400
 4124SOL    HW124008   4.369   0.318  16.734  2.3509 -2.2735 -0.8439
 4124SOL    HW224009   4.237   0.289  16.795  0.8580  1.2810  0.5660
 4125SOL     OW24010   3.756   1.557  11.554  0.0586  0.1411 -0.2602
 4125SOL    HW124011   3.712   1.521  11.477  0.6296 -0.7749 -0.1604
 4125SOL    HW224012   3.678   1.577  11.606  0.6561 -0.4353  0.8640
 4126SOL     OW24013   2.808   2.618   4.685  0.5545 -0.5015  0.2335
 4126SOL    HW124014   2.852   2.686   4.736  0.4113 -1.6792  1.8913
 4126SOL    HW224015   2.866   2.630   4.609 -0.8367 -1.0980 -0.9302
 4127SOL     OW24016   1.506   0.480   6.329  0.3284  0.1639 -0.1454
 4127SOL    HW124017   1.472   0.435   6.252  3.3543 -1.9308 -0.2174
 4127SOL    HW224018   1.434   0.485   6.392  0.8111 -1.7821  0.5503
 4128SOL     OW24019   2.843   2.531   0.974 -0.5814  0.4527 -0.3896
 4128SOL    HW124020   2.756   2.492   0.983 -0.0185 -1.1309 -1.8948
 4128SOL    HW224021   2.834   2.573   0.888 -1.3591 -0.2732 -0.6610
 4129SOL     OW24022   2.890   0.021  17.473  0.2323  0.1437  0.2339
 4129SOL    HW124023   2.895   0.069  17.390 -2.0273  0.3638  0.2331
 4129SOL    HW224024   2.982   4.731  17.463  0.0232 -0.6452  0.2927
 4130SOL     OW24025   4.383   2.494   4.309 -0.3263  0.0984 -0.2461
 4130SOL    HW124026   4.453   2.554   4.335 -1.4937  1.2079  0.3887
 4130SOL    HW224027   4.428   2.447   4.240 -0.3981  0.2198 -0.3761
 4131SOL     OW24028   0.092   1.408   3.281  0.3894  0.0340  0.0275
 4131SOL    HW124029   0.117   1.345   3.349  0.0151 -0.9574 -0.7563
 4131SOL    HW224030   0.127   1.487   3.322 -0.4027 -0.2122  1.1912
 4132SOL     OW24031   1.470   2.835   8.966  0.1188 -0.2207  0.4925
 4132SOL    HW124032   1.391   2.809   8.920  0.6582 -1.1143  0.0714
 4132SOL    HW224033   1.431   2.869   9.047 -2.0042  2.1240 -1.5266
 4133SOL     OW24034   2.703   0.286  14.097 -0.4258 -0.4890  0.5439
 4133SOL    HW124035   2.616   0.276  14.059 -0.0940  2.4588 -0.9718
 4133SOL    HW224036   2.716   0.380  14.107 -1.2305 -0.3840  0.6162
 4134SOL     OW24037   0.436   0.987   1.060  0.1993 -0.0372  0.4261
 4134SOL    HW124038   0.378   0.973   0.986 -0.5149  1.2101  0.7576
 4134SOL    HW224039   0.386   0.941   1.128 -0.5406 -2.2666 -1.6296
 4135SOL     OW24040   0.995   1.780   9.623 -0.1530  0.7409 -0.4536
 4135SOL    HW124041   0.908   1.815   9.603 -0.7339 -0.2328  0.4009
 4135SOL    HW224042   0.990   1.697   9.576  0.5348  0.6656 -0.3901
 4136SOL     OW24043   1.614   2.240   6.811 -0.2636  1.0223  0.4957
 4136SOL    HW124044   1.643   2.245   6.902  0.3480  0.5012  0.3264
 4136SOL    HW224045   1.559   2.162   6.810  1.9715 -0.6027  3.4407
 4137SOL     OW24046   2.979   4.093   2.171 -0.4201  0.0683  0.2936
 4137SOL    HW124047   3.015   4.083   2.082 -1.8809 -0.4243 -0.2374
 4137SOL    HW224048   2.911   4.027   2.179 -2.2584  1.6385 -2.0988
 4138SOL     OW24049   0.523   0.898   9.142 -0.4692  0.0334  0.0673
 4138SOL    HW124050   0.572   0.830   9.095  0.0122 -0.2922  1.0284
 4138SOL    HW224051   0.442   0.905   9.092 -0.8562  1.2625  0.8800
 4139SOL     OW24052   2.685   0.280  15.067  0.0981 -0.2847  0.2163
 4139SOL    HW124053   2.603   0.316  15.032 -0.5448 -0.8777  1.1150
 4139SOL    HW224054   2.736   0.360  15.075  0.8422 -0.8185  0.7590
 4140SOL     OW24055   3.189   1.317   6.753 -0.3935 -0.3927 -0.2518
 4140SOL    HW124056   3.247   1.358   6.689  0.4096  0.7464  1.2302
 4140SOL    HW224057   3.154   1.393   6.799 -0.1528 -1.6348  1.9879
 4141SOL     OW24058   0.680   2.786  14.443 -0.3193  0.1448  0.4475
 4141SOL    HW124059   0.651   2.875  14.425 -1.5625 -0.5091 -0.6786
 4141SOL    HW224060   0.646   2.737  14.369 -0.9918 -0.9277  1.4719
 4142SOL     OW24061   1.190   3.118   2.517 -0.2864 -0.3443 -0.1448
 4142SOL    HW124062   1.148   3.120   2.603  0.7001 -0.3226  0.3406
 4142SOL    HW224063   1.138   3.060   2.462  0.8925 -1.5834  0.0261
 4143SOL     OW24064   1.985   0.713   6.169  0.5229  0.3051 -0.0429
 4143SOL    HW124065   2.001   0.791   6.221 -1.6755  0.0882  0.9671
 4143SOL    HW224066   1.992   0.753   6.082 -1.4775 -0.0375 -0.3737
 4144SOL     OW24067   1.380   3.574   6.219  0.4331  0.2506 -0.6631
 4144SOL    HW124068   1.429   3.531   6.289 -0.0505  0.4183 -0.2175
 4144SOL    HW224069   1.344   3.648   6.269 -1.8929 -2.9704  2.4522
 4145SOL     OW24070   0.886   2.720   6.796  0.0157 -0.5711  0.0160
 4145SOL    HW124071   0.879   2.625   6.808 -1.2045 -0.4854 -0.0987
 4145SOL    HW224072   0.804   2.754   6.832  0.1081  0.4647 -0.7700
 4146SOL     OW24073   1.097   2.150   6.179 -0.2734  0.1832  0.2768
 4146SOL    HW124074   1.126   2.239   6.199 -0.7315  0.1268  1.1731
 4146SOL    HW224075   1.005   2.159   6.204  0.5629  0.3833  3.2168
 4147SOL     OW24076   3.843   0.892   2.594  0.2177  0.0694 -0.1012
 4147SOL    HW124077   3.786   0.933   2.659 -1.4512  1.8962 -2.7359
 4147SOL    HW224078   3.928   0.933   2.610  0.3945 -0.1506 -0.4977
 4148SOL     OW24079   0.561   4.516   9.528 -0.3627 -0.2196  0.4921
 4148SOL    HW124080   0.554   4.421   9.533 -0.2447 -0.2919 -0.8493
 4148SOL    HW224081   0.532   4.537   9.617 -1.6823 -1.5327  0.3618
 4149SOL     OW24082   2.131   1.438   2.954 -0.4748 -0.8767 -0.3072
 4149SOL    HW124083   2.177   1.423   3.037  0.1972  0.3427 -0.4633
 4149SOL    HW224084   2.193   1.478   2.893  2.4573  1.6544  4.2945
 4150SOL     OW24085   3.360   2.254   3.852 -0.0663 -0.1840 -0.5332
 4150SOL    HW124086   3.321   2.299   3.927  1.2189 -2.2350  1.3513
 4150SOL    HW224087   3.450   2.256   3.885 -1.1473  0.8474  2.2831
 4151SOL     OW24088   0.561   0.696   1.177 -0.8886  0.5402 -0.2247
 4151SOL    HW124089   0.569   0.631   1.247  0.1240  0.9719  0.0587
 4151SOL    HW224090   0.482   0.741   1.206  0.0139  1.8693  0.1598
 4152SOL     OW24091   2.251   2.532   6.655  0.4853 -0.1723 -0.1098
 4152SOL    HW124092   2.302   2.546   6.575 -0.8895 -3.0839 -1.4981
 4152SOL    HW224093   2.325   2.525   6.714 -1.0668 -1.6437  1.6487
 4153SOL     OW24094   2.036   0.184  15.009  0.0688  0.5013  0.3972
 4153SOL    HW124095   1.967   0.160  15.071 -0.9227  1.5510 -0.3070
 4153SOL    HW224096   2.084   0.257  15.047  1.3416  0.4274 -1.0772
 4154SOL     OW24097   2.274   2.573   9.433 -0.4796  0.8011 -0.4657
 4154SOL    HW124098   2.273   2.509   9.505  0.1163 -1.7655 -2.7394
 4154SOL    HW224099   2.367   2.581   9.413  0.0443 -2.1277  0.8143
 4155SOL     OW24100   0.289   4.342  14.439  0.0414  0.3912  0.6106
 4155SOL    HW124101   0.245   4.285  14.376 -1.7954  1.4578  0.9559
 4155SOL    HW224102   0.379   4.333  14.405 -0.6163 -0.6711 -0.8736
 4156SOL     OW24103   2.837   0.740   7.820 -0.4083  0.5276  0.7617
 4156SOL    HW124104   2.821   0.821   7.770  0.3562  1.5534  2.2001
 4156SOL    HW224105   2.753   0.695   7.820  0.5470 -1.2291  0.3886
 4157SOL     OW24106   2.541   3.759   2.487 -0.1212  0.1784 -0.4614
 4157SOL    HW124107   2.543   3.782   2.394  1.0524 -1.2092 -0.7759
 4157SOL    HW224108   2.455   3.785   2.520 -0.4998 -1.4162 -0.1939
 4158SOL     OW24109   3.867   2.296   3.832  0.1248 -0.0733 -0.1663
 4158SOL    HW124110   3.920   2.308   3.754  1.6574 -2.5212  0.4906
 4158SOL    HW224111   3.921   2.254   3.898  2.9304  3.1628 -0.4268
 4159SOL     OW24112   2.108   2.681   8.997  0.1272 -0.1089  0.1139
 4159SOL    HW124113   2.033   2.662   9.052 -0.5834 -0.9907 -1.1542
 4159SOL    HW224114   2.080   2.760   8.951  0.8878  0.0582 -0.0732
 4160SOL     OW24115   2.023   4.479   7.895  0.4285  0.3028 -0.8274
 4160SOL    HW124116   2.047   4.386   7.887 -0.2114  0.1623 -1.0685
 4160SOL    HW224117   2.112   4.513   7.886 -0.2505  1.8892 -1.5301
 4161SOL     OW24118   1.869   1.329  12.185  0.2435 -0.5936  1.0372
 4161SOL    HW124119   1.939   1.280  12.142  0.8647 -1.1166  2.6450
 4161SOL    HW224120   1.878   1.294  12.273 -2.1562 -0.4660  1.3091
 4162SOL     OW24121   2.282   0.327   8.909  0.1821  0.9424  0.0652
 4162SOL    HW124122   2.360   0.272   8.912 -1.4852 -1.2551  2.8072
 4162SOL    HW224123   2.325   0.406   8.940 -2.0772  1.7835  1.0598
 4163SOL     OW24124   1.076   0.517   8.715  0.0776 -0.0109  0.0745
 4163SOL    HW124125   1.025   0.478   8.786  0.1421  1.3972  0.8910
 4163SOL    HW224126   1.167   0.511   8.742  0.3206  1.8537 -0.3058
 4164SOL     OW24127   1.092   0.211   5.434 -0.4554 -0.0443 -0.2259
 4164SOL    HW124128   1.015   0.263   5.457  0.7356  0.9943  1.4363
 4164SOL    HW224129   1.152   0.252   5.498 -0.1885 -0.5396 -0.1585
 4165SOL     OW24130   4.001   0.842   8.709  0.2286  0.5282  0.3614
 4165SOL    HW124131   3.987   0.759   8.665  1.4554  0.8776 -0.7159
 4165SOL    HW224132   4.031   0.896   8.635 -0.0942  1.1657  0.6961
 4166SOL     OW24133   3.409   0.853   1.567 -0.3128  0.0182  0.2228
 4166SOL    HW124134   3.489   0.805   1.546 -0.0112  0.1389  1.1147
 4166SOL    HW224135   3.337   0.797   1.536  0.1387  0.1209 -1.0137
 4167SOL     OW24136   4.604   3.003   3.828  1.0078  0.1099  0.0007
 4167SOL    HW124137   4.559   3.040   3.904 -0.1035 -0.2703 -0.4638
 4167SOL    HW224138   4.552   3.040   3.757  0.0561  0.8539  1.0679
 4168SOL     OW24139   0.863   0.501  13.338 -0.2646 -0.3760 -0.4172
 4168SOL    HW124140   0.815   0.426  13.374 -0.0856 -0.1671  0.2610
 4168SOL    HW224141   0.879   0.550  13.418  3.1976 -0.1771 -1.2483
 4169SOL     OW24142   1.271   4.308   1.971 -0.6317  0.6612  0.6385
 4169SOL    HW124143   1.348   4.364   1.981  0.3117 -0.2022 -1.9815
 4169SOL    HW224144   1.205   4.361   2.016  1.6854  3.3278  0.8893
 4170SOL     OW24145   2.484   0.819  10.925  0.0004  0.4099 -1.0126
 4170SOL    HW124146   2.465   0.827  11.018  0.7930  2.2038 -1.0112
 4170SOL    HW224147   2.482   0.724  10.915 -0.4656  0.4049 -0.8832
 4171SOL     OW24148   0.944   3.771   8.286 -0.1924  0.0795 -0.0798
 4171SOL    HW124149   0.978   3.693   8.242  1.6552  0.5985  0.4475
 4171SOL    HW224150   0.933   3.817   8.202  0.7194 -1.0863 -0.8485
 4172SOL     OW24151   2.275   1.770   3.573 -0.4832 -0.3586  0.8080
 4172SOL    HW124152   2.353   1.781   3.519 -0.5750  1.0600  0.9444
 4172SOL    HW224153   2.290   1.829   3.647  2.0464  0.8952 -0.7211
 4173SOL     OW24154   2.641   3.279  12.027 -0.2582 -0.4288  0.1181
 4173SOL    HW124155   2.617   3.284  12.120  0.8921 -1.4125  0.4661
 4173SOL    HW224156   2.593   3.202  11.999 -0.2357  0.0317 -1.1977
 4174SOL     OW24157   3.294   3.853   1.224  0.0576 -0.4984  0.1054
 4174SOL    HW124158   3.225   3.900   1.177  0.1551 -0.4201  0.0412
 4174SOL    HW224159   3.282   3.769   1.181  2.9141  0.2511 -2.1958
 4175SOL     OW24160   4.394   2.394   5.857 -0.1879  0.2518 -0.3416
 4175SOL    HW124161   4.423   2.379   5.767  1.2150 -1.6767  0.4338
 4175SOL    HW224162   4.458   2.456   5.890  0.5784 -1.7158  1.8549
 4176SOL     OW24163   0.468   0.272   0.386 -0.2417 -0.1233 -0.3622
 4176SOL    HW124164   0.544   0.224   0.419  0.0544  0.6314  0.0698
 4176SOL    HW224165   0.395   0.210   0.389 -0.0865 -0.2444  1.2151
 4177SOL     OW24166   4.718   3.897   4.984  0.1955  0.1266  0.0265
 4177SOL    HW124167   0.024   3.848   4.913  0.9490  0.7083  0.0670
 4177SOL    HW224168   4.627   3.884   4.957  0.1928 -0.1555  0.1708
 4178SOL     OW24169   1.940   0.302   7.914 -0.8078  0.2090 -0.4470
 4178SOL    HW124170   1.849   0.303   7.944 -1.6409  2.0057 -3.0239
 4178SOL    HW224171   1.940   0.338   7.826  1.0488  1.0415 -0.1249
 4179SOL     OW24172   0.669   3.825  10.922 -0.9595  0.3642  0.2017
 4179SOL    HW124173   0.704   3.899  10.971 -0.7671  0.0028  0.6067
 4179SOL    HW224174   0.608   3.787  10.985  0.4469 -0.6840  0.9325
 4180SOL     OW24175   0.109   1.593  17.436  0.3485  0.0542  0.7872
 4180SOL    HW124176   0.047   1.568  17.368  2.1459  1.5090 -1.3684
 4180SOL    HW224177   0.186   1.623  17.389 -0.3286  2.0157  0.9159
 4181SOL     OW24178   2.532   3.472   8.217  0.3432 -0.0043 -0.8840
 4181SOL    HW124179   2.523   3.567   8.212 -0.4398  0.0549  1.6164
 4181SOL    HW224180   2.442   3.440   8.222  1.3603 -2.5184  1.1575
 4182SOL     OW24181   3.592   2.266  16.620 -0.4912  0.0023  0.5752
 4182SOL    HW124182   3.619   2.337  16.678  0.0510 -0.2051  0.5859
 4182SOL    HW224183   3.680   2.258  16.583 -0.6188  0.5533  0.1447
 4183SOL     OW24184   1.100   3.483   0.149  0.0488  0.9514 -0.2237
 4183SOL    HW124185   1.042   3.529   0.210 -1.4069  0.2914 -1.1196
 4183SOL    HW224186   1.126   3.402   0.192 -1.9415  0.4680  0.0210
 4184SOL     OW24187   3.238   0.383   6.519 -0.0014 -0.3453 -0.0623
 4184SOL    HW124188   3.252   0.366   6.612 -2.8908 -2.6558 -0.0287
 4184SOL    HW224189   3.295   0.324   6.470  2.3959  1.6369  0.3664
 4185SOL     OW24190   2.286   3.944   6.470  0.7791  0.0562 -0.3309
 4185SOL    HW124191   2.316   4.001   6.541 -0.0936  2.7413 -2.1111
 4185SOL    HW224192   2.308   3.985   6.386 -0.1252  2.0617  0.3926
 4186SOL     OW24193   1.141   0.885   3.721 -0.1679  0.9277  0.2969
 4186SOL    HW124194   1.223   0.932   3.733 -0.2454  1.5771 -1.6926
 4186SOL    HW224195   1.097   0.941   3.657 -0.5885 -0.7351 -0.8960
 4187SOL     OW24196   1.396   4.321   4.391 -0.1479  0.2286 -0.7939
 4187SOL    HW124197   1.311   4.280   4.406  0.3244 -1.2318 -2.0761
 4187SOL    HW224198   1.418   4.276   4.310  0.9132  2.2957 -1.6379
 4188SOL     OW24199   4.081   3.680  16.466 -0.3000  0.3939  0.4597
 4188SOL    HW124200   4.078   3.775  16.473  1.4266  0.4813  0.0668
 4188SOL    HW224201   4.102   3.666  16.373 -2.8032 -3.8752  0.5072
 4189SOL     OW24202   0.794   2.995   1.048  0.0770 -0.4223 -0.0364
 4189SOL    HW124203   0.786   3.080   1.004  1.9488 -1.4070 -2.2299
 4189SOL    HW224204   0.820   3.018   1.138 -1.3309 -4.3852  1.4031
 4190SOL     OW24205   1.805   0.556   4.463 -0.2635 -0.4445 -0.3119
 4190SOL    HW124206   1.796   0.468   4.426  3.2223 -0.5470 -0.8568
 4190SOL    HW224207   1.863   0.602   4.403  0.4071  0.1621  0.7999
 4191SOL     OW24208   0.261   3.001   3.283 -0.3606  0.2737  0.1088
 4191SOL    HW124209   0.268   2.952   3.364 -3.4155 -0.2381  0.0693
 4191SOL    HW224210   0.328   3.069   3.290  1.7423 -1.7520 -0.5127
 4192SOL     OW24211   0.072   4.106   8.902 -0.3203  0.0533  0.0003
 4192SOL    HW124212   0.098   4.075   8.815  0.0085 -0.0798  0.1468
 4192SOL    HW224213   0.023   4.183   8.872 -0.2082 -0.9348 -2.7886
 4193SOL     OW24214   4.693   4.234  14.969  0.4141 -0.9507 -0.0138
 4193SOL    HW124215   4.633   4.292  14.921 -0.5117  0.9158  3.4144
 4193SOL    HW224216   4.709   4.159  14.911 -1.2052 -1.5269  0.2764
 4194SOL     OW24217   1.187   4.230   7.756  1.1594  0.2938 -0.0288
 4194SOL    HW124218   1.127   4.266   7.691 -3.3645  0.0995  4.0491
 4194SOL    HW224219   1.273   4.244   7.716 -0.0506 -1.1107 -3.0911
 4195SOL     OW24220   4.515   4.313   8.252 -0.2132 -0.0967  0.1212
 4195SOL    HW124221   4.522   4.300   8.157 -3.7607  1.7424 -0.4130
 4195SOL    HW224222   4.516   4.222   8.279 -2.4300 -0.5072 -1.2143
 4196SOL     OW24223   1.678   3.646   8.553 -0.1579 -1.1041 -0.4743
 4196SOL    HW124224   1.597   3.680   8.590  2.4412  0.5487  3.6220
 4196SOL    HW224225   1.680   3.684   8.465 -0.9523  1.4531  0.6007
 4197SOL     OW24226   1.967   2.969  15.401  0.3163  0.1801 -0.5994
 4197SOL    HW124227   1.889   3.004  15.443 -0.3479  1.2446 -2.7052
 4197SOL    HW224228   1.999   3.054  15.370  1.3974 -1.2454 -3.3574
 4198SOL     OW24229   1.372   2.319   6.162 -0.4211  0.1462  0.2779
 4198SOL    HW124230   1.369   2.337   6.068 -2.3074  2.3749  0.7413
 4198SOL    HW224231   1.445   2.261   6.181 -0.0133  0.8463  0.8582
 4199SOL     OW24232   0.964   2.883  14.182 -0.6662  0.1025 -0.2037
 4199SOL    HW124233   0.939   2.964  14.137 -1.8868  0.0148  0.3182
 4199SOL    HW224234   0.894   2.822  14.158  1.0441 -1.3239 -1.5497
 4200SOL     OW24235   3.740   2.517   4.645  0.5898  0.3298  0.4707
 4200SOL    HW124236   3.834   2.512   4.662  0.3202 -1.3225  1.4475
 4200SOL    HW224237   3.711   2.590   4.700 -2.0334 -0.3521 -0.0013
 4201SOL     OW24238   4.612   1.002  14.954  0.5653  0.2291 -0.8724
 4201SOL    HW124239   4.662   1.082  14.941  1.8675 -0.4481 -0.0673
 4201SOL    HW224240   4.572   1.017  15.040  0.0346  1.5555 -1.3591
 4202SOL     OW24241   3.407   1.444   6.583  0.4796  0.1355 -0.1239
 4202SOL    HW124242   3.495   1.483   6.581  0.7481 -0.5099 -1.5148
 4202SOL    HW224243   3.417   1.378   6.514 -0.8250  1.1742 -1.3100
 4203SOL     OW24244   0.190   4.347   6.771  0.3123  0.1492 -0.3276
 4203SOL    HW124245   0.226   4.431   6.740  0.2383  0.5880  0.7974
 4203SOL    HW224246   0.162   4.366   6.860  0.1380 -0.7743 -0.1873
 4204SOL     OW24247   3.104   1.076   6.995  0.2218 -0.0060 -0.2559
 4204SOL    HW124248   3.094   1.041   7.083  0.2753  0.8821  0.1049
 4204SOL    HW224249   3.142   0.998   6.955 -2.9821 -2.2527  1.1247
 4205SOL     OW24250   4.314   3.669   5.261 -0.3685  0.4205 -0.0778
 4205SOL    HW124251   4.395   3.708   5.294  0.1711  0.0349 -0.9316
 4205SOL    HW224252   4.278   3.619   5.334 -0.6075  0.1650 -0.3691
 4206SOL     OW24253   0.529   3.104  14.937 -0.7953 -0.4931 -0.1540
 4206SOL    HW124254   0.571   3.093  14.852 -0.7361  2.1358 -0.4765
 4206SOL    HW224255   0.445   3.145  14.914 -0.4901 -0.1318 -0.6369
 4207SOL     OW24256   3.181   4.405   0.523 -0.1085  0.8154  0.5472
 4207SOL    HW124257   3.115   4.345   0.486 -1.2270  0.8550  2.4341
 4207SOL    HW224258   3.167   4.398   0.618  1.4520  0.6357  0.7568
 4208SOL     OW24259   1.592   3.454   8.817 -0.5231 -0.2496 -0.9023
 4208SOL    HW124260   1.557   3.529   8.768 -1.9282 -0.2547  0.0745
 4208SOL    HW224261   1.536   3.379   8.794 -2.3081  0.2349  1.8487
 4209SOL     OW24262   4.544   1.712   3.227 -0.0984 -0.4534 -0.3495
 4209SOL    HW124263   4.542   1.617   3.239 -0.5471 -0.1242  2.1233
 4209SOL    HW224264   4.457   1.728   3.190 -0.0686  0.9023  0.1733
 4210SOL     OW24265   2.682   1.679   8.928 -0.2664 -0.4224 -0.9502
 4210SOL    HW124266   2.775   1.700   8.939 -0.7532  0.7241  1.0605
 4210SOL    HW224267   2.677   1.635   9.013 -0.7706  0.9770 -0.2563
 4211SOL     OW24268   4.100   4.187  17.489  0.4321 -0.6628  0.1632
 4211SOL    HW124269   4.011   4.203  17.457  1.0025  1.2614 -0.4771
 4211SOL    HW224270   4.087   4.214  17.580  0.3953  1.2908 -0.4210
 4212SOL     OW24271   4.693   1.881   5.132  0.6333 -0.2349  0.3663
 4212SOL    HW124272   4.690   1.789   5.108 -0.7131  0.1814 -1.0777
 4212SOL    HW224273   4.605   1.913   5.109  0.8388  0.9464  1.1957
 4213SOL     OW24274   1.346   3.754   6.510 -0.1043 -0.0192 -0.3665
 4213SOL    HW124275   1.362   3.834   6.560  1.5934  0.3039 -1.4270
 4213SOL    HW224276   1.421   3.695   6.524 -2.2890 -2.7363 -0.1864
 4214SOL     OW24277   0.879   3.815   8.691  0.3578 -1.0779  0.0103
 4214SOL    HW124278   0.915   3.904   8.690 -1.7349 -0.2594 -2.4242
 4214SOL    HW224279   0.861   3.802   8.598 -1.0936 -1.0506  0.2847
 4215SOL     OW24280   1.081   1.950   9.043 -0.4179  0.1520 -0.1309
 4215SOL    HW124281   1.112   2.040   9.043  1.2561 -0.4433 -0.7939
 4215SOL    HW224282   1.151   1.896   9.008 -1.2760  0.1608 -1.8994
 4216SOL     OW24283   3.973   2.716   6.290 -0.2817 -0.0167 -0.0672
 4216SOL    HW124284   4.061   2.752   6.292  0.3990 -1.7507  1.0449
 4216SOL    HW224285   3.932   2.771   6.357  0.8282 -0.4673  0.9735
 4217SOL     OW24286   3.421   0.230   2.780  0.4787  0.1431  0.0794
 4217SOL    HW124287   3.352   0.166   2.795 -0.0289  0.3176 -1.5558
 4217SOL    HW224288   3.445   0.256   2.870  0.2676  1.0325 -0.1194
 4218SOL     OW24289   2.456   3.991   3.377  0.2816 -0.2729  0.4309
 4218SOL    HW124290   2.517   3.917   3.374 -0.4026 -0.8668  1.0491
 4218SOL    HW224291   2.508   4.066   3.403  0.4710 -1.1787  2.6421
 4219SOL     OW24292   3.054   2.315   7.709  0.4147 -0.4251  0.4798
 4219SOL    HW124293   2.988   2.250   7.684  0.2954  0.5522 -1.6883
 4219SOL    HW224294   3.010   2.396   7.684 -1.9180 -1.5209  0.9403
 4220SOL     OW24295   0.165   1.454   4.945  0.5477 -0.4745 -0.3833
 4220SOL    HW124296   0.166   1.358   4.953 -1.7498 -0.4837 -0.3524
 4220SOL    HW224297   0.260   1.468   4.938  0.0039  3.8351  0.9587
 4221SOL     OW24298   1.350   0.108   5.946 -0.2096  1.0044  0.0438
 4221SOL    HW124299   1.376   0.032   5.894 -0.8410 -0.2507  1.5624
 4221SOL    HW224300   1.258   0.132   5.936 -0.0596  0.7546 -1.9587
 4222SOL     OW24301   1.735   2.501   1.240  0.1310 -0.1507 -0.1307
 4222SOL    HW124302   1.809   2.441   1.229  0.0497 -0.3187  0.2390
 4222SOL    HW224303   1.664   2.437   1.232  1.4310 -1.4672 -1.1830
 4223SOL     OW24304   2.477   4.101   5.357  0.2202 -0.7657 -0.1896
 4223SOL    HW124305   2.512   4.055   5.433 -1.8741  0.6627  1.6113
 4223SOL    HW224306   2.533   4.083   5.281  0.2096 -1.2428 -0.0898
 4224SOL     OW24307   2.869   1.902   0.740  0.0245 -0.2195 -0.2421
 4224SOL    HW124308   2.834   1.816   0.760 -0.8806  0.2202  0.0261
 4224SOL    HW224309   2.912   1.918   0.824 -0.8944 -1.0497  0.3859
 4225SOL     OW24310   1.997   1.462  11.136 -0.2416  0.4035  0.6283
 4225SOL    HW124311   1.998   1.379  11.089  1.9392  0.1350  1.1227
 4225SOL    HW224312   1.912   1.501  11.118  0.0486  0.7130 -0.0844
 4226SOL     OW24313   2.955   0.855   4.012  0.7277 -0.1867  0.5094
 4226SOL    HW124314   2.988   0.829   3.926  0.5092 -2.1528  1.0126
 4226SOL    HW224315   2.937   0.768   4.048  0.8088 -0.9507 -1.3315
 4227SOL     OW24316   0.234   0.053  12.164 -0.1102  0.5606  0.6949
 4227SOL    HW124317   0.189   0.098  12.092  1.4303 -3.6477 -2.9205
 4227SOL    HW224318   0.207   4.698  12.144 -1.7682  1.7400 -2.4581
 4228SOL     OW24319   3.250   1.532   8.411 -0.3298 -0.3447  0.1771
 4228SOL    HW124320   3.286   1.613   8.376  1.8716 -1.7067 -0.7092
 4228SOL    HW224321   3.207   1.572   8.487 -0.5034 -0.1014 -0.0491
 4229SOL     OW24322   0.467   3.883   5.777  0.5375  0.3058 -0.1228
 4229SOL    HW124323   0.554   3.846   5.763  0.9550  1.8667 -1.5464
 4229SOL    HW224324   0.491   3.975   5.783  2.3876 -0.2064  0.5052
 4230SOL     OW24325   1.434   3.426   6.916  0.0987  0.2439 -0.5453
 4230SOL    HW124326   1.376   3.412   6.991  1.4264 -0.6440  0.3150
 4230SOL    HW224327   1.384   3.500   6.881  0.8274  1.3864  0.8902
 4231SOL     OW24328   1.654   0.702   4.198  0.5349  1.0070 -0.0467
 4231SOL    HW124329   1.670   0.636   4.130 -3.8261  1.3352 -1.4190
 4231SOL    HW224330   1.741   0.740   4.207  1.3536 -0.4901 -1.6173
 4232SOL     OW24331   3.150   0.560   2.073 -0.1927  0.7697 -0.2334
 4232SOL    HW124332   3.077   0.587   2.129 -1.5600  1.2936 -2.2776
 4232SOL    HW224333   3.159   0.465   2.086 -0.8390  0.7003 -0.2834
 4233SOL     OW24334   1.320   2.255   9.355 -0.3365 -0.0807  0.1150
 4233SOL    HW124335   1.345   2.172   9.314 -1.4903 -0.1822 -0.3737
 4233SOL    HW224336   1.405   2.297   9.373 -1.8201  3.3576 -0.8933
 4234SOL     OW24337   3.430   2.292   8.778  0.2596  0.2740  1.0645
 4234SOL    HW124338   3.385   2.369   8.812  3.6203  2.2791  0.9183
 4234SOL    HW224339   3.459   2.329   8.694 -2.8985 -0.9250 -0.5590
 4235SOL     OW24340   1.511   4.402  13.969 -1.1813 -0.2582 -0.2413
 4235SOL    HW124341   1.502   4.467  13.900  0.4185 -0.4439 -0.6166
 4235SOL    HW224342   1.558   4.448  14.039 -0.4996  1.5357 -1.8990
 4236SOL     OW24343   3.905   2.508   8.377 -0.4901  0.3881 -0.1825
 4236SOL    HW124344   3.959   2.530   8.301 -0.4924 -2.1097 -0.9002
 4236SOL    HW224345   3.881   2.597   8.402 -0.8724  0.3276 -0.3300
 4237SOL     OW24346   2.557   0.252   5.584  0.2196 -0.0456 -0.4324
 4237SOL    HW124347   2.568   0.253   5.679 -0.4156  1.1546 -0.3742
 4237SOL    HW224348   2.586   0.163   5.561  1.1131  0.3499 -0.8278
 4238SOL     OW24349   2.554   2.997   2.280  0.8617  0.6056  0.7865
 4238SOL    HW124350   2.508   3.075   2.250  1.2104  0.5291  0.0552
 4238SOL    HW224351   2.610   2.976   2.206  0.0300 -1.0244  0.6181
 4239SOL     OW24352   4.210   3.801   4.609  0.3329  0.3433 -0.3999
 4239SOL    HW124353   4.155   3.724   4.594  2.1162 -1.4249  2.2705
 4239SOL    HW224354   4.176   3.825   4.695 -0.2771  1.0876 -0.8541
 4240SOL     OW24355   3.953   4.008  17.180  0.0990 -0.1617  0.2799
 4240SOL    HW124356   4.035   4.058  17.176 -1.4410  2.5603  2.4221
 4240SOL    HW224357   3.896   4.071  17.136 -0.9332 -1.7643 -0.6613
 4241SOL     OW24358   1.773   1.687   9.965 -0.4832 -0.7042 -0.2741
 4241SOL    HW124359   1.813   1.745   9.901  1.1400 -0.9462  0.5215
 4241SOL    HW224360   1.690   1.669   9.922 -0.5974 -1.5268  0.2898
 4242SOL     OW24361   2.391   1.728   5.374 -0.2799 -0.0963  1.0022
 4242SOL    HW124362   2.303   1.710   5.406 -1.8227  1.0715 -2.5527
 4242SOL    HW224363   2.427   1.650   5.331  2.3146  1.1789  0.7985
 4243SOL     OW24364   4.036   3.405   3.566  0.0219  0.4983  0.5438
 4243SOL    HW124365   4.000   3.365   3.645  1.8499  0.4519  1.3732
 4243SOL    HW224366   4.094   3.480   3.582 -0.1093  0.8050 -0.4719
 4244SOL     OW24367   0.083   4.099   1.135  0.6146 -0.1732 -0.0732
 4244SOL    HW124368   0.157   4.117   1.193 -0.3278 -1.5989  1.5709
 4244SOL    HW224369   0.086   4.003   1.131 -1.0008 -0.2197 -0.0460
 4245SOL     OW24370   3.526   2.396  13.131 -0.7554  0.9712 -0.1224
 4245SOL    HW124371   3.510   2.411  13.038 -1.9580 -0.2804 -0.1098
 4245SOL    HW224372   3.622   2.405  13.125 -0.4910 -2.0716 -0.4936
 4246SOL     OW24373   1.838   2.611   3.160  0.0143  0.0933 -0.0289
 4246SOL    HW124374   1.865   2.519   3.151 -1.4423 -0.2986 -0.5917
 4246SOL    HW224375   1.916   2.645   3.203 -0.4598  1.2559 -0.0807
 4247SOL     OW24376   3.227   0.069  14.227  0.1681 -0.0418  0.6958
 4247SOL    HW124377   3.193   0.148  14.270  0.0081  0.5381 -0.5075
 4247SOL    HW224378   3.147   0.018  14.220 -0.1486  0.6571 -0.8245
 4248SOL     OW24379   1.271   1.507   8.780  0.5808 -0.2467  0.1691
 4248SOL    HW124380   1.350   1.476   8.735  0.4604 -0.6409  0.2370
 4248SOL    HW224381   1.215   1.525   8.704  0.6983 -2.1655 -0.3681
 4249SOL     OW24382   0.243   4.230  12.188  0.4709  0.0260  0.0661
 4249SOL    HW124383   0.286   4.146  12.175  1.5726  0.8803 -1.8238
 4249SOL    HW224384   0.312   4.293  12.167  0.8397 -0.7474 -1.0464
 4250SOL     OW24385   3.158   0.005   8.916  0.1293 -0.3501 -0.3061
 4250SOL    HW124386   3.110   0.088   8.924  2.3253  0.9665 -0.8038
 4250SOL    HW224387   3.114   4.701   8.991  1.4320  0.9434  1.1479
 4251SOL     OW24388   4.280   0.646   9.290 -0.1826 -0.3975  0.6523
 4251SOL    HW124389   4.306   0.575   9.349  2.0277 -0.8524 -0.8538
 4251SOL    HW224390   4.324   0.719   9.332  0.2517 -1.1440  1.4855
 4252SOL     OW24391   1.509   2.354   4.442  0.2017 -0.0416  0.9641
 4252SOL    HW124392   1.455   2.394   4.511 -2.7541 -0.3181 -1.1682
 4252SOL    HW224393   1.439   2.308   4.396  0.5767 -0.3525  0.7126
 4253SOL     OW24394   4.028   3.751   7.068  0.0597  0.4058 -0.4802
 4253SOL    HW124395   4.108   3.736   7.017  0.3901  0.2376  0.0903
 4253SOL    HW224396   3.980   3.669   7.064 -0.6450  0.7445  1.2628
 4254SOL     OW24397   0.512   1.268   7.238  0.2475 -0.2206  0.2325
 4254SOL    HW124398   0.468   1.348   7.268 -1.1999 -0.4677 -1.2538
 4254SOL    HW224399   0.438   1.227   7.193 -0.0219 -0.6338  1.0480
 4255SOL     OW24400   4.564   4.186   1.219 -0.4442 -0.2331 -0.0108
 4255SOL    HW124401   4.549   4.117   1.284 -0.9072  0.7776  0.9383
 4255SOL    HW224402   4.648   4.154   1.184  0.1657 -0.4138  1.6342
 4256SOL     OW24403   2.401   2.776   5.670  0.1465  0.7483  0.0456
 4256SOL    HW124404   2.490   2.793   5.700  0.3884  0.3247 -0.4475
 4256SOL    HW224405   2.429   2.729   5.591 -0.7564 -0.1789  0.2727
 4257SOL     OW24406   4.666   3.270   6.336 -0.4385  0.2576 -0.1767
 4257SOL    HW124407   4.586   3.219   6.323 -0.6689 -0.1998  2.9393
 4257SOL    HW224408   4.636   3.360   6.325  0.7710  0.7633  0.7054
 4258SOL     OW24409   0.014   3.609   3.099 -0.1467 -0.0584 -0.1438
 4258SOL    HW124410   4.726   3.577   3.012 -0.5690  1.6125 -0.6632
 4258SOL    HW224411   0.022   3.703   3.082  0.1284  0.1815  1.3553
 4259SOL     OW24412   3.727   2.844   7.825 -0.3267  0.1537  0.0407
 4259SOL    HW124413   3.732   2.752   7.853  0.7196  0.2024  0.0438
 4259SOL    HW224414   3.806   2.875   7.869  0.8668 -0.7891 -1.4285
 4260SOL     OW24415   1.888   4.669  14.087  0.0251 -0.0495  0.3337
 4260SOL    HW124416   1.867   4.593  14.141  1.0262 -0.9979 -0.5972
 4260SOL    HW224417   1.801   4.708  14.076  0.4840  1.2811  1.3426
 4261SOL     OW24418   0.347   2.935   4.005  0.2332  0.2267 -0.4374
 4261SOL    HW124419   0.317   2.845   4.004 -2.9468  1.2838 -2.1450
 4261SOL    HW224420   0.416   2.923   3.940 -1.9527 -3.7898 -2.0118
 4262SOL     OW24421   2.708   0.645   9.592 -0.2417  0.1641  0.3564
 4262SOL    HW124422   2.767   0.632   9.666  1.7446 -1.4927 -1.4966
 4262SOL    HW224423   2.664   0.729   9.609 -1.6354 -0.7447  1.2648
 4263SOL     OW24424   1.109   0.437   7.998  0.0776 -0.0470 -0.0081
 4263SOL    HW124425   1.172   0.455   7.928  0.8307 -1.1341  0.3791
 4263SOL    HW224426   1.052   0.514   7.997  0.1635 -0.0373 -2.1985
 4264SOL     OW24427   1.761   1.301   3.236 -0.1672  0.3222 -0.1833
 4264SOL    HW124428   1.845   1.257   3.250  0.5141  2.0963  1.3578
 4264SOL    HW224429   1.785   1.394   3.241 -1.5685  0.7956 -2.6077
 4265SOL     OW24430   1.616   3.112   7.380 -0.6250  0.4925 -0.4895
 4265SOL    HW124431   1.523   3.094   7.363 -1.3674  3.1471  0.7297
 4265SOL    HW224432   1.615   3.204   7.353 -1.6726 -0.3173 -3.1822
 4266SOL     OW24433   0.272   1.817  14.346  0.3818  0.4288  0.0034
 4266SOL    HW124434   0.294   1.795  14.255  1.0320 -0.7587  0.4380
 4266SOL    HW224435   0.199   1.874  14.327 -0.2930  0.3331  2.3304
 4267SOL     OW24436   1.086   0.211   8.160  0.5498 -0.1614  0.3481
 4267SOL    HW124437   1.062   0.135   8.108  1.2269  0.8090 -1.3663
 4267SOL    HW224438   1.109   0.280   8.098 -1.4118  0.2146  0.0298
 4268SOL     OW24439   1.360   4.172   7.411 -0.6887  0.1342  0.0914
 4268SOL    HW124440   1.441   4.204   7.371  0.8778 -0.2934  2.8976
 4268SOL    HW224441   1.322   4.253   7.444  0.7250  0.2671  1.3868
 4269SOL     OW24442   1.784   4.212   3.107 -0.6299  0.0880  0.0402
 4269SOL    HW124443   1.753   4.285   3.160 -0.8375  0.2571 -0.3163
 4269SOL    HW224444   1.760   4.133   3.156  3.5196  0.2112  2.3444
 4270SOL     OW24445   2.807   3.288  14.030  0.3628 -0.0944  0.2364
 4270SOL    HW124446   2.833   3.279  13.938  0.9148 -1.2343  0.5072
 4270SOL    HW224447   2.890   3.269  14.073 -0.9158 -2.1762  1.8104
 4271SOL     OW24448   1.168   0.598   4.314  0.4648 -0.0452 -0.3172
 4271SOL    HW124449   1.111   0.555   4.378 -0.7100  0.6513 -0.8868
 4271SOL    HW224450   1.115   0.591   4.234  2.0718 -1.1611 -1.2786
 4272SOL     OW24451   2.733   1.157   6.981  0.5199 -0.0720  0.2005
 4272SOL    HW124452   2.827   1.174   6.974  0.5248  0.5163  1.8544
 4272SOL    HW224453   2.696   1.245   6.986 -0.1939 -0.4066  0.8848
 4273SOL     OW24454   2.941   0.622   8.885 -0.4556 -0.0595  0.1503
 4273SOL    HW124455   2.959   0.533   8.917 -2.1952 -0.6979 -0.6619
 4273SOL    HW224456   2.933   0.662   8.972 -0.3263  0.2759  0.0073
 4274SOL     OW24457   4.220   2.116   9.953  0.0790  0.6048 -0.3100
 4274SOL    HW124458   4.192   2.063  10.027 -0.2920  1.5732  0.2512
 4274SOL    HW224459   4.150   2.180   9.939 -0.5341 -0.1852 -0.8094
 4275SOL     OW24460   3.982   2.942  14.787  0.1094 -0.0267 -0.9576
 4275SOL    HW124461   4.055   2.881  14.775 -0.5532 -1.3239  1.6560
 4275SOL    HW224462   3.937   2.917  14.706  0.6587 -1.1789 -0.9182
 4276SOL     OW24463   1.215   3.021   3.267 -0.1944 -0.1756  0.3451
 4276SOL    HW124464   1.198   2.937   3.224 -1.7607  0.3491 -0.0568
 4276SOL    HW224465   1.306   3.006   3.292  0.1765  0.5928 -0.5467
 4277SOL     OW24466   3.358   2.254  13.398 -0.0095 -0.5593 -0.2108
 4277SOL    HW124467   3.382   2.176  13.448  1.4108 -0.6018 -0.9791
 4277SOL    HW224468   3.448   2.286  13.397 -0.4347  0.6790  0.8210
 4278SOL     OW24469   2.713   1.801   0.026  0.2996  0.5812  0.0509
 4278SOL    HW124470   2.778   1.848   0.079  0.1047  1.4867 -0.5180
 4278SOL    HW224471   2.776   1.764  17.704  0.7387  1.0493  0.2085
 4279SOL     OW24472   0.600   1.766   3.957 -0.1208  0.6099 -0.1358
 4279SOL    HW124473   0.690   1.737   3.938 -0.2973 -0.6604  0.9347
 4279SOL    HW224474   0.567   1.780   3.868  0.8832 -0.5977 -0.7027
 4280SOL     OW24475   3.617   0.821   3.619  0.6273 -0.4828 -0.2812
 4280SOL    HW124476   3.668   0.859   3.548 -1.8157  1.4016 -1.0095
 4280SOL    HW224477   3.647   0.731   3.606 -2.8692 -1.9899  2.0197
 4281SOL     OW24478   2.265   3.877  17.369 -0.2706 -0.1595 -0.7597
 4281SOL    HW124479   2.291   3.905  17.457  1.0042  0.2395 -1.2578
 4281SOL    HW224480   2.172   3.874  17.390 -0.3648  1.0589 -1.0063
 4282SOL     OW24481   1.574   3.970   1.845  0.5768  0.2919  0.2451
 4282SOL    HW124482   1.654   4.023   1.848  2.3751 -2.3943 -0.2410
 4282SOL    HW224483   1.632   3.895   1.854  0.1294 -0.2579 -1.5130
 4283SOL     OW24484   2.351   2.018   1.894  0.5693  0.3215  0.2286
 4283SOL    HW124485   2.339   2.049   1.804  1.2372 -0.0762 -0.0018
 4283SOL    HW224486   2.389   2.096   1.934  0.7491  0.5808 -0.4384
 4284SOL     OW24487   1.496   2.143   8.604 -0.2838  0.1750 -0.3769
 4284SOL    HW124488   1.462   2.233   8.600  0.1639  0.3172 -0.9286
 4284SOL    HW224489   1.425   2.083   8.629  0.6883 -0.2532  1.3258
 4285SOL     OW24490   0.452   0.145   2.360  0.1275 -0.3804 -0.0315
 4285SOL    HW124491   0.424   0.230   2.394  0.8078 -0.5717  1.0197
 4285SOL    HW224492   0.491   0.117   2.443 -1.9595  1.1531  1.4401
 4286SOL     OW24493   2.481   3.714   3.604  0.3945 -0.1510  0.1778
 4286SOL    HW124494   2.466   3.686   3.514  1.2207 -0.0461  0.0099
 4286SOL    HW224495   2.556   3.658   3.625  1.0537  0.5397 -0.3758
 4287SOL     OW24496   1.903   4.027   3.841 -0.2691 -0.5492  0.5134
 4287SOL    HW124497   1.874   3.992   3.757  0.4640 -1.3549  0.5994
 4287SOL    HW224498   1.966   3.965   3.878  0.4213  0.4223  0.9921
 4288SOL     OW24499   1.130   3.449  12.922  0.4495 -0.8019  0.0592
 4288SOL    HW124500   1.223   3.459  12.903  0.0701  1.4107 -0.5984
 4288SOL    HW224501   1.118   3.379  12.986  0.2606 -0.3774  0.4934
 4289SOL     OW24502   3.764   2.631   1.646  0.1441  0.1278  0.2428
 4289SOL    HW124503   3.756   2.537   1.631 -0.0007  0.0081  1.0812
 4289SOL    HW224504   3.809   2.659   1.567  2.7884 -0.3935  1.5682
 4290SOL     OW24505   2.097   3.444  12.932  0.5028 -0.1149 -0.0557
 4290SOL    HW124506   2.104   3.521  12.875 -0.4262  0.1669  0.2011
 4290SOL    HW224507   2.090   3.376  12.865  0.5346  0.1093 -0.2880
 4291SOL     OW24508   0.728   2.176   5.944  0.1718 -0.1643  0.4059
 4291SOL    HW124509   0.812   2.215   5.920 -0.0914  0.6789  0.8561
 4291SOL    HW224510   0.730   2.085   5.915 -1.5004 -0.6591  1.8065
 4292SOL     OW24511   0.836   3.431  15.516  0.3190  0.0449 -0.3026
 4292SOL    HW124512   0.822   3.376  15.439  1.2616 -0.3143 -0.2115
 4292SOL    HW224513   0.765   3.495  15.504  1.3340  1.0367 -1.0081
 4293SOL     OW24514   1.181   4.433  14.331  0.5542  0.4247  0.2477
 4293SOL    HW124515   1.247   4.376  14.372  0.2983 -0.7773 -1.0103
 4293SOL    HW224516   1.182   4.510  14.387 -0.3266 -0.0286  0.8940
 4294SOL     OW24517   2.180   2.627   4.505  0.5796 -0.3397  0.8500
 4294SOL    HW124518   2.126   2.666   4.574  0.3813 -1.8661  1.5600
 4294SOL    HW224519   2.115   2.593   4.444  0.0478  0.5182  0.9323
 4295SOL     OW24520   2.161   2.766   5.802  0.5684  0.0825  0.0511
 4295SOL    HW124521   2.230   2.753   5.736  1.6109  0.7038  1.0109
 4295SOL    HW224522   2.164   2.857   5.830  3.1861  0.1228 -0.2945
 4296SOL     OW24523   3.025   2.818   9.170  0.2015 -0.2546 -0.0397
 4296SOL    HW124524   3.006   2.746   9.231 -1.9668  0.7967  0.5397
 4296SOL    HW224525   2.958   2.884   9.188  1.1294  0.2458  1.5232
 4297SOL     OW24526   0.157   2.830   9.093 -0.3217 -0.1881  0.5051
 4297SOL    HW124527   0.145   2.900   9.157  2.8486 -1.3285  2.3533
 4297SOL    HW224528   0.148   2.750   9.144  0.9280  0.3182  1.5222
 4298SOL     OW24529   2.368   2.677   8.892  0.3121 -0.5316 -0.2536
 4298SOL    HW124530   2.289   2.682   8.945  0.7447  0.2907  0.3144
 4298SOL    HW224531   2.412   2.761   8.904  2.0148 -1.4391 -0.1465
 4299SOL     OW24532   3.558   1.295  16.775  0.2655 -0.3592  0.1930
 4299SOL    HW124533   3.603   1.378  16.761 -2.5455  1.3003  1.2140
 4299SOL    HW224534   3.515   1.295  16.689 -0.9314  1.0820  0.8070
 4300SOL     OW24535   3.164   1.703   8.593 -0.4876 -0.2811 -0.3210
 4300SOL    HW124536   3.231   1.724   8.658  0.3287  1.0187 -1.5889
 4300SOL    HW224537   3.139   1.793   8.571  1.1557 -0.1415 -1.5973
 4301SOL     OW24538   0.811   3.715   5.968 -0.1841  0.6244 -0.7944
 4301SOL    HW124539   0.885   3.668   6.005 -0.0750  0.9799 -0.5649
 4301SOL    HW224540   0.840   3.806   5.975 -0.6112  0.6265  0.9243
 4302SOL     OW24541   2.253   4.347   8.582  0.0403 -0.1879  0.7183
 4302SOL    HW124542   2.289   4.404   8.513  1.4075  1.1172  2.4874
 4302SOL    HW224543   2.288   4.391   8.660  1.3576 -2.9568  1.6562
 4303SOL     OW24544   0.903   1.917   3.882 -0.3247  0.1170 -0.0287
 4303SOL    HW124545   0.893   1.833   3.928  0.0236  0.3435  0.4558
 4303SOL    HW224546   0.985   1.945   3.922 -0.0141 -0.2562 -0.3961
 4304SOL     OW24547   1.798   0.442  11.557 -0.0416  0.0086 -0.6081
 4304SOL    HW124548   1.757   0.527  11.573  1.9959  0.8217  0.4113
 4304SOL    HW224549   1.803   0.450  11.462 -0.7686 -0.5282 -0.6789
 4305SOL     OW24550   0.527   2.078   6.259  0.0402 -0.0795  0.0448
 4305SOL    HW124551   0.499   2.162   6.222  0.8048  0.8441  1.5580
 4305SOL    HW224552   0.607   2.054   6.214 -1.8686  0.3819 -3.5469
 4306SOL     OW24553   2.065   0.840   3.851  0.2046 -0.1920 -0.6523
 4306SOL    HW124554   2.063   0.880   3.764 -0.8759 -2.5964 -1.7246
 4306SOL    HW224555   2.066   0.745   3.839 -1.0507 -0.6006  2.4353
 4307SOL     OW24556   1.095   0.764  12.702 -0.0031 -0.9262  0.2074
 4307SOL    HW124557   1.025   0.706  12.672  0.4342 -0.8795 -0.8943
 4307SOL    HW224558   1.078   0.852  12.666  1.7428 -0.3806  0.7046
 4308SOL     OW24559   2.707   2.964   5.333 -0.2020 -0.3365 -0.4753
 4308SOL    HW124560   2.619   2.936   5.360  0.9046 -2.0999  1.3071
 4308SOL    HW224561   2.723   3.024   5.406  0.4730 -0.7673 -0.2747
 4309SOL     OW24562   0.799   4.566  16.448 -0.4834  0.4397 -0.0650
 4309SOL    HW124563   0.821   4.652  16.413  0.1169 -0.4674 -1.9229
 4309SOL    HW224564   0.723   4.598  16.497 -0.4421 -0.6450  0.7163
 4310SOL     OW24565   3.129   1.071   8.730 -0.0905 -0.0711  0.1294
 4310SOL    HW124566   3.204   1.028   8.771  0.8275 -0.0630 -1.5496
 4310SOL    HW224567   3.166   1.148   8.687 -0.5528 -0.1892 -0.4843
 4311SOL     OW24568   3.883   4.258   1.962  0.0620 -0.2017 -0.4387
 4311SOL    HW124569   3.875   4.175   1.916 -2.1628  0.7939 -1.8071
 4311SOL    HW224570   3.877   4.328   1.897 -0.2324  1.0750  0.9663
 4312SOL     OW24571   2.061   0.584   3.810  0.1816  0.4985 -0.1807
 4312SOL    HW124572   1.984   0.534   3.781  0.4337 -0.8923  1.5299
 4312SOL    HW224573   2.131   0.521   3.792 -0.2613  0.1984 -0.8558
 4313SOL     OW24574   2.874   1.254  15.185  0.0430 -0.5477 -0.0034
 4313SOL    HW124575   2.853   1.207  15.266 -1.0549 -0.4004 -0.2065
 4313SOL    HW224576   2.844   1.343  15.207  0.9657 -0.0755 -0.6743
 4314SOL     OW24577   4.228   3.186   5.305 -0.2314  0.0581 -0.2283
 4314SOL    HW124578   4.217   3.278   5.281  1.2077  0.2409 -0.2256
 4314SOL    HW224579   4.290   3.163   5.235  0.1667 -2.8282  1.0541
 4315SOL     OW24580   3.075   1.563  12.752  0.2406 -0.5938 -0.1287
 4315SOL    HW124581   3.000   1.553  12.811  0.3695  0.9186  0.2764
 4315SOL    HW224582   3.142   1.607  12.804 -0.3782 -0.1107  0.2636
 4316SOL     OW24583   4.308   3.507   4.730  0.5976  0.0288 -0.0861
 4316SOL    HW124584   4.388   3.529   4.682 -0.8711  1.4866 -1.8983
 4316SOL    HW224585   4.341   3.439   4.788  0.5224 -0.2594 -0.3836
 4317SOL     OW24586   4.133   3.931   3.497  0.3665 -0.5089  0.4899
 4317SOL    HW124587   4.184   3.982   3.435 -0.0154 -1.0635 -0.2845
 4317SOL    HW224588   4.043   3.957   3.476  0.6167 -1.2338 -1.5067
 4318SOL     OW24589   2.117   2.999   7.380  0.4725 -0.6330 -0.2095
 4318SOL    HW124590   2.055   3.037   7.442 -1.0605 -0.2525 -2.0035
 4318SOL    HW224591   2.163   3.075   7.345 -1.7626 -0.5032 -2.8554
 4319SOL     OW24592   1.908   4.603  12.134 -0.2515  0.0681 -0.6628
 4319SOL    HW124593   1.950   4.536  12.189  0.9989  4.0543  3.1988
 4319SOL    HW224594   1.893   4.553  12.053 -1.4984  2.1168 -1.6800
 4320SOL     OW24595   0.242   2.746   8.567  0.2341 -0.2437  0.3173
 4320SOL    HW124596   0.274   2.836   8.568  1.3179 -0.6213  0.4615
 4320SOL    HW224597   0.196   2.740   8.651 -0.5947  0.9637 -0.0546
 4321SOL     OW24598   1.547   0.104   9.692 -0.3416  0.0520 -0.5452
 4321SOL    HW124599   1.527   0.170   9.758 -1.2980 -1.9850  1.1915
 4321SOL    HW224600   1.476   0.121   9.630 -0.9356  1.2767  0.4761
 4322SOL     OW24601   4.385   4.602   4.179  0.0955  0.0876  0.2472
 4322SOL    HW124602   4.455   4.649   4.135  0.2396 -3.1093 -2.9448
 4322SOL    HW224603   4.389   4.641   4.266 -0.3960  0.0665  0.2791
 4323SOL     OW24604   4.226   0.617   4.584 -0.1987 -0.4730 -0.3273
 4323SOL    HW124605   4.279   0.608   4.505  1.3399  0.1395  0.6388
 4323SOL    HW224606   4.290   0.602   4.654 -1.9795 -1.5773  1.0578
 4324SOL     OW24607   1.590   2.858   9.803  0.0032 -0.3793  0.4643
 4324SOL    HW124608   1.542   2.938   9.827 -1.9396 -1.1292 -0.9107
 4324SOL    HW224609   1.541   2.776   9.806 -0.4131 -0.1470  0.0706
 4325SOL     OW24610   2.291   0.987   8.538 -0.2413 -0.5374  0.0238
 4325SOL    HW124611   2.344   0.916   8.572  1.1527  0.6749  0.3735
 4325SOL    HW224612   2.259   0.951   8.455  0.9255 -0.0563 -0.6290
 4326SOL     OW24613   2.898   1.450   6.225  0.0992  0.4560 -0.0729
 4326SOL    HW124614   2.946   1.485   6.150  1.7109  0.0973  0.7886
 4326SOL    HW224615   2.956   1.382   6.259  0.4064  0.7216 -0.0664
 4327SOL     OW24616   4.472   1.011   1.996  0.2530 -0.1716  1.1963
 4327SOL    HW124617   4.545   1.062   2.030 -0.3154  1.4776 -0.0853
 4327SOL    HW224618   4.467   1.050   1.909  0.5058 -2.5194  0.1198
 4328SOL     OW24619   2.068   2.950  11.275 -0.4255  0.3835 -0.1993
 4328SOL    HW124620   2.064   2.885  11.345 -1.3930 -1.8108 -2.2886
 4328SOL    HW224621   1.979   2.982  11.293 -0.7910 -0.8430  0.2086
 4329SOL     OW24622   1.905   0.795   8.114 -0.1814 -0.0209 -0.3854
 4329SOL    HW124623   1.963   0.721   8.094  0.7485  0.7983 -0.7497
 4329SOL    HW224624   1.942   0.847   8.042  1.6618 -0.2243  0.3941
 4330SOL     OW24625   0.974   1.724   4.291  0.3686 -0.6889  0.1239
 4330SOL    HW124626   0.990   1.745   4.383 -1.0172  1.5910 -0.1530
 4330SOL    HW224627   0.879   1.712   4.300  0.4926 -0.5386  1.6347
 4331SOL     OW24628   2.470   4.495   7.079  0.5777  0.2527 -0.0896
 4331SOL    HW124629   2.408   4.423   7.073  0.4699  0.4536 -1.4045
 4331SOL    HW224630   2.556   4.467   7.049  1.4858 -0.2576  2.9277
 4332SOL     OW24631   0.035   2.465   2.427 -0.1847  0.2336 -0.0701
 4332SOL    HW124632   4.692   2.485   2.479 -1.2466 -3.1174 -0.4025
 4332SOL    HW224633   0.084   2.396   2.472  0.9555  0.9859 -0.1334
 4333SOL     OW24634   3.149   3.911   1.594  0.5964  0.3438  0.1601
 4333SOL    HW124635   3.194   3.831   1.565  2.6040  1.1603  1.0538
 4333SOL    HW224636   3.215   3.960   1.643  1.6875 -0.9692  0.0353
 4334SOL     OW24637   0.369   2.742  13.267  0.1594 -0.0450  0.3915
 4334SOL    HW124638   0.392   2.649  13.276 -0.2240 -0.1409  0.3814
 4334SOL    HW224639   0.276   2.732  13.246  1.0765 -1.7692 -2.7053
 4335SOL     OW24640   1.637   4.308   8.118  0.5616 -0.1858 -0.3015
 4335SOL    HW124641   1.568   4.316   8.052  0.0770 -0.2851  0.1963
 4335SOL    HW224642   1.711   4.347   8.071 -1.2032 -0.4349 -3.2893
 4336SOL     OW24643   0.866   4.138  11.684 -0.0881  0.3725 -0.1067
 4336SOL    HW124644   0.819   4.184  11.754 -0.3462  0.4237 -0.3141
 4336SOL    HW224645   0.939   4.200  11.678 -0.4116  0.7400 -0.2495
 4337SOL     OW24646   2.850   3.428   7.695 -0.7397  0.3258  0.6026
 4337SOL    HW124647   2.860   3.490   7.767  0.8620  1.0785 -0.2679
 4337SOL    HW224648   2.932   3.447   7.650 -1.6724  0.6834 -0.9558
 4338SOL     OW24649   0.812   3.928   3.278 -0.6345 -0.7066 -0.4052
 4338SOL    HW124650   0.781   3.842   3.249 -1.6893 -0.3652 -0.2537
 4338SOL    HW224651   0.897   3.921   3.321 -2.2510 -2.0265  2.5509
 4339SOL     OW24652   2.366   4.485   2.148  0.1553 -0.2083  0.1600
 4339SOL    HW124653   2.396   4.504   2.237 -1.6468  1.3260  0.4627
 4339SOL    HW224654   2.444   4.442   2.113 -0.0454 -0.2097 -0.2798
 4340SOL     OW24655   2.927   0.614   3.482 -0.1006 -0.0947  0.1141
 4340SOL    HW124656   2.845   0.644   3.444  0.1967  1.7058  0.9025
 4340SOL    HW224657   2.986   0.688   3.469  0.0608 -0.3443 -0.5747
 4341SOL     OW24658   4.693   1.245   5.490  0.0157  0.3091 -0.0875
 4341SOL    HW124659   4.709   1.176   5.424  0.8201  0.5988 -0.2020
 4341SOL    HW224660   4.696   1.327   5.441  4.7276  0.4209  0.3592
 4342SOL     OW24661   3.014   4.670  14.830  0.2012 -0.0397  0.8393
 4342SOL    HW124662   2.962   4.725  14.772  0.7271 -1.3498 -0.8812
 4342SOL    HW224663   3.009   4.579  14.800 -0.3726  0.1171  0.4594
 4343SOL     OW24664   1.840   4.644   8.293 -0.5006 -0.5075 -0.4149
 4343SOL    HW124665   1.777   4.584   8.332  0.7155 -0.7687  1.1525
 4343SOL    HW224666   1.787   4.723   8.281  0.7282  0.5530  1.0813
 4344SOL     OW24667   2.467   0.609   2.281  0.1628  0.1730  0.3449
 4344SOL    HW124668   2.507   0.693   2.302 -0.4932  0.4745  0.3715
 4344SOL    HW224669   2.428   0.587   2.366 -0.0780 -0.0480  0.1748
 4345SOL     OW24670   1.542   4.635   6.512 -0.3265  0.1730  0.0062
 4345SOL    HW124671   1.536   4.728   6.492  0.4628  0.2565  0.1597
 4345SOL    HW224672   1.606   4.613   6.445  1.9542  1.2177  1.8449
 4346SOL     OW24673   2.543   4.273   6.129 -0.0681  0.4497 -0.9244
 4346SOL    HW124674   2.448   4.288   6.123 -0.0820  0.2549 -1.2140
 4346SOL    HW224675   2.573   4.292   6.040 -0.6356  0.9801 -1.0054
 4347SOL     OW24676   4.122   1.108   3.044  0.4966  0.3629 -1.1047
 4347SOL    HW124677   4.119   1.184   3.102  0.2788 -0.0645 -0.5631
 4347SOL    HW224678   4.031   1.090   3.021  0.8965  0.3247 -2.7016
 4348SOL     OW24679   1.502   2.203   3.955 -0.1847  0.1048  0.4773
 4348SOL    HW124680   1.573   2.188   4.018  0.8586 -2.4495 -1.3268
 4348SOL    HW224681   1.468   2.287   3.984  1.5005  0.0303  2.6667
 4349SOL     OW24682   2.497   1.313   1.709 -0.5043  0.1853 -0.3241
 4349SOL    HW124683   2.408   1.282   1.692 -0.8135 -0.1188  1.8930
 4349SOL    HW224684   2.473   1.396   1.751 -1.1028 -1.1419  1.9301
 4350SOL     OW24685   0.064   2.358  16.465 -0.3505 -0.1180 -0.5342
 4350SOL    HW124686   0.093   2.431  16.410 -2.0720  0.3270 -0.8552
 4350SOL    HW224687   0.146   2.322  16.498 -0.5738 -0.0809  0.0503
 4351SOL     OW24688   1.390   1.214   8.029 -0.4254  0.0830  0.5584
 4351SOL    HW124689   1.362   1.158   7.956 -0.6475  0.8410  0.0669
 4351SOL    HW224690   1.430   1.144   8.082 -1.3858 -2.1608 -1.7013
 4352SOL     OW24691   2.732   4.059   4.665  0.1946  0.6148  0.6647
 4352SOL    HW124692   2.674   4.079   4.591  0.0443 -1.2455  0.2779
 4352SOL    HW224693   2.814   4.089   4.625  0.6429 -2.6555 -0.9031
 4353SOL     OW24694   1.041   4.445  16.322 -0.0847 -0.0673 -0.5032
 4353SOL    HW124695   1.048   4.397  16.405  0.2620  1.3625  0.3070
 4353SOL    HW224696   0.970   4.502  16.353  0.0229  0.3300 -0.9770
 4354SOL     OW24697   0.613   0.681   6.332 -0.1457 -0.1022  0.3564
 4354SOL    HW124698   0.605   0.667   6.426 -0.5630 -3.0651 -0.1246
 4354SOL    HW224699   0.598   0.775   6.327 -0.7991 -0.2801 -1.0695
 4355SOL     OW24700   2.274   3.049   2.411  0.3940  0.3520 -0.1026
 4355SOL    HW124701   2.223   3.076   2.334 -0.4429 -0.6467  0.1000
 4355SOL    HW224702   2.354   3.012   2.373  1.0666  1.7124 -0.0317
 4356SOL     OW24703   1.069   0.676   0.390  0.3903  0.1815 -0.3152
 4356SOL    HW124704   1.045   0.600   0.442  0.1191  0.7520  0.3936
 4356SOL    HW224705   1.041   0.742   0.454  1.3094 -1.4819  1.8122
 4357SOL     OW24706   1.471   3.097   6.132 -0.3215  0.7185  0.0015
 4357SOL    HW124707   1.533   3.032   6.162 -0.4415 -0.1298 -1.5555
 4357SOL    HW224708   1.451   3.152   6.208 -1.0702  2.4120 -1.3982
 4358SOL     OW24709   3.160   0.986   2.651  0.1816 -0.6071  0.4312
 4358SOL    HW124710   3.076   0.976   2.695  0.1141  0.4282  0.5420
 4358SOL    HW224711   3.136   1.034   2.572  1.5159 -0.1122  0.3141
 4359SOL     OW24712   1.281   2.015   4.594 -0.0504  0.4836  1.1462
 4359SOL    HW124713   1.229   2.091   4.567 -0.6881 -0.8542 -1.4329
 4359SOL    HW224714   1.249   1.941   4.541  1.7519  1.7271 -1.6347
 4360SOL     OW24715   1.501   0.100   3.368  0.3958 -0.1341 -0.4515
 4360SOL    HW124716   1.406   0.104   3.377  0.3016 -1.9417 -0.5809
 4360SOL    HW224717   1.515   0.014   3.328 -0.7368 -1.1314  1.2924
 4361SOL     OW24718   2.267   2.301   5.091  0.6342  0.5969  0.2697
 4361SOL    HW124719   2.332   2.338   5.031 -1.3384  4.1715  0.3569
 4361SOL    HW224720   2.192   2.284   5.034  0.7120 -0.7346  0.5742
 4362SOL     OW24721   0.162   0.482   8.265 -0.1638 -0.4757 -0.8107
 4362SOL    HW124722   0.247   0.498   8.306  0.5703 -0.8016 -2.1905
 4362SOL    HW224723   0.185   0.483   8.172 -0.1722  2.7453 -0.7568
 4363SOL     OW24724   2.229   0.136   1.483  0.1813 -0.0648 -0.1478
 4363SOL    HW124725   2.216   0.058   1.538 -0.1682 -1.2289 -1.8952
 4363SOL    HW224726   2.315   0.115   1.446  0.1386  0.3009 -0.4420
 4364SOL     OW24727   3.943   3.142  17.037  0.3321 -0.1122  0.4565
 4364SOL    HW124728   4.017   3.082  17.048 -0.1400 -0.8775 -0.5496
 4364SOL    HW224729   3.985   3.222  17.006  0.8480 -1.4259 -2.2805
 4365SOL     OW24730   4.164   3.430  14.693 -0.5090  0.4290 -0.2667
 4365SOL    HW124731   4.156   3.458  14.785 -0.9731 -0.8407  0.0719
 4365SOL    HW224732   4.167   3.335  14.704  1.2680  0.8027  2.4941
 4366SOL     OW24733   3.641   1.009   2.740 -0.1100 -0.3147 -0.2435
 4366SOL    HW124734   3.590   0.951   2.796  0.0919  0.2397  0.5001
 4366SOL    HW224735   3.612   1.093   2.775 -1.2896 -0.9884  0.3873
 4367SOL     OW24736   3.039   3.834   4.049  0.1694 -0.1513 -0.1635
 4367SOL    HW124737   3.127   3.809   4.021  0.8138  0.7722  1.0049
 4367SOL    HW224738   3.006   3.772   4.114 -1.7135  0.8918 -0.1223
 4368SOL     OW24739   1.216   2.907  13.669 -0.1112  0.3764 -0.5046
 4368SOL    HW124740   1.180   2.992  13.645 -2.2259 -0.5891 -0.7550
 4368SOL    HW224741   1.139   2.851  13.678  0.9552 -0.9953  0.0254
 4369SOL     OW24742   4.099   4.651   4.423  0.2379  0.1180 -0.2871
 4369SOL    HW124743   4.158   4.625   4.494  1.0294 -1.3891 -1.4962
 4369SOL    HW224744   4.111   0.011   4.426  0.3093  0.0816  0.6998
 4370SOL     OW24745   4.593   3.358   3.509 -0.3962  0.6828  0.1610
 4370SOL    HW124746   4.628   3.310   3.433 -0.5377 -0.0748  0.5749
 4370SOL    HW224747   4.515   3.405   3.481 -0.1014  0.9424 -0.2230
 4371SOL     OW24748   0.500   1.095   5.630 -0.6222 -0.5685 -0.4665
 4371SOL    HW124749   0.425   1.140   5.669 -0.0563  0.6389 -0.7517
 4371SOL    HW224750   0.574   1.136   5.674 -0.2219  0.5207 -2.1282
 4372SOL     OW24751   0.623   2.369  14.356  0.2229  0.1389  0.0003
 4372SOL    HW124752   0.690   2.323  14.407  0.1381  0.3986  0.3437
 4372SOL    HW224753   0.598   2.298  14.297  0.7440  1.4199 -1.7247
 4373SOL     OW24754   3.883   4.451   1.774 -0.5046 -0.0956  1.0336
 4373SOL    HW124755   3.969   4.484   1.747  0.0541 -1.7518  0.7762
 4373SOL    HW224756   3.839   4.531   1.803 -0.5534  0.5763 -0.8732
 4374SOL     OW24757   3.786   0.580   5.819  0.6157  0.0191  0.1933
 4374SOL    HW124758   3.781   0.547   5.729  1.3103  2.9968 -0.9699
 4374SOL    HW224759   3.866   0.633   5.814  0.0004  0.7397 -2.3636
 4375SOL     OW24760   1.059   3.068   5.826 -0.2543  0.1544 -0.3092
 4375SOL    HW124761   0.974   3.025   5.817 -0.0548 -0.9583  2.9134
 4375SOL    HW224762   1.055   3.146   5.770  1.5736 -2.1669 -3.6392
 4376SOL     OW24763   2.822   4.654   6.466  0.0557 -0.0987  0.1035
 4376SOL    HW124764   2.751   4.593   6.484  0.6565 -0.6853  0.4600
 4376SOL    HW224765   2.846   4.633   6.376  2.4241 -0.2646  0.7527
 4377SOL     OW24766   3.052   1.660   3.311 -0.0770 -0.3552 -0.0117
 4377SOL    HW124767   3.081   1.638   3.400 -1.3295  1.8478  0.9443
 4377SOL    HW224768   3.008   1.742   3.332 -0.4764 -0.7996  0.8854
 4378SOL     OW24769   1.847   1.117  10.208 -0.3460  0.3022  0.0894
 4378SOL    HW124770   1.831   1.200  10.162  0.7307  0.1095 -0.6317
 4378SOL    HW224771   1.936   1.137  10.238 -0.3135  1.4279 -0.7280
 4379SOL     OW24772   2.973   2.254   0.939 -0.2791  0.2697 -0.1545
 4379SOL    HW124773   2.900   2.218   0.889  0.2426  0.2528 -0.9198
 4379SOL    HW224774   2.952   2.347   0.946  0.0965  0.3330  0.1193
 4380SOL     OW24775   2.997   1.000   0.996 -0.7213  0.1552  0.7655
 4380SOL    HW124776   3.021   0.929   1.055 -0.9885  0.8848  1.7582
 4380SOL    HW224777   2.908   0.983   0.964 -2.1828  2.0408  3.7632
 4381SOL     OW24778   0.689   4.572   4.050  0.3068 -0.3400 -0.4339
 4381SOL    HW124779   0.720   4.555   3.961  2.4493 -0.5644  0.3485
 4381SOL    HW224780   0.764   4.608   4.097  1.4041 -1.0724 -1.6107
 4382SOL     OW24781   0.953   0.504   5.633 -0.5675 -0.2297  0.3237
 4382SOL    HW124782   0.989   0.503   5.722 -0.8968 -1.8302  0.4378
 4382SOL    HW224783   0.985   0.590   5.606 -2.7069  0.4677 -0.0099
 4383SOL     OW24784   4.061   2.967   2.832  0.1485  0.9508 -0.6620
 4383SOL    HW124785   4.065   2.912   2.911  0.2735 -1.0113 -2.0364
 4383SOL    HW224786   4.153   2.970   2.806  0.7449 -0.0275  1.3011
 4384SOL     OW24787   1.480   0.354   9.477 -0.6436 -0.2583  0.1308
 4384SOL    HW124788   1.548   0.398   9.426 -1.4391  0.7515 -0.0635
 4384SOL    HW224789   1.445   0.297   9.409 -0.2701 -1.7722  1.2153
 4385SOL     OW24790   4.420   4.175  15.742 -0.4798 -0.4041  0.7385
 4385SOL    HW124791   4.402   4.211  15.828 -0.5352 -1.1556  1.0445
 4385SOL    HW224792   4.397   4.087  15.771  2.3045 -1.5452 -0.5237
 4386SOL     OW24793   2.452   1.162   2.124 -0.4282 -0.1640 -0.0506
 4386SOL    HW124794   2.453   1.252   2.091 -1.7383 -0.5826 -1.2230
 4386SOL    HW224795   2.357   1.161   2.137 -0.1372 -0.0803  2.1162
 4387SOL     OW24796   3.109   3.022   1.327 -0.2999 -0.2802 -0.1514
 4387SOL    HW124797   3.048   3.063   1.266 -0.9135  0.0764  0.7018
 4387SOL    HW224798   3.125   3.078   1.403  1.1246  0.1489 -0.7614
 4388SOL     OW24799   2.953   3.553   3.256 -0.2797 -0.1344 -0.3814
 4388SOL    HW124800   2.973   3.523   3.168  3.3987  0.5183  0.2512
 4388SOL    HW224801   3.004   3.486   3.302 -2.6024 -2.0955 -0.6398
 4389SOL     OW24802   0.902   2.910   2.837  0.5625  0.8668  0.7066
 4389SOL    HW124803   0.842   2.868   2.899  1.2554 -3.2769 -1.4215
 4389SOL    HW224804   0.846   2.905   2.759  1.6021 -1.2628  0.0918
 4390SOL     OW24805   2.471   1.565   1.830 -0.6422  0.4508  0.0741
 4390SOL    HW124806   2.395   1.621   1.812 -2.5968 -2.5585 -1.1396
 4390SOL    HW224807   2.534   1.610   1.775  0.0536 -2.0916 -1.1887
 4391SOL     OW24808   2.777   1.568   2.484  0.1623  0.3037  0.1102
 4391SOL    HW124809   2.849   1.629   2.468 -0.2286  0.0635 -2.5608
 4391SOL    HW224810   2.761   1.524   2.401  1.6853  1.2012 -0.6568
 4392SOL     OW24811   3.318   3.164   9.746  0.7664  0.2484  0.4473
 4392SOL    HW124812   3.339   3.077   9.779 -0.3826 -0.0585  0.3535
 4392SOL    HW224813   3.340   3.221   9.820  1.0938  0.8696 -0.1235
 4393SOL     OW24814   2.422   1.828   0.987 -0.3700 -0.3037  0.2114
 4393SOL    HW124815   2.389   1.794   1.070  0.3739 -1.8958 -0.1566
 4393SOL    HW224816   2.475   1.755   0.955 -1.1732  0.0853 -1.9941
 4394SOL     OW24817   4.162   4.529   5.017  0.1577  0.3231  0.3256
 4394SOL    HW124818   4.217   4.605   5.037  0.9719 -0.0591 -0.4705
 4394SOL    HW224819   4.083   4.552   5.066  0.7153 -0.8071  1.7412
 4395SOL     OW24820   3.820   1.466   6.754 -0.3039 -0.0768  0.4353
 4395SOL    HW124821   3.845   1.553   6.787  1.2837  0.5060 -2.2737
 4395SOL    HW224822   3.819   1.412   6.833  3.1807 -0.7408  0.0129
 4396SOL     OW24823   3.914   2.491   5.944 -0.3477  1.1587  0.1466
 4396SOL    HW124824   3.851   2.470   5.876 -0.3164 -0.7592  0.7049
 4396SOL    HW224825   3.981   2.533   5.891 -1.0974 -0.1367 -1.8350
 4397SOL     OW24826   4.357   3.832  11.971  0.4425 -0.2686 -0.2290
 4397SOL    HW124827   4.263   3.844  11.984  0.4525  0.3426 -0.7236
 4397SOL    HW224828   4.361   3.736  11.966 -1.5690 -0.3897  0.4115
 4398SOL     OW24829   0.712   1.876  11.899  0.0175 -0.0571 -0.0798
 4398SOL    HW124830   0.743   1.787  11.919 -1.1868 -0.3177  0.6359
 4398SOL    HW224831   0.726   1.925  11.980  2.8267  0.5284 -0.9070
 4399SOL     OW24832   3.686   3.131  17.157 -0.2402  0.0261  0.4958
 4399SOL    HW124833   3.690   3.152  17.250  2.2734  1.1028  0.1558
 4399SOL    HW224834   3.780   3.129  17.139  0.5677 -0.9988  4.7568
 4400SOL     OW24835   1.737   2.760   4.544  0.5613 -0.0650 -0.4356
 4400SOL    HW124836   1.651   2.790   4.571  0.8752 -0.3150  0.8790
 4400SOL    HW224837   1.781   2.816   4.480  0.0807  0.6621 -0.1152
 4401SOL     OW24838   2.939   0.319   4.840 -0.0231 -0.4727 -0.7540
 4401SOL    HW124839   2.845   0.331   4.853  0.1541  1.4191 -1.2326
 4401SOL    HW224840   2.947   0.231   4.877  0.8615 -0.6985 -1.5106
 4402SOL     OW24841   3.352   1.592   6.898 -0.1877  0.4393 -0.1872
 4402SOL    HW124842   3.385   1.536   6.968  2.0872  1.7019 -0.2549
 4402SOL    HW224843   3.428   1.646   6.875 -0.9340  0.9366 -1.4659
 4403SOL     OW24844   3.500   4.113   5.956 -0.0853 -0.4970  0.3278
 4403SOL    HW124845   3.586   4.083   5.987 -0.5374 -1.7450  0.3733
 4403SOL    HW224846   3.447   4.050   6.005 -0.6822 -1.3384 -1.3979
 4404SOL     OW24847   3.229   4.527   3.713  1.1800  0.1073 -0.2238
 4404SOL    HW124848   3.197   4.593   3.775  0.3293  0.8548 -1.4509
 4404SOL    HW224849   3.228   4.442   3.756  0.3722  0.8883  1.2820
 4405SOL     OW24850   2.545   1.286   2.461 -0.6299 -0.1410  0.4580
 4405SOL    HW124851   2.584   1.362   2.417 -1.2527  0.0230  0.1821
 4405SOL    HW224852   2.537   1.309   2.554 -1.4000 -1.1425  0.6413
 4406SOL     OW24853   1.639   4.027   8.018 -0.5815 -0.5240 -0.7278
 4406SOL    HW124854   1.547   4.052   8.016 -0.2303  1.0004  1.6279
 4406SOL    HW224855   1.667   4.117   8.034  0.6062 -1.0672  0.2568
 4407SOL     OW24856   2.758   4.385   5.372  0.3536 -0.0168 -0.1249
 4407SOL    HW124857   2.785   4.477   5.381 -0.4782  0.4240 -2.1636
 4407SOL    HW224858   2.771   4.366   5.279  2.0076  1.6083 -0.2346
 4408SOL     OW24859   1.144   3.234   6.268  0.2524 -0.2409 -0.2422
 4408SOL    HW124860   1.220   3.275   6.310  0.5776  0.5646 -1.6070
 4408SOL    HW224861   1.149   3.274   6.181 -1.1499 -0.4799 -0.4436
 4409SOL     OW24862   3.771   2.040   0.788  0.6364  0.8466 -0.2027
 4409SOL    HW124863   3.837   1.973   0.768  0.6522  0.9432 -0.4666
 4409SOL    HW224864   3.725   2.042   0.704  2.1253  1.0660 -1.0163
 4410SOL     OW24865   1.661   1.324   8.869  0.0336 -0.0626 -0.3945
 4410SOL    HW124866   1.655   1.230   8.855 -1.8118 -0.0690  0.5686
 4410SOL    HW224867   1.583   1.352   8.917 -0.8975  1.1441 -2.6073
 4411SOL     OW24868   2.694   3.687   9.374  0.3913  0.3925  0.2250
 4411SOL    HW124869   2.654   3.774   9.368 -2.3957 -0.9223 -0.2283
 4411SOL    HW224870   2.625   3.623   9.389  0.2276  0.4437 -0.3058
 4412SOL     OW24871   0.058   1.743   7.800 -0.0947 -0.4213  0.5808
 4412SOL    HW124872   0.131   1.787   7.756 -1.5076  1.4318  0.1318
 4412SOL    HW224873   0.093   1.726   7.887 -0.5848  0.5301  0.9561
 4413SOL     OW24874   4.624   3.077   4.959 -0.1938  0.6636 -0.0132
 4413SOL    HW124875   4.598   2.996   4.916  0.9915 -0.4203  1.3209
 4413SOL    HW224876   4.603   3.043   5.046 -0.0658  1.9865  0.5287
 4414SOL     OW24877   0.089   1.455   4.317  0.1008 -0.1575  0.0308
 4414SOL    HW124878   0.017   1.517   4.328 -1.0960 -1.2486 -1.7811
 4414SOL    HW224879   0.051   1.392   4.256 -2.1537  0.7478  0.4942
 4415SOL     OW24880   0.576   0.575  15.688 -0.4690 -0.9977 -0.0730
 4415SOL    HW124881   0.603   0.659  15.650 -0.1677  0.2861  2.9752
 4415SOL    HW224882   0.575   0.582  15.784  1.3329  1.1442 -0.2087
 4416SOL     OW24883   4.066   3.477   6.751 -0.3609 -0.1909 -0.0916
 4416SOL    HW124884   4.106   3.460   6.666  0.5880 -2.1001  0.7373
 4416SOL    HW224885   4.109   3.556   6.784  1.8962 -2.0464  1.4448
 4417SOL     OW24886   4.239   4.223   9.916  0.5519  0.0230 -0.4006
 4417SOL    HW124887   4.226   4.184   9.830 -0.5533 -2.4092  0.8513
 4417SOL    HW224888   4.201   4.310   9.913  0.6483  0.0995  0.3757
 4418SOL     OW24889   4.629   3.021   8.560  0.1161 -0.4170  0.0276
 4418SOL    HW124890   4.541   3.058   8.558  0.5625  0.6251 -0.4840
 4418SOL    HW224891   4.636   2.980   8.646 -1.9929  0.5162  0.6557
 4419SOL     OW24892   1.588   2.355   0.025  0.5085  0.3137 -0.1294
 4419SOL    HW124893   1.620   2.266   0.008  0.1658  0.0252  0.7504
 4419SOL    HW224894   1.638   2.406  17.702 -0.8165  4.0624  1.8824
 4420SOL     OW24895   2.074   4.596  12.438 -0.3796 -0.1185  0.5567
 4420SOL    HW124896   2.161   4.609  12.477 -0.5421 -0.0577  0.8990
 4420SOL    HW224897   2.090   4.549  12.357  2.5194 -0.6300  1.4347
 4421SOL     OW24898   3.911   4.414   8.082  0.1499  0.2787  0.0470
 4421SOL    HW124899   3.957   4.389   8.002 -1.4038 -1.6096 -0.2501
 4421SOL    HW224900   3.885   4.500   8.050 -0.1684  0.2293  0.1760
 4422SOL     OW24901   4.551   2.249   4.319  0.0747 -1.0346 -0.6807
 4422SOL    HW124902   4.470   2.200   4.300 -0.2754 -1.2624  1.3030
 4422SOL    HW224903   4.601   2.238   4.239  1.0524 -0.7851 -0.1025
 4423SOL     OW24904   1.886   2.331   2.837 -0.7982 -0.4583 -0.5425
 4423SOL    HW124905   1.815   2.306   2.896 -0.6182 -2.4124 -1.1828
 4423SOL    HW224906   1.863   2.423   2.821 -2.7065 -0.8802 -0.2908
 4424SOL     OW24907   4.613   1.198   3.268 -0.0773 -0.0858 -0.4738
 4424SOL    HW124908   4.703   1.229   3.255  0.0283 -0.6660 -1.1068
 4424SOL    HW224909   4.604   1.219   3.361 -0.0459  2.3866 -1.0472
 4425SOL     OW24910   1.693   0.989   4.573 -0.1934  0.6912 -0.2484
 4425SOL    HW124911   1.664   1.078   4.555  0.9217  0.7948 -1.5874
 4425SOL    HW224912   1.721   0.992   4.664  2.1224  0.3008 -0.9261
 4426SOL     OW24913   1.842   3.702   1.560  0.0582  0.0872 -0.6621
 4426SOL    HW124914   1.921   3.737   1.602  0.1517 -0.0660 -0.7106
 4426SOL    HW224915   1.830   3.638   1.631 -0.7803  1.4122  0.3895
 4427SOL     OW24916   1.975   3.649   5.822  0.4286 -0.3881 -0.4611
 4427SOL    HW124917   1.974   3.742   5.847 -3.0831 -0.0056 -1.9844
 4427SOL    HW224918   1.929   3.641   5.739  0.1017  0.1644 -0.3335
 4428SOL     OW24919   3.486   3.652   7.674  0.0142  0.3805  0.5165
 4428SOL    HW124920   3.453   3.705   7.602  3.0684 -0.4931 -1.5195
 4428SOL    HW224921   3.509   3.572   7.626  1.2138  0.5352  0.8432
 4429SOL     OW24922   3.128   3.870   5.574 -0.3798  0.2714 -0.4453
 4429SOL    HW124923   3.215   3.890   5.537 -0.1857  0.2123 -0.0121
 4429SOL    HW224924   3.081   3.858   5.492 -1.2264 -1.8292  0.3646
 4430SOL     OW24925   2.682   1.707   2.744 -0.2005 -0.0143  0.0770
 4430SOL    HW124926   2.740   1.702   2.668  0.0210  0.4596  0.2165
 4430SOL    HW224927   2.684   1.796   2.779 -0.7977  0.8596 -2.1033
 4431SOL     OW24928   2.412   0.718   1.682 -0.1131 -0.2991 -0.1668
 4431SOL    HW124929   2.380   0.806   1.702 -0.3798  0.2361 -2.9480
 4431SOL    HW224930   2.468   0.708   1.759  1.6302 -1.7861 -1.6211
 4432SOL     OW24931   2.160   2.251   3.696  0.0477  0.0098 -0.0552
 4432SOL    HW124932   2.098   2.197   3.647  0.0419 -0.5187  0.5327
 4432SOL    HW224933   2.239   2.234   3.645 -0.2012 -2.0099  0.2213
 4433SOL     OW24934   2.146   2.537  13.321  0.3661 -0.6763  0.1101
 4433SOL    HW124935   2.105   2.453  13.303 -0.8807  0.0033 -0.1899
 4433SOL    HW224936   2.064   2.583  13.337 -0.4343 -2.2419  0.5345
 4434SOL     OW24937   0.002   1.514   5.349  0.7163  0.7205  0.9618
 4434SOL    HW124938   0.080   1.497   5.296 -1.1513  2.4082 -2.3419
 4434SOL    HW224939   0.037   1.553   5.429 -1.2452  0.6686  1.8354
 4435SOL     OW24940   0.789   2.542  12.268 -0.1373  0.0944 -0.5991
 4435SOL    HW124941   0.865   2.578  12.223 -0.5984  1.8025  0.0195
 4435SOL    HW224942   0.831   2.480  12.329  1.7493  0.1040 -1.8877
 4436SOL     OW24943   1.560   0.729  13.671  1.2389 -0.0597 -0.2075
 4436SOL    HW124944   1.623   0.731  13.743  2.2559 -1.3288 -1.0520
 4436SOL    HW224945   1.608   0.676  13.607  0.9396  0.2562 -0.6965
 4437SOL     OW24946   1.356   3.737   5.699  0.0349  0.0198  0.0961
 4437SOL    HW124947   1.444   3.698   5.694 -0.6999 -1.8167  1.4785
 4437SOL    HW224948   1.380   3.827   5.676  2.0564 -1.0895 -2.1603
 4438SOL     OW24949   3.078   4.560  17.218 -0.0570 -0.0211  0.1523
 4438SOL    HW124950   3.147   4.626  17.228  1.8097 -2.0320  0.4489
 4438SOL    HW224951   3.113   4.498  17.282  1.6738  1.0607  0.2394
 4439SOL     OW24952   1.613   0.080   8.948 -0.4306  0.2789  0.5490
 4439SOL    HW124953   1.658   0.142   9.006 -1.2695 -0.0619  1.5620
 4439SOL    HW224954   1.660   0.092   8.865  0.5046  2.2993  1.3772
 4440SOL     OW24955   3.355   4.360   2.592 -0.0999 -0.5111  0.7763
 4440SOL    HW124956   3.402   4.437   2.624 -0.8838  0.0629  0.5483
 4440SOL    HW224957   3.354   4.304   2.670  2.2488 -0.6316  0.7280
 4441SOL     OW24958   1.418   4.720  15.924 -0.9238  0.2687 -0.1681
 4441SOL    HW124959   1.393   0.039  15.849 -0.8628  2.8788  1.7038
 4441SOL    HW224960   1.462   0.045  15.985  0.5879 -0.2894 -0.6993
 4442SOL     OW24961   0.021   3.139   1.917  0.1572 -0.0271  0.2797
 4442SOL    HW124962   0.104   3.165   1.958 -0.7832  0.2157  2.0319
 4442SOL    HW224963   0.033   3.148   1.823  0.6355  0.3309  0.3744
 4443SOL     OW24964   0.085   3.028  13.515 -0.1885 -0.5307  0.1328
 4443SOL    HW124965   0.011   3.020  13.575  1.3461 -2.3921  1.7828
 4443SOL    HW224966   0.061   3.110  13.472 -1.7301 -0.8135  0.4530
 4444SOL     OW24967   4.298   4.453   8.311  0.7287  0.0613  0.4384
 4444SOL    HW124968   4.278   4.437   8.218 -0.6886  0.7663  0.6138
 4444SOL    HW224969   4.386   4.416   8.319  1.7577  2.4690  0.1780
 4445SOL     OW24970   0.333   0.929  14.949  1.0389 -0.7078 -0.2449
 4445SOL    HW124971   0.259   0.868  14.956  0.4895 -0.6002 -5.6093
 4445SOL    HW224972   0.301   1.006  14.902  0.7636 -0.8796 -0.3396
 4446SOL     OW24973   2.629   2.607   7.170 -0.3581 -0.3249 -0.1197
 4446SOL    HW124974   2.642   2.516   7.142  0.8890 -0.3875  0.7004
 4446SOL    HW224975   2.700   2.647   7.121 -1.8710  2.0303 -0.4024
 4447SOL     OW24976   1.690   1.916   5.201  0.0566 -0.1733  0.5913
 4447SOL    HW124977   1.627   1.849   5.230 -1.4371  0.5577 -0.9681
 4447SOL    HW224978   1.774   1.870   5.206  0.5652  0.6534 -0.5773
 4448SOL     OW24979   1.254   0.079  11.803 -0.6593 -0.3289 -0.7413
 4448SOL    HW124980   1.196   0.041  11.870 -0.9614  0.5758 -0.4903
 4448SOL    HW224981   1.324   0.124  11.849 -2.5927  1.0538  0.8816
 4449SOL     OW24982   1.517   2.078   2.667  0.0638  0.0879  0.0917
 4449SOL    HW124983   1.563   2.140   2.611 -2.8516  1.3793 -0.8600
 4449SOL    HW224984   1.436   2.063   2.618 -0.6990 -1.6861  1.8409
 4450SOL     OW24985   0.357   4.151   2.168 -0.4800 -0.0319  0.5098
 4450SOL    HW124986   0.355   4.077   2.108 -1.5492 -0.0826  0.6052
 4450SOL    HW224987   0.397   4.104   2.241 -0.6897 -1.4598 -0.3064
 4451SOL     OW24988   2.395   4.372  10.961 -0.5950 -0.0475  0.4994
 4451SOL    HW124989   2.489   4.359  10.970 -0.4268  1.2614  0.4937
 4451SOL    HW224990   2.386   4.406  10.872 -0.4524  0.2383  0.5972
 4452SOL     OW24991   1.291   3.860   9.064 -0.5613 -0.0357 -0.1963
 4452SOL    HW124992   1.234   3.912   9.121  1.3705 -0.5375  2.1657
 4452SOL    HW224993   1.316   3.924   8.997  1.9254  0.1824  0.9603
 4453SOL     OW24994   4.614   0.249   8.312  0.0601  0.1281 -0.2517
 4453SOL    HW124995   4.551   0.274   8.245  0.0603 -0.7935 -0.6051
 4453SOL    HW224996   4.597   0.317   8.378  0.6510  0.6557 -0.6483
 4454SOL     OW24997   2.412   3.930   5.971 -0.4050 -0.4190  0.4899
 4454SOL    HW124998   2.378   3.844   5.996 -1.1222  0.2546  1.8732
 4454SOL    HW224999   2.454   3.970   6.047  0.7251 -0.7734  0.0431
 4455SOL     OW25000   1.317   0.899  11.052 -0.4523  0.0499 -0.0790
 4455SOL    HW125001   1.278   0.960  11.116  0.1342 -0.2631  0.5745
 4455SOL    HW225002   1.253   0.829  11.059  1.3195 -1.6588 -1.1634
 4456SOL     OW25003   3.658   1.022   7.951  0.0909  0.3650  0.1879
 4456SOL    HW125004   3.738   1.013   8.003  0.0477  0.6067  0.2919
 4456SOL    HW225005   3.687   0.980   7.869  2.5641 -0.0354  1.2521
 4457SOL     OW25006   2.529   2.864   4.572 -0.2226 -0.6965  0.4724
 4457SOL    HW125007   2.516   2.796   4.507 -0.7576 -1.7365  1.6783
 4457SOL    HW225008   2.620   2.891   4.562  0.1110 -1.8710  0.3399
 4458SOL     OW25009   3.464   3.744   3.344  0.5831  0.1726 -0.2282
 4458SOL    HW125010   3.464   3.712   3.254  0.3473 -1.2517  0.2875
 4458SOL    HW225011   3.371   3.765   3.355  0.3781 -1.1020  0.4418
 4459SOL     OW25012   2.382   2.281   3.006 -0.3351  0.1956 -0.4910
 4459SOL    HW125013   2.302   2.321   2.972 -0.7986 -0.6728 -0.4055
 4459SOL    HW225014   2.348   2.196   3.032  3.0769 -1.2596 -0.6913
 4460SOL     OW25015   1.317   4.088   1.798 -0.1177  0.0338  0.5565
 4460SOL    HW125016   1.404   4.047   1.803  0.1351  0.6573  1.3212
 4460SOL    HW225017   1.321   4.158   1.863  0.7029 -2.1058  2.7726
 4461SOL     OW25018   3.854   1.721   6.857 -0.0079 -0.5805 -0.0872
 4461SOL    HW125019   3.865   1.800   6.804 -1.4971  1.0780  2.0602
 4461SOL    HW225020   3.832   1.765   6.939 -2.6018 -0.3410 -0.9090
 4462SOL     OW25021   1.462   4.330   7.907 -0.1774  0.2288  0.1252
 4462SOL    HW125022   1.372   4.319   7.938 -0.5249 -1.6170 -1.5129
 4462SOL    HW225023   1.443   4.401   7.846  2.6904 -0.1455 -1.2189
 4463SOL     OW25024   4.528   4.450   5.620  0.1038 -0.6962  0.0594
 4463SOL    HW125025   4.550   4.367   5.661 -1.0958 -0.6598  0.7776
 4463SOL    HW225026   4.463   4.488   5.679 -0.8733 -0.8138 -0.9327
 4464SOL     OW25027   2.986   2.510   8.749 -0.4645  0.0018  0.2246
 4464SOL    HW125028   2.968   2.545   8.662 -2.2691  0.4083  0.7539
 4464SOL    HW225029   3.005   2.592   8.794 -0.2678  1.2196 -2.1329
 4465SOL     OW25030   1.745   2.611  16.226 -0.2745  0.2176 -0.4877
 4465SOL    HW125031   1.686   2.677  16.262 -2.0149 -0.6136 -1.8292
 4465SOL    HW225032   1.792   2.670  16.167 -1.5141  0.4185 -1.2745
 4466SOL     OW25033   4.566   3.596   6.202 -0.3733 -0.1679  0.2224
 4466SOL    HW125034   4.657   3.601   6.176 -0.3063  0.9386  0.6403
 4466SOL    HW225035   4.519   3.575   6.121 -1.5307  0.5888  0.6902
 4467SOL     OW25036   4.351   0.799  14.284  0.6282 -0.1335 -0.3309
 4467SOL    HW125037   4.271   0.850  14.272  0.1581 -0.7866  0.0610
 4467SOL    HW225038   4.409   0.846  14.224 -0.9491  0.6322 -1.2560
 4468SOL     OW25039   3.556   2.487  16.371 -0.4386  0.3638 -0.0068
 4468SOL    HW125040   3.574   2.461  16.461 -0.8821  0.9880  0.2560
 4468SOL    HW225041   3.460   2.486  16.365 -0.6000  0.4980  2.5009
 4469SOL     OW25042   4.015   0.061   5.630  0.0828 -0.2826 -0.1934
 4469SOL    HW125043   4.064   0.007   5.568  1.1519 -1.0205  1.2831
 4469SOL    HW225044   4.013   0.142   5.579  1.5342  0.1028  0.3624
 4470SOL     OW25045   4.174   4.351   7.405 -0.3119 -0.3394 -0.5157
 4470SOL    HW125046   4.161   4.286   7.474 -1.2482 -1.7771 -2.0360
 4470SOL    HW225047   4.243   4.410   7.433 -0.0087 -1.6590  1.5045
 4471SOL     OW25048   1.192   4.225   2.331 -0.3628  0.0914 -0.0455
 4471SOL    HW125049   1.176   4.255   2.420  0.4205  0.6474 -0.0927
 4471SOL    HW225050   1.280   4.194   2.353 -1.0236 -2.4285 -1.0651
 4472SOL     OW25051   3.135   0.828  13.446  0.3318  0.4560 -0.4235
 4472SOL    HW125052   3.044   0.809  13.468  0.3832 -1.5703 -2.0028
 4472SOL    HW225053   3.152   0.747  13.397 -1.4310 -0.4625  0.4912
 4473SOL     OW25054   0.770   0.119   7.420 -0.3496  0.0792  0.0555
 4473SOL    HW125055   0.723   0.068   7.486  0.6919 -3.8910 -2.2548
 4473SOL    HW225056   0.699   0.181   7.405  0.3404  0.9024  0.1989
 4474SOL     OW25057   3.991   4.273   4.748  0.2393 -0.1324 -0.4555
 4474SOL    HW125058   3.899   4.254   4.728 -0.4468  1.4791  1.1553
 4474SOL    HW225059   4.005   4.192   4.795  0.9516  0.0534 -0.3594
 4475SOL     OW25060   2.842   3.312   4.628 -0.0766 -0.1329  0.3891
 4475SOL    HW125061   2.850   3.406   4.614  0.7616 -0.5852 -2.2083
 4475SOL    HW225062   2.870   3.312   4.720  1.5816  1.0932 -0.1169
 4476SOL     OW25063   0.978   0.910   8.426  0.5559  0.4201 -0.4734
 4476SOL    HW125064   1.030   0.935   8.351 -0.2561  1.9739 -0.5113
 4476SOL    HW225065   0.965   0.815   8.419  1.9874  0.4930 -3.8890
 4477SOL     OW25066   3.996   0.426  14.148 -0.0808 -0.1488  0.5508
 4477SOL    HW125067   4.084   0.454  14.171  0.7029 -1.5562 -0.7843
 4477SOL    HW225068   4.004   0.396  14.057  0.9168  0.6438  0.3778
 4478SOL     OW25069   3.214   3.561   2.665  0.4165 -0.2304  0.4012
 4478SOL    HW125070   3.161   3.484   2.644  1.7204 -1.5739  2.0120
 4478SOL    HW225071   3.167   3.634   2.624  2.3915  0.3411 -0.8597
 4479SOL     OW25072   0.563   2.933   3.716  0.0070  0.1402 -0.5954
 4479SOL    HW125073   0.476   2.928   3.677 -0.4126  0.0357  0.3433
 4479SOL    HW225074   0.601   3.020   3.704  1.0038 -0.3218 -0.7828
 4480SOL     OW25075   1.476   1.212   6.567 -0.5496  0.4546 -0.4294
 4480SOL    HW125076   1.432   1.213   6.482 -1.3947  1.8335  0.0287
 4480SOL    HW225077   1.503   1.304   6.570 -1.2177  0.5893  1.8900
 4481SOL     OW25078   2.930   4.414   4.429 -0.1109  0.2867  0.3076
 4481SOL    HW125079   2.933   4.365   4.347 -0.8893  0.9826 -0.1380
 4481SOL    HW225080   2.859   4.473   4.402 -0.5370  0.3868  1.6499
 4482SOL     OW25081   1.577   1.485   9.174 -0.3971 -0.3291  0.5687
 4482SOL    HW125082   1.666   1.463   9.202 -0.2810 -1.0682 -0.3938
 4482SOL    HW225083   1.545   1.550   9.236  0.3497  0.3745  0.2221
 4483SOL     OW25084   1.866   0.055   3.150 -0.5678  0.3793  0.3023
 4483SOL    HW125085   1.864   0.043   3.245 -2.1788  2.2923  0.5059
 4483SOL    HW225086   1.939   0.117   3.145 -0.8282  0.7844  1.7136
 4484SOL     OW25087   1.725   3.118   3.563  0.1159  0.4850  0.3422
 4484SOL    HW125088   1.752   3.027   3.579 -1.1714 -0.5389 -3.2251
 4484SOL    HW225089   1.655   3.127   3.627 -0.3121  2.5978 -0.4184
 4485SOL     OW25090   2.581   0.895   9.164  0.2044  0.5914  0.3437
 4485SOL    HW125091   2.556   0.808   9.196 -0.8872  0.4731 -0.8079
 4485SOL    HW225092   2.671   0.869   9.148 -0.3265 -0.1416 -1.4358
 4486SOL     OW25093   1.335   3.989   7.987 -0.0512  0.3779  0.4987
 4486SOL    HW125094   1.329   3.896   8.010  1.6768 -0.0014 -0.5989
 4486SOL    HW225095   1.308   3.992   7.895  2.2530 -2.2521 -0.2306
 4487SOL     OW25096   1.327   0.847  16.959 -0.2931 -0.1326  0.1155
 4487SOL    HW125097   1.345   0.782  16.891 -1.3468 -0.0243 -0.2565
 4487SOL    HW225098   1.243   0.815  16.991  1.0198 -2.8107  0.9303
 4488SOL     OW25099   0.182   1.341   2.765 -0.0989  0.0845 -0.4039
 4488SOL    HW125100   0.269   1.378   2.748  1.4302 -3.7702 -0.9362
 4488SOL    HW225101   0.131   1.403   2.816  0.2716  0.0349  0.0268
 4489SOL     OW25102   2.646   2.993  11.790 -0.2720  0.2154  0.4991
 4489SOL    HW125103   2.583   2.963  11.725  0.1494 -0.8642  0.5974
 4489SOL    HW225104   2.593   3.029  11.860  0.3281  0.4667  0.8259
 4490SOL     OW25105   3.787   4.609   7.806 -0.2507  0.7289  0.1485
 4490SOL    HW125106   3.790   4.686   7.750 -0.0135  1.1490  0.7380
 4490SOL    HW225107   3.874   4.615   7.845 -0.3330 -2.0398  0.7939
 4491SOL     OW25108   1.919   4.097  16.353  0.0593  0.4360 -0.2852
 4491SOL    HW125109   1.907   4.179  16.401 -4.0946 -0.5383  0.2949
 4491SOL    HW225110   1.841   4.048  16.379  1.5503 -0.4292  2.6299
 4492SOL     OW25111   0.385   3.489   8.610 -0.2587  0.5184 -0.3461
 4492SOL    HW125112   0.364   3.559   8.672  1.9361  1.8469 -1.1003
 4492SOL    HW225113   0.464   3.533   8.580 -1.0805  2.3196  0.1359
 4493SOL     OW25114   2.469   4.717   2.382  0.1688 -0.0403 -0.9631
 4493SOL    HW125115   2.411   0.058   2.377  0.3515  0.1618 -0.0514
 4493SOL    HW225116   2.424   4.678   2.457 -1.1243  2.0187 -0.6448
 4494SOL     OW25117   3.415   2.726   5.261  0.7230  0.3013  0.1245
 4494SOL    HW125118   3.347   2.780   5.220 -0.3340 -1.6538 -0.7224
 4494SOL    HW225119   3.471   2.715   5.184  0.0571  1.6410 -0.5524
 4495SOL     OW25120   3.443   3.793   5.976  0.1780 -0.6924 -0.0908
 4495SOL    HW125121   3.449   3.790   6.071 -1.6576 -0.1212  0.0381
 4495SOL    HW225122   3.350   3.809   5.962  0.8173  0.2218 -3.4901
 4496SOL     OW25123   4.703   3.161  15.811  0.1621  0.0413  0.1063
 4496SOL    HW125124   0.042   3.221  15.810 -0.9629  1.4530  0.4515
 4496SOL    HW225125   4.724   3.092  15.748  1.3086  1.7868 -1.4045
 4497SOL     OW25126   2.872   0.051  15.049  0.3340  0.0887 -0.4305
 4497SOL    HW125127   2.895   0.038  14.957 -0.8157  0.3871 -0.7632
 4497SOL    HW225128   2.802   0.116  15.046 -0.6213 -0.9443 -0.4028
 4498SOL     OW25129   0.988   3.539   8.673  0.4209 -0.3649 -0.0953
 4498SOL    HW125130   0.961   3.631   8.681 -2.0060 -1.1013  0.1654
 4498SOL    HW225131   1.026   3.529   8.761  0.9989  0.0348 -0.2964
 4499SOL     OW25132   4.492   2.285   2.052  0.0827 -0.1489  0.3522
 4499SOL    HW125133   4.489   2.270   1.957  1.5084  2.2168 -0.0561
 4499SOL    HW225134   4.415   2.233   2.074 -1.5238  1.5232 -1.3015
 4500SOL     OW25135   0.329   1.960  10.658  0.0384 -0.2471  0.2901
 4500SOL    HW125136   0.387   1.931  10.588 -0.8047  0.5487 -0.7293
 4500SOL    HW225137   0.371   2.041  10.685 -3.3109  1.2541  1.0485
 4501SOL     OW25138   4.395   1.529   8.025 -1.2992 -0.0776  0.1125
 4501SOL    HW125139   4.334   1.459   8.051 -2.0046  0.2816 -0.5748
 4501SOL    HW225140   4.364   1.602   8.079 -2.0606 -1.8582  2.1038
 4502SOL     OW25141   2.366   1.901  14.489 -0.5443  0.0659 -0.4891
 4502SOL    HW125142   2.433   1.925  14.425  0.7817  2.4370  1.7685
 4502SOL    HW225143   2.359   1.983  14.539  0.2107 -0.0864 -0.1281
 4503SOL     OW25144   4.642   4.671   4.605 -0.1868 -0.5218 -0.9988
 4503SOL    HW125145   4.616   4.654   4.514 -0.2177 -2.1779 -0.6936
 4503SOL    HW225146   4.594   0.018   4.608 -0.9764 -1.0770  1.7363
 4504SOL     OW25147   1.091   1.126   6.976 -0.1582  0.5247 -0.6134
 4504SOL    HW125148   1.077   1.220   6.965  1.9134  0.7852 -1.0142
 4504SOL    HW225149   1.016   1.093   6.926 -0.4677 -0.6594  0.6309
 4505SOL     OW25150   4.675   1.781   2.602 -0.2919  0.2122 -0.0703
 4505SOL    HW125151   4.628   1.712   2.554 -2.2896  0.9211  0.8815
 4505SOL    HW225152   0.019   1.738   2.634  0.1931  1.8876  0.9517
 4506SOL     OW25153   2.670   0.637   6.132 -0.5643  0.3249 -0.7083
 4506SOL    HW125154   2.605   0.688   6.181 -3.1017 -2.8474 -0.7399
 4506SOL    HW225155   2.665   0.547   6.167 -1.1775  0.0384 -1.5484
 4507SOL     OW25156   0.258   2.250  12.858 -0.2995  0.1327 -0.2253
 4507SOL    HW125157   0.229   2.320  12.918 -1.2996 -0.8796  0.4810
 4507SOL    HW225158   0.207   2.176  12.891  0.1526 -0.4456 -0.8267
 4508SOL     OW25159   3.299   3.049   7.271  0.0297 -0.5653 -0.5748
 4508SOL    HW125160   3.203   3.056   7.268 -0.1449 -2.6779  0.2385
 4508SOL    HW225161   3.315   3.027   7.362 -0.2434  2.3035  0.1736
 4509SOL     OW25162   0.045   3.462   0.533 -0.1968  0.5607 -0.5247
 4509SOL    HW125163   4.692   3.432   0.554  0.3423 -0.2179  0.6274
 4509SOL    HW225164   0.035   3.471   0.438  0.5945 -0.1002 -0.6783
 4510SOL     OW25165   3.744   3.280   9.346 -0.3376  0.3514  0.4151
 4510SOL    HW125166   3.787   3.224   9.282 -1.8527  2.5605 -2.5492
 4510SOL    HW225167   3.806   3.353   9.345  1.1407 -0.9452 -0.8616
 4511SOL     OW25168   0.930   1.709   8.664 -0.1246  0.7554  0.0061
 4511SOL    HW125169   0.911   1.794   8.703 -0.9071  0.6058 -0.0440
 4511SOL    HW225170   0.902   1.666   8.745  0.3502 -1.1518 -0.8495
 4512SOL     OW25171   1.386   3.883   0.452 -0.1033  0.2030  0.2959
 4512SOL    HW125172   1.322   3.933   0.401  0.5935  0.6598 -0.1230
 4512SOL    HW225173   1.414   3.814   0.393  1.3177  1.4177 -0.4321
 4513SOL     OW25174   2.463   0.185   6.229 -0.0163  0.6841 -0.0841
 4513SOL    HW125175   2.484   0.094   6.250 -0.3589  0.2881 -1.4995
 4513SOL    HW225176   2.388   0.169   6.171 -0.0001 -0.1968  0.1325
 4514SOL     OW25177   2.119   0.201  12.461 -0.3652  0.4181  0.6692
 4514SOL    HW125178   2.208   0.199  12.425 -1.1415  0.2554 -1.2515
 4514SOL    HW225179   2.129   0.132  12.526 -1.4284  0.4530  0.8623
 4515SOL     OW25180   0.578   0.044   3.834 -0.1689 -0.1499  0.1399
 4515SOL    HW125181   0.529   4.698   3.846  0.8137 -1.0718 -2.0797
 4515SOL    HW225182   0.530   0.097   3.770  1.5869  1.7478  0.4055
 4516SOL     OW25183   1.629   2.605   9.299  0.0132  0.2617  0.4249
 4516SOL    HW125184   1.537   2.630   9.300 -0.0578 -0.0151  0.5378
 4516SOL    HW225185   1.656   2.672   9.362 -0.6008 -0.1338  1.1102
 4517SOL     OW25186   1.429   4.710   3.686 -0.2326  1.2581 -0.1572
 4517SOL    HW125187   1.501   4.665   3.730 -0.2251  1.3292 -0.0987
 4517SOL    HW225188   1.364   4.717   3.756  2.5580  0.6696  2.4887
 4518SOL     OW25189   0.399   0.586   8.361  0.3695 -0.3607 -0.6963
 4518SOL    HW125190   0.372   0.624   8.445 -0.1315  1.3476 -1.6320
 4518SOL    HW225191   0.485   0.624   8.345  0.6431 -0.7562 -0.1606
 4519SOL     OW25192   2.200   2.872   5.157  0.0823 -0.3022 -0.2953
 4519SOL    HW125193   2.122   2.815   5.155  1.2035 -1.8295 -0.6700
 4519SOL    HW225194   2.172   2.952   5.113  0.8292 -0.4512 -1.0380
 4520SOL     OW25195   2.856   0.978   2.070  0.2957  0.0644  0.0426
 4520SOL    HW125196   2.891   0.991   1.982 -1.2272  1.5526 -0.3508
 4520SOL    HW225197   2.763   0.983   2.048  0.3094  0.2179  0.0209
 4521SOL     OW25198   1.083   3.534  13.945 -0.0536  0.0941 -0.6307
 4521SOL    HW125199   1.061   3.602  13.881 -1.2696 -0.8483 -1.2166
 4521SOL    HW225200   1.040   3.572  14.021 -0.1456 -1.4045  0.0603
 4522SOL     OW25201   3.364   2.927   1.725  0.2327  0.9792  0.3249
 4522SOL    HW125202   3.389   3.018   1.709 -1.0240  1.1770 -0.5263
 4522SOL    HW225203   3.445   2.879   1.744 -0.1736 -0.0061 -0.4489
 4523SOL     OW25204   1.946   0.601   9.262 -0.1183 -0.0257  0.3191
 4523SOL    HW125205   1.885   0.646   9.202  0.7106  1.4741  0.5981
 4523SOL    HW225206   1.999   0.676   9.290 -0.5531  0.5004 -0.2550
 4524SOL     OW25207   4.647   1.170  17.475  0.1999 -0.0499 -0.2523
 4524SOL    HW125208   4.683   1.194  17.390  0.6630 -3.4224 -0.9963
 4524SOL    HW225209   4.648   1.075  17.467  0.0557 -0.2150  1.7465
 4525SOL     OW25210   2.251   4.673   6.123  0.6254 -0.1021 -0.7965
 4525SOL    HW125211   2.168   4.637   6.093 -0.3367  0.6664  0.8988
 4525SOL    HW225212   2.242   0.031   6.102 -0.1534 -0.4755 -2.1330
 4526SOL     OW25213   4.166   0.477  15.273  0.1150 -0.6179 -0.6877
 4526SOL    HW125214   4.222   0.555  15.275  0.3704 -0.7997 -0.8185
 4526SOL    HW225215   4.087   0.520  15.240  0.8173  0.2309 -1.2638
 4527SOL     OW25216   0.979   3.206   4.120  0.6214  0.5588  0.2899
 4527SOL    HW125217   1.051   3.145   4.139 -0.3779 -0.1482  1.7927
 4527SOL    HW225218   0.993   3.260   4.198  2.9564  0.6075 -0.1497
 4528SOL     OW25219   1.879   2.604   2.137  0.0135 -0.4410 -0.4753
 4528SOL    HW125220   1.961   2.634   2.177  0.2946 -1.3196 -0.4072
 4528SOL    HW225221   1.915   2.532   2.086  0.0232 -1.9599  1.6962
 4529SOL     OW25222   1.738   2.092   4.571  0.2538  0.4672  0.1206
 4529SOL    HW125223   1.649   2.057   4.565  0.6928 -0.3454 -1.7938
 4529SOL    HW225224   1.751   2.104   4.477  1.3543  0.1759  0.2435
 4530SOL     OW25225   1.615   4.400   8.707  0.4975  0.6009  0.1694
 4530SOL    HW125226   1.621   4.339   8.780 -1.9524 -0.7101 -0.7308
 4530SOL    HW225227   1.587   4.474   8.761 -1.3788 -0.2687  0.3950
 4531SOL     OW25228   0.806   2.339   4.465  0.1390 -0.0880 -0.4797
 4531SOL    HW125229   0.778   2.265   4.413  0.4093 -1.2423  1.0137
 4531SOL    HW225230   0.751   2.323   4.542 -1.2636 -0.8326 -1.6471
 4532SOL     OW25231   2.769   1.634   0.758  0.2312 -0.0912  0.2033
 4532SOL    HW125232   2.734   1.572   0.822 -0.6900  2.3530  2.0559
 4532SOL    HW225233   2.824   1.567   0.718  0.9694  0.3838  0.4166
 4533SOL     OW25234   0.544   2.831   7.462 -0.0214  0.7866 -0.4268
 4533SOL    HW125235   0.491   2.853   7.539  0.5032  0.3291  0.0706
 4533SOL    HW225236   0.498   2.755   7.426  0.7872 -0.7016  1.6863
 4534SOL     OW25237   2.108   1.334   0.521 -0.1574  0.0637 -0.1298
 4534SOL    HW125238   2.190   1.357   0.565 -1.0318 -0.9140  2.0249
 4534SOL    HW225239   2.092   1.249   0.562 -2.9171  0.0270 -1.3113
 4535SOL     OW25240   2.176   3.420   2.808  0.6841 -0.7680 -0.2083
 4535SOL    HW125241   2.177   3.415   2.713  0.3291 -4.0575 -0.0447
 4535SOL    HW225242   2.125   3.342   2.832 -0.9603  0.3178 -0.1635
 4536SOL     OW25243   1.477   3.135   4.087 -0.4902 -0.6486 -0.1448
 4536SOL    HW125244   1.532   3.197   4.136 -0.2947  1.2964 -2.8048
 4536SOL    HW225245   1.542   3.091   4.033 -0.3646  0.5190 -0.9491
 4537SOL     OW25246   4.431   3.656   4.267 -0.1753 -0.6456  0.4727
 4537SOL    HW125247   4.443   3.693   4.355 -3.5719 -1.4063  1.2825
 4537SOL    HW225248   4.524   3.637   4.256 -0.1627  0.4878 -1.3501
 4538SOL     OW25249   0.306   2.321   3.859 -0.2742 -0.3566  0.1132
 4538SOL    HW125250   0.243   2.376   3.812 -1.7982 -2.5825 -0.4278
 4538SOL    HW225251   0.254   2.271   3.922  0.9860 -1.5208  0.2173
 4539SOL     OW25252   4.370   4.691   1.499  0.2531 -0.2363 -0.2418
 4539SOL    HW125253   4.410   0.035   1.534  0.9807 -1.7661  2.3798
 4539SOL    HW225254   4.412   4.677   1.414 -0.9128 -0.8951 -0.7074
 4540SOL     OW25255   0.486   4.551   0.040 -0.6762  0.9585  0.1459
 4540SOL    HW125256   0.535   4.493  17.722  0.5791 -2.2179  4.3774
 4540SOL    HW225257   0.420   4.586  17.720 -0.3303 -1.0537 -1.3740
 4541SOL     OW25258   3.505   4.128   3.537 -0.0525  0.0765  0.6895
 4541SOL    HW125259   3.426   4.113   3.486  0.7480 -1.0123 -0.2519
 4541SOL    HW225260   3.529   4.038   3.562  0.0014 -0.5969 -1.7766
 4542SOL     OW25261   3.095   2.629   6.414 -0.2170 -0.7967  0.0195
 4542SOL    HW125262   3.137   2.648   6.498 -1.7748  1.7498  0.2198
 4542SOL    HW225263   3.127   2.542   6.387 -2.6983 -2.2133  1.6513
 4543SOL     OW25264   3.584   0.871   3.277  0.2059  0.2089 -0.3849
 4543SOL    HW125265   3.648   0.822   3.225  2.4277  2.1322  0.5274
 4543SOL    HW225266   3.520   0.803   3.298  0.1027  1.3888  3.1057
 4544SOL     OW25267   3.469   2.036   6.020 -0.0991 -0.2111 -0.3010
 4544SOL    HW125268   3.520   2.117   6.027 -1.0487  0.3446  0.2316
 4544SOL    HW225269   3.379   2.065   6.003  0.0926  0.5990  0.0785
 4545SOL     OW25270   3.618   3.479   6.327 -0.7024  0.0735 -0.4026
 4545SOL    HW125271   3.620   3.414   6.257  0.2485 -1.4682  1.0723
 4545SOL    HW225272   3.536   3.456   6.370 -0.9125 -0.4787 -1.0883
 4546SOL     OW25273   3.740   4.289   1.302 -0.2904 -0.0228  0.3404
 4546SOL    HW125274   3.737   4.376   1.342 -2.2094  1.2699 -2.6313
 4546SOL    HW225275   3.646   4.275   1.296 -0.1847  0.1674 -1.6986
 4547SOL     OW25276   0.086   1.311   4.546  0.0891 -0.3168 -0.7452
 4547SOL    HW125277   0.094   1.312   4.450 -2.8164 -0.7250 -0.9957
 4547SOL    HW225278   0.168   1.345   4.580 -1.0037 -0.0606  1.6185
 4548SOL     OW25279   3.586   1.869  15.999  0.4388 -0.0334 -0.2515
 4548SOL    HW125280   3.669   1.884  16.045 -0.2891  2.3903  0.2327
 4548SOL    HW225281   3.615   1.815  15.925 -1.1754  0.4416 -1.2329
 4549SOL     OW25282   2.131   1.720   5.444 -0.3730  0.4689  0.8089
 4549SOL    HW125283   2.136   1.789   5.511 -0.3840  2.8934 -1.6928
 4549SOL    HW225284   2.061   1.669   5.486 -1.0271  1.4598  0.9252
 4550SOL     OW25285   1.335   1.762   6.748  0.1542  0.1423  0.4280
 4550SOL    HW125286   1.306   1.845   6.710  1.4356 -1.0791 -3.1390
 4550SOL    HW225287   1.430   1.774   6.747  0.2980 -1.0966 -0.1038
 4551SOL     OW25288   0.128   1.781  15.203 -0.4374 -0.5783  0.9194
 4551SOL    HW125289   0.080   1.783  15.286 -1.9358 -0.6250  0.0500
 4551SOL    HW225290   0.178   1.860  15.220 -3.0284  1.6784 -2.0543
 4552SOL     OW25291   4.674   1.834  14.245  0.8589  0.0038 -0.3527
 4552SOL    HW125292   4.692   1.832  14.151 -2.9497  2.1604 -1.1139
 4552SOL    HW225293   4.653   1.740  14.253  1.7742 -0.1592  0.0730
 4553SOL     OW25294   3.961   2.063   2.818 -0.3395 -0.1275  0.2492
 4553SOL    HW125295   3.951   2.042   2.911  0.3122 -0.0870  0.3234
 4553SOL    HW225296   3.907   2.141   2.829  0.8565  0.7422 -0.1720
 4554SOL     OW25297   3.348   3.882   7.001  0.3209  0.2474 -0.3781
 4554SOL    HW125298   3.260   3.868   7.037  0.6670  0.3511  0.5075
 4554SOL    HW225299   3.350   3.806   6.943  1.7696  0.1971 -0.2717
 4555SOL     OW25300   4.516   1.861   1.154  0.0015 -0.6284  0.1634
 4555SOL    HW125301   4.490   1.952   1.144 -0.3310 -0.8380 -0.8630
 4555SOL    HW225302   4.464   1.830   1.228  0.9995 -1.1524  0.6585
 4556SOL     OW25303   3.958   0.210   5.405 -0.0506 -0.2891  0.0032
 4556SOL    HW125304   4.012   0.184   5.331  0.2787 -0.1771  0.2033
 4556SOL    HW225305   3.871   0.216   5.366 -0.4552 -2.7737  0.4782
 4557SOL     OW25306   3.207   0.812   6.917 -0.4865  0.0656 -0.4457
 4557SOL    HW125307   3.297   0.812   6.949 -0.5502 -0.9119 -0.2699
 4557SOL    HW225308   3.175   0.740   6.972 -0.4608 -0.0452 -0.5740
 4558SOL     OW25309   2.353   2.411   4.161  0.0767  0.2166 -0.4144
 4558SOL    HW125310   2.268   2.372   4.183 -0.5020  0.5767 -1.9881
 4558SOL    HW225311   2.405   2.331   4.153 -0.3412 -0.0662 -0.3276
 4559SOL     OW25312   1.511   1.379  13.739  0.0283 -0.0958 -0.1165
 4559SOL    HW125313   1.582   1.372  13.803  0.8853 -0.9524 -1.1434
 4559SOL    HW225314   1.546   1.447  13.682 -0.8972  2.4380  2.3701
 4560SOL     OW25315   1.388   2.393   8.651  0.3727  0.1184 -0.7003
 4560SOL    HW125316   1.299   2.398   8.618 -0.7983  1.5159  2.7134
 4560SOL    HW225317   1.419   2.483   8.642 -2.8723  1.4815  1.7500
 4561SOL     OW25318   4.469   3.871   4.751 -0.3696  0.7321 -0.2607
 4561SOL    HW125319   4.402   3.838   4.692  0.1772  2.0539 -1.6189
 4561SOL    HW225320   4.554   3.852   4.711 -0.7398 -0.0237 -0.6672
 4562SOL     OW25321   1.435   2.542   0.969 -0.4624 -0.0366 -0.0577
 4562SOL    HW125322   1.387   2.482   0.912  2.3764 -1.8370 -0.5654
 4562SOL    HW225323   1.490   2.471   1.003  0.3430 -0.5630 -2.4135
 4563SOL     OW25324   1.007   1.562  12.515  0.5411  0.1057  0.4412
 4563SOL    HW125325   0.920   1.592  12.489 -0.1700 -3.1266 -0.9461
 4563SOL    HW225326   0.977   1.520  12.595  1.9135  0.3211  1.0733
 4564SOL     OW25327   0.980   0.256   7.307 -0.2778  0.2963 -0.0767
 4564SOL    HW125328   0.928   0.200   7.364 -1.1458  1.8695  0.6679
 4564SOL    HW225329   1.060   0.209   7.286  0.1479  0.6236  0.8347
 4565SOL     OW25330   1.148   2.757   0.686 -0.7477  0.4380  0.3340
 4565SOL    HW125331   1.148   2.692   0.755 -0.8124  1.6099  1.4333
 4565SOL    HW225332   1.243   2.750   0.674 -0.6127  1.9495  0.4938
 4566SOL     OW25333   3.069   2.534   1.375  0.5162  0.4372 -0.0462
 4566SOL    HW125334   3.016   2.461   1.409  0.2267  0.3985 -0.5802
 4566SOL    HW225335   3.070   2.505   1.284  0.9525 -1.1924  0.4728
 4567SOL     OW25336   2.540   1.742   3.799 -0.2053  0.5405 -0.6515
 4567SOL    HW125337   2.485   1.817   3.822  1.3543  0.4739  3.3017
 4567SOL    HW225338   2.563   1.739   3.706  0.7028 -0.7019 -0.3938
 4568SOL     OW25339   2.387   3.694   8.042  0.0261  0.0876 -0.0675
 4568SOL    HW125340   2.363   3.684   8.134  0.5461  1.7514  0.2392
 4568SOL    HW225341   2.393   3.788   8.025 -0.2122  0.4403  1.7327
 4569SOL     OW25342   2.001   3.916   5.856  0.1494 -0.0115  0.3741
 4569SOL    HW125343   2.034   3.945   5.771 -0.5239  2.0420  0.8317
 4569SOL    HW225344   2.060   3.970   5.908  0.2490  0.8591 -0.6345
 4570SOL     OW25345   0.532   0.886  13.855  0.1478 -0.1631  0.1113
 4570SOL    HW125346   0.445   0.919  13.876  0.3327  1.0755 -1.0919
 4570SOL    HW225347   0.579   0.915  13.933  2.9189  1.8787 -2.3347
 4571SOL     OW25348   0.464   4.227   8.243  0.2513 -0.1424  0.6935
 4571SOL    HW125349   0.491   4.180   8.322 -0.0571 -0.0824  0.8349
 4571SOL    HW225350   0.513   4.310   8.252 -0.3579  0.4254 -1.3215
 4572SOL     OW25351   1.325   3.162   5.169 -0.1568 -0.3126  0.1311
 4572SOL    HW125352   1.359   3.166   5.258  1.4852  4.4211 -0.6659
 4572SOL    HW225353   1.234   3.184   5.186 -0.6333 -1.7732 -0.5709
 4573SOL     OW25354   0.756   1.697  13.665  0.2658  0.6509  0.3104
 4573SOL    HW125355   0.851   1.687  13.671  0.4974  2.0990 -1.2193
 4573SOL    HW225356   0.735   1.603  13.659 -1.1682  0.9449  0.7567
 4574SOL     OW25357   3.122   2.555  14.510 -0.6435  0.0391 -0.3393
 4574SOL    HW125358   3.046   2.521  14.464 -1.6965  0.1371  1.3040
 4574SOL    HW225359   3.166   2.486  14.560 -1.2487 -0.4426 -0.4837
 4575SOL     OW25360   2.439   1.662   6.052  0.1426 -0.8498 -0.3902
 4575SOL    HW125361   2.533   1.645   6.048  0.1648 -0.7067 -0.4740
 4575SOL    HW225362   2.396   1.576   6.046  0.0730 -0.8334 -0.1563
 4576SOL     OW25363   1.993   3.110   8.557  0.6336 -0.2144 -0.0942
 4576SOL    HW125364   1.983   3.199   8.523  0.9202  0.7287  2.2829
 4576SOL    HW225365   1.910   3.096   8.604  1.1163  3.0477  1.8191
 4577SOL     OW25366   2.313   1.245  15.099 -0.0863 -0.0353  0.0567
 4577SOL    HW125367   2.294   1.339  15.091  2.3759  0.6760  2.9161
 4577SOL    HW225368   2.407   1.246  15.114 -0.2361  0.7141  0.9325
 4578SOL     OW25369   0.539   0.045   2.595 -0.2012 -0.0196  0.2781
 4578SOL    HW125370   0.475   4.713   2.619 -0.7298 -0.1562 -1.4489
 4578SOL    HW225371   0.514   0.117   2.653  0.7661  0.9605 -0.5179
 4579SOL     OW25372   3.266   0.280   5.684 -0.1367  1.4839 -0.2705
 4579SOL    HW125373   3.262   0.276   5.588 -1.5367 -1.1360 -0.1042
 4579SOL    HW225374   3.357   0.304   5.699  0.0191  0.1116  0.9940
 4580SOL     OW25375   3.379   3.057  13.421 -0.2296  0.4189  0.1264
 4580SOL    HW125376   3.431   2.979  13.435 -2.7559 -1.6172 -1.8579
 4580SOL    HW225377   3.328   3.022  13.348  0.3691 -0.5903  0.2045
 4581SOL     OW25378   2.753   3.638   6.988  0.3028 -0.3663  0.2311
 4581SOL    HW125379   2.827   3.580   7.003  0.4501 -0.3010 -0.2331
 4581SOL    HW225380   2.713   3.592   6.913 -0.6904 -0.1945  0.6554
 4582SOL     OW25381   4.141   3.586   6.004  0.2702  0.3653  0.6808
 4582SOL    HW125382   4.185   3.514   5.958 -0.0678  0.0644  0.8277
 4582SOL    HW225383   4.073   3.540   6.053  1.7898 -3.0631 -0.4375
 4583SOL     OW25384   4.716   3.594   2.651  0.0791 -0.0751  0.0371
 4583SOL    HW125385   0.005   3.661   2.714  0.4541 -0.7348  0.6003
 4583SOL    HW225386   4.716   3.645   2.570 -1.6452  1.6869  1.1381
 4584SOL     OW25387   0.773   1.646   2.780 -0.1644  0.7686  0.7329
 4584SOL    HW125388   0.806   1.724   2.824 -0.7415  1.8161 -0.6760
 4584SOL    HW225389   0.687   1.634   2.819 -1.0189  1.6250 -0.8685
 4585SOL     OW25390   4.274   1.576   7.581 -0.0747  0.1420 -0.4440
 4585SOL    HW125391   4.281   1.589   7.675  0.2166 -0.2053 -0.4182
 4585SOL    HW225392   4.366   1.573   7.556 -0.3850  1.2841 -1.7413
 4586SOL     OW25393   3.573   3.151  13.616  0.2276 -0.2680 -0.0894
 4586SOL    HW125394   3.577   3.063  13.653 -0.6679 -0.5395 -0.6443
 4586SOL    HW225395   3.487   3.142  13.575  0.1634 -0.7173  0.1438
 4587SOL     OW25396   4.560   0.711  12.695  0.3140 -0.2473  0.5594
 4587SOL    HW125397   4.544   0.701  12.601  0.4382 -0.8035  0.5952
 4587SOL    HW225398   4.502   0.639  12.723 -1.9976  0.8674 -1.3496
 4588SOL     OW25399   3.054   4.189   7.945 -0.2962  0.3562  0.3430
 4588SOL    HW125400   2.982   4.219   8.000 -1.8577 -0.9113 -1.0136
 4588SOL    HW225401   3.002   4.177   7.866  0.4004 -0.3381 -0.0122
 4589SOL     OW25402   2.714   1.855   1.188  0.1560  0.1844 -0.1401
 4589SOL    HW125403   2.707   1.760   1.176  1.8482  0.0116  0.2942
 4589SOL    HW225404   2.770   1.870   1.111 -0.2989  0.2669 -0.4509
 4590SOL     OW25405   2.059   4.061   4.967  0.3911  0.2112  0.0535
 4590SOL    HW125406   2.031   4.048   5.058 -0.8543  2.4921 -0.0248
 4590SOL    HW225407   1.975   4.031   4.932  1.2773 -1.3952 -0.7020
 4591SOL     OW25408   0.103   3.095   2.252 -0.2699  0.2884  0.7316
 4591SOL    HW125409   0.099   3.182   2.211 -1.0007  1.3364  2.9744
 4591SOL    HW225410   0.032   3.045   2.211 -0.2281  0.3991  0.5232
 4592SOL     OW25411   4.701   3.773   7.117 -0.4982  0.9239  0.0032
 4592SOL    HW125412   4.644   3.696   7.116  0.4766  0.1708  3.9487
 4592SOL    HW225413   0.023   3.761   7.042 -2.4833  0.7415 -1.4889
 4593SOL     OW25414   2.946   3.478   2.344  0.2602  0.0581 -0.2510
 4593SOL    HW125415   3.039   3.503   2.350  0.1178  0.6875 -0.6138
 4593SOL    HW225416   2.914   3.568   2.339  0.2098 -0.0842 -2.7223
 4594SOL     OW25417   4.594   4.417  15.433  0.0764  0.4488  0.1049
 4594SOL    HW125418   4.521   4.356  15.441 -0.8754  1.4186 -1.3565
 4594SOL    HW225419   4.559   4.477  15.367  3.3020  1.6705 -0.4948
 4595SOL     OW25420   3.704   2.909   4.002 -0.3278  0.3827  0.2693
 4595SOL    HW125421   3.722   2.901   3.908 -3.4069  0.0911 -0.2920
 4595SOL    HW225422   3.796   2.912   4.029  0.1729  1.0918 -1.5013
 4596SOL     OW25423   4.131   3.994   2.377 -0.2640 -0.2574  0.5206
 4596SOL    HW125424   4.116   4.033   2.291 -1.6511 -1.7474  0.0876
 4596SOL    HW225425   4.044   4.013   2.411 -0.7246 -0.1181 -0.7629
 4597SOL     OW25426   3.264   2.491  16.388 -0.2280  0.8132  0.7686
 4597SOL    HW125427   3.274   2.424  16.455  0.2268 -1.5894 -1.7053
 4597SOL    HW225428   3.248   2.564  16.448  1.4594  2.0379 -0.2801
 4598SOL     OW25429   3.177   2.282   1.502 -0.0988 -0.2293  0.4560
 4598SOL    HW125430   3.108   2.263   1.438  0.2947 -0.2629  0.0378
 4598SOL    HW225431   3.256   2.283   1.447 -0.7260 -0.7167 -0.4509
 4599SOL     OW25432   2.388   3.709   1.167 -0.0235  0.5540  0.2511
 4599SOL    HW125433   2.333   3.781   1.136  0.5707  1.1259  0.5202
 4599SOL    HW225434   2.475   3.749   1.157  0.5022 -1.0130 -1.4630
 4600SOL     OW25435   1.507   1.702   9.340  1.0034 -0.0137  0.5927
 4600SOL    HW125436   1.590   1.746   9.320  0.6189 -0.1120 -1.2917
 4600SOL    HW225437   1.482   1.751   9.418  0.1651  0.6408 -0.0790
 4601SOL     OW25438   1.900   1.874  13.296 -0.2574  0.1280  0.6287
 4601SOL    HW125439   1.979   1.890  13.348  0.9825  1.2591 -1.6230
 4601SOL    HW225440   1.826   1.871  13.357 -0.3437  0.6776  0.5484
 4602SOL     OW25441   3.248   4.454   2.339  0.3167 -0.0822 -0.3118
 4602SOL    HW125442   3.284   4.386   2.396 -1.7790  0.8655  2.1223
 4602SOL    HW225443   3.161   4.417   2.326  0.8387 -1.0581 -0.9645
 4603SOL     OW25444   3.774   3.411   2.414 -0.2690  0.2701 -0.3089
 4603SOL    HW125445   3.819   3.484   2.457 -0.6549  1.0540 -1.2276
 4603SOL    HW225446   3.811   3.433   2.328 -1.4910  3.8118  0.0491
 4604SOL     OW25447   4.089   4.292   0.009  0.2829  0.2774  0.0512
 4604SOL    HW125448   4.072   4.386   0.000  1.6823  0.2171 -3.2593
 4604SOL    HW225449   4.026   4.257   0.072  2.1849  0.6502  2.1799
 4605SOL     OW25450   1.326   3.989  15.760 -0.0185  0.2110  0.3217
 4605SOL    HW125451   1.320   4.084  15.766  0.7506  0.2993 -0.2681
 4605SOL    HW225452   1.311   3.965  15.669  0.6214  2.0518 -0.2508
 4606SOL     OW25453   2.603   4.635  10.937  0.4168 -0.0816  0.1922
 4606SOL    HW125454   2.549   4.572  10.890 -0.6894  2.0264 -1.3727
 4606SOL    HW225455   2.543   4.707  10.954  1.3975  0.3742  1.8105
 4607SOL     OW25456   3.595   0.409   8.348 -0.2716 -0.0263  0.6191
 4607SOL    HW125457   3.554   0.495   8.340  2.7378  1.4571  1.1864
 4607SOL    HW225458   3.615   0.406   8.442  0.8911 -1.1940  0.3470
 4608SOL     OW25459   3.352   3.531  15.843 -0.0851  0.2783 -0.5167
 4608SOL    HW125460   3.357   3.591  15.918 -0.6405 -1.8448  1.2349
 4608SOL    HW225461   3.413   3.563  15.777 -0.9443 -2.3277 -2.5790
 4609SOL     OW25462   1.972   3.804   7.282 -0.2918  0.6072 -0.0155
 4609SOL    HW125463   1.904   3.743   7.310 -0.0570  0.8464  1.0533
 4609SOL    HW225464   2.045   3.745   7.264  0.0517  0.9189  0.3619
 4610SOL     OW25465   0.790   4.017   5.922  0.5493 -0.1998  0.1881
 4610SOL    HW125466   0.763   4.100   5.961  2.0759  1.5666 -2.4408
 4610SOL    HW225467   0.711   4.009   5.868  0.1668  0.8210  0.6066
 4611SOL     OW25468   2.300   2.119  17.181 -0.2799  0.5098  0.4914
 4611SOL    HW125469   2.377   2.142  17.130  0.3901  0.9615  1.6907
 4611SOL    HW225470   2.245   2.193  17.154 -2.5416 -0.3427  2.6761
 4612SOL     OW25471   2.544   1.779   2.190  0.4614  0.6121 -0.6733
 4612SOL    HW125472   2.635   1.788   2.162  0.9130 -2.3875 -0.1374
 4612SOL    HW225473   2.521   1.688   2.204  0.5502  0.6916 -0.0070
 4613SOL     OW25474   4.179   4.514   6.009  0.0327  0.6419 -0.1527
 4613SOL    HW125475   4.129   4.568   6.070 -1.2668 -2.2320  1.3628
 4613SOL    HW225476   4.117   4.462   5.959  0.4137  0.7183 -0.6968
 4614SOL     OW25477   1.004   3.054  17.528  0.0445  0.3263 -0.5843
 4614SOL    HW125478   1.033   3.093  17.611 -1.3993 -1.6850  0.8770
 4614SOL    HW225479   0.937   3.116  17.499  0.0343  1.1798  1.2707
 4615SOL     OW25480   4.669   0.203   7.682  0.0004 -0.8142  0.0182
 4615SOL    HW125481   4.653   0.148   7.605  1.2324  1.6065 -1.9754
 4615SOL    HW225482   4.577   0.219   7.699  0.1334 -0.5006  0.4274
 4616SOL     OW25483   1.431   4.723   2.789  0.5074  1.3034  0.0016
 4616SOL    HW125484   1.509   4.672   2.766  1.2747  1.1893  2.9025
 4616SOL    HW225485   1.471   0.074   2.781  1.7779  0.6880 -0.3194
 4617SOL     OW25486   3.913   2.444   9.738  0.2261  0.1762  0.0392
 4617SOL    HW125487   3.946   2.495   9.665  1.0035 -0.3427  0.0299
 4617SOL    HW225488   3.855   2.381   9.694 -0.2511  0.0392  0.8556
 4618SOL     OW25489   0.227   0.048   4.920 -0.1508 -0.3447  0.1603
 4618SOL    HW125490   0.209   4.690   4.908 -0.3404 -0.4436  1.1654
 4618SOL    HW225491   0.213   0.089   4.835 -1.0116 -1.2434 -0.1311
 4619SOL     OW25492   4.462   0.420   7.905 -0.3467  0.1085  0.1783
 4619SOL    HW125493   4.406   0.421   7.828  0.3612  3.3118 -0.2955
 4619SOL    HW225494   4.500   0.507   7.916  0.3463 -0.2932  0.9779
 4620SOL     OW25495   0.159   1.420   7.381  0.3598  0.2306 -0.1820
 4620SOL    HW125496   0.106   1.480   7.433  0.0008  0.4293 -0.7820
 4620SOL    HW225497   0.091   1.390   7.321  0.8150  0.9145 -1.0411
 4621SOL     OW25498   3.797   0.260   3.149 -0.9214 -0.0997 -0.1268
 4621SOL    HW125499   3.764   0.175   3.120 -0.5057  0.3016 -1.7281
 4621SOL    HW225500   3.725   0.291   3.205  0.4718 -0.6197  1.9537
 4622SOL     OW25501   2.850   0.965   3.269 -0.0931  0.1438  0.2163
 4622SOL    HW125502   2.896   0.897   3.318 -0.3543 -1.0924 -1.2520
 4622SOL    HW225503   2.835   1.039   3.329 -2.4227 -1.9456  2.2111
 4623SOL     OW25504   0.869   2.563  17.189 -0.3640 -0.5252  0.2907
 4623SOL    HW125505   0.790   2.526  17.149 -0.1516 -1.0272  0.3424
 4623SOL    HW225506   0.843   2.588  17.278 -2.2632 -1.3590 -0.0375
 4624SOL     OW25507   4.176   3.660   3.549 -0.0211  0.0850 -0.5274
 4624SOL    HW125508   4.176   3.756   3.550  1.8544  0.0798 -0.3133
 4624SOL    HW225509   4.172   3.651   3.644 -1.6004  0.6728 -0.5395
 4625SOL     OW25510   0.264   0.150  12.426  0.6344 -0.0363  0.3450
 4625SOL    HW125511   0.250   0.110  12.340  1.2291  1.2688 -0.3542
 4625SOL    HW225512   0.239   0.241  12.409 -1.3227 -0.5883  0.3051
 4626SOL     OW25513   0.807   2.246   6.188  0.3186 -0.4819 -0.0076
 4626SOL    HW125514   0.819   2.341   6.182 -1.2443 -0.2454  0.4246
 4626SOL    HW225515   0.778   2.220   6.101 -1.1816  0.7756  0.1032
 4627SOL     OW25516   2.646   2.691  16.002  0.0432 -0.1515  0.0976
 4627SOL    HW125517   2.554   2.666  16.015  1.1409 -3.5455  1.1553
 4627SOL    HW225518   2.661   2.733  16.087  0.4531  1.4099 -0.7446
 4628SOL     OW25519   2.399   4.474  10.719 -0.2129 -0.0073  0.7304
 4628SOL    HW125520   2.468   4.488  10.654  0.7219 -3.1006  1.0782
 4628SOL    HW225521   2.321   4.496  10.669 -0.6016  0.7796  1.6870
 4629SOL     OW25522   2.298   1.488   3.578 -0.3933  0.1259 -0.3034
 4629SOL    HW125523   2.233   1.508   3.512 -1.5064 -0.5361  0.5986
 4629SOL    HW225524   2.318   1.574   3.614 -0.8215  0.1642 -0.1605
 4630SOL     OW25525   3.722   0.834   5.633 -0.0315  0.0582  0.4310
 4630SOL    HW125526   3.810   0.849   5.668  0.0214 -0.7480  0.6470
 4630SOL    HW225527   3.743   0.780   5.557 -0.5620 -0.3621  0.5908
 4631SOL     OW25528   1.395   3.822  10.806  0.2247 -0.4580 -0.1737
 4631SOL    HW125529   1.396   3.866  10.891 -0.4082 -0.1404 -0.3372
 4631SOL    HW225530   1.488   3.800  10.800  0.9099  2.9724 -2.3943
 4632SOL     OW25531   3.390   0.292  17.365 -0.2745  0.4258 -0.0066
 4632SOL    HW125532   3.359   0.356  17.302 -0.3338 -1.2999 -1.7382
 4632SOL    HW225533   3.365   0.325  17.451 -2.2200  0.4586 -0.5782
 4633SOL     OW25534   1.994   2.168   8.073  0.1740  0.1033 -0.0809
 4633SOL    HW125535   2.029   2.085   8.102  2.2940  0.2247 -2.2796
 4633SOL    HW225536   1.967   2.198   8.160 -0.6146  1.1509 -0.6800
 4634SOL     OW25537   0.433   0.971   2.141  0.3278 -0.3240 -0.1562
 4634SOL    HW125538   0.527   0.965   2.123  0.3881 -1.6058  0.6428
 4634SOL    HW225539   0.428   1.013   2.227 -1.6914  2.4960 -1.6441
 4635SOL     OW25540   1.178   3.950   4.044  0.1833  0.2528 -0.5794
 4635SOL    HW125541   1.198   3.857   4.027  1.8043  0.5814 -0.4647
 4635SOL    HW225542   1.118   3.932   4.116  1.9872 -1.6966  0.4347
 4636SOL     OW25543   3.317   3.006  14.085 -0.4731 -0.1543 -0.5284
 4636SOL    HW125544   3.281   3.093  14.104  1.1754  0.3719  0.2265
 4636SOL    HW225545   3.259   2.948  14.134  0.0730  0.9849  1.4371
 4637SOL     OW25546   0.324   0.318   4.055 -0.3915  0.3149 -0.3267
 4637SOL    HW125547   0.392   0.272   4.105 -0.6229  1.0263  0.6525
 4637SOL    HW225548   0.373   0.366   3.988 -0.0929  0.9914  0.3783
 4638SOL     OW25549   0.006   1.999   5.382  0.9924  0.1288  0.0486
 4638SOL    HW125550   4.722   1.940   5.309 -3.8125  0.6423  0.9384
 4638SOL    HW225551   4.653   2.022   5.410  0.8386  0.2372 -0.5213
 4639SOL     OW25552   2.405   1.441   9.285 -0.1527  0.1211 -0.5278
 4639SOL    HW125553   2.322   1.393   9.278  0.8155 -1.8750  2.1403
 4639SOL    HW225554   2.448   1.405   9.362 -1.0399  3.1038  1.3570
 4640SOL     OW25555   1.498   0.768   2.174 -0.5238 -0.5030  0.1781
 4640SOL    HW125556   1.482   0.674   2.187  0.6808 -0.6691  0.4800
 4640SOL    HW225557   1.421   0.802   2.219 -2.6727 -4.9144 -0.0838
 4641SOL     OW25558   4.181   2.271   0.097  0.0765  0.3569 -0.3593
 4641SOL    HW125559   4.147   2.255   0.009  3.1757 -1.3499 -1.2518
 4641SOL    HW225560   4.262   2.220   0.089 -0.6260 -1.0159  1.2469
 4642SOL     OW25561   1.750   2.832   3.004  0.3262 -0.1695 -0.1852
 4642SOL    HW125562   1.776   2.758   3.059  2.2347  0.9673  0.4583
 4642SOL    HW225563   1.662   2.846   3.039 -0.3314 -1.4078 -1.3301
 4643SOL     OW25564   3.023   1.145   5.990 -0.0470 -0.2222 -0.0377
 4643SOL    HW125565   3.052   1.230   5.959 -2.2458 -0.0387 -1.5632
 4643SOL    HW225566   3.097   1.096   5.955  0.1189 -0.0338  0.0516
 4644SOL     OW25567   1.892   2.350  12.670 -0.2427  0.0208 -0.4963
 4644SOL    HW125568   1.944   2.426  12.695 -0.2240  0.3718 -1.6205
 4644SOL    HW225569   1.887   2.305  12.754 -0.4982 -0.4772 -0.7785
 4645SOL     OW25570   3.249   1.748   7.843 -0.3338 -0.1352  0.3290
 4645SOL    HW125571   3.254   1.667   7.791 -0.1820 -0.4127  0.7760
 4645SOL    HW225572   3.317   1.737   7.909  0.0733 -0.3646 -0.1267
 4646SOL     OW25573   1.241   0.705   2.519 -0.2844 -0.1658  0.0478
 4646SOL    HW125574   1.188   0.630   2.490  1.8280 -1.0846 -1.4733
 4646SOL    HW225575   1.267   0.761   2.446 -0.0790  2.2398  1.9590
 4647SOL     OW25576   1.414   1.209  10.748  0.2036 -0.1226  0.6807
 4647SOL    HW125577   1.386   1.174  10.663  3.3942  1.6552 -1.0748
 4647SOL    HW225578   1.477   1.275  10.721 -0.0168 -0.3297 -0.3474
 4648SOL     OW25579   3.853   1.660  16.621  0.2635 -0.3040 -0.0773
 4648SOL    HW125580   3.913   1.732  16.604  0.8092 -0.4898  1.0313
 4648SOL    HW225581   3.914   1.596  16.659  2.1468  0.9417 -0.9977
 4649SOL     OW25582   2.721   4.153  11.555  0.4324  0.2041 -0.4350
 4649SOL    HW125583   2.707   4.232  11.608 -1.1644  0.4685 -1.2340
 4649SOL    HW225584   2.637   4.110  11.569  0.5092 -0.7611 -2.9322
 4650SOL     OW25585   2.681   2.859  16.212  0.2539  0.2007  0.6577
 4650SOL    HW125586   2.602   2.833  16.260 -0.1849 -1.1421 -0.7810
 4650SOL    HW225587   2.667   2.954  16.207  2.4683  0.4793 -0.2913
 4651SOL     OW25588   1.935   2.748   8.662 -0.2002 -0.0827 -0.1075
 4651SOL    HW125589   1.870   2.785   8.603  1.4084 -0.0693 -1.8875
 4651SOL    HW225590   1.885   2.732   8.742  1.4793 -1.6426  0.6344
 4652SOL     OW25591   4.511   2.876   3.397 -0.0766 -0.5954  0.2114
 4652SOL    HW125592   4.537   2.889   3.306  0.5707 -1.1634  0.3143
 4652SOL    HW225593   4.499   2.782   3.406 -0.3034 -0.6654 -0.9306
 4653SOL     OW25594   0.126   0.537   7.570 -0.2066 -0.4410 -0.1990
 4653SOL    HW125595   0.051   0.523   7.512 -0.7110 -3.6482  1.2498
 4653SOL    HW225596   0.145   0.446   7.591 -1.2935 -0.5197  0.3897
 4654SOL     OW25597   4.417   2.067  17.367 -0.0287  0.7258  0.2215
 4654SOL    HW125598   4.453   2.104  17.286 -0.7617  0.1769 -0.3545
 4654SOL    HW225599   4.452   2.126  17.434  1.2878  1.7401 -1.3342
 4655SOL     OW25600   2.302   0.764   8.769 -0.4951  0.7515  0.3238
 4655SOL    HW125601   2.254   0.730   8.845  0.8555  0.0530  0.8595
 4655SOL    HW225602   2.321   0.853   8.796 -0.0676  1.5672 -2.6382
 4656SOL     OW25603   4.669   2.080   8.212 -0.4167  0.1405 -0.6028
 4656SOL    HW125604   4.653   1.987   8.198  0.4450 -0.2107  0.7942
 4656SOL    HW225605   4.583   2.121   8.205 -0.4073  0.3614  0.5851
 4657SOL     OW25606   1.026   0.564   5.256  0.0754 -0.5862  0.2409
 4657SOL    HW125607   0.982   0.645   5.283 -1.6376 -1.1170 -0.9601
 4657SOL    HW225608   0.959   0.498   5.275 -0.1119 -0.8853 -1.4922
 4658SOL     OW25609   2.993   2.193   3.413 -0.0810 -0.8247  0.4620
 4658SOL    HW125610   2.946   2.270   3.446 -1.5431 -1.2452 -0.6528
 4658SOL    HW225611   3.081   2.232   3.413 -0.4532  0.0031 -1.8969
 4659SOL     OW25612   1.979   4.352  16.880 -0.5099 -0.5283 -0.2912
 4659SOL    HW125613   1.946   4.425  16.828 -0.0054  0.6732  1.0827
 4659SOL    HW225614   2.037   4.407  16.933  0.0400  0.5789 -2.0528
 4660SOL     OW25615   3.889   3.261   3.372 -0.0605 -0.5880 -0.1944
 4660SOL    HW125616   3.931   3.321   3.434  0.1709 -0.0008 -0.9256
 4660SOL    HW225617   3.849   3.200   3.433 -2.4724  0.5867 -0.6286
 4661SOL     OW25618   2.803   2.019   2.149  0.1505 -0.3358 -0.5457
 4661SOL    HW125619   2.753   2.047   2.072  1.1585  1.1974 -0.6463
 4661SOL    HW225620   2.824   1.933   2.115  0.9731 -0.2381 -0.2937
 4662SOL     OW25621   1.087   1.450   7.681  0.5290  0.4453 -0.1135
 4662SOL    HW125622   1.009   1.498   7.652 -1.1838 -1.7261  0.8637
 4662SOL    HW225623   1.149   1.521   7.698  0.5803  0.7451 -1.5672
 4663SOL     OW25624   1.647   0.137   6.404 -0.4978 -0.2803  0.2203
 4663SOL    HW125625   1.728   0.152   6.453 -0.3719  0.7782 -0.3129
 4663SOL    HW225626   1.611   0.225   6.416 -0.0230  0.2228 -2.1436
 4664SOL     OW25627   1.475   3.320   3.457 -0.5905  0.0676  0.1114
 4664SOL    HW125628   1.550   3.365   3.418 -0.0555 -1.1250 -0.2463
 4664SOL    HW225629   1.401   3.364   3.415 -1.3406  1.0860  2.5253
 4665SOL     OW25630   2.889   3.735   2.269  0.7998 -0.0952 -0.0772
 4665SOL    HW125631   2.834   3.808   2.242 -0.3587 -1.2012 -0.6940
 4665SOL    HW225632   2.946   3.729   2.192  1.0629  0.7671  0.0517
 4666SOL     OW25633   3.482   1.805  14.676 -0.6026  0.4405 -0.4425
 4666SOL    HW125634   3.395   1.812  14.715 -1.0717  0.2644 -1.4555
 4666SOL    HW225635   3.527   1.761  14.748  0.2481  1.3529 -0.4199
 4667SOL     OW25636   3.374   0.044   3.976 -0.8712  0.0701 -0.1091
 4667SOL    HW125637   3.411   4.695   3.951 -3.7561 -0.2432 -3.3431
 4667SOL    HW225638   3.422   0.064   4.056 -0.4430  1.8073 -0.8074
 4668SOL     OW25639   4.395   3.374   5.102  0.2506 -0.4928  0.3592
 4668SOL    HW125640   4.439   3.342   5.023 -0.9602 -0.2528 -0.4182
 4668SOL    HW225641   4.306   3.393   5.073  0.5270  0.0199 -0.1466
 4669SOL     OW25642   3.595   0.270   6.549 -0.0054 -0.5995  0.0507
 4669SOL    HW125643   3.658   0.318   6.495 -0.0298 -1.1567 -0.4655
 4669SOL    HW225644   3.528   0.253   6.483 -0.9712  0.1100  0.8463
 4670SOL     OW25645   1.578   4.140  17.106  0.2104 -0.1344  0.2174
 4670SOL    HW125646   1.644   4.209  17.106  2.5949 -2.4193  0.2926
 4670SOL    HW225647   1.502   4.196  17.092  0.9496  0.4665 -1.4356
 4671SOL     OW25648   2.570   0.889  17.548  0.7168  0.2870  0.6244
 4671SOL    HW125649   2.581   0.851  17.461  1.0016  1.0489  0.3208
 4671SOL    HW225650   2.480   0.862  17.565  1.2069 -1.0103  1.1514
 4672SOL     OW25651   4.464   2.798   9.284  0.3597  0.4016  0.3323
 4672SOL    HW125652   4.464   2.716   9.235  0.4457  1.3877 -1.3094
 4672SOL    HW225653   4.515   2.856   9.229  2.6043 -2.9465 -1.1214
 4673SOL     OW25654   4.267   4.020   3.077  0.4922 -0.9345  0.3400
 4673SOL    HW125655   4.227   4.044   3.161 -1.8047  1.7339 -1.5313
 4673SOL    HW225656   4.352   4.063   3.084  0.0108  0.1388 -0.5502
 4674SOL     OW25657   1.789   0.341   4.299 -0.4009  0.5425  0.1398
 4674SOL    HW125658   1.760   0.359   4.209 -0.9642  1.0228  0.4190
 4674SOL    HW225659   1.870   0.298   4.273 -0.4472  1.3959 -1.4052
 4675SOL     OW25660   4.003   2.608   1.809 -0.1860 -0.2426  0.3449
 4675SOL    HW125661   3.920   2.584   1.770 -0.2898  0.4355  0.1420
 4675SOL    HW225662   4.028   2.680   1.751  0.1790  0.0447  0.8561
 4676SOL     OW25663   2.514   4.234  13.207  0.2170  0.6871  0.0205
 4676SOL    HW125664   2.492   4.228  13.114  1.8686  0.3831 -0.3611
 4676SOL    HW225665   2.509   4.328  13.225  0.8255  0.1363  2.9980
 4677SOL     OW25666   4.487   2.834  11.925  0.0007  0.3861 -0.1314
 4677SOL    HW125667   4.472   2.844  12.019  1.3109  0.5040  0.0628
 4677SOL    HW225668   4.531   2.749  11.925 -0.8736 -0.0715 -0.5291
 4678SOL     OW25669   0.304   0.291   3.390 -0.1775  0.0056 -0.0679
 4678SOL    HW125670   0.362   0.258   3.458 -0.8537 -1.4645 -0.2110
 4678SOL    HW225671   0.342   0.255   3.310  0.1375  1.9013 -0.7867
 4679SOL     OW25672   2.904   0.878   6.737 -0.4324  0.3525  0.0868
 4679SOL    HW125673   2.945   0.824   6.670 -1.4081  0.4930 -0.6171
 4679SOL    HW225674   2.973   0.944   6.731  0.5008 -0.9008 -2.6900
 4680SOL     OW25675   1.260   1.567   7.188  0.2959  0.5357  0.6275
 4680SOL    HW125676   1.244   1.472   7.189  0.6333  0.4605 -0.6669
 4680SOL    HW225677   1.263   1.585   7.094  3.9687 -1.6802  0.3394
 4681SOL     OW25678   3.827   0.542   6.675 -0.3417  0.0340 -0.1588
 4681SOL    HW125679   3.896   0.483   6.649  0.0971  1.3250 -1.8738
 4681SOL    HW225680   3.845   0.617   6.619 -2.0234 -0.7964 -1.7883
 4682SOL     OW25681   1.307   0.700   3.451 -0.0463 -0.2582 -0.1951
 4682SOL    HW125682   1.399   0.713   3.426 -0.1787  2.1905  0.5019
 4682SOL    HW225683   1.317   0.661   3.537 -1.4321  0.7863  0.4363
 4683SOL     OW25684   3.838   3.634   6.344  0.5472  0.0744  0.0861
 4683SOL    HW125685   3.752   3.594   6.354  1.3092 -1.3731  0.8848
 4683SOL    HW225686   3.810   3.724   6.357  0.3739 -0.2012  1.6595
 4684SOL     OW25687   0.235   3.685   7.593  0.4575  0.1630  0.0347
 4684SOL    HW125688   0.150   3.657   7.625  0.9333 -0.0800  1.1009
 4684SOL    HW225689   0.277   3.607   7.557  0.5519  0.0537  0.3809
 4685SOL     OW25690   0.974   1.715   6.864 -0.2998  0.4274 -0.5795
 4685SOL    HW125691   1.031   1.785   6.896 -0.7106  0.4225  0.1641
 4685SOL    HW225692   1.036   1.648   6.833  1.4406  1.7098  0.1301
 4686SOL     OW25693   2.423   3.141  13.490  0.4659  0.8373  0.6464
 4686SOL    HW125694   2.416   3.220  13.437 -2.6298  0.4633  0.5238
 4686SOL    HW225695   2.342   3.098  13.465  1.3382 -1.1732  1.2499
 4687SOL     OW25696   0.699   3.542   5.785  0.1058  0.4734 -0.0709
 4687SOL    HW125697   0.736   3.593   5.856 -0.2368  0.3557  0.1890
 4687SOL    HW225698   0.700   3.452   5.818  0.4064  0.3513 -0.4013
 4688SOL     OW25699   2.908   2.120   4.481  0.0170 -0.4589 -0.9454
 4688SOL    HW125700   2.835   2.180   4.489 -0.2222 -0.6540 -1.6266
 4688SOL    HW225701   2.883   2.063   4.553  2.5065 -1.0625 -0.5354
 4689SOL     OW25702   0.071   3.053   6.103 -0.1882  0.5809  0.1327
 4689SOL    HW125703   0.108   2.973   6.067  0.0726  0.6580  0.2277
 4689SOL    HW225704   0.136   3.080   6.167  1.0966 -2.3375  0.0292
 4690SOL     OW25705   3.322   2.546   7.934 -0.6338 -0.4138 -0.5103
 4690SOL    HW125706   3.415   2.522   7.936 -0.5591 -0.2161 -1.8058
 4690SOL    HW225707   3.270   2.470   7.959 -0.2475 -0.3509  0.4734
 4691SOL     OW25708   1.197   4.424   2.983 -0.5853  0.8474 -0.1829
 4691SOL    HW125709   1.104   4.425   3.005 -0.7497 -1.7001 -0.7129
 4691SOL    HW225710   1.201   4.513   2.949 -0.8807 -0.2203 -3.0461
 4692SOL     OW25711   0.604   0.934   7.282 -0.7449  0.5138  0.2121
 4692SOL    HW125712   0.554   0.881   7.220 -0.9620  0.7663  0.1735
 4692SOL    HW225713   0.664   0.866   7.316 -0.6902  0.6754  0.4405
 4693SOL     OW25714   1.656   2.063  15.238  0.2967  0.1538 -0.5052
 4693SOL    HW125715   1.652   1.989  15.298  1.1064  0.9130  0.4866
 4693SOL    HW225716   1.632   2.144  15.285 -1.7365  0.1501 -1.5231
 4694SOL     OW25717   0.661   0.506   8.733 -0.5077  0.0871  0.3426
 4694SOL    HW125718   0.715   0.584   8.734  0.6475 -0.7180  1.2106
 4694SOL    HW225719   0.731   0.444   8.709 -0.2949  0.3586  0.2661
 4695SOL     OW25720   0.037   4.102  17.210 -0.1606  0.2271 -0.0314
 4695SOL    HW125721   0.085   4.021  17.190  1.0130  0.9322 -0.0485
 4695SOL    HW225722   0.103   4.171  17.217 -0.4418  0.5269 -0.3839
 4696SOL     OW25723   2.653   0.373   6.247 -0.2593  0.7261 -0.2577
 4696SOL    HW125724   2.657   0.401   6.339 -2.0430  0.8665 -0.2290
 4696SOL    HW225725   2.590   0.302   6.247  1.1139 -0.5024 -1.9862
 4697SOL     OW25726   1.357   4.268   2.845  0.1991 -0.1578 -0.1014
 4697SOL    HW125727   1.299   4.303   2.913  0.3423  1.2599 -0.6937
 4697SOL    HW225728   1.434   4.325   2.853 -0.1667  0.4181 -0.6075
 4698SOL     OW25729   4.162   1.434   1.333  0.5201  0.4150  0.6872
 4698SOL    HW125730   4.082   1.383   1.322  1.2572 -0.2553 -1.7059
 4698SOL    HW225731   4.119   1.518   1.313 -0.2528 -0.3100 -0.7542
 4699SOL     OW25732   0.711   2.563   6.194 -0.3098  0.3236 -0.3934
 4699SOL    HW125733   0.685   2.654   6.184  3.4905  1.4439 -0.3880
 4699SOL    HW225734   0.648   2.516   6.140  1.2177 -2.4192  0.1904
 4700SOL     OW25735   0.895   0.364   7.067  0.2805 -0.7576 -0.3715
 4700SOL    HW125736   0.968   0.333   7.013  1.9966  1.1752  0.8144
 4700SOL    HW225737   0.920   0.336   7.155 -2.5252 -0.6416  0.4369
 4701SOL     OW25738   1.841   1.082   4.780 -0.5996 -0.5020  0.2683
 4701SOL    HW125739   1.916   1.061   4.726  1.0353  2.1319  1.5152
 4701SOL    HW225740   1.884   1.080   4.866 -0.6556 -2.3028  0.2577
 4702SOL     OW25741   2.110   4.250   1.438 -0.4827 -0.2528  0.5453
 4702SOL    HW125742   2.039   4.236   1.500 -0.2309 -2.1836  0.3709
 4702SOL    HW225743   2.151   4.326   1.480 -1.4913  2.6009 -3.5839
 4703SOL     OW25744   0.724   4.424  14.154 -0.1772  0.5138  0.0455
 4703SOL    HW125745   0.761   4.443  14.240  3.1845 -0.0509 -1.2910
 4703SOL    HW225746   0.788   4.462  14.094  0.4095 -0.5351 -0.0128
 4704SOL     OW25747   1.225   1.302   7.265  0.1954 -0.7612 -0.5555
 4704SOL    HW125748   1.285   1.251   7.319  0.9234 -0.5203 -1.1402
 4704SOL    HW225749   1.150   1.300   7.324 -1.0323  1.0571 -2.0480
 4705SOL     OW25750   4.006   2.995   4.932  0.2655  0.1084 -0.5045
 4705SOL    HW125751   4.077   3.046   4.894  1.2484  0.0923  1.3219
 4705SOL    HW225752   3.929   3.051   4.932  1.3765  1.6308 -2.1909
 4706SOL     OW25753   2.082   3.253   1.962  0.8666 -0.0055 -0.0960
 4706SOL    HW125754   2.157   3.261   1.902  2.5048 -1.8733  1.6876
 4706SOL    HW225755   2.014   3.222   1.902  0.6969 -0.7230  0.4665
 4707SOL     OW25756   2.398   0.779  11.193 -0.3879  0.3422 -0.3242
 4707SOL    HW125757   2.312   0.778  11.236  0.1722 -0.3901  0.7730
 4707SOL    HW225758   2.415   0.685  11.193 -0.0797  0.4035 -1.1149
 4708SOL     OW25759   1.886   1.411   1.584  0.3125  0.4800  0.1027
 4708SOL    HW125760   1.965   1.419   1.530 -0.2439 -0.6354 -0.8614
 4708SOL    HW225761   1.895   1.324   1.624 -1.0394 -0.7174 -2.1815
 4709SOL     OW25762   3.442   3.632   3.106  0.1896 -0.0615 -0.6139
 4709SOL    HW125763   3.423   3.538   3.113 -0.0939 -0.0473 -1.2514
 4709SOL    HW225764   3.386   3.653   3.031  0.5864 -1.9843 -1.4486
 4710SOL     OW25765   3.673   1.893   2.771 -0.1198  0.5610 -0.8419
 4710SOL    HW125766   3.682   1.867   2.679 -2.7801 -1.0097 -0.6522
 4710SOL    HW225767   3.758   1.937   2.782  0.4972  0.1464 -3.9616
 4711SOL     OW25768   4.143   4.681   7.342 -0.4935  0.2246  0.4035
 4711SOL    HW125769   4.079   4.611   7.331 -0.7906  0.2876  1.7262
 4711SOL    HW225770   4.205   4.632   7.396 -0.9367 -0.7521  0.0197
 4712SOL     OW25771   0.340   1.855  17.374 -0.2117  0.3983 -0.1711
 4712SOL    HW125772   0.357   1.938  17.417  0.0076 -1.5966  3.6318
 4712SOL    HW225773   0.416   1.807  17.407 -0.2440  1.0768  0.8977
 4713SOL     OW25774   3.342   0.144   6.435 -0.3055  0.1300 -0.1038
 4713SOL    HW125775   3.313   0.155   6.345 -0.1630  0.2109 -0.1388
 4713SOL    HW225776   3.285   0.070   6.457 -0.8902  0.2684 -1.1914
 4714SOL     OW25777   3.601   1.818   5.950  0.0126 -0.0890  0.1482
 4714SOL    HW125778   3.651   1.841   5.872  0.1845  0.3694  0.3958
 4714SOL    HW225779   3.546   1.895   5.961 -0.7132 -1.1887  4.2688
 4715SOL     OW25780   0.475   1.538   5.756  0.1929  0.0775 -0.4213
 4715SOL    HW125781   0.538   1.496   5.814 -0.9748 -0.8857  0.1494
 4715SOL    HW225782   0.529   1.598   5.705  1.1168 -1.1324 -0.8835
 4716SOL     OW25783   0.126   0.149   4.220 -0.0304  0.2096  0.1438
 4716SOL    HW125784   0.102   0.074   4.166  0.2834  0.7336 -0.7304
 4716SOL    HW225785   0.136   0.213   4.149 -4.3046 -0.4315 -1.0525
 4717SOL     OW25786   2.448   3.761   3.061  0.2301 -0.4283 -0.0461
 4717SOL    HW125787   2.436   3.801   2.974  1.6756 -0.2318 -0.1475
 4717SOL    HW225788   2.431   3.668   3.044 -0.3952 -0.3836  0.3414
 4718SOL     OW25789   3.489   4.106   8.096  0.3200  0.4691 -0.1323
 4718SOL    HW125790   3.403   4.147   8.086 -0.0752 -0.3704 -0.1858
 4718SOL    HW225791   3.541   4.184   8.117 -0.6689  1.6173 -1.9521
 4719SOL     OW25792   1.469   3.269  16.414 -0.0778 -0.7112 -0.2595
 4719SOL    HW125793   1.504   3.324  16.484 -0.6550  2.1250 -2.1882
 4719SOL    HW225794   1.380   3.306  16.415  0.7599  1.3862 -3.2826
 4720SOL     OW25795   1.726   2.524  13.721  0.3844  0.1436  0.5598
 4720SOL    HW125796   1.703   2.604  13.674 -0.5861  0.1821  1.1011
 4720SOL    HW225797   1.707   2.562  13.807 -1.3972  0.8298 -0.1382
 4721SOL     OW25798   1.891   2.825  16.083 -0.2680  0.0671  0.3977
 4721SOL    HW125799   1.925   2.878  16.156 -1.2421 -0.1398  0.9982
 4721SOL    HW225800   1.834   2.893  16.046 -0.7775 -1.6077 -1.8667
 4722SOL     OW25801   3.721   1.677  15.529 -0.1266  0.3816 -0.3450
 4722SOL    HW125802   3.777   1.747  15.564  0.9412 -0.7643  0.2516
 4722SOL    HW225803   3.781   1.604  15.512  1.2951  0.7587  3.0805
 4723SOL     OW25804   0.218   1.159   7.197  0.6077  0.0990 -0.3689
 4723SOL    HW125805   0.191   1.076   7.159  0.0933 -0.9627  2.3329
 4723SOL    HW225806   0.242   1.134   7.286 -2.0310  0.8555  0.5612
 4724SOL     OW25807   4.558   0.242   3.974  0.1835  0.2867 -0.0965
 4724SOL    HW125808   4.548   0.300   3.898  1.9529  1.0998  0.2921
 4724SOL    HW225809   4.573   0.306   4.043 -1.0273  1.6440 -1.0694
 4725SOL     OW25810   3.698   0.908   5.100 -0.6153 -0.2475 -0.0813
 4725SOL    HW125811   3.659   0.995   5.087  0.1067 -0.1968 -1.9314
 4725SOL    HW225812   3.784   0.921   5.139 -0.7847  0.2969  0.1093
 4726SOL     OW25813   2.664   4.406   6.483  0.0758 -0.0765  0.0004
 4726SOL    HW125814   2.572   4.432   6.475  0.0037  0.3874  2.4784
 4726SOL    HW225815   2.669   4.331   6.423  1.2914 -2.2911  2.8635
 4727SOL     OW25816   4.722   4.300   3.051  0.5026  0.1017  0.2164
 4727SOL    HW125817   0.020   4.385   3.021 -0.5341  0.0516 -1.0784
 4727SOL    HW225818   0.056   4.268   3.109  0.3931 -1.3248 -0.4421
 4728SOL     OW25819   0.604   3.290  16.377  0.0132  0.7024  0.5187
 4728SOL    HW125820   0.641   3.370  16.337 -0.2074  0.1095 -0.8914
 4728SOL    HW225821   0.553   3.257  16.302  0.8652 -2.3773  1.3092
 4729SOL     OW25822   1.124   4.166  15.480  0.2513 -0.4108  0.1209
 4729SOL    HW125823   1.061   4.099  15.455 -0.1019  0.0974 -0.3724
 4729SOL    HW225824   1.062   4.233  15.509 -0.1488  0.2629 -2.3022
 4730SOL     OW25825   4.727   4.197  16.793 -0.5381 -0.3705 -0.1045
 4730SOL    HW125826   4.705   4.230  16.706 -0.2464 -1.1099 -0.4585
 4730SOL    HW225827   0.063   4.136  16.775  1.3700  1.5663  0.8651
 4731SOL     OW25828   4.227   2.007   8.478 -0.2806  0.1109 -0.0775
 4731SOL    HW125829   4.184   2.023   8.394  0.5278 -0.8028 -0.6618
 4731SOL    HW225830   4.150   2.015   8.535 -0.2909  1.6064 -0.3119
 4732SOL     OW25831   0.288   3.346   7.878 -0.8068 -0.2846  0.0725
 4732SOL    HW125832   0.228   3.417   7.903  0.1384  1.2258 -1.9642
 4732SOL    HW225833   0.322   3.321   7.964 -0.0499 -1.6057 -0.6052
 4733SOL     OW25834   0.723   1.418  13.717 -0.0037 -0.3454  0.1506
 4733SOL    HW125835   0.736   1.399  13.810  0.1815 -0.5146  0.0900
 4733SOL    HW225836   0.647   1.361  13.702 -0.8499  0.6319  0.6740
 4734SOL     OW25837   4.449   0.951  11.304  0.7056  0.6172  0.8695
 4734SOL    HW125838   4.537   0.913  11.313 -0.1991 -1.6978 -0.1844
 4734SOL    HW225839   4.475   1.035  11.265  0.0844 -0.0032 -0.8644
 4735SOL     OW25840   2.289   1.171  11.993  0.2863 -0.4422 -0.0809
 4735SOL    HW125841   2.299   1.192  12.086 -2.6531 -0.1690  0.1976
 4735SOL    HW225842   2.348   1.235  11.956 -0.1710  0.5692  0.9213
 4736SOL     OW25843   4.439   0.723   0.639  0.2103 -0.2166  0.0940
 4736SOL    HW125844   4.481   0.708   0.554  1.6241  2.7127  0.2768
 4736SOL    HW225845   4.354   0.749   0.605  0.0241 -0.3228  0.4815
 4737SOL     OW25846   1.696   2.703   1.905 -0.0507 -0.1915 -0.3251
 4737SOL    HW125847   1.786   2.689   1.935 -0.0699 -1.8621 -1.0480
 4737SOL    HW225848   1.656   2.735   1.986  1.4690  2.3420 -0.5910
 4738SOL     OW25849   3.195   1.840  16.032 -0.2332  0.5857 -0.2291
 4738SOL    HW125850   3.101   1.859  16.030 -0.5173 -0.7995 -0.6415
 4738SOL    HW225851   3.204   1.846  15.937 -1.2716 -0.7370 -0.4222
 4739SOL     OW25852   2.383   0.270   2.313  0.5442 -0.2886  0.4616
 4739SOL    HW125853   2.414   0.337   2.374 -1.1911  0.9825 -0.0438
 4739SOL    HW225854   2.293   0.302   2.305  0.8631  0.4194 -0.2773
 4740SOL     OW25855   0.106   0.504   8.532  0.4589 -0.1323 -0.6319
 4740SOL    HW125856   0.123   0.474   8.443  2.5237  1.8598 -0.9000
 4740SOL    HW225857   0.137   0.435   8.590  1.8738 -0.5947 -1.9460
 4741SOL     OW25858   1.544   4.603   5.462 -0.4648  0.2694 -0.6830
 4741SOL    HW125859   1.454   4.633   5.475 -1.1871 -2.1132 -0.1934
 4741SOL    HW225860   1.587   4.684   5.436 -0.1757  0.9618  1.8870
 4742SOL     OW25861   3.945   0.946   8.193  0.4520  0.5615 -0.1592
 4742SOL    HW125862   3.879   0.877   8.202 -0.0980  1.1345  0.2518
 4742SOL    HW225863   3.892   1.025   8.184  2.1450  1.6092 -0.7425
 4743SOL     OW25864   0.760   1.046  11.007  0.3272 -0.5421  0.0410
 4743SOL    HW125865   0.841   1.062  10.959  0.3877  0.3767  0.4428
 4743SOL    HW225866   0.800   1.004  11.084 -1.3500  1.4832  2.0254
 4744SOL     OW25867   2.434   0.628   0.044  0.2874 -0.2300 -0.3101
 4744SOL    HW125868   2.399   0.709   0.007 -1.3507 -0.0793  1.5501
 4744SOL    HW225869   2.408   0.563  17.719 -2.1624  3.0213 -2.5384
 4745SOL     OW25870   2.722   4.183   1.593  0.1597  1.0049  0.2320
 4745SOL    HW125871   2.685   4.154   1.510 -0.1223 -4.0391  2.1450
 4745SOL    HW225872   2.785   4.248   1.563  1.3056 -0.2219  0.0072
 4746SOL     OW25873   0.051   2.631  16.571  0.0385 -0.1058  0.4015
 4746SOL    HW125874   0.010   2.545  16.562 -0.5802 -0.1134  3.3427
 4746SOL    HW225875   0.009   2.686  16.506 -0.4553 -0.8876  0.0534
 4747SOL     OW25876   0.665   2.663   4.388  0.2976  0.0095  0.2878
 4747SOL    HW125877   0.694   2.635   4.474 -1.0386  0.3952  0.8647
 4747SOL    HW225878   0.723   2.737   4.376 -0.9782  0.8916 -0.4192
 4748SOL     OW25879   1.901   3.616   4.666 -0.0603 -0.0705 -0.1243
 4748SOL    HW125880   1.844   3.685   4.700  2.0247  1.3312  0.6183
 4748SOL    HW225881   1.901   3.555   4.739  0.1066  2.0749  1.6990
 4749SOL     OW25882   1.314   0.718   7.149 -0.0827 -0.0688  0.0461
 4749SOL    HW125883   1.318   0.677   7.236 -1.4364  2.6952  1.4433
 4749SOL    HW225884   1.397   0.688   7.113  0.8876  1.8832  0.6403
 4750SOL     OW25885   1.279   0.605   9.386 -0.2617  0.6268  1.3697
 4750SOL    HW125886   1.304   0.606   9.479  1.0772 -1.0082  1.0246
 4750SOL    HW225887   1.353   0.661   9.361  2.0354 -2.5954  0.9669
 4751SOL     OW25888   3.255   1.007   3.475 -0.2421  0.3586  0.1706
 4751SOL    HW125889   3.349   0.994   3.469 -0.3034 -0.1349  0.2930
 4751SOL    HW225890   3.252   1.092   3.520  0.4432  2.4550 -3.7845
 4752SOL     OW25891   2.448   1.503   5.706  0.3953 -0.2096  0.0909
 4752SOL    HW125892   2.449   1.596   5.727  2.2744 -0.0879 -0.5750
 4752SOL    HW225893   2.352   1.494   5.710  0.2479  0.7285 -1.3161
 4753SOL     OW25894   1.684   3.443   3.317 -0.0384 -0.6176 -0.1559
 4753SOL    HW125895   1.629   3.392   3.257  0.1955  0.7842 -1.5833
 4753SOL    HW225896   1.756   3.465   3.257  0.0223  0.8050  0.4380
 4754SOL     OW25897   1.802   0.072   1.993 -0.8263 -0.6329 -0.1455
 4754SOL    HW125898   1.744   0.061   2.069  1.4314  0.2617  1.7075
 4754SOL    HW225899   1.825   0.164   2.005 -0.1937 -0.7264 -0.7173
 4755SOL     OW25900   4.342   3.494   3.428 -0.2969 -0.6697 -0.1843
 4755SOL    HW125901   4.397   3.547   3.370 -0.2136  0.4658  0.9332
 4755SOL    HW225902   4.285   3.559   3.468 -1.5082 -2.0495  0.3418
 4756SOL     OW25903   1.198   2.507   8.066  0.2189 -0.0571 -0.0876
 4756SOL    HW125904   1.249   2.543   7.994  0.7403  0.2514  0.4398
 4756SOL    HW225905   1.113   2.550   8.054  0.5511  1.0152  1.3673
 4757SOL     OW25906   0.967   1.635   0.133  0.1772  0.2760 -0.7012
 4757SOL    HW125907   0.971   1.726   0.104 -0.5681  0.3322 -0.6192
 4757SOL    HW225908   1.046   1.604   0.088  0.1801  1.2354 -1.3637
 4758SOL     OW25909   4.185   0.501   6.408  0.0134 -0.4512  0.3794
 4758SOL    HW125910   4.208   0.418   6.450  0.3290 -1.2353 -1.3426
 4758SOL    HW225911   4.090   0.494   6.397 -0.0965  0.2331  0.9139
 4759SOL     OW25912   4.351   1.231  12.323 -0.2508 -0.1721  0.3054
 4759SOL    HW125913   4.415   1.173  12.365  0.0936 -1.3166 -1.7841
 4759SOL    HW225914   4.369   1.224  12.229 -0.9179  1.4305  0.0640
 4760SOL     OW25915   3.325   0.240   5.405  0.7014  0.1847  0.6521
 4760SOL    HW125916   3.261   0.309   5.392  0.6430 -0.0633 -0.3800
 4760SOL    HW225917   3.390   0.282   5.349 -0.7252  3.2856  1.3454
 4761SOL     OW25918   1.549   2.634  10.273 -0.3514 -0.4473 -0.0829
 4761SOL    HW125919   1.595   2.569  10.221 -1.7172 -2.1062  0.7808
 4761SOL    HW225920   1.603   2.712  10.265  0.8125 -1.0618  1.6157
 4762SOL     OW25921   2.599   3.977  15.460  0.0418 -0.3326  0.2147
 4762SOL    HW125922   2.526   3.970  15.521  0.8071 -1.3867  1.0206
 4762SOL    HW225923   2.654   3.901  15.479  2.8007  1.7458  0.6048
 4763SOL     OW25924   4.638   0.408  11.955 -0.1952  0.3303  0.3377
 4763SOL    HW125925   4.627   0.455  11.872 -1.7664 -0.0273  0.3548
 4763SOL    HW225926   4.552   0.426  11.993 -1.1985 -5.7550  0.9482
 4764SOL     OW25927   2.493   4.474   1.603  0.5041 -0.7589  0.3523
 4764SOL    HW125928   2.460   4.447   1.689  0.3850  0.4373  0.6876
 4764SOL    HW225929   2.422   4.447   1.545  1.6887 -0.8820 -1.0277
 4765SOL     OW25930   0.603   2.471   5.968 -0.3601 -0.0787 -0.1811
 4765SOL    HW125931   0.690   2.477   5.928  0.3409 -0.0407  1.3413
 4765SOL    HW225932   0.545   2.500   5.898 -0.6532  1.3447  0.6556
 4766SOL     OW25933   3.487   4.650   9.656 -0.0029  0.0940  0.1169
 4766SOL    HW125934   3.520   4.716   9.596  1.7450 -1.7121 -0.9226
 4766SOL    HW225935   3.409   4.700   9.679 -0.9850 -1.1481 -0.5497
 4767SOL     OW25936   3.041   0.138  16.610 -0.5178  0.0461 -0.2165
 4767SOL    HW125937   3.105   0.102  16.548 -0.2458  0.9256 -0.4427
 4767SOL    HW225938   2.964   0.151  16.555 -0.0511 -3.0787 -1.6137
 4768SOL     OW25939   4.735   0.742   9.426  0.0468  0.6461 -0.2491
 4768SOL    HW125940   0.091   0.741   9.451 -0.0618  1.1100  0.1681
 4768SOL    HW225941   4.692   0.687   9.491 -1.5692 -0.9550 -2.6447
 4769SOL     OW25942   4.561   2.626   5.240 -0.1919  0.2782  1.0302
 4769SOL    HW125943   4.643   2.668   5.266  1.4888 -0.7481 -2.5663
 4769SOL    HW225944   4.498   2.685   5.281  1.8760  2.1460  1.5253
 4770SOL     OW25945   0.094   4.552   0.593  0.7136  0.2440 -0.2033
 4770SOL    HW125946   0.116   4.620   0.657 -0.8091 -1.8674  2.5951
 4770SOL    HW225947   0.061   4.480   0.647  0.7244  0.8401  0.5960
 4771SOL     OW25948   3.143   2.693   7.242 -0.1091 -0.1198 -0.5325
 4771SOL    HW125949   3.144   2.690   7.146  0.0251 -0.4264 -0.5201
 4771SOL    HW225950   3.236   2.692   7.265 -0.2821 -1.0900  0.1256
 4772SOL     OW25951   0.236   3.121   4.731 -0.0064 -0.2556  0.1121
 4772SOL    HW125952   0.196   3.036   4.751 -1.5910  0.9203  1.9728
 4772SOL    HW225953   0.321   3.082   4.712 -1.0968 -2.0627 -1.0783
 4773SOL     OW25954   3.661   1.731   3.020  0.0561 -0.5087 -0.1037
 4773SOL    HW125955   3.588   1.672   3.042  0.1673 -0.8058 -0.5170
 4773SOL    HW225956   3.637   1.759   2.932 -0.6644 -1.2820 -0.1634
 4774SOL     OW25957   3.249   2.843   8.606 -0.4667 -0.3764 -0.0878
 4774SOL    HW125958   3.267   2.934   8.581 -1.0271 -0.3668 -0.4353
 4774SOL    HW225959   3.162   2.855   8.643 -1.2525 -1.9351 -1.4308
 4775SOL     OW25960   4.077   3.795   8.690  0.2265  0.1474  1.2769
 4775SOL    HW125961   3.993   3.807   8.734  0.1404 -1.2570  1.4877
 4775SOL    HW225962   4.053   3.836   8.607 -0.4425 -1.0820  0.8726
 4776SOL     OW25963   0.385   3.998  12.179 -0.0459 -0.2887 -0.0284
 4776SOL    HW125964   0.478   4.010  12.161  0.2162  0.3507  1.8200
 4776SOL    HW225965   0.355   3.922  12.129  0.7256  0.4611 -1.6412
 4777SOL     OW25966   0.807   2.818  10.378  0.3802 -0.1468 -0.0187
 4777SOL    HW125967   0.846   2.801  10.463 -0.5094 -0.8039  0.2609
 4777SOL    HW225968   0.791   2.726  10.356 -0.6892 -0.4407  1.9810
 4778SOL     OW25969   1.629   2.022   8.227  0.5668  0.3357  0.0114
 4778SOL    HW125970   1.715   2.052   8.198  0.8045 -1.1548 -0.8370
 4778SOL    HW225971   1.642   2.012   8.321  1.3056  2.1268  0.0975
 4779SOL     OW25972   3.903   0.034  11.301 -0.3176 -0.5071  0.1281
 4779SOL    HW125973   3.900   0.042  11.397 -0.9469  2.2405 -0.1126
 4779SOL    HW225974   3.988   4.727  11.289  0.3634  1.0753 -0.5562
 4780SOL     OW25975   3.319   3.160   0.662 -0.0537 -0.2938 -0.2589
 4780SOL    HW125976   3.276   3.133   0.743  0.6083 -1.6785 -0.3619
 4780SOL    HW225977   3.401   3.179   0.709  0.0275  0.7514 -0.8231
 4781SOL     OW25978   0.003   2.742   2.221  0.2596 -0.1394  0.0805
 4781SOL    HW125979   4.680   2.668   2.240 -2.0691  1.7601  0.3192
 4781SOL    HW225980   4.714   2.765   2.132 -0.2639 -0.3976  0.1584
 4782SOL     OW25981   4.406   0.251  13.478 -0.2202 -0.3551  0.0051
 4782SOL    HW125982   4.346   0.308  13.527  1.2846  1.7449 -0.6281
 4782SOL    HW225983   4.442   0.308  13.411 -0.3144 -1.8382 -1.2954
 4783SOL     OW25984   1.530   4.035   6.172  0.1619 -0.6394  0.4517
 4783SOL    HW125985   1.599   3.969   6.182 -0.4995 -1.1529  1.6238
 4783SOL    HW225986   1.453   3.983   6.193 -0.3698  0.5780  1.5229
 4784SOL     OW25987   2.043   0.196   8.593 -0.0188 -0.2280  0.2889
 4784SOL    HW125988   2.050   0.125   8.657 -4.0865 -1.5167 -0.7586
 4784SOL    HW225989   2.066   0.148   8.514  1.5198  2.2733 -0.7745
 4785SOL     OW25990   3.139   1.624   5.619 -1.1433 -0.0189 -0.1532
 4785SOL    HW125991   3.193   1.566   5.565  0.8633 -0.6005  2.4827
 4785SOL    HW225992   3.059   1.571   5.614 -1.0057 -0.2947  0.5199
 4786SOL     OW25993   2.115   0.070  12.709 -0.4815 -0.0810  0.0898
 4786SOL    HW125994   2.152   0.011  12.775 -0.6953 -3.0979 -2.4910
 4786SOL    HW225995   2.122   0.153  12.756 -0.0503 -0.4613  0.6985
 4787SOL     OW25996   0.474   2.289   5.765 -0.1673 -0.2242  0.2186
 4787SOL    HW125997   0.527   2.266   5.842 -1.3028 -1.6414  0.5767
 4787SOL    HW225998   0.482   2.205   5.719  0.0633  0.2448 -0.5866
 4788SOL     OW25999   4.209   2.938   4.681  0.2329  0.4967 -0.1306
 4788SOL    HW126000   4.296   2.928   4.718 -0.5710 -2.8988  0.8153
 4788SOL    HW226001   4.195   3.024   4.722  2.5144  0.6487  0.3078
 4789SOL     OW26002   3.798   1.725  17.026 -0.2003 -0.8588 -0.2170
 4789SOL    HW126003   3.733   1.746  16.958 -0.0906 -0.1899 -0.1209
 4789SOL    HW226004   3.745   1.672  17.085 -0.4834 -1.7758 -1.2934
 4790SOL     OW26005   3.953   1.280   1.268  0.4042  0.6740 -0.5362
 4790SOL    HW126006   3.918   1.204   1.316 -1.8691  1.2184 -1.3337
 4790SOL    HW226007   3.874   1.301   1.218  0.2340 -0.2205 -0.6504
 4791SOL     OW26008   0.168   0.747  16.551 -0.1264  0.2799 -0.4577
 4791SOL    HW126009   0.130   0.734  16.638 -1.7589  0.5829 -1.1179
 4791SOL    HW226010   0.261   0.733  16.566 -0.2112  0.0451 -0.1595
 4792SOL     OW26011   0.285   3.369   3.895 -0.5976 -0.0006  0.3127
 4792SOL    HW126012   0.217   3.311   3.861 -1.3383  2.2693 -2.0777
 4792SOL    HW226013   0.244   3.425   3.961 -0.4793  0.0360  0.3547
 4793SOL     OW26014   1.551   3.566  16.512 -0.0240 -0.5520  0.0863
 4793SOL    HW126015   1.498   3.633  16.468  0.4195  0.9225  1.7975
 4793SOL    HW226016   1.598   3.530  16.438  2.2820 -0.7802  1.6741
 4794SOL     OW26017   2.906   1.205  12.071  0.9485  0.8985 -0.2533
 4794SOL    HW126018   2.841   1.203  12.000 -1.3554  0.7258  1.8788
 4794SOL    HW226019   2.872   1.264  12.137  0.1626  0.4629 -0.2696
 4795SOL     OW26020   0.609   1.706   5.606 -0.2437  0.0282  0.5073
 4795SOL    HW126021   0.604   1.724   5.512  0.3882  0.6466  0.5909
 4795SOL    HW226022   0.685   1.763   5.618 -0.2836 -0.4178  2.9740
 4796SOL     OW26023   4.031   2.809   7.646 -0.2326 -0.3987  0.1435
 4796SOL    HW126024   4.102   2.839   7.589  0.0116 -0.8857  0.1861
 4796SOL    HW226025   4.058   2.828   7.736  1.2720  0.6601 -0.5245
 4797SOL     OW26026   4.435   1.067  10.276  0.2792  0.0227  0.5432
 4797SOL    HW126027   4.352   1.114  10.267 -0.9626 -2.4868 -1.2711
 4797SOL    HW226028   4.488   1.127  10.328 -1.3515  0.1677  2.0356
 4798SOL     OW26029   0.478   2.863  11.947 -0.2320 -0.3288  0.7016
 4798SOL    HW126030   0.511   2.791  12.001  2.9958 -0.6237 -1.7034
 4798SOL    HW226031   0.473   2.923  12.021 -1.2394  0.2611  0.1548
 4799SOL     OW26032   4.227   1.352   7.308 -0.0039 -0.3090  0.2137
 4799SOL    HW126033   4.149   1.361   7.363 -2.0266 -2.4680 -2.3162
 4799SOL    HW226034   4.261   1.272   7.348 -0.6657 -0.0447  1.3246
 4800SOL     OW26035   2.534   0.001   5.934  0.4169 -0.6505  0.6712
 4800SOL    HW126036   2.517   0.033   6.023 -1.5494  1.7541 -0.5358
 4800SOL    HW226037   2.550   0.080   5.881  2.2040 -1.6855 -0.3290
 4801SOL     OW26038   2.602   0.544  17.121  0.5271  0.7656  0.1545
 4801SOL    HW126039   2.554   0.480  17.173 -0.0564  1.4609  0.4667
 4801SOL    HW226040   2.686   0.498  17.119  0.6585  1.0527 -1.2183
 4802SOL     OW26041   4.442   1.834  13.643  0.4029  0.3545 -0.1979
 4802SOL    HW126042   4.382   1.889  13.694 -0.6426 -0.8533 -0.1090
 4802SOL    HW226043   4.495   1.899  13.596 -0.5909  1.3642  0.0568
 4803SOL     OW26044   4.195   3.077  13.946  0.0082 -0.0852 -0.1683
 4803SOL    HW126045   4.112   3.036  13.922 -0.6535  1.3855 -0.4034
 4803SOL    HW226046   4.167   3.161  13.982 -1.0648 -1.6158  2.5353
 4804SOL     OW26047   4.249   3.801   6.445 -0.1479 -0.3207  0.7535
 4804SOL    HW126048   4.239   3.797   6.350  0.0825  0.8404  0.6765
 4804SOL    HW226049   4.298   3.883   6.447  1.6856 -1.3694 -0.5661
 4805SOL     OW26050   3.953   0.052   2.569 -0.2048  0.5000  0.3812
 4805SOL    HW126051   3.994   0.012   2.492 -0.5758  1.0664 -0.1122
 4805SOL    HW226052   4.025   0.062   2.631  0.5737  2.6162 -0.8656
 4806SOL     OW26053   4.598   4.425   7.002 -0.2500 -0.4290 -0.5992
 4806SOL    HW126054   4.603   4.442   7.096  1.3921 -0.6843 -0.6319
 4806SOL    HW226055   4.627   4.334   6.996 -0.0732 -0.6141  3.0208
 4807SOL     OW26056   2.919   3.260   6.493 -0.4181 -0.6141 -0.1744
 4807SOL    HW126057   2.930   3.267   6.588  2.7563  1.1347 -0.6743
 4807SOL    HW226058   2.987   3.197   6.470  0.6363  0.3721  0.2241
 4808SOL     OW26059   2.682   3.844   5.709  0.2241 -0.3220  0.2847
 4808SOL    HW126060   2.723   3.881   5.631  0.8366  1.3507  1.4139
 4808SOL    HW226061   2.762   3.825   5.757  0.6508 -0.3413 -0.4321
 4809SOL     OW26062   0.767   1.905   6.937  0.2580  0.0028 -0.2272
 4809SOL    HW126063   0.817   1.979   6.972 -0.1854  1.0059 -1.7076
 4809SOL    HW226064   0.786   1.850   7.013 -1.2562  2.2617  1.7855
 4810SOL     OW26065   4.086   3.323  12.563 -0.2368  0.1236  0.2222
 4810SOL    HW126066   4.113   3.399  12.614  2.5494 -0.0745 -0.9220
 4810SOL    HW226067   4.022   3.274  12.614  0.8520 -0.9647  0.5557
 4811SOL     OW26068   3.612   2.184   8.031 -0.0510  0.0055  0.2849
 4811SOL    HW126069   3.697   2.172   7.990  0.0438 -1.3025  0.8712
 4811SOL    HW226070   3.607   2.280   8.025  1.3042  0.2005  2.3386
 4812SOL     OW26071   3.234   3.570  12.394  0.6203 -0.4763 -0.0631
 4812SOL    HW126072   3.219   3.579  12.300 -0.5178  0.2923  0.1838
 4812SOL    HW226073   3.147   3.570  12.434 -0.0188  2.1582 -1.4538
 4813SOL     OW26074   1.486   0.366   2.537  0.1502 -0.1483 -0.4282
 4813SOL    HW126075   1.435   0.383   2.458  0.3389 -2.2493 -1.0015
 4813SOL    HW226076   1.570   0.405   2.514  0.8976 -1.4214  0.1523
 4814SOL     OW26077   1.204   0.366   9.860  0.4840  0.0745 -0.5426
 4814SOL    HW126078   1.111   0.374   9.839  0.0227 -0.4919  1.2632
 4814SOL    HW226079   1.195   0.324   9.945 -3.7171  1.0567 -0.5024
 4815SOL     OW26080   2.007   4.296   2.074 -0.1369 -0.7367 -0.1736
 4815SOL    HW126081   2.059   4.219   2.049  1.1235  0.5935 -1.6436
 4815SOL    HW226082   2.022   4.353   1.999 -0.8112  1.6411  1.4708
 4816SOL     OW26083   0.970   4.292   5.494 -0.0714  0.0589  0.1565
 4816SOL    HW126084   1.034   4.223   5.477  1.0451  1.1459 -0.1096
 4816SOL    HW226085   0.975   4.309   5.589  0.1413 -1.7337  0.4608
 4817SOL     OW26086   0.251   0.706   9.528 -0.2867 -0.0427 -0.1530
 4817SOL    HW126087   0.254   0.611   9.515 -0.6608  0.0566 -0.9987
 4817SOL    HW226088   0.284   0.712   9.617 -3.5441  2.8395  0.8414
 4818SOL     OW26089   1.743   4.186  15.797 -0.1903  0.4745  0.0476
 4818SOL    HW126090   1.694   4.110  15.829  1.0163  0.1636  1.1261
 4818SOL    HW226091   1.815   4.197  15.859  2.3117  1.6121 -3.0603
 4819SOL     OW26092   0.359   4.573  17.534  0.0251 -0.1042 -0.1124
 4819SOL    HW126093   0.278   4.614  17.502 -0.9721 -1.4745  0.6207
 4819SOL    HW226094   0.421   4.645  17.530  1.3715 -1.2398  0.4349
 4820SOL     OW26095   1.071   0.217   6.916  0.2183 -0.0369  0.7174
 4820SOL    HW126096   1.143   0.210   6.979  0.1278  0.2274  0.8488
 4820SOL    HW226097   1.099   0.157   6.846 -1.8898 -0.2657  0.0834
 4821SOL     OW26098   4.452   4.335   9.644 -0.9747  0.1359  0.7423
 4821SOL    HW126099   4.435   4.241   9.647  3.1459 -0.7325 -2.7755
 4821SOL    HW226100   4.538   4.340   9.602 -0.9955 -1.3223  0.5376
 4822SOL     OW26101   4.257   4.336   6.754 -0.0941  0.0323  0.0427
 4822SOL    HW126102   4.208   4.391   6.815 -0.3561 -0.3465  0.1697
 4822SOL    HW226103   4.301   4.274   6.812  1.7838 -0.6743 -2.1629
 4823SOL     OW26104   3.527   1.832   0.853  0.2760 -0.2626 -0.7953
 4823SOL    HW126105   3.550   1.924   0.839 -0.6322  0.4442  2.5220
 4823SOL    HW226106   3.609   1.803   0.894 -0.3218 -0.5313  0.1921
 4824SOL     OW26107   0.485   1.046   7.916  0.5364 -0.1395 -0.1414
 4824SOL    HW126108   0.391   1.042   7.933  0.1366 -1.1902 -2.7040
 4824SOL    HW226109   0.481   1.122   7.859  1.0934  0.1775  0.2414
 4825SOL     OW26110   3.151   3.056   3.225  0.5926 -0.0169 -0.5774
 4825SOL    HW126111   3.167   3.044   3.131 -1.6703 -0.5176 -0.9105
 4825SOL    HW226112   3.060   3.026   3.218  0.4381 -0.0984  1.9208
 4826SOL     OW26113   0.733   3.303   3.107  0.3764 -0.2205 -0.2288
 4826SOL    HW126114   0.698   3.372   3.163 -1.6971 -0.5124 -1.1729
 4826SOL    HW226115   0.790   3.259   3.170 -1.3852 -0.4486  1.1920
 4827SOL     OW26116   0.081   0.201  13.767  0.0876 -0.3426  0.1175
 4827SOL    HW126117   0.164   0.158  13.743 -0.0893 -0.2391 -0.6762
 4827SOL    HW226118   0.026   0.191  13.689 -0.2785  1.2290  0.1802
 4828SOL     OW26119   0.238   0.125   3.057 -0.5090  0.3241 -0.1922
 4828SOL    HW126120   0.209   0.100   3.144 -0.3858 -0.9671 -0.5215
 4828SOL    HW226121   0.330   0.098   3.053 -0.7151 -0.2761 -1.0063
 4829SOL     OW26122   4.539   1.237   7.698 -0.0102 -0.0530 -0.2296
 4829SOL    HW126123   4.586   1.321   7.702 -0.5846  0.1967  1.4915
 4829SOL    HW226124   4.563   1.196   7.781 -0.0029 -1.1254 -0.7669
 4830SOL     OW26125   2.554   1.517  17.492 -0.2697  0.1248  0.6872
 4830SOL    HW126126   2.509   1.599  17.472  1.0871  0.6236 -0.3449
 4830SOL    HW226127   2.529   1.464  17.415  2.2288  0.7370 -0.5438
 4831SOL     OW26128   1.978   1.808   9.352 -0.5219  0.0981  0.1934
 4831SOL    HW126129   2.051   1.756   9.318 -0.6804 -0.3562  0.5445
 4831SOL    HW226130   1.987   1.798   9.446  2.0708 -0.4190 -0.1233
 4832SOL     OW26131   1.841   0.114  15.195 -0.1994  0.1166 -0.1977
 4832SOL    HW126132   1.820   0.164  15.274 -1.7408 -1.8698  0.6544
 4832SOL    HW226133   1.872   0.032  15.234  1.1274  0.5659 -0.3072
 4833SOL     OW26134   4.011   0.726   2.954  0.1270  0.3249 -0.3657
 4833SOL    HW126135   4.061   0.803   2.981  0.1750 -0.0744  0.7012
 4833SOL    HW226136   3.935   0.727   3.013 -0.9823 -0.5486 -1.7907
 4834SOL     OW26137   0.171   1.279   7.985 -0.1686 -0.2281  0.1037
 4834SOL    HW126138   0.083   1.304   8.014  0.3361 -0.4031  1.7819
 4834SOL    HW226139   0.191   1.356   7.932 -0.0645 -1.0170 -0.9922
 4835SOL     OW26140   1.615   2.385  16.092  0.6596 -0.0231  0.4519
 4835SOL    HW126141   1.666   2.423  16.021 -0.6332  1.9195  0.5644
 4835SOL    HW226142   1.615   2.466  16.143  3.1610 -0.2593  0.7886
 4836SOL     OW26143   3.372   4.400   5.159 -0.4208 -0.1191 -0.0577
 4836SOL    HW126144   3.315   4.422   5.086 -0.4677 -1.8273 -0.5553
 4836SOL    HW226145   3.370   4.304   5.167  1.2189 -0.4206 -3.2082
 4837SOL     OW26146   3.945   0.202   6.559  0.7291 -0.1602 -0.1315
 4837SOL    HW126147   3.943   0.233   6.650 -1.0938  1.0277 -0.5796
 4837SOL    HW226148   3.929   0.279   6.506  1.3901 -0.9915 -1.5212
 4838SOL     OW26149   1.354   2.223  15.204  0.0986 -0.3360 -0.0110
 4838SOL    HW126150   1.341   2.131  15.181  0.7071 -0.5078  0.3368
 4838SOL    HW226151   1.311   2.259  15.126 -1.4972  2.0134  1.9410
 4839SOL     OW26152   3.732   2.981  16.189 -0.2962 -0.1267  1.0499
 4839SOL    HW126153   3.727   3.043  16.115 -0.9428  1.0609  2.0912
 4839SOL    HW226154   3.643   2.949  16.198 -0.1819 -0.8109 -0.2070
 4840SOL     OW26155   0.614   1.787  10.862 -0.2103 -0.5183 -0.3298
 4840SOL    HW126156   0.674   1.737  10.807 -1.2611 -2.7142  0.5471
 4840SOL    HW226157   0.534   1.760  10.817 -0.6346 -0.4613  0.4064
 4841SOL     OW26158   2.432   0.120   7.832 -0.4176 -0.0563  0.1577
 4841SOL    HW126159   2.453   0.115   7.738  1.1566 -0.9433  0.5515
 4841SOL    HW226160   2.338   0.139   7.838 -0.7071 -1.7808  1.0363
 4842SOL     OW26161   1.124   0.737  14.034  0.2011 -0.9598 -0.0575
 4842SOL    HW126162   1.206   0.757  14.079  0.4529 -2.6579  0.2561
 4842SOL    HW226163   1.157   0.726  13.944  1.0864  0.0543  0.1429
 4843SOL     OW26164   0.081   4.649   5.712  0.5203  0.3468  0.0195
 4843SOL    HW126165   0.100   4.696   5.631 -0.2982 -0.4920 -0.6617
 4843SOL    HW226166   0.080   4.719   5.777  2.2602 -0.3122  0.7671
 4844SOL     OW26167   1.011   2.722  13.386  0.1617  0.1205 -0.4958
 4844SOL    HW126168   0.924   2.741  13.421 -0.0905 -1.8391 -0.0576
 4844SOL    HW226169   1.036   2.814  13.388 -0.9093  0.4748 -3.0324
 4845SOL     OW26170   0.731   2.877   5.307 -0.8276 -0.1409  0.5993
 4845SOL    HW126171   0.742   2.961   5.352 -1.1050  0.5831 -0.6949
 4845SOL    HW226172   0.809   2.873   5.252 -2.6326 -1.5133 -1.8367
 4846SOL     OW26173   0.447   3.869  17.492 -0.5080 -0.3753 -0.0276
 4846SOL    HW126174   0.482   3.782  17.477  2.8552  0.6521  1.8607
 4846SOL    HW226175   0.510   3.914  17.436  0.8326 -0.8459  1.1302
 4847SOL     OW26176   0.280   2.721   2.256 -0.1559  0.1239 -0.1013
 4847SOL    HW126177   0.277   2.626   2.260  0.0705  0.1258  0.0965
 4847SOL    HW226178   0.188   2.733   2.230 -0.2703 -3.6137 -1.3729
 4848SOL     OW26179   0.869   1.991   9.945  0.0214 -0.2033  0.5212
 4848SOL    HW126180   0.797   1.983   9.882  0.0977  0.3857  0.3603
 4848SOL    HW226181   0.821   2.056   9.995  2.0140  1.3103  0.4448
 4849SOL     OW26182   2.218   3.299  12.070 -0.4979  0.6127 -0.0327
 4849SOL    HW126183   2.145   3.237  12.075 -0.9139  0.9358 -1.9893
 4849SOL    HW226184   2.278   3.252  12.127 -1.1392 -1.6780 -1.2423
 4850SOL     OW26185   4.315   2.725   5.356  0.5615  0.1746  0.5191
 4850SOL    HW126186   4.226   2.690   5.366 -0.1667  2.3114  1.4140
 4850SOL    HW226187   4.308   2.762   5.268  0.0900  1.2578  1.0091
 4851SOL     OW26188   1.271   0.765  17.435 -0.3349 -0.2366 -0.0344
 4851SOL    HW126189   1.271   0.860  17.441  0.4968 -0.1248 -1.7605
 4851SOL    HW226190   1.178   0.745  17.436 -0.2363 -0.6269  1.7129
 4852SOL     OW26191   3.899   0.889   7.590  0.1010  0.5230 -0.3815
 4852SOL    HW126192   3.933   0.926   7.508  0.3859  1.9519  0.3883
 4852SOL    HW226193   3.973   0.904   7.648  0.4057 -3.9901  0.3929
 4853SOL     OW26194   1.680   4.087   9.044 -0.3658  0.4148  0.0449
 4853SOL    HW126195   1.612   4.141   9.004 -0.3961 -0.1730 -0.6926
 4853SOL    HW226196   1.659   4.069   9.136 -0.1292  0.0551  0.0249
 4854SOL     OW26197   3.238   2.683   2.503 -0.3512  0.3633 -0.1438
 4854SOL    HW126198   3.244   2.734   2.583 -4.2344 -0.1899  0.4539
 4854SOL    HW226199   3.214   2.751   2.440 -0.3967 -0.7229 -1.3162
 4855SOL     OW26200   1.701   4.546   2.454 -0.6522  0.0757 -0.2335
 4855SOL    HW126201   1.724   4.453   2.459 -1.0032 -0.0329 -0.7408
 4855SOL    HW226202   1.704   4.570   2.547 -1.7535 -1.7056  0.2711
 4856SOL     OW26203   2.372   0.927  15.292 -0.2547 -0.5484  0.0113
 4856SOL    HW126204   2.304   0.957  15.233 -1.1437  0.3098  1.4724
 4856SOL    HW226205   2.449   0.942  15.237 -2.1517 -0.5375 -2.5852
 4857SOL     OW26206   2.819   0.323  14.354 -0.4286  0.0591 -0.1743
 4857SOL    HW126207   2.914   0.327  14.342 -0.3876  1.5138  0.6084
 4857SOL    HW226208   2.788   0.297  14.267 -1.2623 -0.3413  0.2489
 4858SOL     OW26209   1.504   0.023   8.517 -0.5870 -0.0279  0.3195
 4858SOL    HW126210   1.476   0.105   8.558  0.5853  0.3374  0.4140
 4858SOL    HW226211   1.426   4.704   8.527 -1.3427  1.1861  1.0245
 4859SOL     OW26212   4.435   1.165   7.454  0.7765  0.6085  0.3619
 4859SOL    HW126213   4.345   1.168   7.487  0.3060 -0.0602 -0.8127
 4859SOL    HW226214   4.482   1.147   7.535 -0.6100 -0.8431  0.8374
 4860SOL     OW26215   0.145   0.163  12.753  0.0790 -0.2064 -0.5875
 4860SOL    HW126216   0.134   0.235  12.691  1.0115  0.5233  0.0777
 4860SOL    HW226217   0.068   0.109  12.741 -0.1099 -0.9892  3.9062
 4861SOL     OW26218   3.873   4.269  17.121 -0.2506  0.4855  0.1619
 4861SOL    HW126219   3.962   4.304  17.118 -0.4079  0.6286 -2.8720
 4861SOL    HW226220   3.836   4.312  17.044 -3.6516 -1.3960  0.7425
 4862SOL     OW26221   4.642   3.742   7.820  0.0516  0.4797  0.2039
 4862SOL    HW126222   4.593   3.662   7.840  1.8820 -0.7442 -0.2579
 4862SOL    HW226223   4.628   3.745   7.725 -2.6548 -1.4167  0.5492
 4863SOL     OW26224   0.700   0.497   5.766  0.6062  0.0559 -0.4354
 4863SOL    HW126225   0.714   0.450   5.848 -1.8361  0.1967  0.0637
 4863SOL    HW226226   0.780   0.532   5.727  1.0697 -2.4666 -1.7374
 4864SOL     OW26227   3.844   0.819   3.820 -0.4152  0.5262 -0.1626
 4864SOL    HW126228   3.836   0.852   3.910 -0.1479 -1.0159  0.4274
 4864SOL    HW226229   3.795   0.879   3.763 -0.8311  0.0125 -0.3495
 4865SOL     OW26230   3.630   3.771  16.999  0.1916 -0.1680  0.1337
 4865SOL    HW126231   3.613   3.677  17.001 -0.4722 -0.0579 -0.3712
 4865SOL    HW226232   3.546   3.817  17.000  0.4278  0.2606  0.5120
 4866SOL     OW26233   2.288   4.096  16.259 -0.2352 -0.9474  0.1168
 4866SOL    HW126234   2.259   4.019  16.211  1.8903 -2.0041  0.5276
 4866SOL    HW226235   2.252   4.086  16.347  0.4279 -0.4830  0.4465
 4867SOL     OW26236   0.260   3.989   9.057  0.1913  0.1256  0.0635
 4867SOL    HW126237   0.327   3.946   9.004  1.0651  1.5801  0.0142
 4867SOL    HW226238   0.188   3.997   8.995  0.8802  0.1711 -0.7312
 4868SOL     OW26239   2.708   3.225   7.786  0.8394  0.3952 -0.1906
 4868SOL    HW126240   2.762   3.180   7.852  0.2047  0.2414  0.2264
 4868SOL    HW226241   2.756   3.307   7.777  0.9783  0.3187 -0.1558
 4869SOL     OW26242   3.827   2.549   8.914  0.3487  0.5696  0.2180
 4869SOL    HW126243   3.824   2.495   8.835 -0.8522  2.1543 -0.8259
 4869SOL    HW226244   3.779   2.495   8.977  0.5925 -0.3625 -0.4091
 4870SOL     OW26245   2.368   3.024   8.853  0.1601  0.0583  0.9965
 4870SOL    HW126246   2.438   2.996   8.794 -2.0019 -1.3274 -0.8604
 4870SOL    HW226247   2.298   2.969   8.820  2.4267 -1.1767 -1.7435
 4871SOL     OW26248   3.516   0.421   4.820 -0.3899  0.0807 -0.0529
 4871SOL    HW126249   3.461   0.364   4.874 -0.3198 -0.4501 -0.5448
 4871SOL    HW226250   3.456   0.448   4.750  1.4616 -0.1570 -1.7412
 4872SOL     OW26251   3.761   4.557  17.377  0.2695 -0.1985 -0.7947
 4872SOL    HW126252   3.846   4.562  17.333  0.5521  1.0875 -0.1036
 4872SOL    HW226253   3.701   4.599  17.315  1.2143  0.8152 -1.0356
 4873SOL     OW26254   4.408   2.431   6.844 -0.3214 -0.1812 -0.3468
 4873SOL    HW126255   4.401   2.335   6.843 -0.1126 -0.2096  0.7218
 4873SOL    HW226256   4.359   2.449   6.764  0.0772  0.6778 -0.3970
 4874SOL     OW26257   2.002   0.381   9.066  0.9383 -0.2156  0.0944
 4874SOL    HW126258   2.055   0.308   9.098  2.7774  1.1885  0.2452
 4874SOL    HW226259   2.019   0.455   9.124  0.5241  1.0589 -1.4219
 4875SOL     OW26260   1.589   2.011   3.066 -0.3700  0.2498 -0.7531
 4875SOL    HW126261   1.573   1.919   3.049  0.6517 -0.7006  3.3410
 4875SOL    HW226262   1.498   2.038   3.074 -1.1250 -2.3844 -0.6357
 4876SOL     OW26263   2.111   1.794   2.470  0.1313  0.1625  0.2811
 4876SOL    HW126264   2.093   1.831   2.384  0.7502  1.5479  0.7392
 4876SOL    HW226265   2.139   1.875   2.513  1.2721  0.5296 -1.1854
 4877SOL     OW26266   4.054   0.729   1.607  0.3962  0.3660  0.0370
 4877SOL    HW126267   4.118   0.711   1.538  1.3437  1.9184  0.5158
 4877SOL    HW226268   4.075   0.660   1.670  1.8228  0.2885 -0.5218
 4878SOL     OW26269   3.116   4.696   5.279 -0.4153  0.1184  0.1635
 4878SOL    HW126270   3.094   0.035   5.335  1.1032 -0.7106  1.8443
 4878SOL    HW226271   3.030   4.665   5.251  0.0188  0.0388 -1.0435
 4879SOL     OW26272   1.371   4.416   7.558  0.2067  0.1253 -0.6585
 4879SOL    HW126273   1.370   4.476   7.632  0.2579  0.5293 -0.9891
 4879SOL    HW226274   1.309   4.470   7.508 -1.1878  1.4849  2.5651
 4880SOL     OW26275   2.084   0.371   1.459 -0.1395  0.1318 -0.4159
 4880SOL    HW126276   2.087   0.287   1.505 -1.2923  0.8362  0.9572
 4880SOL    HW226277   1.989   0.380   1.453 -0.1036  0.1886 -0.8878
 4881SOL     OW26278   2.232   1.704   8.001 -0.0067 -0.1794  0.6432
 4881SOL    HW126279   2.298   1.649   8.045  0.3103  0.7678  1.3625
 4881SOL    HW226280   2.154   1.676   8.049 -1.1622  0.2838 -0.9964
 4882SOL     OW26281   2.873   1.731   8.469 -0.3824 -0.2042  0.3514
 4882SOL    HW126282   2.813   1.729   8.543  0.7269 -1.1977  1.2104
 4882SOL    HW226283   2.953   1.694   8.506  0.6609 -0.5982 -2.2619
 4883SOL     OW26284   3.927   0.376   7.058  1.1317  0.1364  0.0230
 4883SOL    HW126285   4.017   0.410   7.064  0.6368  1.4301  0.0455
 4883SOL    HW226286   3.871   0.445   7.021  0.4873 -0.9439 -1.0041
 4884SOL     OW26287   2.056   1.150  13.315  0.0053 -0.0121  0.1160
 4884SOL    HW126288   2.032   1.236  13.281 -0.0293 -0.0111  0.1438
 4884SOL    HW226289   2.105   1.172  13.395  1.5002 -0.0785 -0.7719
 4885SOL     OW26290   0.517   2.103   4.976  1.4813 -0.2677  0.1591
 4885SOL    HW126291   0.492   2.152   5.054 -0.1970 -1.3409  0.3037
 4885SOL    HW226292   0.495   2.012   4.997  0.0473  0.4133  1.6112
 4886SOL     OW26293   0.549   3.641   7.062  0.4521  0.5669  0.2022
 4886SOL    HW126294   0.469   3.589   7.065  1.0223 -0.1693  2.3236
 4886SOL    HW226295   0.604   3.586   7.118  1.1627 -1.4308 -2.4381
 4887SOL     OW26296   3.017   3.827   3.226 -0.4228 -0.3976 -0.6060
 4887SOL    HW126297   2.995   3.737   3.252 -0.3383  0.4374  2.3869
 4887SOL    HW226298   2.971   3.832   3.143 -2.4961  4.5758  0.8449
 4888SOL     OW26299   2.736   3.765  15.699  0.0040 -0.2119  0.0093
 4888SOL    HW126300   2.716   3.712  15.776 -1.8983  0.8086  0.2057
 4888SOL    HW226301   2.717   3.708  15.625 -2.0612 -1.6316  1.6478
 4889SOL     OW26302   1.428   0.596   9.082 -0.1125 -0.1408  0.8062
 4889SOL    HW126303   1.500   0.653   9.108 -1.0883  0.3280  2.4570
 4889SOL    HW226304   1.409   0.559   9.168 -1.3466 -0.3115  0.4655
 4890SOL     OW26305   1.976   3.309   5.386  0.2992  0.5571 -0.2293
 4890SOL    HW126306   1.934   3.281   5.305 -0.4768  2.3776 -0.4542
 4890SOL    HW226307   2.024   3.231   5.414 -0.4835  0.0627 -0.2768
 4891SOL     OW26308   0.400   3.662  14.392  0.8430 -0.4160 -0.0003
 4891SOL    HW126309   0.308   3.683  14.374  0.0437 -2.2005  1.9917
 4891SOL    HW226310   0.440   3.704  14.316 -1.9235 -0.3772 -1.4496
 4892SOL     OW26311   3.646   4.001   6.191 -0.0994 -0.2751 -0.4021
 4892SOL    HW126312   3.732   3.965   6.169 -0.1361 -0.0706 -0.8896
 4892SOL    HW226313   3.618   3.933   6.252  2.0109  1.1847  2.2008
 4893SOL     OW26314   3.171   4.417  10.983 -0.4158 -0.4495 -0.4309
 4893SOL    HW126315   3.123   4.349  11.029  0.0567 -0.3408  0.2182
 4893SOL    HW226316   3.184   4.482  11.052  0.2959 -1.0153 -0.0474
 4894SOL     OW26317   3.735   3.805   2.564  0.4847 -0.0666  0.5963
 4894SOL    HW126318   3.795   3.757   2.622  2.0473  1.0650 -0.0893
 4894SOL    HW226319   3.772   3.787   2.478 -0.9354  0.4777 -0.1179
 4895SOL     OW26320   3.069   0.411   5.281 -0.5989  0.3537 -0.3988
 4895SOL    HW126321   3.028   0.494   5.258  1.1241  0.7103 -2.1567
 4895SOL    HW226322   3.121   0.453   5.350  2.1818 -2.6095 -0.7098
 4896SOL     OW26323   0.452   2.482  13.249  0.4260  0.2618 -0.0736
 4896SOL    HW126324   0.429   2.402  13.202 -2.7284  2.2493 -1.9774
 4896SOL    HW226325   0.547   2.487  13.236  0.3259 -0.4784 -1.0720
 4897SOL     OW26326   0.661   3.721   2.126 -0.1105 -0.4938  0.3653
 4897SOL    HW126327   0.652   3.643   2.072  0.2106 -0.9611  0.9745
 4897SOL    HW226328   0.578   3.724   2.174 -0.4593 -2.5733 -0.0963
 4898SOL     OW26329   1.525   1.040  10.933 -0.0575  0.0058 -0.1410
 4898SOL    HW126330   1.481   1.108  10.883  0.5807  0.7401  0.2980
 4898SOL    HW226331   1.458   0.992  10.981  1.7427 -0.9659  1.4240
 4899SOL     OW26332   2.337   1.151   0.267  0.5084  0.5731  0.6931
 4899SOL    HW126333   2.257   1.122   0.311 -0.4126 -0.4459 -1.6813
 4899SOL    HW226334   2.396   1.076   0.270 -1.9909 -1.3603  1.1326
 4900SOL     OW26335   1.293   2.569   2.768 -0.1326  0.4545 -0.9085
 4900SOL    HW126336   1.287   2.580   2.674 -0.8104 -2.5919 -1.2184
 4900SOL    HW226337   1.231   2.496   2.774 -3.1841  3.1010 -0.2512
 4901SOL     OW26338   4.653   0.537   9.580 -0.2523 -0.2154  0.1637
 4901SOL    HW126339   4.566   0.568   9.556  0.2619  0.9985 -0.1152
 4901SOL    HW226340   4.630   0.511   9.670  1.5928 -0.5301  0.5476
 4902SOL     OW26341   0.633   2.030   7.615 -0.6320  0.3523  0.1218
 4902SOL    HW126342   0.578   2.088   7.562 -1.8639  0.1797  1.1965
 4902SOL    HW226343   0.656   2.095   7.680 -1.4562 -0.2281  0.9987
 4903SOL     OW26344   3.441   2.207   3.591  0.2380 -0.5510  0.7479
 4903SOL    HW126345   3.476   2.118   3.583  2.5362  0.3781  0.5631
 4903SOL    HW226346   3.388   2.210   3.671 -1.2847 -0.8231 -0.2473
 4904SOL     OW26347   3.062   3.041   6.435 -0.3627  0.1475 -0.0052
 4904SOL    HW126348   3.085   3.034   6.342  0.3436  0.8279  0.1136
 4904SOL    HW226349   2.987   2.982   6.445  0.3577 -0.2117  3.5233
 4905SOL     OW26350   1.447   0.695   4.828  0.0575  0.8294 -0.2895
 4905SOL    HW126351   1.466   0.693   4.734 -0.5512 -0.6779 -0.3688
 4905SOL    HW226352   1.384   0.768   4.832  1.4162  1.9631  0.4703
 4906SOL     OW26353   2.939   4.073  12.128  0.1752  0.2538 -0.2303
 4906SOL    HW126354   2.914   4.034  12.044  1.2907 -0.6301 -0.1530
 4906SOL    HW226355   3.034   4.061  12.126 -0.1258 -2.3453  0.9159
 4907SOL     OW26356   0.049   3.087  12.921  0.0593 -0.2412 -0.6997
 4907SOL    HW126357   0.011   3.165  12.881  2.5525 -0.0827 -2.7717
 4907SOL    HW226358   0.138   3.089  12.886  0.5197 -1.5017  0.3907
 4908SOL     OW26359   2.935   1.344   8.107 -0.4824 -0.3301  0.6839
 4908SOL    HW126360   2.883   1.415   8.145 -0.8601 -1.5098  2.3576
 4908SOL    HW226361   3.014   1.350   8.160 -0.5624  1.3805  0.6058
 4909SOL     OW26362   0.501   3.971   4.926 -0.2262 -0.2583 -0.2302
 4909SOL    HW126363   0.557   3.917   4.982  0.5582 -0.2230 -0.9877
 4909SOL    HW226364   0.436   3.990   4.994 -2.8770 -1.9134 -2.2643
 4910SOL     OW26365   3.259   2.278  16.570 -0.0343  0.1739  0.4426
 4910SOL    HW126366   3.228   2.283  16.660 -0.4107  2.5916  0.1745
 4910SOL    HW226367   3.295   2.190  16.578  0.7231  0.3470 -1.1623
 4911SOL     OW26368   2.963   1.904   8.245  0.0510 -0.2724 -0.0169
 4911SOL    HW126369   2.942   1.849   8.321 -1.6246 -2.0037 -1.7185
 4911SOL    HW226370   3.057   1.921   8.258  0.5002 -2.0845 -0.8527
 4912SOL     OW26371   1.945   0.789   7.438  0.5488  0.6015 -0.8238
 4912SOL    HW126372   1.962   0.878   7.408  0.6844  1.4606  1.7596
 4912SOL    HW226373   1.976   0.737   7.364 -0.2552  0.6102 -1.1727
 4913SOL     OW26374   1.667   3.639   3.639 -0.3848 -0.4033 -0.2008
 4913SOL    HW126375   1.603   3.613   3.706  0.6545 -0.7144  0.6785
 4913SOL    HW226376   1.708   3.553   3.630  1.1750  0.5482 -2.0021
 4914SOL     OW26377   3.019   4.192   3.858 -0.2860 -0.1546  0.4690
 4914SOL    HW126378   2.991   4.189   3.766  0.9080 -2.1387  0.1787
 4914SOL    HW226379   2.942   4.229   3.901  0.5770  2.3742 -0.1717
 4915SOL     OW26380   1.995   0.128   0.687 -0.4289 -0.1179  1.0658
 4915SOL    HW126381   1.925   0.067   0.709 -0.3884 -0.8053 -0.7002
 4915SOL    HW226382   2.009   0.082   0.604  1.2228 -0.6031  1.6114
 4916SOL     OW26383   0.744   1.470   4.120  0.0754  0.1224  0.3228
 4916SOL    HW126384   0.821   1.414   4.108  0.1293 -0.0433  1.4076
 4916SOL    HW226385   0.705   1.472   4.033  1.3064  2.7607 -0.1572
 4917SOL     OW26386   0.447   1.607   7.612  0.3736  0.4363 -0.0336
 4917SOL    HW126387   0.527   1.638   7.570 -0.1593  1.0299 -0.6218
 4917SOL    HW226388   0.444   1.655   7.695 -0.0101 -2.1345  1.4475
 4918SOL     OW26389   1.586   3.982  15.834  0.1119 -0.0482 -0.1783
 4918SOL    HW126390   1.495   3.971  15.806 -0.3262  0.6738  0.9499
 4918SOL    HW226391   1.598   3.916  15.902  2.1502  2.2376  1.6623
 4919SOL     OW26392   0.336   4.241   2.833  0.5896 -0.3687  0.1683
 4919SOL    HW126393   0.246   4.272   2.843  0.3875 -0.7494 -0.5146
 4919SOL    HW226394   0.352   4.187   2.911 -0.6809 -1.3629 -0.2696
 4920SOL     OW26395   3.720   3.165   6.799  0.0191  0.0742  0.3804
 4920SOL    HW126396   3.718   3.160   6.703 -0.4525 -2.3926  0.5154
 4920SOL    HW226397   3.626   3.151   6.810  0.0862  1.2990  2.4077
 4921SOL     OW26398   3.144   3.097   8.204  0.1476 -0.0735  0.9448
 4921SOL    HW126399   3.205   3.035   8.163 -0.0343 -0.6332  1.5051
 4921SOL    HW226400   3.152   3.166   8.139  3.5731  0.3657  1.8148
 4922SOL     OW26401   0.484   4.645   6.427 -0.1364 -0.3397 -0.0905
 4922SOL    HW126402   0.578   4.636   6.407  0.4573  0.9193  2.1429
 4922SOL    HW226403   0.494   0.004   6.442  2.6662 -0.5082 -0.7837
 4923SOL     OW26404   1.483   2.018   6.891  0.4041 -0.3299 -0.1721
 4923SOL    HW126405   1.555   2.036   6.952  1.3017  0.5211 -1.4988
 4923SOL    HW226406   1.504   1.931   6.857  0.7419  0.3028 -1.5612
 4924SOL     OW26407   2.127   2.079   7.288  0.2251  0.2409 -0.0203
 4924SOL    HW126408   2.034   2.101   7.294 -0.3930 -2.4967  0.2091
 4924SOL    HW226409   2.140   2.058   7.380  0.4028 -1.0539 -0.3433
 4925SOL     OW26410   2.842   2.571  17.686 -0.1647 -0.3406  0.1681
 4925SOL    HW126411   2.799   2.516  17.620 -2.2018 -0.3610  1.5234
 4925SOL    HW226412   2.763   2.590  17.737  0.8168 -0.1631  1.6386
 4926SOL     OW26413   4.575   0.043   6.632 -0.1978  0.4592  0.4557
 4926SOL    HW126414   4.588   4.694   6.675  1.7579  0.5393  0.0053
 4926SOL    HW226415   4.519   0.090   6.694 -0.8640  2.1273 -1.4042
 4927SOL     OW26416   2.588   2.831   5.947  0.4929 -0.4105  0.4969
 4927SOL    HW126417   2.590   2.760   6.011 -1.8788 -0.3224  0.6956
 4927SOL    HW226418   2.671   2.812   5.905 -0.9945 -2.7289 -1.3804
 4928SOL     OW26419   1.058   3.776   5.586 -0.5568  0.7770 -0.0349
 4928SOL    HW126420   1.150   3.791   5.567 -0.2922 -0.0715  0.5779
 4928SOL    HW226421   1.053   3.836   5.661  1.8627 -0.4799  1.0963
 4929SOL     OW26422   3.989   4.432  16.642 -0.0124  0.1040 -0.0585
 4929SOL    HW126423   3.922   4.479  16.692  0.5714 -0.1817  0.9846
 4929SOL    HW226424   4.011   4.492  16.571  1.3286 -1.8984 -1.3059
 4930SOL     OW26425   1.196   0.013   5.713 -0.5431 -0.0637 -0.4771
 4930SOL    HW126426   1.154   0.079   5.767 -0.4748  0.2634 -0.8242
 4930SOL    HW226427   1.203   4.675   5.774 -2.3711 -0.9921 -1.3683
 4931SOL     OW26428   0.872   2.336   8.383  0.2772  0.0405  0.2200
 4931SOL    HW126429   0.806   2.322   8.451 -1.7700  0.3217 -1.7065
 4931SOL    HW226430   0.808   2.347   8.312  1.1168  0.8713 -0.4198
 4932SOL     OW26431   3.748   4.094  10.722  0.1769 -0.0555 -0.0215
 4932SOL    HW126432   3.780   4.075  10.810 -0.8266 -0.2499  0.3033
 4932SOL    HW226433   3.819   4.071  10.662 -1.6003 -0.0563 -2.1209
 4933SOL     OW26434   2.886   1.818   9.814  0.3538  0.3692 -0.0916
 4933SOL    HW126435   2.951   1.747   9.817 -1.1238 -0.9873 -0.3554
 4933SOL    HW226436   2.802   1.779   9.793 -0.8527  1.9318  1.8275
 4934SOL     OW26437   3.054   2.807   6.203  0.1555  0.1163  0.3289
 4934SOL    HW126438   3.071   2.764   6.286 -1.4125  2.4357  1.8497
 4934SOL    HW226439   3.105   2.757   6.139 -0.3950  1.1486 -0.9091
 4935SOL     OW26440   3.790   0.595   7.311  0.5166  0.4139 -0.0796
 4935SOL    HW126441   3.868   0.571   7.361  2.0475  1.2039 -2.1026
 4935SOL    HW226442   3.826   0.667   7.259 -0.6599  1.2635  0.2947
 4936SOL     OW26443   3.088   4.569   4.106  1.0547 -0.1669 -0.5273
 4936SOL    HW126444   3.153   4.517   4.152  1.7399  0.6646 -0.5457
 4936SOL    HW226445   3.009   4.516   4.116  1.4093 -0.9353 -1.7676
 4937SOL     OW26446   3.247   1.153   2.955 -0.0506 -0.6305  0.4525
 4937SOL    HW126447   3.300   1.134   3.031  2.3573 -1.4998 -1.4415
 4937SOL    HW226448   3.243   1.074   2.901  1.5118 -0.5457  0.2314
 4938SOL     OW26449   1.402   0.800   5.631  0.0185 -0.2501 -0.1065
 4938SOL    HW126450   1.374   0.796   5.539 -2.7667  0.0628  0.7250
 4938SOL    HW226451   1.438   0.889   5.625  2.9444 -1.2973  2.2564
 4939SOL     OW26452   3.379   0.698   1.161 -0.0296 -0.0626 -0.4023
 4939SOL    HW126453   3.424   0.778   1.189 -1.5164  0.0629  1.6265
 4939SOL    HW226454   3.288   0.725   1.167  0.1477  0.3660  0.4686
 4940SOL     OW26455   3.186   3.402   8.185  0.3680  0.1250  0.0857
 4940SOL    HW126456   3.138   3.423   8.266  0.3839 -1.7332  0.5745
 4940SOL    HW226457   3.250   3.340   8.219 -0.4955 -0.2917  0.9555
 4941SOL     OW26458   2.007   3.752   5.382 -0.2625 -0.5383  0.3093
 4941SOL    HW126459   2.036   3.729   5.294  1.4054 -1.2237  1.0334
 4941SOL    HW226460   2.056   3.690   5.436  2.6377  0.6951 -0.9106
 4942SOL     OW26461   0.947   2.516   5.330  0.1907 -0.2530  0.0073
 4942SOL    HW126462   0.987   2.475   5.407  0.3521  0.9292  0.5587
 4942SOL    HW226463   0.979   2.606   5.336  1.2688 -0.6849  0.7323
 4943SOL     OW26464   0.387   1.846   4.396 -0.4878  0.6148 -0.1589
 4943SOL    HW126465   0.321   1.882   4.455 -0.9909  1.3423 -1.1578
 4943SOL    HW226466   0.343   1.778   4.344 -1.5027  1.0988  0.0755
 4944SOL     OW26467   0.653   4.618   9.094 -0.4818  0.2456 -0.4358
 4944SOL    HW126468   0.727   4.665   9.056  0.6157  0.3528  1.8393
 4944SOL    HW226469   0.582   4.653   9.040  0.1299 -0.6074 -1.8044
 4945SOL     OW26470   1.925   2.968   3.870  0.1123  0.1260 -0.0947
 4945SOL    HW126471   1.937   2.875   3.852 -1.9111 -0.1010 -0.2725
 4945SOL    HW226472   1.944   2.999   3.782 -0.5772  0.0179 -0.2855
 4946SOL     OW26473   0.520   0.249   8.522  0.0898 -0.2439  0.3331
 4946SOL    HW126474   0.528   0.282   8.612  1.5215  2.4727 -0.8012
 4946SOL    HW226475   0.426   0.232   8.518 -0.1370  1.1884 -0.3035
 4947SOL     OW26476   0.524   2.203   3.965 -0.2160  0.5562 -0.2699
 4947SOL    HW126477   0.453   2.244   3.916  0.4790  0.0049 -1.7399
 4947SOL    HW226478   0.520   2.249   4.049 -1.4227  0.7356 -0.4238
 4948SOL     OW26479   1.277   0.567  12.734 -0.1463 -0.1005 -0.4419
 4948SOL    HW126480   1.249   0.525  12.816  0.1173  0.5261 -0.0330
 4948SOL    HW226481   1.235   0.651  12.751  0.8431  0.3391 -0.2016
 4949SOL     OW26482   4.421   4.232  16.026  0.1321 -0.7875  0.6726
 4949SOL    HW126483   4.386   4.197  16.108 -0.8786 -1.9700 -0.2853
 4949SOL    HW226484   4.407   4.324  16.050  1.2432 -0.3657 -0.2904
 4950SOL     OW26485   1.153   0.494   3.355 -0.4317  0.3951 -0.1660
 4950SOL    HW126486   1.107   0.492   3.438  0.7791  0.4472  0.5096
 4950SOL    HW226487   1.210   0.570   3.367 -0.2078  0.4113 -1.3125
 4951SOL     OW26488   0.617   2.675   9.446  0.4763  0.1311  0.0994
 4951SOL    HW126489   0.548   2.708   9.389 -1.8201 -1.8962  1.6851
 4951SOL    HW226490   0.607   2.582   9.424 -0.2621  0.5470 -1.3163
 4952SOL     OW26491   1.343   0.467  12.439 -0.2479 -0.3830 -0.5391
 4952SOL    HW126492   1.394   0.511  12.371 -0.7638  3.1160  1.3517
 4952SOL    HW226493   1.313   0.533  12.500  1.2354  0.1975 -0.4575
 4953SOL     OW26494   2.711   0.638  17.487 -0.0506 -0.2154 -0.2568
 4953SOL    HW126495   2.667   0.559  17.516  1.0438 -0.3728  0.9468
 4953SOL    HW226496   2.686   0.697  17.558  2.9942  1.3190 -0.4527
 4954SOL     OW26497   2.411   4.654   9.013  0.3817 -0.1439 -0.2027
 4954SOL    HW126498   2.364   4.602   9.078  0.3621  0.1080 -0.0149
 4954SOL    HW226499   2.358   4.734   9.016 -1.5680 -1.5255  1.4465
 4955SOL     OW26500   1.021   2.032  16.596  0.3245 -0.1071 -0.0763
 4955SOL    HW126501   0.937   1.986  16.606 -0.7166  1.1681 -3.2836
 4955SOL    HW226502   1.077   1.954  16.598 -0.1023 -0.4445 -1.3959
 4956SOL     OW26503   0.306   1.250   3.067 -0.0503  0.2029 -0.0587
 4956SOL    HW126504   0.215   1.278   3.078  0.2340  0.0823  2.4355
 4956SOL    HW226505   0.288   1.175   3.010  0.2820 -0.0368  0.1537
 4957SOL     OW26506   3.724   2.307  15.902 -0.1207  0.2281 -0.2376
 4957SOL    HW126507   3.746   2.400  15.898 -1.5347  0.5737 -0.1708
 4957SOL    HW226508   3.632   2.317  15.879  0.2463  1.5329 -1.1572
 4958SOL     OW26509   2.515   1.346   3.508 -0.1164  0.1860 -0.4086
 4958SOL    HW126510   2.566   1.379   3.581  0.7339  1.3404 -1.5160
 4958SOL    HW226511   2.434   1.398   3.512  0.3364  0.7877  0.9202
 4959SOL     OW26512   4.524   3.064   5.218  0.3206  0.2730  0.8269
 4959SOL    HW126513   4.553   3.014   5.295 -0.1322 -0.4585  0.5232
 4959SOL    HW226514   4.568   3.144   5.246  1.6178 -0.6704  1.5094
 4960SOL     OW26515   0.740   2.030   1.102 -0.4910 -0.0046  0.0487
 4960SOL    HW126516   0.719   2.042   1.010 -1.6913 -0.4689  0.2670
 4960SOL    HW226517   0.673   1.962   1.113  0.8757 -1.2483  0.6580
 4961SOL     OW26518   1.464   4.437   5.143 -0.2620  0.2213 -0.6018
 4961SOL    HW126519   1.478   4.532   5.138 -0.0117  0.2832  1.6772
 4961SOL    HW226520   1.369   4.443   5.133 -0.3103  0.4217  0.0124
 4962SOL     OW26521   0.184   2.323  12.010 -0.3121 -0.5178  0.0437
 4962SOL    HW126522   0.180   2.230  11.991  0.0853 -0.3579 -0.8760
 4962SOL    HW226523   0.100   2.341  12.051  0.2730 -0.6077  1.2780
 4963SOL     OW26524   4.280   0.139   0.171 -0.6493  0.3899  0.4727
 4963SOL    HW126525   4.364   0.154   0.213 -1.1027 -0.1175  1.5585
 4963SOL    HW226526   4.274   0.043   0.167 -0.6824  0.4136 -0.0152
 4964SOL     OW26527   4.516   0.815   9.616 -0.0932  0.1787  0.3827
 4964SOL    HW126528   4.528   0.826   9.711 -1.2146  0.7019  0.4623
 4964SOL    HW226529   4.558   0.894   9.581  1.2160 -0.1561  1.1760
 4965SOL     OW26530   1.412   1.922   8.309 -0.4821 -0.3300  0.0463
 4965SOL    HW126531   1.471   1.978   8.259 -0.7614 -0.9889 -1.0386
 4965SOL    HW226532   1.463   1.841   8.314  1.7739  1.0391 -0.9011
 4966SOL     OW26533   1.538   1.127   5.302  0.0410 -0.2035  0.1694
 4966SOL    HW126534   1.492   1.163   5.226  0.6736  2.5627  1.1025
 4966SOL    HW226535   1.580   1.053   5.258 -1.9948 -1.8091  0.9312
 4967SOL     OW26536   0.591   0.477   2.106 -0.2809 -0.1680  0.3137
 4967SOL    HW126537   0.501   0.445   2.116 -1.2259  2.4092 -0.0324
 4967SOL    HW226538   0.631   0.405   2.058 -1.4191 -1.0978  0.7613
 4968SOL     OW26539   2.511   0.966   0.161 -0.1526  0.4603 -0.2701
 4968SOL    HW126540   2.602   0.941   0.172 -0.6411 -2.1286 -2.2172
 4968SOL    HW226541   2.521   1.032   0.093  1.5861 -1.9353 -2.3372
 4969SOL     OW26542   1.876   4.414   3.875  0.0867 -0.0261  0.1454
 4969SOL    HW126543   1.944   4.473   3.841 -1.3982  0.9336 -1.1432
 4969SOL    HW226544   1.908   4.389   3.961  1.7087 -1.2198 -0.8019
 4970SOL     OW26545   2.143   1.187   8.962 -0.4592 -0.2502  0.0903
 4970SOL    HW126546   2.101   1.162   8.880 -1.4902  0.4492  0.4102
 4970SOL    HW226547   2.089   1.145   9.029 -0.0998 -1.3496 -0.3135
 4971SOL     OW26548   3.742   3.468   9.790  0.6758 -0.1953 -0.3816
 4971SOL    HW126549   3.706   3.380   9.802 -0.0531  0.1512 -0.0193
 4971SOL    HW226550   3.794   3.478   9.869  0.9812  0.9849 -0.7409
 4972SOL     OW26551   3.869   4.062   2.448  0.0821  0.0401 -0.6063
 4972SOL    HW126552   3.863   3.993   2.514  0.4967  0.1849 -0.4218
 4972SOL    HW226553   3.788   4.111   2.465  0.6421 -0.7955  4.4127
 4973SOL     OW26554   3.501   2.906  17.147  0.0655 -0.1076  0.1026
 4973SOL    HW126555   3.431   2.967  17.127  1.0600  0.0742 -2.9003
 4973SOL    HW226556   3.574   2.969  17.147  0.6811 -0.8090 -2.3607
 4974SOL     OW26557   0.396   0.039  12.682  0.4209  0.1743 -0.5079
 4974SOL    HW126558   0.309   0.071  12.659  1.3280  2.0316 -1.3539
 4974SOL    HW226559   0.436   0.068  12.600  2.3911  0.4993  0.5487
 4975SOL     OW26560   3.863   4.128   3.386 -0.1635  0.7294 -1.2118
 4975SOL    HW126561   3.837   4.210   3.343 -0.2918  1.3426  0.0331
 4975SOL    HW226562   3.811   4.067   3.333  0.0686 -1.4753  1.1155
 4976SOL     OW26563   1.153   3.251   8.637 -0.2404  0.3329  0.3223
 4976SOL    HW126564   1.197   3.216   8.715  1.8296  3.9468  0.8113
 4976SOL    HW226565   1.216   3.315   8.603 -0.8319 -0.0952 -1.5525
 4977SOL     OW26566   1.385   3.276   5.905 -0.6482 -0.0088 -0.7919
 4977SOL    HW126567   1.446   3.247   5.973  0.5235  0.7608 -1.5138
 4977SOL    HW226568   1.390   3.371   5.909  0.6608 -0.1473  1.2387
 4978SOL     OW26569   2.840   2.265   8.688  0.0369  0.1836 -0.7489
 4978SOL    HW126570   2.874   2.350   8.716 -1.0852  0.0790  0.9462
 4978SOL    HW226571   2.887   2.254   8.606 -0.2837  0.2839 -0.9484
 4979SOL     OW26572   1.304   1.979   6.104  0.3282 -0.1723  0.2181
 4979SOL    HW126573   1.226   2.027   6.132  1.7826  3.0269 -1.2324
 4979SOL    HW226574   1.374   2.040   6.124  0.8480 -0.8589  0.5138
 4980SOL     OW26575   1.269   4.350   8.645 -0.2604  0.1605  0.4121
 4980SOL    HW126576   1.341   4.290   8.627 -0.9668 -0.7424  0.5643
 4980SOL    HW226577   1.258   4.343   8.740  2.2789  0.2230  0.6932
 4981SOL     OW26578   0.216   1.961   4.586 -0.3252  0.1375 -0.3467
 4981SOL    HW126579   0.188   1.922   4.669  0.3733 -0.5017 -0.4109
 4981SOL    HW226580   0.246   2.039   4.632  0.7916  0.1328 -1.0679
 4982SOL     OW26581   1.478   3.551  14.993  0.2415 -0.4456 -0.0750
 4982SOL    HW126582   1.558   3.562  14.941  2.9496  1.3008  4.4661
 4982SOL    HW226583   1.505   3.549  15.085  1.4725 -0.5137 -0.4393
 4983SOL     OW26584   2.723   3.040   8.362 -0.3375 -0.0191 -0.4058
 4983SOL    HW126585   2.679   3.094   8.428 -0.8783 -2.1234  0.9351
 4983SOL    HW226586   2.811   3.076   8.376 -1.3358  1.5798  1.7825
 4984SOL     OW26587   3.780   1.863   5.722  0.8602  0.0953 -0.3965
 4984SOL    HW126588   3.867   1.837   5.754 -0.0977 -0.9646  1.3603
 4984SOL    HW226589   3.768   1.810   5.643  0.8714 -0.0456 -0.3044
 4985SOL     OW26590   2.361   3.650  11.116 -0.3892 -0.2636  0.1791
 4985SOL    HW126591   2.349   3.577  11.055  1.4229 -1.1480  0.8806
 4985SOL    HW226592   2.408   3.716  11.064 -2.0007 -0.9687 -2.1566
 4986SOL     OW26593   0.450   2.835   6.985  0.0684 -0.3971  0.5799
 4986SOL    HW126594   0.431   2.741   6.978 -1.1823  0.0888 -2.6551
 4986SOL    HW226595   0.367   2.868   6.950  0.6826  0.1933 -0.3189
 4987SOL     OW26596   2.656   2.338   1.882  0.0427  0.0412 -0.3584
 4987SOL    HW126597   2.729   2.373   1.831  0.6218  0.0246  0.4598
 4987SOL    HW226598   2.661   2.243   1.874  0.1992 -0.0969  1.3456
 4988SOL     OW26599   0.803   0.710   2.911 -0.1047 -0.6215 -0.2464
 4988SOL    HW126600   0.843   0.652   2.847 -1.3902  1.1363 -2.6271
 4988SOL    HW226601   0.841   0.688   2.996 -0.3393  0.7443  0.2133
 4989SOL     OW26602   3.242   0.045  16.430 -0.1422 -0.5350 -1.1152
 4989SOL    HW126603   3.307   0.067  16.362  1.1077  0.7037  0.4761
 4989SOL    HW226604   3.193   4.713  16.383  0.0822 -1.5858  0.1649
 4990SOL     OW26605   0.812   2.616   2.630  0.2484 -0.2621 -0.1436
 4990SOL    HW126606   0.849   2.648   2.547 -0.7207  1.0527 -0.0698
 4990SOL    HW226607   0.831   2.523   2.632  3.7168  0.4586 -0.5963
 4991SOL     OW26608   0.218   3.826   8.412  0.0371 -0.0217  0.3633
 4991SOL    HW126609   0.262   3.883   8.475  1.3505 -0.1747 -0.4054
 4991SOL    HW226610   0.159   3.778   8.470 -1.4812  0.0458 -1.1259
 4992SOL     OW26611   0.554   2.665   6.707  0.0124  0.3232 -0.0291
 4992SOL    HW126612   0.597   2.596   6.758 -1.1207 -0.8907 -0.7237
 4992SOL    HW226613   0.604   2.740   6.738  2.5956 -1.9512  1.2976
 4993SOL     OW26614   3.223   0.490  15.780  0.2813  0.2537 -0.8388
 4993SOL    HW126615   3.131   0.496  15.753  0.5510  2.2635 -1.2980
 4993SOL    HW226616   3.246   0.580  15.800  0.6044  0.0814 -0.4260
 4994SOL     OW26617   3.257   0.474   2.709 -0.2667  0.2139 -0.0897
 4994SOL    HW126618   3.328   0.503   2.651  0.9307  0.6445  1.5744
 4994SOL    HW226619   3.291   0.386   2.726 -0.2624  0.5760  1.7954
 4995SOL     OW26620   0.260   1.916   7.698  0.8787  0.3075  0.0907
 4995SOL    HW126621   0.346   1.875   7.698  1.8552  2.3768  1.1417
 4995SOL    HW226622   0.273   2.011   7.693 -1.5671  0.5813 -1.0974
 4996SOL     OW26623   1.539   1.565  11.224 -0.2351 -0.3677  0.2850
 4996SOL    HW126624   1.528   1.474  11.252  2.6046 -1.2723 -1.5812
 4996SOL    HW226625   1.601   1.557  11.152 -0.8625 -0.5500 -0.2378
 4997SOL     OW26626   1.226   1.867   5.586  0.0195 -0.2682  0.4251
 4997SOL    HW126627   1.239   1.873   5.681 -0.5562 -2.9591  0.6711
 4997SOL    HW226628   1.177   1.949   5.573 -1.1864 -1.2711 -1.4880
 4998SOL     OW26629   1.875   3.447   4.932  0.3570 -0.3170 -0.3523
 4998SOL    HW126630   1.824   3.521   4.966 -0.5670 -0.3104 -1.7377
 4998SOL    HW226631   1.948   3.468   4.989  3.3430 -0.6026 -4.1134
 4999SOL     OW26632   4.398   2.341  13.815 -0.5521 -0.4766  0.6779
 4999SOL    HW126633   4.309   2.361  13.844 -0.6938  1.3612 -1.0512
 4999SOL    HW226634   4.402   2.372  13.725 -0.5091  0.4362  0.9917
 5000SOL     OW26635   2.811   4.322   3.976  0.1087 -0.0659  0.2038
 5000SOL    HW126636   2.760   4.269   3.915  0.5290  0.2235 -0.3991
 5000SOL    HW226637   2.767   4.406   3.962  0.1791 -0.1587 -0.5807
 5001SOL     OW26638   2.007   4.124   8.322 -0.0642  0.2280 -0.4434
 5001SOL    HW126639   2.015   4.097   8.413 -1.1575  0.7795 -0.1823
 5001SOL    HW226640   1.933   4.185   8.325  1.7299  2.4209  0.1480
 5002SOL     OW26641   4.025   1.662   1.325  0.2499 -0.1529  0.7486
 5002SOL    HW126642   3.953   1.658   1.261 -0.2614  2.9268  1.1226
 5002SOL    HW226643   3.969   1.653   1.402 -1.0050 -0.4880 -0.1953
 5003SOL     OW26644   4.215   3.952   5.860  0.7615 -0.7059 -0.8049
 5003SOL    HW126645   4.121   3.932   5.852  1.0740 -2.0449 -1.1691
 5003SOL    HW226646   4.221   4.042   5.893 -0.5600 -2.3182  3.9118
 5004SOL     OW26647   1.695   4.482   3.127  0.2819  0.8632  0.4089
 5004SOL    HW126648   1.620   4.540   3.134 -1.9537 -2.0424  0.4242
 5004SOL    HW226649   1.757   4.511   3.194  0.2004  0.4929  0.6419
 5005SOL     OW26650   1.153   0.967   8.227 -0.3992  0.2749 -0.2447
 5005SOL    HW126651   1.240   1.007   8.233 -0.8950  1.4078 -0.5704
 5005SOL    HW226652   1.114   1.002   8.147  0.6864  1.9413 -0.0537
 5006SOL     OW26653   0.524   1.247  13.981 -0.2902  0.3186  0.1437
 5006SOL    HW126654   0.486   1.189  14.046  0.6508 -1.0857 -0.5613
 5006SOL    HW226655   0.606   1.282  14.015  0.8632  0.6978 -2.9476
 5007SOL     OW26656   4.129   3.673  11.340  0.1124  0.2024  0.2374
 5007SOL    HW126657   4.131   3.653  11.434 -0.6363  0.4207  0.2964
 5007SOL    HW226658   4.092   3.588  11.316  0.1756  0.7896 -1.9660
 5008SOL     OW26659   0.353   0.300   7.618 -0.7068 -0.6211 -0.2703
 5008SOL    HW126660   0.299   0.232   7.659 -1.0447  0.6166  1.3449
 5008SOL    HW226661   0.386   0.342   7.698 -0.5451 -0.6930 -0.3000
 5009SOL     OW26662   3.798   4.049   0.845 -0.3514  0.3154 -0.6056
 5009SOL    HW126663   3.867   4.114   0.832 -0.5718  0.5632 -0.5282
 5009SOL    HW226664   3.792   4.053   0.941 -0.3452 -1.5873 -0.5225
 5010SOL     OW26665   3.685   0.022   3.036  0.1031 -0.6613  0.4680
 5010SOL    HW126666   3.689   0.003   2.942  2.1908  0.7510  0.2763
 5010SOL    HW226667   3.652   4.676   3.075  0.8018 -0.6171  1.1451
 5011SOL     OW26668   3.784   2.130   4.142  0.3275 -0.2868  0.0378
 5011SOL    HW126669   3.784   2.043   4.182  2.6801 -0.5726 -0.5732
 5011SOL    HW226670   3.870   2.131   4.101 -0.1516 -0.5784 -0.9659
 5012SOL     OW26671   1.310   2.400   1.771 -0.4369  0.2625  0.2403
 5012SOL    HW126672   1.326   2.419   1.678  0.0316  1.1280  0.4945
 5012SOL    HW226673   1.388   2.443   1.806 -1.3896 -0.6240  3.4849
 5013SOL     OW26674   1.867   2.624   1.031 -0.0301  0.1589 -0.7969
 5013SOL    HW126675   1.817   2.658   1.105 -0.9344  0.2136 -1.4439
 5013SOL    HW226676   1.865   2.530   1.048  0.0533  0.5631  1.3716
 5014SOL     OW26677   0.438   1.435   4.882  0.0290 -0.2357  0.6038
 5014SOL    HW126678   0.417   1.439   4.788 -1.2886 -2.2904  0.8183
 5014SOL    HW226679   0.533   1.443   4.881  0.1994 -2.2466  0.6511
 5015SOL     OW26680   3.825   4.067   1.154  0.0330  0.0222 -0.6845
 5015SOL    HW126681   3.757   3.999   1.163 -0.6145  0.7467 -0.0699
 5015SOL    HW226682   3.784   4.140   1.201 -0.0988  0.0830 -0.8921
 5016SOL     OW26683   1.622   1.400   6.235 -0.2840  0.6077  0.6268
 5016SOL    HW126684   1.566   1.456   6.182  0.5550  1.8108  1.0014
 5016SOL    HW226685   1.707   1.444   6.231  0.2599 -0.4653  0.2392
 5017SOL     OW26686   2.215   4.081   8.681  0.2834 -0.0626 -0.3871
 5017SOL    HW126687   2.257   4.156   8.641 -1.2545  0.9811 -0.0569
 5017SOL    HW226688   2.128   4.076   8.640 -0.7950  0.4822  1.8298
 5018SOL     OW26689   1.447   0.996  17.142 -1.1126 -0.3864 -0.0045
 5018SOL    HW126690   1.517   1.011  17.079 -1.9439 -2.0554 -1.3281
 5018SOL    HW226691   1.398   0.929  17.094  0.3434 -0.7184 -1.0236
 5019SOL     OW26692   2.737   2.641   6.717  0.0945  0.3573 -0.4458
 5019SOL    HW126693   2.686   2.713   6.753  2.4444  1.5833  0.4136
 5019SOL    HW226694   2.764   2.682   6.635 -0.6340 -0.8969 -1.3078
 5020SOL     OW26695   0.055   0.899   7.342 -0.2304 -0.2168  0.6425
 5020SOL    HW126696   0.049   0.890   7.247 -3.2550  1.6961  0.6610
 5020SOL    HW226697   0.131   0.847   7.369  0.9342  1.9271  1.4872
 5021SOL     OW26698   1.323   0.232   8.612 -0.1051 -0.9595  0.3375
 5021SOL    HW126699   1.309   0.298   8.543  0.6894 -1.5414 -0.3888
 5021SOL    HW226700   1.265   0.161   8.584 -0.0028 -1.1639  0.6436
 5022SOL     OW26701   1.574   0.413   8.800  0.0806  0.1367 -0.1063
 5022SOL    HW126702   1.491   0.401   8.754  1.6189 -1.6110 -2.4232
 5022SOL    HW226703   1.589   0.507   8.807 -0.7765  0.2768 -0.1666
 5023SOL     OW26704   3.876   0.751   6.455  0.3235  0.7519 -0.1806
 5023SOL    HW126705   3.971   0.752   6.465  0.2830 -0.1059  0.3463
 5023SOL    HW226706   3.844   0.842   6.458 -1.8692  0.0013 -0.7584
 5024SOL     OW26707   0.459   2.836   2.615 -0.5868  0.0756  0.3799
 5024SOL    HW126708   0.450   2.845   2.709  2.4012  2.6851  0.4287
 5024SOL    HW226709   0.420   2.748   2.611  0.7962 -0.5143 -0.4088
 5025SOL     OW26710   2.617   3.708   6.465 -0.2635  0.0886 -0.1608
 5025SOL    HW126711   2.569   3.641   6.415 -1.9051 -0.3623  2.0047
 5025SOL    HW226712   2.696   3.657   6.484 -0.1393  0.5030  0.4187
 5026SOL     OW26713   2.084   0.044   7.691  0.0947 -0.9300 -0.0930
 5026SOL    HW126714   2.095   0.073   7.782 -0.3101 -1.0009 -0.0195
 5026SOL    HW226715   1.990   0.026   7.697 -0.5306  2.7576  0.9399
 5027SOL     OW26716   0.470   0.696   8.622  0.6027 -0.1536  0.4471
 5027SOL    HW126717   0.545   0.755   8.612 -0.7701  1.5788  0.3326
 5027SOL    HW226718   0.513   0.612   8.638 -0.5266 -0.9997 -1.0205
 5028SOL     OW26719   1.821   4.040   7.319  0.4576  0.1674  0.3753
 5028SOL    HW126720   1.876   3.961   7.315  0.5604  0.2540  0.0741
 5028SOL    HW226721   1.848   4.075   7.404  0.7786 -0.3510  0.4885
 5029SOL     OW26722   2.952   2.753   1.128  0.1624  0.0054  0.2994
 5029SOL    HW126723   2.918   2.665   1.111 -1.1512  0.4198  0.8245
 5029SOL    HW226724   2.869   2.800   1.124  0.5582  0.8136  1.4836
 5030SOL     OW26725   1.373   0.030   7.634 -0.7361 -0.1792 -0.4332
 5030SOL    HW126726   1.306   4.698   7.642 -1.8996  0.8307 -1.9032
 5030SOL    HW226727   1.314   0.103   7.655  1.0171  0.8641  0.9514
 5031SOL     OW26728   1.533   1.649   8.304  0.2084 -0.0604  0.1845
 5031SOL    HW126729   1.570   1.613   8.385  0.7965 -1.3757 -0.6615
 5031SOL    HW226730   1.491   1.568   8.273  0.9345 -0.3622 -0.0186
 5032SOL     OW26731   2.401   1.735  17.427 -0.4666  0.1944 -1.0494
 5032SOL    HW126732   2.414   1.756  17.334  0.3446 -1.4355 -1.3116
 5032SOL    HW226733   2.323   1.786  17.449 -1.8738 -2.9466  1.2310
 5033SOL     OW26734   2.083   4.411   4.602 -0.1872 -0.3601  0.0610
 5033SOL    HW126735   2.048   4.382   4.687 -0.2654 -1.9894 -0.5206
 5033SOL    HW226736   2.005   4.425   4.548 -0.7008 -0.9810  0.6352
 5034SOL     OW26737   1.178   4.550   5.171 -0.1721 -0.3488 -0.3967
 5034SOL    HW126738   1.181   4.622   5.107  2.3287 -0.2443 -0.1677
 5034SOL    HW226739   1.208   4.598   5.248  0.1697 -1.6584  0.2795
 5035SOL     OW26740   2.533   3.383   2.008  0.3215  0.3226  0.3264
 5035SOL    HW126741   2.563   3.447   2.072  1.7218 -0.5740  0.5475
 5035SOL    HW226742   2.610   3.368   1.954 -0.8684  1.1738 -1.6308
 5036SOL     OW26743   0.041   3.463   7.562 -0.1676 -0.5142 -0.1321
 5036SOL    HW126744   4.708   3.467   7.629 -0.3014 -0.9864 -0.2395
 5036SOL    HW226745   4.728   3.434   7.485  1.2384  0.0364 -1.2161
 5037SOL     OW26746   3.763   0.733  11.937  0.1500  0.1093  0.1636
 5037SOL    HW126747   3.699   0.801  11.916 -1.1080 -0.6065  1.6655
 5037SOL    HW226748   3.707   0.678  11.991 -0.1489  0.9133  0.6775
 5038SOL     OW26749   3.634   0.775   1.748 -0.7934  0.2057  0.1473
 5038SOL    HW126750   3.621   0.723   1.668  0.9661  2.2578 -1.4867
 5038SOL    HW226751   3.695   0.729   1.806 -0.3547  1.2861  0.5361
 5039SOL     OW26752   2.258   3.651   6.389 -0.3520 -0.2233 -0.5906
 5039SOL    HW126753   2.259   3.744   6.410  2.2771 -0.4635  0.3527
 5039SOL    HW226754   2.169   3.634   6.417  0.7671 -2.2298  1.7570
 5040SOL     OW26755   2.470   2.431   8.951  0.8267  0.2896  0.4567
 5040SOL    HW126756   2.414   2.373   8.901  0.3784  1.5824 -0.5490
 5040SOL    HW226757   2.438   2.516   8.920 -0.1668 -0.0795  0.4902
 5041SOL     OW26758   1.600   2.622   8.402  0.8852 -0.3093 -0.1240
 5041SOL    HW126759   1.590   2.533   8.367  0.0719 -0.5988  0.8367
 5041SOL    HW226760   1.508   2.650   8.406  0.5905 -1.3197  0.0361
 5042SOL     OW26761   1.044   3.629   3.724  0.4448  0.5916  0.2859
 5042SOL    HW126762   0.962   3.612   3.771  0.0221  0.7849 -0.3903
 5042SOL    HW226763   1.043   3.543   3.683 -0.5286  1.4226 -1.4098
 5043SOL     OW26764   4.491   3.616   8.780 -0.3600 -0.1721 -0.1100
 5043SOL    HW126765   4.580   3.642   8.757 -0.0914 -0.7034  0.3445
 5043SOL    HW226766   4.443   3.697   8.795 -2.8147 -1.4876 -0.8172
 5044SOL     OW26767   3.826   4.078   1.540  0.5877  0.0592 -0.4046
 5044SOL    HW126768   3.785   4.148   1.591 -0.0144 -0.0073 -0.7950
 5044SOL    HW226769   3.784   4.093   1.455 -2.2232 -3.3028  0.4052
 5045SOL     OW26770   3.990   2.985  12.875  0.5466  0.1561 -0.0308
 5045SOL    HW126771   4.021   3.007  12.787  3.7202  3.4977  1.9507
 5045SOL    HW226772   4.068   3.020  12.918  1.9333 -1.1774 -1.4771
 5046SOL     OW26773   0.244   0.768   4.599  0.2136  0.2642  0.2541
 5046SOL    HW126774   0.238   0.858   4.631 -1.7829  0.2814 -0.1528
 5046SOL    HW226775   0.301   0.777   4.522  0.9302 -1.1616  0.6038
 5047SOL     OW26776   0.756   4.454   3.824  0.3568 -0.3427 -0.1103
 5047SOL    HW126777   0.762   4.538   3.778  0.5190  0.1755  0.8729
 5047SOL    HW226778   0.723   4.395   3.756  0.4582 -2.5238  1.7540
 5048SOL     OW26779   4.548   3.188   7.902  0.1877 -0.4520  0.1850
 5048SOL    HW126780   4.642   3.191   7.880 -0.4209  0.8573 -2.1561
 5048SOL    HW226781   4.517   3.231   7.823 -0.2562 -1.5275 -0.2226
 5049SOL     OW26782   0.904   1.577   7.264  0.0883 -0.0535 -0.0774
 5049SOL    HW126783   0.864   1.597   7.180 -0.5493  0.4915  0.3550
 5049SOL    HW226784   0.921   1.484   7.247 -1.5833 -0.2993 -0.4222
 5050SOL     OW26785   1.692   0.684  10.519  0.1589  0.0665 -0.4598
 5050SOL    HW126786   1.724   0.724  10.599 -1.3152  2.1289 -0.8876
 5050SOL    HW226787   1.622   0.749  10.507  0.9284  0.7463 -1.3001
 5051SOL     OW26788   0.100   4.638   7.083  0.2235  0.6897 -0.2111
 5051SOL    HW126789   0.064   4.669   7.000 -2.8324 -2.2392  0.0338
 5051SOL    HW226790   0.086   4.714   7.139 -0.9902  1.0549 -1.0218
 5052SOL     OW26791   0.591   1.831   7.795 -0.4081  0.2628  0.1990
 5052SOL    HW126792   0.676   1.809   7.832  0.0020  3.9882  1.4411
 5052SOL    HW226793   0.622   1.867   7.712  1.9192  0.5846  1.2054
 5053SOL     OW26794   4.232   1.150   6.961  0.1043  0.1836  0.1813
 5053SOL    HW126795   4.317   1.108   6.946  0.9118  1.8076  0.2157
 5053SOL    HW226796   4.252   1.230   7.008 -0.7273 -0.1101  1.0257
 5054SOL     OW26797   2.090   4.051  14.060  0.4343 -0.1312 -0.0700
 5054SOL    HW126798   2.086   4.097  14.143 -1.2068 -0.8227  0.2527
 5054SOL    HW226799   2.011   3.996  14.058 -0.7460  1.5016  1.4606
 5055SOL     OW26800   4.443   2.802   7.729  0.1001  0.3128  0.4012
 5055SOL    HW126801   4.468   2.760   7.646 -2.5384  1.6768 -1.0970
 5055SOL    HW226802   4.525   2.841   7.761 -0.6839  2.7093 -0.5080
 5056SOL     OW26803   3.691   3.980   3.248 -0.0186 -0.3838 -0.0700
 5056SOL    HW126804   3.597   3.996   3.256  0.7365  2.9985  1.8883
 5056SOL    HW226805   3.681   3.887   3.269 -0.5554 -1.0348 -3.2373
 5057SOL     OW26806   3.903   1.626   1.967  0.2498 -0.1832 -0.1591
 5057SOL    HW126807   3.835   1.693   1.980  0.0427 -0.6677  1.3471
 5057SOL    HW226808   3.863   1.556   2.019 -1.2919  1.0685  0.3467
 5058SOL     OW26809   2.851   1.262   9.877 -0.1623 -0.1618 -0.0918
 5058SOL    HW126810   2.860   1.200   9.950 -3.6194 -0.2650  0.2312
 5058SOL    HW226811   2.914   1.331   9.900  0.4026 -0.9353  0.7014
 5059SOL     OW26812   4.529   0.740   6.283 -0.1741 -0.1839  0.1290
 5059SOL    HW126813   4.453   0.727   6.226  0.2012 -0.8817 -0.2152
 5059SOL    HW226814   4.595   0.765   6.218  0.6141  0.2516  1.0861
 5060SOL     OW26815   4.207   0.716   6.200  0.4968 -0.3306  0.6798
 5060SOL    HW126816   4.173   0.680   6.282  3.5292  0.8875  2.4485
 5060SOL    HW226817   4.204   0.811   6.210  0.4062 -0.0986 -1.5652
 5061SOL     OW26818   3.126   4.719   3.887 -0.4781 -0.8176  0.0200
 5061SOL    HW126819   3.207   0.030   3.910  0.2065 -1.8140 -0.3741
 5061SOL    HW226820   3.104   4.673   3.969  0.2661 -0.4366  0.4363
 5062SOL     OW26821   2.886   2.402   2.456  0.3857  0.1879 -0.1776
 5062SOL    HW126822   2.792   2.393   2.443  0.1702  4.2282 -1.2195
 5062SOL    HW226823   2.901   2.356   2.539 -1.9451  1.7211  1.0718
 5063SOL     OW26824   0.004   4.577   3.727  0.0613 -0.2154 -0.1943
 5063SOL    HW126825   4.696   4.587   3.642  0.0776  0.8634 -0.0752
 5063SOL    HW226826   0.094   4.580   3.696 -0.1138 -1.9374 -0.8823
 5064SOL     OW26827   1.658   3.036  16.056 -0.0980 -0.1367 -0.7012
 5064SOL    HW126828   1.738   3.038  16.108 -1.4187 -0.0734  1.3497
 5064SOL    HW226829   1.598   3.091  16.107  0.3133 -0.7485  0.4229
 5065SOL     OW26830   2.152   3.125   5.729 -0.2040 -0.1382  0.6424
 5065SOL    HW126831   2.136   3.217   5.750 -1.0225 -0.4659  1.4436
 5065SOL    HW226832   2.235   3.110   5.775  1.3454  0.8733 -1.8338
 5066SOL     OW26833   1.812   3.458   4.448  0.0717 -0.5324  0.3922
 5066SOL    HW126834   1.835   3.510   4.526 -1.0701  0.2755  0.1952
 5066SOL    HW226835   1.853   3.515   4.383 -0.9626  0.0173  0.2201
 5067SOL     OW26836   1.313   3.064   9.663 -0.1373  0.2242 -0.5891
 5067SOL    HW126837   1.347   3.116   9.590  1.5640  2.2238  1.6254
 5067SOL    HW226838   1.356   2.978   9.655 -1.5806 -0.6877  1.4557
 5068SOL     OW26839   3.142   2.930   0.516 -0.0758 -0.0433  0.0481
 5068SOL    HW126840   3.118   3.023   0.518 -2.6865 -0.6837 -1.6938
 5068SOL    HW226841   3.150   2.907   0.424 -1.1983  0.9810 -0.3006
 5069SOL     OW26842   1.483   4.166  10.453 -0.5008  0.7372 -0.1603
 5069SOL    HW126843   1.467   4.112  10.530 -0.4910 -0.3509 -0.9248
 5069SOL    HW226844   1.495   4.100  10.384  1.2885 -0.5000  1.3393
 5070SOL     OW26845   4.009   1.792  16.364  0.4849 -0.4072 -0.2266
 5070SOL    HW126846   4.101   1.766  16.356 -0.0597 -2.1442 -0.7564
 5070SOL    HW226847   4.008   1.814  16.457 -2.1881 -1.4142 -0.0307
 5071SOL     OW26848   0.338   3.500  10.989 -0.6528  0.4415 -0.6415
 5071SOL    HW126849   0.303   3.431  10.932 -0.7514 -0.7125  0.8113
 5071SOL    HW226850   0.423   3.460  11.007 -2.0123 -1.4212  1.7011
 5072SOL     OW26851   0.687   1.381   0.204 -0.5442  0.0042  0.2359
 5072SOL    HW126852   0.723   1.302   0.243 -2.3387 -0.2501  1.3698
 5072SOL    HW226853   0.686   1.442   0.278  0.3917 -0.8586  0.9633
 5073SOL     OW26854   1.674   1.372   0.795  0.2555 -0.4280  0.2817
 5073SOL    HW126855   1.690   1.419   0.713  1.5507 -2.2328 -0.4939
 5073SOL    HW226856   1.669   1.449   0.852  2.2429  0.1296 -0.2965
 5074SOL     OW26857   3.177   4.422   1.921  0.5554 -0.4043 -0.2837
 5074SOL    HW126858   3.194   4.348   1.979  1.3614  1.7164  2.2251
 5074SOL    HW226859   3.177   4.382   1.835  5.2911  0.6775 -0.8069
 5075SOL     OW26860   1.037   3.194  10.302 -0.0741  0.7192  0.0372
 5075SOL    HW126861   1.042   3.232  10.214  0.3460 -0.4331 -0.4385
 5075SOL    HW226862   1.096   3.253  10.349 -1.5012  3.2954 -1.4147
 5076SOL     OW26863   2.776   3.416   4.136 -0.0603  0.6739 -0.2545
 5076SOL    HW126864   2.756   3.499   4.180  0.3654  0.0809  1.0649
 5076SOL    HW226865   2.758   3.439   4.045 -1.0241 -0.1441 -0.2761
 5077SOL     OW26866   3.442   1.621   3.145  0.0023 -0.1261  0.1969
 5077SOL    HW126867   3.382   1.548   3.128 -0.8953  0.2837  1.5921
 5077SOL    HW226868   3.478   1.616   3.233 -0.8825 -1.7088  0.4538
 5078SOL     OW26869   3.449   3.801  11.792 -0.1081  0.0799 -0.0560
 5078SOL    HW126870   3.487   3.783  11.878  0.1806  0.1772 -0.1623
 5078SOL    HW226871   3.524   3.779  11.736  1.3634  0.8399  1.6092
 5079SOL     OW26872   2.448   1.185  12.946  0.3625 -0.1746  0.3390
 5079SOL    HW126873   2.370   1.223  12.907  0.1727  0.3612  1.2295
 5079SOL    HW226874   2.423   1.189  13.039 -1.4888 -0.8182 -0.1297
 5080SOL     OW26875   0.106   4.244   2.063 -0.0221 -0.0799 -0.0050
 5080SOL    HW126876   0.119   4.231   1.969  0.4474 -2.0091  0.3207
 5080SOL    HW226877   0.177   4.197   2.108 -0.2398  2.4024  2.8734
 5081SOL     OW26878   3.254   0.715   5.839  0.2413  0.5630 -0.2730
 5081SOL    HW126879   3.347   0.692   5.837  0.5346  1.7319  0.7472
 5081SOL    HW226880   3.222   0.687   5.925 -1.6406  0.4711 -0.9929
 5082SOL     OW26881   4.476   1.690   2.011 -0.0376  0.2324 -0.2818
 5082SOL    HW126882   4.384   1.670   2.028 -0.0406  1.0231  0.6638
 5082SOL    HW226883   4.510   1.700   2.101 -2.0777  1.8360  0.3246
 5083SOL     OW26884   3.995   1.680   6.397  0.6862 -0.5953  0.0924
 5083SOL    HW126885   3.966   1.603   6.445  1.1706 -0.6397  0.3128
 5083SOL    HW226886   4.043   1.640   6.325  1.0487  0.8432 -0.4659
 5084SOL     OW26887   1.659   3.655  11.365 -0.0637  0.2420 -0.3885
 5084SOL    HW126888   1.679   3.731  11.419  3.3786 -0.3387 -0.8951
 5084SOL    HW226889   1.698   3.674  11.279 -0.3514 -0.2073 -0.6209
 5085SOL     OW26890   1.884   1.093   3.530  0.1324 -0.0625 -0.0126
 5085SOL    HW126891   1.900   1.173   3.581  0.5136  1.3801 -2.3685
 5085SOL    HW226892   1.910   1.125   3.443  2.7789 -0.1421  0.7466
 5086SOL     OW26893   4.177   3.789   6.189  0.1747  0.0127  0.3378
 5086SOL    HW126894   4.222   3.843   6.125  0.3925  0.2450  0.6870
 5086SOL    HW226895   4.149   3.718   6.131 -0.2068 -1.6088  2.4878
 5087SOL     OW26896   2.487   0.879   3.083 -0.2484  0.0784 -0.7949
 5087SOL    HW126897   2.437   0.841   3.011 -2.2117  2.3805 -0.6114
 5087SOL    HW226898   2.571   0.892   3.040 -0.3750  0.0697 -1.0452
 5088SOL     OW26899   4.062   1.638   7.044  0.2994  0.2776  0.2101
 5088SOL    HW126900   3.990   1.660   6.985  1.0316  1.3665 -0.2743
 5088SOL    HW226901   4.031   1.689   7.120  0.3270 -1.9469  1.7176
 5089SOL     OW26902   4.317   4.465  14.997  0.1987 -0.2409  0.2896
 5089SOL    HW126903   4.370   4.439  14.922  0.1815 -0.9479  0.5211
 5089SOL    HW226904   4.241   4.477  14.940 -0.5923  2.3724  1.8866
 5090SOL     OW26905   1.819   0.253   4.558  0.1987  0.3263 -0.0042
 5090SOL    HW126906   1.747   0.190   4.571  0.3885  0.2768  0.8348
 5090SOL    HW226907   1.801   0.284   4.470 -2.0783 -2.7951 -0.6689
 5091SOL     OW26908   1.670   3.348  10.101  0.6366  0.2293  0.2840
 5091SOL    HW126909   1.579   3.375  10.099  0.3769 -0.5144  2.2202
 5091SOL    HW226910   1.697   3.352  10.009 -3.0509 -3.1019 -0.8962
 5092SOL     OW26911   2.259   2.193  17.645 -0.3714 -0.0891  0.0482
 5092SOL    HW126912   2.307   2.121  17.605  1.1228 -0.1838  2.0200
 5092SOL    HW226913   2.203   2.135  17.697 -2.5452  0.5248 -1.6021
 5093SOL     OW26914   2.326   4.032   1.263 -0.1855  0.0916  0.0113
 5093SOL    HW126915   2.286   4.119   1.264 -2.3358 -0.8735 -1.2598
 5093SOL    HW226916   2.296   4.003   1.177 -0.2865  1.9893 -0.5766
 5094SOL     OW26917   4.571   3.843   0.742 -0.4831 -0.0362  0.4225
 5094SOL    HW126918   4.481   3.875   0.751 -1.3343 -1.9706 -1.2154
 5094SOL    HW226919   4.573   3.766   0.799 -0.2340 -0.4681 -0.1745
 5095SOL     OW26920   3.806   0.472   4.722 -0.0908  0.3102 -0.1587
 5095SOL    HW126921   3.720   0.468   4.679 -0.4060 -1.2511  0.5972
 5095SOL    HW226922   3.796   0.408   4.792  2.9900  0.0351  0.0233
 5096SOL     OW26923   3.426   4.529   2.947 -0.1539 -0.2488  0.6922
 5096SOL    HW126924   3.341   4.500   2.982 -0.7439  2.6629  1.6576
 5096SOL    HW226925   3.483   4.455   2.968 -0.0751  0.3454  2.5922
 5097SOL     OW26926   2.365   2.911   3.819 -0.3049 -0.1557  0.8801
 5097SOL    HW126927   2.339   2.880   3.732 -0.2925 -1.6228  1.3860
 5097SOL    HW226928   2.377   3.001   3.791  0.8110 -1.1518 -1.8678
 5098SOL     OW26929   4.048   1.903   2.070  0.2259  0.2448  0.0321
 5098SOL    HW126930   3.987   1.829   2.064 -0.5614  0.7221  2.3773
 5098SOL    HW226931   3.995   1.976   2.103 -0.5622 -0.5442  0.5144
 5099SOL     OW26932   0.455   2.646   2.937 -0.0114  0.0320 -0.3513
 5099SOL    HW126933   0.430   2.738   2.922  0.3515  0.4416  1.5338
 5099SOL    HW226934   0.440   2.643   3.031  0.2434  1.9338 -0.2441
 5100SOL     OW26935   0.727   3.147   6.676 -0.2292 -0.1841  0.2542
 5100SOL    HW126936   0.781   3.089   6.622  0.2307 -0.4414  0.9973
 5100SOL    HW226937   0.778   3.228   6.683 -1.9598  0.9305  0.0112
 5101SOL     OW26938   1.145   2.235   7.181 -0.0704  0.0060  0.7902
 5101SOL    HW126939   1.155   2.162   7.243  0.0599 -0.4413  0.2484
 5101SOL    HW226940   1.181   2.304   7.236 -2.3013 -0.2824  2.6351
 5102SOL     OW26941   4.392   0.946   7.747  0.3659 -0.1933  0.3178
 5102SOL    HW126942   4.466   0.932   7.688 -0.2801 -1.3888 -0.2009
 5102SOL    HW226943   4.415   1.006   7.818 -1.4996  0.2241  0.5763
 5103SOL     OW26944   0.363   4.592  17.154 -0.7033  0.1204 -0.8644
 5103SOL    HW126945   0.385   4.611  17.063 -1.8486 -0.9180 -1.3520
 5103SOL    HW226946   0.438   4.539  17.182  0.7505  2.1987 -0.8020
 5104SOL     OW26947   2.430   1.603   3.131  0.1586 -0.1307 -0.0619
 5104SOL    HW126948   2.371   1.536   3.164  2.0288 -1.2987  0.9341
 5104SOL    HW226949   2.513   1.557   3.119 -0.2163 -0.7903 -0.1387
 5105SOL     OW26950   4.633   1.668   2.231  0.4380  0.1558  0.2947
 5105SOL    HW126951   4.728   1.680   2.228  0.3486  0.3417 -1.6146
 5105SOL    HW226952   4.633   1.574   2.215  1.2775  0.7398 -3.0749
 5106SOL     OW26953   2.480   3.830   4.493  0.1800  0.1425 -0.0737
 5106SOL    HW126954   2.436   3.914   4.506  2.6279  1.2431  1.1180
 5106SOL    HW226955   2.403   3.775   4.478 -0.0451  0.3802  0.2066
 5107SOL     OW26956   4.131   1.323   3.774 -0.5052 -0.6283  0.4840
 5107SOL    HW126957   4.223   1.338   3.751 -0.9229  2.5455  0.8915
 5107SOL    HW226958   4.125   1.230   3.754 -2.3212 -0.1661 -1.0240
 5108SOL     OW26959   0.088   3.284   4.253 -0.5168 -0.4103 -0.2861
 5108SOL    HW126960   0.040   3.221   4.199  2.1691 -1.7076 -1.1381
 5108SOL    HW226961   0.100   3.359   4.195 -0.8087  0.0029  0.1865
 5109SOL     OW26962   4.313   0.943   2.948  0.0963  0.1379 -0.1559
 5109SOL    HW126963   4.389   0.986   2.986  0.4054 -1.2173  0.7536
 5109SOL    HW226964   4.243   1.007   2.961  0.9223  1.0605 -0.2270
 5110SOL     OW26965   0.024   1.546   8.582  0.5923  0.7150  0.6148
 5110SOL    HW126966   0.019   1.508   8.669 -0.3267 -2.7973 -0.9708
 5110SOL    HW226967   0.079   1.480   8.539 -0.3621  0.1055  0.3226
 5111SOL     OW26968   1.066   2.380  12.243  0.0531  0.4034 -0.0066
 5111SOL    HW126969   1.150   2.415  12.273  0.8126 -1.1122 -0.4165
 5111SOL    HW226970   1.032   2.348  12.327 -0.0090  1.5684  0.4263
 5112SOL     OW26971   2.458   0.758   8.478  0.3790  0.0131  0.1064
 5112SOL    HW126972   2.474   0.683   8.536  1.2918  0.1311  0.0139
 5112SOL    HW226973   2.543   0.798   8.496  0.8065 -0.9173  0.1514
 5113SOL     OW26974   3.044   2.907   5.464  0.1731  0.0731 -0.1322
 5113SOL    HW126975   3.000   2.825   5.486 -1.9779  0.5952 -2.4988
 5113SOL    HW226976   3.022   2.913   5.371  0.2747 -3.9918 -0.4349
 5114SOL     OW26977   0.132   1.861  11.043  0.0413  0.4629  0.3605
 5114SOL    HW126978   0.070   1.922  11.082 -0.5824 -0.0081  0.0939
 5114SOL    HW226979   0.192   1.914  10.990  2.0344 -0.4228  1.7193
 5115SOL     OW26980   1.454   1.614   2.249 -0.3790 -0.0346 -0.0438
 5115SOL    HW126981   1.512   1.589   2.320 -0.7142 -0.7935 -0.0418
 5115SOL    HW226982   1.516   1.663   2.193 -0.6929 -0.7263 -0.9964
 5116SOL     OW26983   2.670   2.962   3.683  0.3534 -0.5768  0.0879
 5116SOL    HW126984   2.610   3.029   3.715  0.5779  0.1342 -0.9745
 5116SOL    HW226985   2.755   3.000   3.704 -0.2325 -0.8071  2.8900
 5117SOL     OW26986   3.323   4.201   9.409 -0.1556  0.2813 -0.3194
 5117SOL    HW126987   3.262   4.136   9.445  0.8605 -2.0840 -2.8828
 5117SOL    HW226988   3.396   4.148   9.377 -2.4666 -2.8100 -0.4724
 5118SOL     OW26989   2.880   4.125   1.025 -0.5729  0.3467 -0.1492
 5118SOL    HW126990   2.869   4.200   0.967  3.3781  1.9019  1.0846
 5118SOL    HW226991   2.819   4.062   0.987 -0.0253 -0.4025  0.2123
 5119SOL     OW26992   4.534   2.150   6.969  0.4837 -0.3340  0.2010
 5119SOL    HW126993   4.533   2.098   7.050 -0.5674  1.5087  1.3709
 5119SOL    HW226994   4.607   2.207   6.990  0.1907 -0.5294  1.7475
 5120SOL     OW26995   4.083   2.013  11.705 -0.5274  0.4720  0.0828
 5120SOL    HW126996   4.102   1.948  11.638  0.3993  2.2778 -1.4202
 5120SOL    HW226997   4.043   1.961  11.774  0.2502 -1.8595 -1.2300
 5121SOL     OW26998   3.719   2.270   6.865  0.1361  0.2155 -0.0279
 5121SOL    HW126999   3.765   2.231   6.939  0.7783 -0.1379 -0.6129
 5121SOL    HW227000   3.793   2.306   6.817  1.5248 -1.5407  0.8044
 5122SOL     OW27001   2.620   2.698   0.881  0.9175 -0.2380 -0.0737
 5122SOL    HW127002   2.586   2.651   0.957 -0.0053  0.2208 -0.1967
 5122SOL    HW227003   2.611   2.630   0.814  0.8414 -1.3069  1.0251
 5123SOL     OW27004   2.528   4.697   4.442  0.0080 -0.0031  0.0166
 5123SOL    HW127005   2.494   0.036   4.491 -0.8086 -2.2680  2.9005
 5123SOL    HW227006   2.618   4.687   4.475  0.7454  0.8189 -1.6858
 5124SOL     OW27007   1.619   1.650  13.683 -0.0607 -0.0086 -0.5426
 5124SOL    HW127008   1.627   1.630  13.776  1.0543  0.9607 -0.4353
 5124SOL    HW227009   1.701   1.699  13.679  0.3559 -0.7108 -0.5870
 5125SOL     OW27010   4.251   3.104   4.131  0.0180  0.3264 -0.8197
 5125SOL    HW127011   4.343   3.087   4.153  0.3785  2.3280 -0.7849
 5125SOL    HW227012   4.248   3.084   4.037 -0.3526 -1.5625 -0.4220
 5126SOL     OW27013   3.149   2.194   7.184 -0.0610 -0.1775  0.2437
 5126SOL    HW127014   3.205   2.264   7.216  0.7905 -1.0325  0.6232
 5126SOL    HW227015   3.136   2.156   7.271  1.3986 -1.0284  0.0890
 5127SOL     OW27016   4.056   1.075   2.699 -0.1554  0.3574  0.1190
 5127SOL    HW127017   4.115   1.143   2.732 -0.0611 -0.4321  1.5511
 5127SOL    HW227018   4.121   1.020   2.655  0.5157 -0.8260  2.6211
 5128SOL     OW27019   4.261   1.762  11.013  0.1085  0.1312 -0.2581
 5128SOL    HW127020   4.254   1.694  11.079  1.8177  0.1841 -0.0270
 5128SOL    HW227021   4.257   1.700  10.940 -3.4589 -2.0980  1.8985
 5129SOL     OW27022   3.984   0.348  10.086  0.3191 -0.4448 -0.3560
 5129SOL    HW127023   4.066   0.339  10.134  0.7507 -0.8462 -1.1897
 5129SOL    HW227024   3.985   0.263  10.042 -2.3483 -1.8778  2.3121
 5130SOL     OW27025   4.571   0.206   4.700 -1.0330 -0.2743  0.4188
 5130SOL    HW127026   4.606   0.271   4.760  0.5197 -1.8698  1.2527
 5130SOL    HW227027   4.479   0.202   4.728 -0.6001  1.7777  2.0323
 5131SOL     OW27028   3.085   2.706   8.906  0.2446  0.3529 -0.2116
 5131SOL    HW127029   3.042   2.712   8.991  2.7686  1.5822  0.9827
 5131SOL    HW227030   3.105   2.799   8.896 -1.0198  0.6677  0.1724
 5132SOL     OW27031   2.029   1.926  16.556  0.1752  0.5246  1.0795
 5132SOL    HW127032   2.052   1.833  16.563  0.3808  0.4113 -0.9165
 5132SOL    HW227033   1.957   1.917  16.493 -0.6866  1.0552  1.9985
 5133SOL     OW27034   3.122   1.214   2.231  0.5499  0.1014  0.1819
 5133SOL    HW127035   3.169   1.154   2.289  0.4021 -1.1228 -0.9664
 5133SOL    HW227036   3.192   1.278   2.224  0.4133 -0.0247 -2.1110
 5134SOL     OW27037   1.551   2.520   1.769  0.5375 -0.0801 -0.3730
 5134SOL    HW127038   1.590   2.511   1.682  2.3963 -1.0820  0.5600
 5134SOL    HW227039   1.616   2.577   1.810  0.2283  0.7003 -0.9663
 5135SOL     OW27040   2.367   2.601   8.583 -0.2798  0.6299 -0.2727
 5135SOL    HW127041   2.414   2.635   8.659  0.0914  0.5674 -0.4760
 5135SOL    HW227042   2.388   2.507   8.578 -0.2276  0.5751  1.0158
 5136SOL     OW27043   4.388   3.158   8.686  0.0244 -0.1714 -0.1334
 5136SOL    HW127044   4.390   3.244   8.644 -1.5943  0.4723  1.1617
 5136SOL    HW227045   4.429   3.170   8.771 -1.7776 -0.4757  0.7664
 5137SOL     OW27046   4.664   2.185   0.220  0.0638  0.2343 -0.0308
 5137SOL    HW127047   4.701   2.244   0.286 -0.0735  0.5426 -0.2335
 5137SOL    HW227048   4.729   2.115   0.213 -0.9711 -0.9712  2.3794
 5138SOL     OW27049   4.100   1.570   4.206  0.0387  0.4869 -0.3056
 5138SOL    HW127050   4.065   1.521   4.131  1.0987 -2.6120  1.2494
 5138SOL    HW227051   4.194   1.563   4.195 -0.1582  0.7963 -2.3153
 5139SOL     OW27052   2.272   0.039   5.272  0.0442  0.0395 -0.1780
 5139SOL    HW127053   2.231   4.719   5.338 -2.0220  2.2027  0.3414
 5139SOL    HW227054   2.348   4.722   5.248 -0.1208 -0.2848  0.0062
 5140SOL     OW27055   2.949   0.284   1.434 -0.2687 -0.4434 -0.3628
 5140SOL    HW127056   2.916   0.336   1.508  1.0539  1.4755 -1.1303
 5140SOL    HW227057   2.960   0.199   1.476  2.1165 -0.7306 -1.5624
 5141SOL     OW27058   0.174   4.283  14.683 -0.6586  0.4756 -0.1407
 5141SOL    HW127059   0.232   4.287  14.607 -0.2718  0.9317  0.1806
 5141SOL    HW227060   0.152   4.190  14.683 -0.0491  0.3223 -1.7892
 5142SOL     OW27061   2.496   0.811  10.531  0.9683  0.2812  0.0254
 5142SOL    HW127062   2.445   0.821  10.451 -2.1949  1.0044  2.1538
 5142SOL    HW227063   2.504   0.903  10.554  3.3850  0.1209 -0.1910
 5143SOL     OW27064   2.499   3.310   6.936 -0.4975  0.0536 -0.3208
 5143SOL    HW127065   2.439   3.247   6.976  2.7292 -1.0203  2.8035
 5143SOL    HW227066   2.472   3.388   6.984  1.4758  0.7900 -0.4065
 5144SOL     OW27067   1.417   0.481   4.199 -0.4004  1.1633 -0.5538
 5144SOL    HW127068   1.467   0.530   4.264  1.2583  1.3201 -1.9762
 5144SOL    HW227069   1.330   0.489   4.240 -0.5124  2.8624 -1.1420
 5145SOL     OW27070   3.100   4.354  10.731 -0.1016 -0.3045  0.5532
 5145SOL    HW127071   3.120   4.373  10.823 -1.8686 -0.2667  0.9273
 5145SOL    HW227072   3.008   4.336  10.747 -0.4809  0.7605 -0.4536
 5146SOL     OW27073   4.088   1.590   5.038 -0.3027 -0.2997  0.6342
 5146SOL    HW127074   4.049   1.503   5.025  0.4888 -0.2299 -2.2783
 5146SOL    HW227075   4.021   1.619   5.100 -0.4956  0.8454 -0.1202
 5147SOL     OW27076   2.553   2.626  12.781  0.6877  1.1347  0.3781
 5147SOL    HW127077   2.460   2.626  12.804  1.3679 -1.4385  3.1111
 5147SOL    HW227078   2.539   2.685  12.707 -1.1864  0.7331  0.4106
 5148SOL     OW27079   3.800   3.530   4.524  0.3299  0.2737  0.0630
 5148SOL    HW127080   3.892   3.528   4.550 -0.0340  0.3171  1.3990
 5148SOL    HW227081   3.766   3.606   4.571  0.3852  0.6687 -0.5453
 5149SOL     OW27082   2.377   0.226   2.937 -0.4436 -0.4563  0.1544
 5149SOL    HW127083   2.301   0.282   2.953 -1.2412 -1.4755 -0.0981
 5149SOL    HW227084   2.394   0.246   2.845 -0.4550  1.0094  0.4730
 5150SOL     OW27085   1.440   1.986   3.635  0.1712  0.2289 -0.7834
 5150SOL    HW127086   1.385   2.057   3.671  0.8862  0.1820  0.3869
 5150SOL    HW227087   1.389   1.910   3.663  1.0792 -0.9170 -2.2770
 5151SOL     OW27088   1.498   3.090   2.793 -0.1137 -0.4541  0.2215
 5151SOL    HW127089   1.562   3.066   2.726 -0.5520 -0.8172 -0.0706
 5151SOL    HW227090   1.466   3.004   2.818  1.9053 -0.7336  1.8335
 5152SOL     OW27091   3.555   3.045   6.255  0.6128 -0.8153 -0.0686
 5152SOL    HW127092   3.545   3.091   6.338  2.3246 -0.1127 -0.2683
 5152SOL    HW227093   3.479   3.073   6.203  0.0488 -0.7687  0.7925
 5153SOL     OW27094   0.394   0.565   6.199 -0.0060  0.0143  0.3706
 5153SOL    HW127095   0.368   0.639   6.144  0.4346 -0.1553 -0.0675
 5153SOL    HW227096   0.459   0.603   6.257 -0.2238 -0.6974  1.0811
 5154SOL     OW27097   3.345   3.641   6.892  0.4396 -0.6083 -0.2384
 5154SOL    HW127098   3.385   3.561   6.926  0.3170 -1.3626 -1.8578
 5154SOL    HW227099   3.422   3.679   6.850 -0.4068  0.4299 -0.8358
 5155SOL     OW27100   4.709   4.207   2.286 -0.3400 -0.4939  0.1086
 5155SOL    HW127101   4.728   4.215   2.193 -2.7657 -0.9323 -0.4167
 5155SOL    HW227102   4.616   4.231   2.282 -0.5303 -1.0067  1.2400
 5156SOL     OW27103   2.843   0.110   2.552  0.6571 -0.9062  0.1366
 5156SOL    HW127104   2.810   0.079   2.468  0.3622 -1.5815  0.4987
 5156SOL    HW227105   2.894   0.180   2.513  0.8150 -0.7269  0.6653
 5157SOL     OW27106   1.542   3.011  16.408 -0.4315  0.4038  0.4627
 5157SOL    HW127107   1.468   2.989  16.352  0.6501  0.3003 -0.9148
 5157SOL    HW227108   1.535   3.107  16.412 -1.9012  0.2479  1.5219
 5158SOL     OW27109   2.769   3.604   5.486  1.0999 -0.1804 -0.3159
 5158SOL    HW127110   2.836   3.662   5.451  1.0993 -0.3742 -0.6420
 5158SOL    HW227111   2.693   3.657   5.462  1.7486  1.0163  0.2692
 5159SOL     OW27112   4.628   0.780   1.497  0.2985 -0.6105  0.0249
 5159SOL    HW127113   4.691   0.852   1.501 -1.8363  1.2185  0.6198
 5159SOL    HW227114   4.548   0.832   1.490  0.9314  0.3311 -0.2389
 5160SOL     OW27115   0.130   2.331  17.134  0.5475 -0.2820  0.3319
 5160SOL    HW127116   0.104   2.270  17.065  2.1689  0.8515 -1.2665
 5160SOL    HW227117   0.076   2.405  17.109  0.0161 -0.3805  1.1586
 5161SOL     OW27118   3.805   3.736   3.742  0.3546  0.2226 -0.2297
 5161SOL    HW127119   3.796   3.714   3.650 -0.4812 -0.1787 -0.0525
 5161SOL    HW227120   3.879   3.797   3.743 -0.0533  0.7510 -2.6393
 5162SOL     OW27121   2.184   1.861  17.565  0.1650  0.8413  0.1136
 5162SOL    HW127122   2.089   1.851  17.552  0.5148 -1.6682 -0.5139
 5162SOL    HW227123   2.190   1.826  17.654  0.5459  1.2229  0.2322
 5163SOL     OW27124   2.790   0.888   4.771  0.5421 -0.1983  0.0105
 5163SOL    HW127125   2.780   0.798   4.802 -0.8550  0.2838  0.9778
 5163SOL    HW227126   2.824   0.870   4.683 -1.4141  1.9938 -1.1899
 5164SOL     OW27127   1.347   0.533   3.931  0.0948  0.0885 -0.2388
 5164SOL    HW127128   1.273   0.479   3.960  1.5913 -1.1484  1.2745
 5164SOL    HW227129   1.402   0.522   4.009 -0.4180  0.2380  0.1457
 5165SOL     OW27130   0.547   2.335   6.879  0.0614  0.1298  0.4515
 5165SOL    HW127131   0.494   2.287   6.943 -0.7357 -0.9262 -0.9816
 5165SOL    HW227132   0.558   2.266   6.814  0.0214  0.5173  0.0302
 5166SOL     OW27133   0.366   4.695   1.701  0.1583 -0.2682  0.0582
 5166SOL    HW127134   0.322   4.641   1.766  1.2631  2.3274  2.9648
 5166SOL    HW227135   0.389   4.636   1.630  1.0380 -1.2335  1.1493
 5167SOL     OW27136   1.224   4.714   8.251 -0.7291 -0.0253 -0.1574
 5167SOL    HW127137   1.190   0.063   8.218  0.3864  0.1578 -0.8274
 5167SOL    HW227138   1.244   4.731   8.343 -2.1892  1.4742 -0.1040
 5168SOL     OW27139   2.257   1.190   1.641 -0.1047 -0.7151  0.8490
 5168SOL    HW127140   2.182   1.223   1.592  1.3288 -0.7984 -1.3693
 5168SOL    HW227141   2.284   1.116   1.587  1.5662  0.5117 -0.0009
 5169SOL     OW27142   4.322   1.481   3.415 -0.0720  0.0011 -0.5438
 5169SOL    HW127143   4.282   1.441   3.492  0.6222  2.4444  1.0985
 5169SOL    HW227144   4.313   1.573   3.438 -1.7050 -0.2615 -0.1219
 5170SOL     OW27145   0.850   4.258   4.051  0.1754 -0.4310  0.1416
 5170SOL    HW127146   0.890   4.329   4.101  0.9452 -0.1591 -0.8809
 5170SOL    HW227147   0.802   4.311   3.988  1.3204  1.0148  0.4957
 5171SOL     OW27148   2.297   2.786  10.177  0.3233 -0.6299  0.7698
 5171SOL    HW127149   2.221   2.843  10.165  1.3201  0.5852  0.2392
 5171SOL    HW227150   2.257   2.701  10.156  0.5328 -0.2484 -1.2445
 5172SOL     OW27151   1.640   4.437  15.767  0.1177 -0.4969 -0.4490
 5172SOL    HW127152   1.549   4.423  15.792 -0.9361  3.0458 -2.2689
 5172SOL    HW227153   1.678   4.356  15.801 -0.6747 -0.2888  0.9125
 5173SOL     OW27154   4.221   4.410  11.562  0.3716  0.0905  0.1781
 5173SOL    HW127155   4.261   4.435  11.478 -0.9412  1.2106 -0.1259
 5173SOL    HW227156   4.250   4.319  11.570  1.0582  0.2947 -0.0031
 5174SOL     OW27157   2.310   0.737   6.315 -0.6742 -0.1561 -0.1942
 5174SOL    HW127158   2.288   0.824   6.350  0.0371  0.5741 -1.5528
 5174SOL    HW227159   2.402   0.734   6.339 -1.4301 -4.0749  2.0968
 5175SOL     OW27160   2.173   1.893   1.575 -0.1917 -0.1913  0.5122
 5175SOL    HW127161   2.153   1.976   1.618  1.3733 -0.0984  1.0644
 5175SOL    HW227162   2.187   1.849   1.658  0.0603 -0.6690  0.2167
 5176SOL     OW27163   4.363   4.051   7.639  0.5428  0.0429 -0.1056
 5176SOL    HW127164   4.431   4.117   7.645  0.8721 -0.3230  0.1488
 5176SOL    HW227165   4.387   4.004   7.559  1.1447 -1.9669  1.2638
 5177SOL     OW27166   0.796   1.621   7.023 -0.5296  0.0565  0.1401
 5177SOL    HW127167   0.753   1.549   6.977 -1.2206 -0.6066  1.8468
 5177SOL    HW227168   0.862   1.640   6.956  2.3523 -0.2050  2.8808
 5178SOL     OW27169   0.330   2.256  13.686  0.1172  0.7744 -0.3752
 5178SOL    HW127170   0.307   2.164  13.671  0.2752  0.5173  1.0113
 5178SOL    HW227171   0.273   2.280  13.759 -0.1535  1.1739 -0.7169
 5179SOL     OW27172   0.615   1.026   6.290  0.3441  0.9244 -0.0687
 5179SOL    HW127173   0.660   1.101   6.328  0.9049 -0.7466  2.5293
 5179SOL    HW227174   0.689   0.967   6.293  0.4489  1.1389  1.7214
 5180SOL     OW27175   0.787   0.222   1.902  0.1530 -0.0904 -0.5027
 5180SOL    HW127176   0.741   0.169   1.967 -0.4139  0.1918 -0.6791
 5180SOL    HW227177   0.714   0.242   1.844 -0.6154 -1.4813 -0.0177
 5181SOL     OW27178   4.547   1.693   6.129 -0.1835  1.1076  1.1434
 5181SOL    HW127179   4.534   1.782   6.163  0.3734  1.8337 -0.5634
 5181SOL    HW227180   4.634   1.688   6.091  0.2992 -1.4080  2.5637
 5182SOL     OW27181   2.045   0.403   2.265  0.7217 -0.0688 -0.2653
 5182SOL    HW127182   1.963   0.448   2.287  1.3140  1.7662 -1.8258
 5182SOL    HW227183   2.084   0.467   2.205  1.3349  1.4107  1.7321
 5183SOL     OW27184   1.348   2.846   5.728  0.2601 -0.3281  0.1358
 5183SOL    HW127185   1.415   2.905   5.693 -0.4057  2.0308  2.8261
 5183SOL    HW227186   1.331   2.884   5.814 -0.5475 -1.1006  0.3168
 5184SOL     OW27187   1.425   1.349   9.013 -0.0717 -0.7842 -0.3388
 5184SOL    HW127188   1.482   1.390   9.077 -2.5082 -1.1757  2.0594
 5184SOL    HW227189   1.358   1.413   8.990 -1.6084 -1.7456  1.4291
 5185SOL     OW27190   2.914   3.726  14.011 -0.4916 -0.4472 -0.6521
 5185SOL    HW127191   2.961   3.674  14.076  3.8095  3.1398 -0.9275
 5185SOL    HW227192   2.900   3.661  13.941  3.0715 -1.2372 -0.6257
 5186SOL     OW27193   3.807   3.543   6.673  0.1412 -0.6567 -0.2794
 5186SOL    HW127194   3.883   3.546   6.731  1.4858 -0.3884 -2.0595
 5186SOL    HW227195   3.849   3.561   6.589 -2.6549 -0.5338 -1.6472
 5187SOL     OW27196   3.630   4.570   6.734 -0.0079 -0.0015 -0.2011
 5187SOL    HW127197   3.548   4.535   6.698 -0.0825  0.3427 -0.3609
 5187SOL    HW227198   3.636   4.649   6.682 -0.2172  0.3558  0.3093
 5188SOL     OW27199   1.157   3.793   2.323 -0.2732 -0.6244 -0.0721
 5188SOL    HW127200   1.191   3.878   2.294 -0.7975 -0.1949  0.5677
 5188SOL    HW227201   1.227   3.728   2.315 -0.9477 -1.5599  1.7192
 5189SOL     OW27202   0.431   3.415   2.547 -0.1115  0.3970 -0.5322
 5189SOL    HW127203   0.524   3.436   2.533 -0.5838  0.7256 -3.1748
 5189SOL    HW227204   0.426   3.396   2.641 -1.1402 -0.3372 -0.7385
 5190SOL     OW27205   3.786   1.957   4.558 -0.5863  0.3164 -0.1175
 5190SOL    HW127206   3.859   2.000   4.513  0.2496 -1.8409 -0.8438
 5190SOL    HW227207   3.751   2.019   4.621  0.2487 -0.6258  1.2696
 5191SOL     OW27208   2.135   2.538   1.876  0.5200  0.9604 -0.1617
 5191SOL    HW127209   2.073   2.473   1.909  2.3368 -1.3705 -1.3190
 5191SOL    HW227210   2.074   2.605   1.843 -3.4445 -3.1694 -1.2699
 5192SOL     OW27211   3.600   3.517   0.145  1.1620  0.0029 -0.0279
 5192SOL    HW127212   3.516   3.470   0.141 -1.0798  4.0686 -1.1093
 5192SOL    HW227213   3.577   3.592   0.090 -0.6549 -0.8872 -0.4876
 5193SOL     OW27214   2.528   3.155   3.769 -0.0642 -0.8537 -0.2822
 5193SOL    HW127215   2.501   3.182   3.857  0.3240 -0.6944 -0.2079
 5193SOL    HW227216   2.441   3.166   3.731  0.1132 -0.8343 -0.6820
 5194SOL     OW27217   0.630   1.660   9.176 -0.1237  0.1222  0.2610
 5194SOL    HW127218   0.676   1.579   9.155  0.6093  0.5538  0.1838
 5194SOL    HW227219   0.687   1.693   9.245  2.2113  0.5669 -1.8971
 5195SOL     OW27220   2.451   3.683   3.328 -0.6595  0.3054 -0.0571
 5195SOL    HW127221   2.517   3.620   3.298 -0.0681  0.8049  0.1984
 5195SOL    HW227222   2.443   3.733   3.247 -2.2110  2.6542  1.5303
 5196SOL     OW27223   0.624   2.438   0.971  0.5660  1.0387  0.1530
 5196SOL    HW127224   0.574   2.509   1.012 -0.7679  0.6362 -0.7854
 5196SOL    HW227225   0.584   2.361   1.013 -1.3499  0.8472 -2.0333
 5197SOL     OW27226   2.846   1.115   1.299  0.4021  0.8409 -0.0400
 5197SOL    HW127227   2.931   1.158   1.303  0.8535 -0.2373  1.7430
 5197SOL    HW227228   2.858   1.062   1.219 -1.0670  1.6001 -0.7595
 5198SOL     OW27229   4.454   0.791   6.947  0.4545 -0.1819 -0.0534
 5198SOL    HW127230   4.468   0.760   7.036 -1.9564  1.2657  0.8141
 5198SOL    HW227231   4.527   0.853   6.947  0.2615  0.0448 -0.0396
 5199SOL     OW27232   0.734   0.756   8.126  0.2551 -0.7563  0.2565
 5199SOL    HW127233   0.746   0.827   8.189  1.3315  0.4808 -1.3406
 5199SOL    HW227234   0.736   0.676   8.180 -0.2455  0.8503  2.6398
 5200SOL     OW27235   4.058   4.460  13.437  0.2287  0.0875  0.0241
 5200SOL    HW127236   4.067   4.377  13.482 -1.1008  0.3660  0.7929
 5200SOL    HW227237   3.994   4.502  13.495  1.2582  1.1922  0.3552
 5201SOL     OW27238   4.467   3.127   0.408  0.4569  0.4264  0.0467
 5201SOL    HW127239   4.563   3.122   0.413  0.4157 -0.0912  0.3939
 5201SOL    HW227240   4.435   3.038   0.395  1.0313  0.2492 -0.1923
 5202SOL     OW27241   3.938   3.652   2.707 -0.0355 -0.1004 -0.6616
 5202SOL    HW127242   3.944   3.608   2.792  1.4965  0.9014 -0.2608
 5202SOL    HW227243   4.025   3.645   2.668 -0.4396 -0.7405 -1.4525
 5203SOL     OW27244   0.896   2.390   5.894  0.4579 -0.4685  0.4648
 5203SOL    HW127245   0.930   2.421   5.978  1.8802 -0.5584 -0.0742
 5203SOL    HW227246   0.873   2.476   5.858  0.0264 -0.2658  1.2374
 5204SOL     OW27247   1.320   3.431   5.343 -0.0726 -0.0734 -0.1651
 5204SOL    HW127248   1.306   3.376   5.420  0.6562  0.5629  0.4160
 5204SOL    HW227249   1.231   3.454   5.314 -0.6835 -0.6284  1.2849
 5205SOL     OW27250   4.687   1.313   4.116 -0.3663  0.1375 -0.0704
 5205SOL    HW127251   4.636   1.323   4.196 -2.2374 -0.7324 -1.1616
 5205SOL    HW227252   0.008   1.238   4.133  0.4177  0.8480  0.4888
 5206SOL     OW27253   3.479   1.496   1.537 -0.1638  0.4267  0.7024
 5206SOL    HW127254   3.413   1.467   1.601  0.3190 -2.1320  0.0377
 5206SOL    HW227255   3.485   1.590   1.556  0.2501  0.7335 -0.9587
 5207SOL     OW27256   4.463   0.020  14.196 -0.3239 -0.7974 -0.3023
 5207SOL    HW127257   4.506   0.030  14.111 -0.4073  1.1392 -0.1010
 5207SOL    HW227258   4.398   0.086  14.172 -0.1317 -0.4274  0.1918
 5208SOL     OW27259   0.088   3.085  15.575  0.6585 -0.0868  0.5287
 5208SOL    HW127260   0.034   3.007  15.564  1.2037 -0.7444  2.6190
 5208SOL    HW227261   0.108   3.101  15.482 -0.2092 -0.5007  0.2751
 5209SOL     OW27262   1.782   2.342   3.256  0.5079  0.6055 -0.3363
 5209SOL    HW127263   1.694   2.322   3.288  0.1711 -0.9617 -2.2416
 5209SOL    HW227264   1.777   2.302   3.169 -0.6376  1.8780 -0.8616
 5210SOL     OW27265   1.479   3.969   7.612 -0.2302  0.2840  0.2737
 5210SOL    HW127266   1.455   4.025   7.538 -0.5633 -0.7647 -0.4245
 5210SOL    HW227267   1.558   4.013   7.644  1.2518 -0.9595 -1.6239
 5211SOL     OW27268   2.659   3.651   8.463 -0.2129 -0.1117  0.0437
 5211SOL    HW127269   2.598   3.722   8.482 -0.0679 -0.0404  0.2457
 5211SOL    HW227270   2.693   3.683   8.379 -0.9414 -0.3645 -0.3464
 5212SOL     OW27271   4.579   4.537   6.745 -0.3191  0.2399  0.0318
 5212SOL    HW127272   4.619   4.518   6.830  0.6979  3.4264  0.2659
 5212SOL    HW227273   4.572   4.446   6.713 -0.9747  1.1957 -2.5423
 5213SOL     OW27274   0.174   3.144  15.323  0.5093 -0.5008 -0.4468
 5213SOL    HW127275   0.262   3.171  15.296 -0.6695  1.0625 -2.7252
 5213SOL    HW227276   0.130   3.135  15.239  0.0569 -0.6934 -0.1883
 5214SOL     OW27277   1.309   0.315   0.966 -0.1605 -0.1461 -0.1496
 5214SOL    HW127278   1.342   0.275   1.047 -0.2567 -2.5273 -1.2692
 5214SOL    HW227279   1.372   0.386   0.960  0.1331 -0.5386 -1.6145
 5215SOL     OW27280   1.936   0.034   7.286 -0.2804 -0.5028  0.3185
 5215SOL    HW127281   2.029   0.047   7.304 -0.1876  0.6359 -0.9478
 5215SOL    HW227282   1.910   0.117   7.325  0.2712 -0.7377  1.1970
 5216SOL     OW27283   0.580   4.674  16.576 -0.0315  0.4770 -0.0909
 5216SOL    HW127284   0.523   4.598  16.584 -2.5454  2.2434 -1.2118
 5216SOL    HW227285   0.537   0.005  16.631 -2.0586 -0.5859 -0.3742
 5217SOL     OW27286   2.865   0.439   0.723 -0.0589 -0.9525 -0.1368
 5217SOL    HW127287   2.917   0.397   0.654 -0.5140 -0.4276 -0.7960
 5217SOL    HW227288   2.885   0.374   0.791 -1.1672  1.0127  2.0594
 5218SOL     OW27289   3.833   4.380   3.840 -0.1383 -0.7683  0.1658
 5218SOL    HW127290   3.818   4.301   3.788 -1.3361 -1.9032  2.2643
 5218SOL    HW227291   3.927   4.390   3.825 -0.4485  0.4915 -1.0074
 5219SOL     OW27292   2.304   4.582  10.288 -0.5133  0.3726 -0.6166
 5219SOL    HW127293   2.270   4.628  10.212  1.5907  0.3227 -1.5781
 5219SOL    HW227294   2.339   4.500  10.255 -0.0409  0.0531  0.6560
 5220SOL     OW27295   0.394   1.882   2.598 -0.3951 -0.6372 -0.9331
 5220SOL    HW127296   0.469   1.834   2.563  1.6637  1.4551  0.6043
 5220SOL    HW227297   0.330   1.810   2.597 -0.8722 -0.2476  1.3498
 5221SOL     OW27298   0.837   3.075   3.908 -0.2084  0.2173  0.0187
 5221SOL    HW127299   0.882   3.120   3.979 -1.1235 -1.1729  1.4778
 5221SOL    HW227300   0.780   3.017   3.959  1.1498 -0.3652  0.8803
 5222SOL     OW27301   0.086   0.288   9.797 -0.3807  0.2399 -0.7714
 5222SOL    HW127302   0.023   0.357   9.819  0.1422  0.8490 -1.1871
 5222SOL    HW227303   0.134   0.326   9.723 -0.6418  0.7994 -0.6484
 5223SOL     OW27304   3.484   3.109   8.668  0.1532 -0.3750 -0.5325
 5223SOL    HW127305   3.424   3.112   8.593 -1.5002 -2.0929  0.7240
 5223SOL    HW227306   3.545   3.178   8.643  1.3742 -0.9428  0.8578
 5224SOL     OW27307   2.539   3.731   0.873  0.5000  0.3965 -0.3325
 5224SOL    HW127308   2.497   3.706   0.791  0.8188 -2.3575  0.3223
 5224SOL    HW227309   2.543   3.641   0.907 -1.1001 -0.1792 -1.6492
 5225SOL     OW27310   3.423   2.520  11.781  0.0032 -1.0076 -0.3903
 5225SOL    HW127311   3.432   2.601  11.832  2.6380 -2.0884  0.8445
 5225SOL    HW227312   3.447   2.447  11.837  0.3123 -0.4576  0.1935
 5226SOL     OW27313   2.367   2.627   7.130 -0.1384  0.2971  0.2433
 5226SOL    HW127314   2.459   2.626   7.159  0.1331 -0.1166 -0.6336
 5226SOL    HW227315   2.325   2.673   7.202 -1.8755 -0.0654 -0.5406
 5227SOL     OW27316   0.581   2.350  12.727  0.1175  0.2216 -0.2501
 5227SOL    HW127317   0.620   2.429  12.689 -0.3610  0.5811  0.0121
 5227SOL    HW227318   0.636   2.327  12.801  1.6001  0.6680 -1.2173
 5228SOL     OW27319   1.894   0.156   3.631  0.2155 -0.3439 -0.2572
 5228SOL    HW127320   1.934   0.243   3.621  2.0227 -0.9206  1.9450
 5228SOL    HW227321   1.800   0.166   3.613  0.0197 -1.2943  0.2450
 5229SOL     OW27322   1.812   3.378   7.525  0.1936  0.2466 -0.2938
 5229SOL    HW127323   1.721   3.392   7.499 -0.7831 -0.3675  2.7925
 5229SOL    HW227324   1.844   3.468   7.532 -1.9141  0.9681  0.0828
 5230SOL     OW27325   0.294   1.550   4.025 -0.2899 -0.1063 -0.4257
 5230SOL    HW127326   0.208   1.567   3.987 -1.1464  1.9379  2.4455
 5230SOL    HW227327   0.341   1.527   3.945  1.4547 -1.2959  0.9426
 5231SOL     OW27328   1.850   0.308  16.118  0.0706 -0.3329 -0.6202
 5231SOL    HW127329   1.924   0.309  16.057 -0.6183 -2.1325 -1.4666
 5231SOL    HW227330   1.789   0.366  16.073  0.1895 -0.0665 -0.4397
 5232SOL     OW27331   0.900   4.045   3.049  0.3352  0.4737  0.2313
 5232SOL    HW127332   0.876   3.979   3.114  2.0125 -1.8005 -1.4531
 5232SOL    HW227333   0.961   4.094   3.104 -0.7502 -1.0388  2.8014
 5233SOL     OW27334   2.684   0.248  10.934  0.5571 -0.0429 -0.3450
 5233SOL    HW127335   2.641   0.255  11.019  1.0695 -0.1931 -0.0756
 5233SOL    HW227336   2.760   0.193  10.953  1.4535  1.5311  0.5731
 5234SOL     OW27337   4.089   0.976   5.979 -0.0152 -0.2193  0.4274
 5234SOL    HW127338   4.104   1.007   6.069 -1.6214  0.2273  0.5294
 5234SOL    HW227339   4.168   1.014   5.939 -0.8016  0.0739 -0.8261
 5235SOL     OW27340   1.568   4.313   4.112 -0.1021 -0.1959  0.4415
 5235SOL    HW127341   1.499   4.308   4.046  0.0868 -1.3553  0.3302
 5235SOL    HW227342   1.614   4.229   4.104  1.6699  0.8226  0.0691
 5236SOL     OW27343   4.147   4.606   6.895  0.5841 -0.3157 -0.0588
 5236SOL    HW127344   4.116   4.563   6.974  1.3452 -0.9508 -0.1025
 5236SOL    HW227345   4.070   4.609   6.838 -0.6410 -0.3639  1.5959
 5237SOL     OW27346   1.575   0.218  13.507  0.1761 -0.3732 -0.3226
 5237SOL    HW127347   1.661   0.218  13.547 -0.1925  1.7220  0.4472
 5237SOL    HW227348   1.549   0.128  13.528 -2.0442  0.6716  1.4266
 5238SOL     OW27349   2.905   1.738  17.593  0.2095 -0.3766 -0.5605
 5238SOL    HW127350   2.939   1.733  17.504 -1.5769  0.4578 -1.3065
 5238SOL    HW227351   2.985   1.780  17.624 -0.3527 -0.3243  0.8136
 5239SOL     OW27352   2.933   4.652   2.974 -0.3468 -0.9671 -0.3298
 5239SOL    HW127353   2.932   4.567   2.930 -0.0491 -0.3154 -1.5924
 5239SOL    HW227354   2.880   4.710   2.921  1.9586  1.0562 -0.4044
 5240SOL     OW27355   2.667   3.889   1.601  0.0463  0.9474 -0.0078
 5240SOL    HW127356   2.628   3.963   1.554 -1.2695 -0.7001 -1.4667
 5240SOL    HW227357   2.756   3.891   1.566  0.8082 -3.3362  1.7157
 5241SOL     OW27358   2.040   3.480  12.524  0.3405  0.2659 -0.0254
 5241SOL    HW127359   2.060   3.390  12.495  0.3477  0.5102 -0.7784
 5241SOL    HW227360   2.114   3.507  12.578  0.1064 -2.5538  1.6878
 5242SOL     OW27361   1.945   0.136   1.379  0.2494 -0.8686  0.3515
 5242SOL    HW127362   1.922   0.074   1.310  1.0991 -0.8630  0.0669
 5242SOL    HW227363   2.016   0.087   1.419 -1.1011 -2.1109  1.2370
 5243SOL     OW27364   3.405   3.146  15.372 -0.2675 -0.1634  0.5967
 5243SOL    HW127365   3.404   3.085  15.298 -0.1445  0.2435  0.2588
 5243SOL    HW227366   3.337   3.212  15.359  0.8171  1.0722  1.2761
 5244SOL     OW27367   4.245   1.986   3.993  0.5030  0.2516 -0.1217
 5244SOL    HW127368   4.302   1.919   3.956  0.1160 -0.2941  0.2835
 5244SOL    HW227369   4.170   1.926   3.995  0.7299 -0.0526 -0.8001
 5245SOL     OW27370   1.333   1.133   1.497  0.6263 -0.2602  0.1166
 5245SOL    HW127371   1.370   1.063   1.443 -0.6458 -1.7243  1.1541
 5245SOL    HW227372   1.405   1.148   1.558  0.6725 -0.5415  0.1307
 5246SOL     OW27373   4.291   2.858   6.536  0.1084  0.8374 -0.2871
 5246SOL    HW127374   4.273   2.791   6.470 -1.4279  2.1197 -1.1627
 5246SOL    HW227375   4.211   2.906   6.517 -1.2646 -2.4655 -2.7360
 5247SOL     OW27376   4.161   0.982   6.255  0.3474 -0.1467  0.0597
 5247SOL    HW127377   4.236   1.040   6.264  0.2831 -0.6447  3.7566
 5247SOL    HW227378   4.116   1.011   6.335  0.9904  2.6874 -0.6097
 5248SOL     OW27379   2.881   4.003   3.449  0.6118  0.8467  0.3502
 5248SOL    HW127380   2.786   4.016   3.444  0.4881 -0.7782 -1.6983
 5248SOL    HW227381   2.888   3.908   3.460  1.9452  0.9318  0.2320
 5249SOL     OW27382   0.143   0.400   3.150 -0.0650  0.4387 -0.3720
 5249SOL    HW127383   0.054   0.372   3.172 -0.1229  1.9483  1.2885
 5249SOL    HW227384   0.197   0.322   3.136 -1.8548 -0.4482 -2.2268
 5250SOL     OW27385   2.974   1.426   3.677  0.4518  0.4793  0.0045
 5250SOL    HW127386   2.882   1.450   3.687  0.2796  0.7329 -2.1381
 5250SOL    HW227387   2.990   1.389   3.764  1.7541  1.0443  0.0004
 5251SOL     OW27388   0.087   3.539   7.960  0.1446 -0.6076 -0.0728
 5251SOL    HW127389   0.128   3.603   8.018  1.0005 -0.3049 -1.0122
 5251SOL    HW227390   0.048   3.477   8.022 -3.5074  0.6371 -1.1112
 5252SOL     OW27391   0.318   0.097  13.589 -0.1925  0.5916 -0.3230
 5252SOL    HW127392   0.342   0.007  13.568  1.0533  0.7532  0.4281
 5252SOL    HW227393   0.409   0.125  13.599  0.5013 -0.5758 -3.5077
 5253SOL     OW27394   3.737   1.344  17.158 -0.4365 -0.0995 -0.3067
 5253SOL    HW127395   3.754   1.261  17.203 -1.8826 -0.7107 -0.9012
 5253SOL    HW227396   3.757   1.314  17.069  1.5488 -0.3765  0.2373
 5254SOL     OW27397   0.820   2.439   1.456  0.1478 -0.0721 -0.4557
 5254SOL    HW127398   0.824   2.374   1.386 -0.5675  0.6104 -1.1375
 5254SOL    HW227399   0.908   2.450   1.492 -0.1861 -1.4394  0.8021
 5255SOL     OW27400   0.815   2.232   6.457 -0.2485 -0.4935 -0.0302
 5255SOL    HW127401   0.819   2.228   6.361  0.3809  3.9143 -0.1738
 5255SOL    HW227402   0.898   2.276   6.476  1.3754 -2.7083 -1.9170
 5256SOL     OW27403   1.077   1.037  14.883 -0.0769  0.0587  0.2727
 5256SOL    HW127404   1.087   0.942  14.876 -0.3165 -0.0760  1.8136
 5256SOL    HW227405   1.161   1.064  14.920 -0.7883  2.8659 -0.1977
 5257SOL     OW27406   4.731   0.338  10.469 -0.5202  0.3630 -0.1408
 5257SOL    HW127407   0.083   0.376  10.464 -0.2842 -0.2406 -0.6525
 5257SOL    HW227408   4.728   0.317  10.563 -2.0033 -0.1222 -0.2900
 5258SOL     OW27409   1.824   4.682  11.667 -0.5681  0.0221  0.0825
 5258SOL    HW127410   1.810   0.025  11.613  2.1032 -0.1301 -0.8326
 5258SOL    HW227411   1.760   4.697  11.737 -1.7689 -1.7697 -0.6361
 5259SOL     OW27412   3.895   1.509  12.653  0.5123  0.2099  0.2053
 5259SOL    HW127413   3.944   1.521  12.571 -1.7390 -0.6424 -1.2514
 5259SOL    HW227414   3.875   1.416  12.647  0.3485  0.4082 -2.2407
 5260SOL     OW27415   3.063   3.690   7.367  0.3424 -0.1503 -0.0091
 5260SOL    HW127416   2.974   3.663   7.388  0.7660 -0.6225  1.2241
 5260SOL    HW227417   3.054   3.785   7.366 -2.2911 -0.4128 -0.7386
 5261SOL     OW27418   4.211   2.116   2.938 -0.0239  0.3708 -0.3219
 5261SOL    HW127419   4.228   2.172   2.862  0.9680  0.5522  0.0385
 5261SOL    HW227420   4.133   2.077   2.898 -0.9323 -0.2277  2.0031
 5262SOL     OW27421   0.412   3.150   5.238  0.2071  0.2214  0.4081
 5262SOL    HW127422   0.346   3.201   5.191 -0.5354 -1.8014 -0.7370
 5262SOL    HW227423   0.436   3.096   5.163  0.2283 -0.4174  0.8716
 5263SOL     OW27424   2.247   0.943  15.546 -0.3072 -0.1185  0.6395
 5263SOL    HW127425   2.293   0.958  15.464  0.9748 -2.1747  0.9793
 5263SOL    HW227426   2.218   1.032  15.568 -0.6838  0.4043 -1.9814
 5264SOL     OW27427   0.119   0.885   5.072  0.4002 -0.1129  0.2738
 5264SOL    HW127428   0.084   0.858   4.988 -0.7279  0.5109  0.5499
 5264SOL    HW227429   0.212   0.884   5.048  1.1514  0.8909  3.0709
 5265SOL     OW27430   4.710   0.174   2.127  0.0374  0.0361  0.3778
 5265SOL    HW127431   4.639   0.153   2.188 -0.0128  1.1171  0.7000
 5265SOL    HW227432   0.050   0.171   2.186 -1.1353 -0.1002  1.8652
 5266SOL     OW27433   4.041   1.608   7.482 -0.4263  0.2446  0.5273
 5266SOL    HW127434   4.120   1.584   7.529 -1.0614  1.0440  2.0312
 5266SOL    HW227435   3.992   1.637   7.559 -1.2019  1.1203 -0.2852
 5267SOL     OW27436   3.420   2.575   2.309 -0.2548  0.0917  0.3956
 5267SOL    HW127437   3.361   2.617   2.371  0.7826  1.1751  0.6491
 5267SOL    HW227438   3.358   2.518   2.264  1.5204 -0.0338 -1.9465
 5268SOL     OW27439   2.949   2.076   3.134  0.6297 -0.1733 -0.3073
 5268SOL    HW127440   2.965   1.988   3.167  1.0761  0.5742  1.4357
 5268SOL    HW227441   2.995   2.124   3.203 -0.9495  1.7601 -0.5940
 5269SOL     OW27442   4.559   0.593   3.526  0.0660  0.1804  0.6967
 5269SOL    HW127443   4.588   0.671   3.573  0.4102  1.4888 -1.6979
 5269SOL    HW227444   4.463   0.598   3.528 -0.1458 -2.2009 -2.1689
 5270SOL     OW27445   3.293   1.041   4.260 -0.0645  0.7532  0.6012
 5270SOL    HW127446   3.227   1.105   4.288 -0.7720  0.2397  0.1219
 5270SOL    HW227447   3.256   0.956   4.285 -1.1209  0.0910 -3.2096
 5271SOL     OW27448   4.064   2.761   3.030  0.5549  0.8993 -0.1635
 5271SOL    HW127449   4.051   2.666   3.020  0.9091  0.6400  1.8975
 5271SOL    HW227450   4.145   2.746   3.079 -1.6906 -1.7712  2.7333
 5272SOL     OW27451   2.171   1.905   5.940  0.0576  0.4029  0.0354
 5272SOL    HW127452   2.148   1.894   5.847  0.8942  4.8062 -0.6641
 5272SOL    HW227453   2.241   1.971   5.938 -1.4298  1.9661 -0.0238
 5273SOL     OW27454   3.305   3.824   3.969  0.2552  0.0465  0.0574
 5273SOL    HW127455   3.355   3.902   3.945 -0.8283  1.3845  2.2194
 5273SOL    HW227456   3.339   3.803   4.056 -1.4714 -1.1107  0.4497
 5274SOL     OW27457   4.373   1.312   2.081 -0.1793 -0.2349  0.2595
 5274SOL    HW127458   4.350   1.230   2.125 -1.3381 -0.8666 -1.5167
 5274SOL    HW227459   4.284   1.341   2.060  0.0544  0.6252  0.4777
 5275SOL     OW27460   0.348   2.177  16.977 -0.1571 -0.2612 -0.2521
 5275SOL    HW127461   0.441   2.166  16.999 -0.5819 -0.0346  1.6107
 5275SOL    HW227462   0.336   2.267  17.006 -0.6387 -0.1433 -0.8282
 5276SOL     OW27463   3.238   1.103   8.014 -0.1368  0.4398 -0.0538
 5276SOL    HW127464   3.220   1.190   8.047  1.2687  0.2726  1.1615
 5276SOL    HW227465   3.194   1.102   7.929 -0.1141 -0.4770 -0.0582
 5277SOL     OW27466   1.541   2.855   3.857 -0.0838 -0.1472  0.1868
 5277SOL    HW127467   1.631   2.830   3.837  0.1775  0.8639  0.0969
 5277SOL    HW227468   1.516   2.899   3.776 -1.2762  0.0300  0.6514
 5278SOL     OW27469   4.411   2.808   4.468 -0.3262  0.3054  0.3379
 5278SOL    HW127470   4.321   2.840   4.459 -0.5030  0.4191  2.3871
 5278SOL    HW227471   4.448   2.823   4.381 -2.2668 -1.4215 -0.7733
 5279SOL     OW27472   2.330   3.522   0.538 -0.5155 -0.0717 -0.3086
 5279SOL    HW127473   2.387   3.599   0.548 -0.1621 -0.5172  1.1159
 5279SOL    HW227474   2.337   3.480   0.624 -0.0606  1.1322  0.2549
 5280SOL     OW27475   3.051   2.415  11.862  0.0452  0.8516  0.1655
 5280SOL    HW127476   3.008   2.396  11.778  0.8378  2.8006 -0.6668
 5280SOL    HW227477   3.098   2.332  11.872 -0.1898  0.8125  0.9315
 5281SOL     OW27478   0.140   4.509   5.231 -0.1276 -0.2083  0.4932
 5281SOL    HW127479   0.087   4.487   5.308 -1.5632 -0.8478 -0.6684
 5281SOL    HW227480   0.229   4.487   5.257  0.5668  0.1565 -1.5757
 5282SOL     OW27481   0.447   4.584  16.898  0.3110 -0.2710  0.0012
 5282SOL    HW127482   0.414   4.660  16.850 -1.3169 -1.4129 -0.6737
 5282SOL    HW227483   0.410   4.511  16.848 -2.6114  1.6188 -0.5775
 5283SOL     OW27484   2.776   0.390   6.830 -0.2082  0.1378  0.1444
 5283SOL    HW127485   2.815   0.306   6.856 -0.7252 -0.0051  0.4445
 5283SOL    HW227486   2.813   0.400   6.742 -2.5184 -4.0969 -1.3179
 5284SOL     OW27487   4.016   3.224   2.331  0.4688  0.7048 -0.5262
 5284SOL    HW127488   4.089   3.260   2.381  0.1270  2.1510 -1.0780
 5284SOL    HW227489   3.941   3.265   2.373 -0.7595 -1.0955 -0.9600
 5285SOL     OW27490   2.635   0.204  11.475 -0.3025  0.1420 -0.1718
 5285SOL    HW127491   2.729   0.185  11.465  0.0931  1.1111  1.8357
 5285SOL    HW227492   2.643   0.294  11.505  0.5728  0.4476 -1.3220
 5286SOL     OW27493   2.224   0.561   2.111 -0.0554  0.7855  0.1571
 5286SOL    HW127494   2.276   0.621   2.165  1.2181  0.6593 -0.9414
 5286SOL    HW227495   2.282   0.557   2.035 -0.8828  0.4016 -0.4431
 5287SOL     OW27496   2.312   2.802   6.880 -0.1233 -0.7827 -0.3223
 5287SOL    HW127497   2.347   2.757   6.957  0.8165  0.7138  0.1157
 5287SOL    HW227498   2.392   2.822   6.830 -0.1355  0.3684  0.1449
 5288SOL     OW27499   2.999   3.754  15.982  0.5053  0.2878 -0.0113
 5288SOL    HW127500   2.912   3.760  16.021  0.6408 -1.5233  0.5820
 5288SOL    HW227501   3.044   3.800  16.052 -1.7292 -0.2567  1.7875
 5289SOL     OW27502   4.260   3.634   0.057 -0.0245  0.7621  0.4965
 5289SOL    HW127503   4.305   3.580  17.732 -1.5297  1.3853 -1.0482
 5289SOL    HW227504   4.176   3.641   0.012  0.1946 -0.3617 -0.1164
 5290SOL     OW27505   2.406   1.290   6.792 -0.5611 -0.1599 -0.1610
 5290SOL    HW127506   2.342   1.356   6.817  2.4939  1.8620  2.3644
 5290SOL    HW227507   2.493   1.325   6.814 -0.6909  0.7262 -1.0715
 5291SOL     OW27508   4.041   2.481  16.859 -0.6575  0.4742  0.0331
 5291SOL    HW127509   4.031   2.508  16.768 -1.1102 -0.2126 -0.1202
 5291SOL    HW227510   3.967   2.421  16.861 -0.5402  0.3224 -0.1276
 5292SOL     OW27511   0.172   4.667   3.999  0.0717 -0.2238 -0.7182
 5292SOL    HW127512   0.193   4.728   3.928  1.0365  0.6601  0.3356
 5292SOL    HW227513   0.246   4.605   3.999  0.4699  0.2560  0.5103
 5293SOL     OW27514   1.157   0.362   9.330 -0.2546  0.1604  0.8850
 5293SOL    HW127515   1.212   0.437   9.353 -1.5206  1.4790 -0.3915
 5293SOL    HW227516   1.222   0.303   9.292 -1.4260 -0.2708 -0.4397
 5294SOL     OW27517   0.535   3.493   3.005  0.3385 -0.0324  0.7742
 5294SOL    HW127518   0.523   3.547   3.083 -0.1141 -1.9658  2.0387
 5294SOL    HW227519   0.630   3.479   2.995  0.0946 -0.1414 -1.3980
 5295SOL     OW27520   2.380   1.325   8.901 -0.0903 -0.4630 -0.1675
 5295SOL    HW127521   2.449   1.276   8.857 -0.3313 -1.6064  0.6859
 5295SOL    HW227522   2.310   1.259   8.906 -0.6537  0.0939 -0.7137
 5296SOL     OW27523   2.859   1.579   5.134 -0.2571 -0.2636  0.0455
 5296SOL    HW127524   2.833   1.487   5.134 -1.2125  0.0134 -0.2791
 5296SOL    HW227525   2.789   1.622   5.085 -0.9167  0.1155  1.3340
 5297SOL     OW27526   0.032   0.768  16.848  0.1274  0.4022 -0.4371
 5297SOL    HW127527   0.001   0.695  16.902  1.7068  1.6450  2.1273
 5297SOL    HW227528   0.113   0.780  16.896  0.1577  0.0891 -0.4069
 5298SOL     OW27529   4.194   3.624   2.620 -0.1745 -0.0382 -0.1867
 5298SOL    HW127530   4.196   3.672   2.538 -1.0613 -1.5011 -1.0623
 5298SOL    HW227531   4.280   3.650   2.655  0.2397  1.0205 -2.0244
 5299SOL     OW27532   3.142   1.269  10.553  0.1660  0.1765  0.0452
 5299SOL    HW127533   3.227   1.281  10.509 -0.0580 -2.9118 -1.2447
 5299SOL    HW227534   3.117   1.184  10.518  0.9049 -0.2377  0.5120
 5300SOL     OW27535   0.150   0.087   5.492 -0.6045  0.1770 -0.7788
 5300SOL    HW127536   0.231   0.136   5.506  0.1507 -1.2253 -0.2717
 5300SOL    HW227537   0.139   0.090   5.397  2.6582 -0.4030 -1.1454
 5301SOL     OW27538   4.158   3.277   2.783  0.4868 -0.6525 -0.2502
 5301SOL    HW127539   4.107   3.333   2.841 -1.3066 -0.4599 -2.0043
 5301SOL    HW227540   4.154   3.191   2.824 -1.3273 -0.1321  0.6290
 5302SOL     OW27541   1.417   0.107   0.793 -0.0347 -0.9612  0.1702
 5302SOL    HW127542   1.374   0.032   0.835 -0.5383 -1.5009 -1.2941
 5302SOL    HW227543   1.361   0.182   0.813 -0.8706 -1.4258 -0.3828
 5303SOL     OW27544   4.161   2.759   6.832 -0.0127 -0.1702 -0.0379
 5303SOL    HW127545   4.136   2.850   6.816  0.9772  0.0007 -0.6023
 5303SOL    HW227546   4.257   2.767   6.829 -0.0828  0.9976  0.8486
 5304SOL     OW27547   1.257   2.557   6.212  0.2927  0.2387 -0.4935
 5304SOL    HW127548   1.245   2.566   6.307  0.1733  1.5472 -0.6322
 5304SOL    HW227549   1.310   2.477   6.219  0.7880  0.1966 -4.6973
 5305SOL     OW27550   0.758   4.144   8.648 -0.0651 -0.5618  0.4721
 5305SOL    HW127551   0.740   4.236   8.628  0.5269 -0.6478 -0.4546
 5305SOL    HW227552   0.837   4.125   8.597 -0.5978 -2.0617  0.2117
 5306SOL     OW27553   2.128   2.577   3.531 -0.1713 -0.2328 -0.0703
 5306SOL    HW127554   2.135   2.563   3.625  1.7531 -3.1084 -0.6443
 5306SOL    HW227555   2.079   2.499   3.502 -0.2109  0.1053 -0.9155
 5307SOL     OW27556   0.415   4.431   5.288  0.4973 -0.6948  0.3999
 5307SOL    HW127557   0.439   4.350   5.244  2.0681  0.1803 -0.3255
 5307SOL    HW227558   0.508   4.450   5.298  0.5306 -1.0244  0.7417
 5308SOL     OW27559   3.988   0.498   2.050 -0.3170 -0.6359  0.8524
 5308SOL    HW127560   4.076   0.520   2.081 -0.2762  0.4561 -0.0556
 5308SOL    HW227561   3.990   0.404   2.070 -0.8965 -0.6244  0.9782
 5309SOL     OW27562   0.449   3.481  11.395  0.4971 -0.0910  0.2459
 5309SOL    HW127563   0.358   3.464  11.419  0.5951 -1.1575 -0.1308
 5309SOL    HW227564   0.458   3.576  11.403 -0.3188 -0.0971  1.2464
 5310SOL     OW27565   3.142   1.289   8.334 -0.2173  0.1651  0.3846
 5310SOL    HW127566   3.197   1.368   8.339 -0.9731  0.7905 -1.2904
 5310SOL    HW227567   3.068   1.311   8.391  0.2020  1.7857  0.3115
 5311SOL     OW27568   4.472   0.933   4.075  0.1342  0.0467  0.7273
 5311SOL    HW127569   4.389   0.976   4.093  0.2317 -0.5571  2.6446
 5311SOL    HW227570   4.437   0.846   4.094  0.0941  0.2203  1.4462
 5312SOL     OW27571   3.930   4.492  10.679 -0.3697  0.2290 -0.6501
 5312SOL    HW127572   3.883   4.556  10.626 -2.7355  1.1317  2.5632
 5312SOL    HW227573   3.869   4.484  10.752  0.1485  0.5588 -0.1814
 5313SOL     OW27574   1.622   0.583   3.915  0.4201 -0.6678 -0.0347
 5313SOL    HW127575   1.528   0.581   3.897  0.0831 -1.7082  1.8751
 5313SOL    HW227576   1.646   0.653   3.853  0.9952 -0.6914  0.1597
 5314SOL     OW27577   4.515   3.082   1.560  0.0552 -0.1460  0.5880
 5314SOL    HW127578   4.591   3.087   1.502  0.4013  1.5439  1.1926
 5314SOL    HW227579   4.557   3.037   1.633 -0.3140 -0.3992  0.6428
 5315SOL     OW27580   2.866   3.442   5.102 -0.2659 -0.2448 -0.5876
 5315SOL    HW127581   2.779   3.417   5.133 -1.8003  4.1736 -1.4147
 5315SOL    HW227582   2.879   3.524   5.149  1.0857 -2.8964  3.6507
 5316SOL     OW27583   2.073   2.421   6.019 -0.3035 -0.5194  0.0255
 5316SOL    HW127584   2.042   2.337   6.054 -1.6874  0.7779  1.9538
 5316SOL    HW227585   2.162   2.412   6.052 -0.6107  2.1047  1.6226
 5317SOL     OW27586   4.105   4.465   5.530 -0.1141 -0.0646 -0.0073
 5317SOL    HW127587   4.155   4.525   5.475 -2.0714 -0.0362 -1.7710
 5317SOL    HW227588   4.068   4.529   5.590 -0.5586 -0.6933  0.3845
 5318SOL     OW27589   0.391   2.012  11.205  0.1822 -0.4478 -0.1097
 5318SOL    HW127590   0.344   2.038  11.126  0.5413 -3.5659 -1.3725
 5318SOL    HW227591   0.471   1.978  11.165  0.8490  1.6069 -0.4955
 5319SOL     OW27592   2.502   2.661   7.423 -0.3857  0.4041  0.0677
 5319SOL    HW127593   2.532   2.604   7.494  2.1017  2.2394  0.5175
 5319SOL    HW227594   2.561   2.644   7.349 -1.6195  1.0707 -1.0782
 5320SOL     OW27595   3.656   4.299  13.615  0.1662  0.3371 -0.5918
 5320SOL    HW127596   3.704   4.265  13.540 -2.7318  0.7844 -2.6800
 5320SOL    HW227597   3.716   4.271  13.684 -0.1985  1.0017  0.0037
 5321SOL     OW27598   4.727   2.232   0.718  0.0295 -0.4108  0.0078
 5321SOL    HW127599   4.666   2.303   0.697  0.0327 -0.3054  0.3507
 5321SOL    HW227600   0.076   2.272   0.697  0.6873 -1.7948  0.0035
 5322SOL     OW27601   1.316   1.531   2.667  0.0755 -0.4100  0.0417
 5322SOL    HW127602   1.403   1.556   2.637  0.4021 -1.2925  0.2472
 5322SOL    HW227603   1.336   1.506   2.757  1.9044  0.0526 -0.2451
 5323SOL     OW27604   3.839   3.426  11.261 -0.5656 -0.1535  0.0884
 5323SOL    HW127605   3.854   3.359  11.195  0.6036  0.4809 -0.2793
 5323SOL    HW227606   3.920   3.418  11.311  0.3297  0.5020 -1.2585
 5324SOL     OW27607   3.652   0.504   4.277  0.2262  0.1767 -0.2211
 5324SOL    HW127608   3.630   0.576   4.218 -0.6149 -1.5727 -1.9985
 5324SOL    HW227609   3.635   0.557   4.356  1.1549  1.0625 -0.6243
 5325SOL     OW27610   1.777   3.186   4.860 -0.0390  0.0756  0.7329
 5325SOL    HW127611   1.791   3.169   4.767  1.0387  1.1041  0.7018
 5325SOL    HW227612   1.817   3.272   4.868 -0.8680  0.4638  0.7483
 5326SOL     OW27613   2.825   1.091   8.057  0.1624  0.0286  0.4922
 5326SOL    HW127614   2.841   1.175   8.016 -1.4278 -0.1532 -0.5199
 5326SOL    HW227615   2.872   1.025   8.006  0.1320  1.3395 -1.1973
 5327SOL     OW27616   0.534   1.223  13.699  0.0751  0.2500  0.1864
 5327SOL    HW127617   0.512   1.240  13.791  1.7527 -1.2511  0.8595
 5327SOL    HW227618   0.566   1.133  13.705  1.3257  0.7337  0.6948
 5328SOL     OW27619   0.936   4.556  14.606  0.0909  0.5323 -0.1226
 5328SOL    HW127620   0.975   4.492  14.666  1.0003  0.4765 -0.7649
 5328SOL    HW227621   0.946   4.631  14.664  1.6957  0.1416  0.1024
 5329SOL     OW27622   0.956   4.297   7.609 -0.3145  0.0413  0.4832
 5329SOL    HW127623   0.915   4.225   7.561 -0.3546  0.0906  0.4446
 5329SOL    HW227624   0.880   4.354   7.619  0.8504  1.8222 -0.8520
 5330SOL     OW27625   2.843   1.360   0.254  0.0128  0.1610  0.6231
 5330SOL    HW127626   2.842   1.448   0.291  2.5855 -0.4212  2.0311
 5330SOL    HW227627   2.791   1.309   0.316  1.5256 -1.6888  0.3458
 5331SOL     OW27628   2.883   0.478  16.521  0.0490 -0.6280 -0.2072
 5331SOL    HW127629   2.810   0.448  16.466  0.8924 -0.1351 -1.5975
 5331SOL    HW227630   2.848   0.458  16.608 -0.2558 -3.2861 -0.9370
 5332SOL     OW27631   0.012   0.884   6.171  0.0119 -0.2492 -0.0667
 5332SOL    HW127632   4.712   0.914   6.088 -2.3772 -0.9977  0.6911
 5332SOL    HW227633   0.028   0.971   6.209  0.1044 -0.2826 -0.0270
 5333SOL     OW27634   4.205   1.259  15.578  0.1152  0.3267 -0.1819
 5333SOL    HW127635   4.138   1.250  15.645 -0.9054 -0.3331 -1.2959
 5333SOL    HW227636   4.203   1.354  15.575 -2.0360  0.2129 -2.2571
 5334SOL     OW27637   2.520   2.068   2.158  0.3801  0.1217  0.2431
 5334SOL    HW127638   2.456   2.083   2.228 -2.3803 -1.2754 -1.9781
 5334SOL    HW227639   2.563   1.983   2.173  1.3760  0.9486  2.0851
 5335SOL     OW27640   3.781   1.509   7.164  1.0856  0.1440 -1.0060
 5335SOL    HW127641   3.792   1.422   7.124 -0.6268 -0.0129 -1.1449
 5335SOL    HW227642   3.853   1.507   7.227 -0.6589  1.1077  1.0035
 5336SOL     OW27643   4.537   2.018   7.594  0.2510 -0.1172 -0.0471
 5336SOL    HW127644   4.630   2.004   7.575  1.1882  1.5894  3.2660
 5336SOL    HW227645   4.535   1.976   7.680 -0.9136  0.8616  0.4112
 5337SOL     OW27646   2.964   1.948   3.848 -0.5033 -0.3815 -0.1730
 5337SOL    HW127647   3.056   1.966   3.828  0.0006 -0.4973  2.0181
 5337SOL    HW227648   2.934   2.029   3.889 -0.0446  0.1821 -0.9445
 5338SOL     OW27649   1.143   1.284   2.703 -1.1202 -0.3280  0.1220
 5338SOL    HW127650   1.220   1.340   2.695  0.6712 -3.3626 -3.7517
 5338SOL    HW227651   1.178   1.218   2.643  1.5983  0.2533  1.0778
 5339SOL     OW27652   2.917   2.381   7.133 -0.5055 -0.0060 -0.0520
 5339SOL    HW127653   2.933   2.426   7.216 -0.5851  0.4483 -0.2824
 5339SOL    HW227654   2.867   2.310   7.174  1.2108 -0.8937  0.4619
 5340SOL     OW27655   3.019   1.055   7.780 -0.0602  0.1473 -0.1487
 5340SOL    HW127656   3.066   0.973   7.767 -0.4327 -0.5650  2.8841
 5340SOL    HW227657   2.928   1.041   7.754 -0.5242  0.5412  1.2630
 5341SOL     OW27658   4.033   2.467   9.261  0.0399  0.2582 -0.4504
 5341SOL    HW127659   4.104   2.490   9.321  1.5412 -0.9010 -1.7845
 5341SOL    HW227660   4.047   2.373   9.248  0.0392  0.7921 -4.2169
 5342SOL     OW27661   2.910   0.797   8.641 -0.4594  0.1004 -0.3198
 5342SOL    HW127662   2.905   0.724   8.702 -1.7187  1.2169  0.8866
 5342SOL    HW227663   2.974   0.856   8.679  0.8055  0.0143 -2.2801
 5343SOL     OW27664   1.860   4.075  12.124 -0.1755  0.2176 -0.4145
 5343SOL    HW127665   1.850   4.020  12.202 -0.1129 -2.0618 -2.0092
 5343SOL    HW227666   1.835   4.162  12.157 -0.2748  0.3855 -0.9410
 5344SOL     OW27667   3.458   1.924   8.525 -0.0346  0.0876  0.3384
 5344SOL    HW127668   3.402   1.888   8.595 -0.0374  1.3209  0.9631
 5344SOL    HW227669   3.495   1.990   8.583 -0.9428 -1.1580  2.3476
 5345SOL     OW27670   3.407   1.186   8.290  0.3390  0.1869 -0.4371
 5345SOL    HW127671   3.405   1.099   8.330  0.0272  0.8058  0.8930
 5345SOL    HW227672   3.318   1.216   8.305  0.4252  1.3149 -2.1521
 5346SOL     OW27673   0.279   3.314   6.232 -0.4482 -0.0049  0.2920
 5346SOL    HW127674   0.252   3.360   6.153 -0.3814 -0.6987 -0.1330
 5346SOL    HW227675   0.326   3.240   6.195 -1.1108 -0.4094  0.2602
 5347SOL     OW27676   0.595   4.449   8.583 -0.1147  1.2701 -0.3509
 5347SOL    HW127677   0.590   4.467   8.489 -1.2604  0.4785 -0.4429
 5347SOL    HW227678   0.503   4.467   8.601 -0.3744 -0.7423  0.3667
 5348SOL     OW27679   4.413   1.078   4.747 -0.0903 -0.2419  0.0165
 5348SOL    HW127680   4.363   1.047   4.672 -0.3643 -1.1125  0.5579
 5348SOL    HW227681   4.464   1.153   4.717  0.0825 -0.8701 -1.2550
 5349SOL     OW27682   1.491   3.030   6.736  1.0109 -0.0400 -0.0914
 5349SOL    HW127683   1.563   3.046   6.797  1.2493  1.1161 -0.6626
 5349SOL    HW227684   1.432   2.981   6.793  2.1379 -2.1392 -0.7494
 5350SOL     OW27685   0.297   0.651  17.212 -0.8700 -0.1952 -0.4660
 5350SOL    HW127686   0.271   0.732  17.168 -1.7773  0.5750  1.4872
 5350SOL    HW227687   0.274   0.586  17.145  2.3489 -2.4730  0.6144
 5351SOL     OW27688   1.555   3.401   5.192  0.0161  0.2635  0.9205
 5351SOL    HW127689   1.475   3.404   5.244  0.5384 -0.2113  1.7477
 5351SOL    HW227690   1.532   3.378   5.102  1.0382 -0.2646  0.7998
 5352SOL     OW27691   2.609   0.199   4.195  0.7239 -0.2142 -0.2734
 5352SOL    HW127692   2.675   0.190   4.264  0.1225  0.8584  0.4515
 5352SOL    HW227693   2.652   0.172   4.115 -1.9657 -3.2580 -0.7137
 5353SOL     OW27694   2.430   2.502   3.274  0.2642  0.2688  0.2051
 5353SOL    HW127695   2.362   2.529   3.213  1.2263 -0.1655 -1.0468
 5353SOL    HW227696   2.462   2.426   3.227  1.0140  1.0832 -0.6165
 5354SOL     OW27697   0.693   1.029   2.161 -0.2271  0.0353  0.0418
 5354SOL    HW127698   0.781   1.022   2.198  0.7387 -0.0722 -2.2637
 5354SOL    HW227699   0.701   1.094   2.091  2.3110 -1.3377 -0.9366
 5355SOL     OW27700   2.044   2.646   5.113 -0.7701 -0.2918 -0.1953
 5355SOL    HW127701   2.033   2.560   5.154 -0.6108  0.5869  1.7158
 5355SOL    HW227702   2.084   2.617   5.031  2.5469  0.7648  1.0357
 5356SOL     OW27703   0.440   1.393   6.858  0.2036  0.3485  0.6225
 5356SOL    HW127704   0.374   1.365   6.921  1.4268 -1.6079  1.0245
 5356SOL    HW227705   0.382   1.381   6.782 -0.4959  1.1002  1.0348
 5357SOL     OW27706   0.252   3.784   5.940  0.6353 -0.3948 -0.2323
 5357SOL    HW127707   0.209   3.863   5.906  1.4117  0.2847  0.3772
 5357SOL    HW227708   0.339   3.792   5.902 -1.0738  1.5021 -3.7578
 5358SOL     OW27709   0.755   2.719  14.085 -0.4233  0.3873 -0.2190
 5358SOL    HW127710   0.787   2.632  14.062  0.9599  0.1144  2.7051
 5358SOL    HW227711   0.667   2.709  14.121 -0.3530 -1.4175 -0.5392
 5359SOL     OW27712   3.116   1.088  12.203  0.5106  0.1910 -0.7421
 5359SOL    HW127713   3.047   1.089  12.137  1.0335  1.1704 -1.2809
 5359SOL    HW227714   3.062   1.097  12.281  0.4132 -0.5159 -0.7293
 5360SOL     OW27715   1.347   4.026   8.830  0.1942  0.9157 -0.8048
 5360SOL    HW127716   1.402   3.982   8.765  0.6553 -0.7918  0.7657
 5360SOL    HW227717   1.398   4.104   8.853  1.5473 -1.0141  2.7396
 5361SOL     OW27718   4.309   0.647   3.593 -0.4089  0.3073  0.4503
 5361SOL    HW127719   4.252   0.619   3.664 -0.1535 -1.1606  0.0800
 5361SOL    HW227720   4.285   0.739   3.597 -0.8000  0.1650  1.4251
 5362SOL     OW27721   3.591   1.048   6.966  0.0344  0.5627 -0.2783
 5362SOL    HW127722   3.550   0.964   6.985 -3.0802  2.0467 -0.3953
 5362SOL    HW227723   3.523   1.115   6.975 -1.2584 -0.9683  1.2311
 5363SOL     OW27724   2.714   1.660   5.966 -0.1396  0.6742 -0.0274
 5363SOL    HW127725   2.748   1.596   5.904  0.1029  0.3331  0.4493
 5363SOL    HW227726   2.648   1.711   5.920  1.2960  0.7569 -1.9766
 5364SOL     OW27727   3.757   3.117  11.508 -0.3644  0.2435 -0.6462
 5364SOL    HW127728   3.799   3.117  11.422  1.5188  0.0979  0.2706
 5364SOL    HW227729   3.687   3.182  11.508  0.6240  1.3063 -0.7679
 5365SOL     OW27730   3.741   0.120   5.687 -0.3098  0.3484  0.4386
 5365SOL    HW127731   3.825   0.086   5.657 -0.3275  0.9043 -0.2312
 5365SOL    HW227732   3.750   0.115   5.782  0.1943  1.6377  0.4613
 5366SOL     OW27733   4.019   3.121   3.158  0.1792 -0.4267  0.1883
 5366SOL    HW127734   3.977   3.171   3.228 -1.0269  1.4920 -1.8866
 5366SOL    HW227735   4.108   3.156   3.157 -0.6766  1.6671 -1.1776
 5367SOL     OW27736   2.201   2.155  13.866 -0.2114 -0.0788  0.4324
 5367SOL    HW127737   2.149   2.235  13.870  1.1439  0.8083  0.4487
 5367SOL    HW227738   2.143   2.105  13.809  2.7461 -1.1485 -1.6078
 5368SOL     OW27739   1.838   3.157   6.511  0.5503  0.0400 -0.3043
 5368SOL    HW127740   1.872   3.089   6.569 -1.0306 -2.6794 -2.5597
 5368SOL    HW227741   1.798   3.219   6.572  0.0896  1.6343 -2.2511
 5369SOL     OW27742   2.879   0.240   6.104  0.2985 -0.0907 -0.5839
 5369SOL    HW127743   2.813   0.288   6.153 -1.0304 -0.1972 -2.2776
 5369SOL    HW227744   2.913   0.300   6.038  0.1683  1.4338  0.7286
 5370SOL     OW27745   2.464   3.313  10.111  0.6065 -0.1788  0.0666
 5370SOL    HW127746   2.404   3.263  10.055 -1.1866  2.1161 -0.0901
 5370SOL    HW227747   2.456   3.404  10.083 -1.9732 -0.1651  0.7949
 5371SOL     OW27748   3.217   1.890   0.895  0.5632  0.1827  0.5019
 5371SOL    HW127749   3.232   1.805   0.936 -1.9128  0.2083  1.4427
 5371SOL    HW227750   3.303   1.924   0.872 -0.0718  2.6158  1.7406
 5372SOL     OW27751   1.231   2.451   8.357 -0.0921  0.1755  0.0775
 5372SOL    HW127752   1.318   2.417   8.338 -1.7474 -3.1187 -1.5071
 5372SOL    HW227753   1.191   2.447   8.270  1.0332 -0.7767 -0.3855
 5373SOL     OW27754   3.656   1.070   0.595 -0.1491 -0.0393  0.0211
 5373SOL    HW127755   3.565   1.051   0.615 -0.4596 -1.5643 -2.8099
 5373SOL    HW227756   3.633   1.130   0.524  0.9206  1.2152  0.7361
 5374SOL     OW27757   1.045   1.312   8.983 -0.7138  0.3732 -0.0430
 5374SOL    HW127758   1.024   1.326   9.076  2.8095 -1.4097  1.0258
 5374SOL    HW227759   1.137   1.335   8.973 -0.5138 -0.2882  0.2734
 5375SOL     OW27760   3.643   1.464  11.325  0.3587  0.5378 -0.2284
 5375SOL    HW127761   3.594   1.426  11.252  0.7440  0.8280 -0.6414
 5375SOL    HW227762   3.726   1.424  11.301  0.4151  0.3263  0.3093
 5376SOL     OW27763   2.058   3.946   5.595 -0.0419  0.1755  0.1830
 5376SOL    HW127764   2.118   4.000   5.542  1.5658 -1.1935  0.6024
 5376SOL    HW227765   2.029   3.887   5.525  0.7433 -0.2035  0.1775
 5377SOL     OW27766   1.445   0.512   2.164  0.0653 -0.1023 -0.4722
 5377SOL    HW127767   1.441   0.423   2.128 -1.5233  0.3702 -1.4462
 5377SOL    HW227768   1.473   0.541   2.077 -1.0427  0.4556 -0.6429
 5378SOL     OW27769   3.250   2.661   4.089 -0.0581 -0.1607  0.6065
 5378SOL    HW127770   3.310   2.599   4.130  0.1229 -0.1184  0.4041
 5378SOL    HW227771   3.216   2.705   4.167 -0.9620  0.7490 -0.3017
 5379SOL     OW27772   1.448   1.927   1.176  0.0757  0.2089 -0.1256
 5379SOL    HW127773   1.531   1.904   1.134 -0.1356 -2.9621  1.2062
 5379SOL    HW227774   1.446   2.019   1.150 -0.8899  0.3368  0.4007
 5380SOL     OW27775   0.188   2.044  16.279 -0.3034  0.1114 -0.1351
 5380SOL    HW127776   0.251   2.110  16.309  1.1584 -0.5712 -1.7048
 5380SOL    HW227777   0.132   2.085  16.213  2.4400  1.1018 -1.8389
 5381SOL     OW27778   1.993   2.643  15.929  0.9080 -0.3312 -0.1183
 5381SOL    HW127779   1.909   2.597  15.929 -0.1949  1.5981  4.0797
 5381SOL    HW227780   1.965   2.712  15.989 -0.6712 -1.2273  0.1801
 5382SOL     OW27781   0.339   1.909   6.392 -0.3618  0.4758  0.1339
 5382SOL    HW127782   0.278   1.935   6.460  0.2104 -0.7571  1.1155
 5382SOL    HW227783   0.418   1.958   6.414  0.2320 -0.6324  0.5046
 5383SOL     OW27784   2.029   1.913  14.701 -0.0606 -0.9183 -0.4731
 5383SOL    HW127785   2.005   1.891  14.791  1.1894  1.1200  0.3314
 5383SOL    HW227786   2.073   1.829  14.687  0.3535 -0.7941  0.1212
 5384SOL     OW27787   1.853   2.432  13.210  0.3833  0.0460 -0.3865
 5384SOL    HW127788   1.858   2.341  13.238 -2.6701 -0.1554 -0.4075
 5384SOL    HW227789   1.759   2.454  13.213  0.2017 -0.9460  0.9308
 5385SOL     OW27790   2.643   0.629   7.427  0.6432 -0.1167  0.1643
 5385SOL    HW127791   2.643   0.720   7.456 -2.7091 -0.0553  0.0269
 5385SOL    HW227792   2.676   0.631   7.337  0.8013 -0.6287  0.2113
 5386SOL     OW27793   3.043   3.569  14.178  0.0288  0.2046  0.3571
 5386SOL    HW127794   3.131   3.532  14.175 -1.2573 -2.7663 -1.1789
 5386SOL    HW227795   3.020   3.551  14.269  0.8563  1.4845  0.8213
 5387SOL     OW27796   3.154   0.685   1.486  0.0506 -0.0810  0.2460
 5387SOL    HW127797   3.073   0.688   1.435 -0.9885  2.2729  2.0092
 5387SOL    HW227798   3.169   0.591   1.478  0.7967 -0.1356  2.3154
 5388SOL     OW27799   2.565   2.024   5.644  0.3003 -0.7376  0.1153
 5388SOL    HW127800   2.598   2.032   5.555 -0.8977 -0.3697 -0.2869
 5388SOL    HW227801   2.477   2.061   5.642  0.4863 -0.1975  1.7058
 5389SOL     OW27802   4.419   2.331   9.997 -0.5854  0.0873  0.3841
 5389SOL    HW127803   4.355   2.270   9.962  0.2201  0.3626 -1.5634
 5389SOL    HW227804   4.359   2.379  10.055  1.3852  2.1257  0.7755
 5390SOL     OW27805   1.535   4.726   5.156  0.1800  0.0694  0.3647
 5390SOL    HW127806   1.492   0.065   5.113 -1.6939 -0.5383  1.1779
 5390SOL    HW227807   1.561   0.030   5.239 -2.0638  2.4129 -0.0449
 5391SOL     OW27808   4.554   1.920  15.252  0.0773 -0.7132 -0.6108
 5391SOL    HW127809   4.539   1.899  15.344  2.0574 -0.2084 -0.1642
 5391SOL    HW227810   4.505   1.857  15.200 -1.4670 -0.0285  0.0108
 5392SOL     OW27811   2.167   1.906   7.806  0.2214 -0.5672 -0.3032
 5392SOL    HW127812   2.144   1.989   7.847  0.3208 -0.5851 -0.2119
 5392SOL    HW227813   2.183   1.847   7.880 -1.9380  0.5937  1.0899
 5393SOL     OW27814   3.286   0.858   1.833 -0.5468 -0.2916  0.1034
 5393SOL    HW127815   3.350   0.791   1.854  0.0259  0.5441  1.0208
 5393SOL    HW227816   3.323   0.895   1.752 -0.0446  1.0879  0.9632
 5394SOL     OW27817   3.059   4.053   4.900  0.2175  0.1351 -0.2808
 5394SOL    HW127818   3.063   4.100   4.983 -0.4415  2.6893 -1.6912
 5394SOL    HW227819   3.026   3.972   4.939  0.5017 -0.2000 -0.7417
 5395SOL     OW27820   0.740   1.016   7.787 -0.1293 -0.1092  0.1344
 5395SOL    HW127821   0.719   1.000   7.695  2.0947 -4.3609  0.3680
 5395SOL    HW227822   0.651   1.010   7.821 -1.0145  0.3148 -2.1351
 5396SOL     OW27823   0.106   3.115   4.023 -0.1066  0.7516  0.0790
 5396SOL    HW127824   0.120   3.125   3.929  0.0278 -1.0293 -0.0913
 5396SOL    HW227825   0.184   3.063   4.044  0.3865  1.4938  0.0661
 5397SOL     OW27826   2.399   3.082   7.080 -0.1730  0.2921 -0.5845
 5397SOL    HW127827   2.333   3.125   7.134  0.5038  1.8488 -0.9936
 5397SOL    HW227828   2.343   3.027   7.025 -1.0472  1.7480 -1.1409
 5398SOL     OW27829   2.028   1.177   3.294 -0.7669 -0.1972 -0.2928
 5398SOL    HW127830   2.097   1.112   3.311 -0.9814 -0.7228 -1.3834
 5398SOL    HW227831   2.047   1.195   3.202  0.7139  0.3134  0.1104
 5399SOL     OW27832   2.182   2.379  11.166  0.7079 -0.0448  0.0560
 5399SOL    HW127833   2.158   2.471  11.156 -1.5435 -0.6040  0.2851
 5399SOL    HW227834   2.108   2.349  11.218 -0.5657  1.4960 -0.8389
 5400SOL     OW27835   4.437   4.024  10.884  0.4604  0.5585  0.7679
 5400SOL    HW127836   4.389   3.956  10.932  2.0121  0.0536  1.5884
 5400SOL    HW227837   4.522   3.984  10.865  0.4443  0.7489  0.3123
 5401SOL     OW27838   2.124   3.387  16.415 -0.3855 -0.0339 -0.0777
 5401SOL    HW127839   2.035   3.396  16.380 -0.2632 -2.3779 -1.0058
 5401SOL    HW227840   2.170   3.370  16.333  1.6000 -0.5772  1.1548
 5402SOL     OW27841   1.344   1.953  13.176  0.1679 -0.0714 -0.3168
 5402SOL    HW127842   1.303   1.894  13.240  0.7771  0.5790  0.6674
 5402SOL    HW227843   1.354   1.905  13.094 -0.7306 -1.1041  0.1726
 5403SOL     OW27844   2.179   2.765   7.289  0.3882 -0.6078 -0.3616
 5403SOL    HW127845   2.142   2.839   7.337  2.8929  2.9626 -3.9340
 5403SOL    HW227846   2.132   2.764   7.206  0.1375 -3.7795 -0.1488
 5404SOL     OW27847   3.006   0.282   4.011  0.0510 -0.6385 -0.3931
 5404SOL    HW127848   2.973   0.310   3.925 -0.7840  0.5644  0.3205
 5404SOL    HW227849   3.082   0.340   4.011  0.1258 -0.7354 -0.3859
 5405SOL     OW27850   0.595   2.836  13.360 -0.3504 -0.1934  0.0043
 5405SOL    HW127851   0.511   2.815  13.320 -1.3988  0.8677  1.6290
 5405SOL    HW227852   0.636   2.888  13.291  2.0864 -3.9246 -1.3252
 5406SOL     OW27853   4.448   4.341  14.147 -0.8596  0.0878 -0.4662
 5406SOL    HW127854   4.441   4.246  14.146 -1.4000  0.1538 -3.1128
 5406SOL    HW227855   4.541   4.337  14.168 -1.5086  1.3746  2.7000
 5407SOL     OW27856   3.205   1.741  10.535  0.2540  0.0835 -0.6392
 5407SOL    HW127857   3.234   1.798  10.463 -0.1387  1.6462  0.4368
 5407SOL    HW227858   3.178   1.664  10.485  1.3364 -1.0772  0.5510
 5408SOL     OW27859   2.191   3.658  11.313 -0.1364 -0.0201 -0.4653
 5408SOL    HW127860   2.169   3.566  11.305 -0.8161  0.1410 -0.4271
 5408SOL    HW227861   2.265   3.658  11.251  0.1224  0.4842 -0.1585
 5409SOL     OW27862   1.115   0.999  11.658  0.0506 -0.2008 -0.0034
 5409SOL    HW127863   1.083   0.947  11.732  1.8651  0.4042  1.1838
 5409SOL    HW227864   1.209   0.985  11.670 -0.1669  0.2165  2.2013
 5410SOL     OW27865   2.420   3.174   3.188  0.4765 -0.6481 -0.5811
 5410SOL    HW127866   2.383   3.261   3.204 -0.5859 -1.3318  0.5965
 5410SOL    HW227867   2.485   3.169   3.258  0.1748 -2.4928 -0.4434
 5411SOL     OW27868   3.717   1.268   1.109 -0.5562  0.3954  0.0233
 5411SOL    HW127869   3.692   1.282   1.018  2.1641 -1.0726 -0.9254
 5411SOL    HW227870   3.634   1.297   1.148 -0.7339 -0.7461  0.5033
 5412SOL     OW27871   0.792   1.204   0.758  0.1378 -0.3787  0.1823
 5412SOL    HW127872   0.847   1.261   0.704  1.5886  0.1923  2.2863
 5412SOL    HW227873   0.722   1.194   0.692 -0.3073  1.1475  0.4026
 5413SOL     OW27874   0.094   0.744   1.760 -0.8754  0.3253  0.4331
 5413SOL    HW127875   0.043   0.705   1.689 -0.4014  1.0600 -0.3152
 5413SOL    HW227876   0.150   0.669   1.779  0.7462  1.2921 -0.4589
 5414SOL     OW27877   2.964   2.051   0.455  0.3475  0.2926  0.4832
 5414SOL    HW127878   3.041   2.022   0.503  0.5399 -2.1257 -1.3032
 5414SOL    HW227879   2.898   2.026   0.519  0.8723  1.6013  1.5174
 5415SOL     OW27880   0.423   0.865   7.024  0.4043  0.0485 -0.5705
 5415SOL    HW127881   0.485   0.807   6.979 -0.2808  0.4362 -2.0333
 5415SOL    HW227882   0.436   0.949   6.981 -0.6054  1.0175  1.0422
 5416SOL     OW27883   1.392   3.671  12.831  0.4760  0.5985 -0.2440
 5416SOL    HW127884   1.392   3.614  12.907 -2.3089 -1.1653 -1.5638
 5416SOL    HW227885   1.457   3.628  12.775  0.4031 -1.2961  1.1370
 5417SOL     OW27886   3.571   4.219   6.598 -0.5216  0.1894 -0.1238
 5417SOL    HW127887   3.531   4.291   6.647 -2.0039 -0.4800 -0.3636
 5417SOL    HW227888   3.547   4.141   6.650  1.3340  0.2721  0.8794
 5418SOL     OW27889   3.041   0.379  12.354  0.0713 -0.2410  0.6042
 5418SOL    HW127890   3.078   0.290  12.349 -0.6368 -0.3363 -2.9473
 5418SOL    HW227891   2.964   0.376  12.410  0.1690  2.0206  0.8327
 5419SOL     OW27892   3.642   4.294   5.431  0.5179 -0.5710 -0.1141
 5419SOL    HW127893   3.668   4.250   5.350 -1.6675 -1.6659 -0.2257
 5419SOL    HW227894   3.600   4.221   5.477 -1.6369  1.0844  0.5627
 5420SOL     OW27895   0.882   0.116   6.513 -0.5117 -0.4744 -0.5635
 5420SOL    HW127896   0.866   0.150   6.425 -0.5333 -0.3092 -0.4944
 5420SOL    HW227897   0.831   0.172   6.571 -1.6975 -0.7200 -1.3781
 5421SOL     OW27898   4.328   4.370  17.195  0.3012 -0.2605  0.0530
 5421SOL    HW127899   4.333   4.382  17.290 -0.4803  1.3636 -0.1053
 5421SOL    HW227900   4.422   4.378  17.176  0.2064 -0.8264 -0.6408
 5422SOL     OW27901   3.401   3.481  16.298 -0.5478 -0.0739 -0.2105
 5422SOL    HW127902   3.472   3.418  16.285 -1.1102  0.0110 -3.6468
 5422SOL    HW227903   3.443   3.567  16.298 -0.3972 -0.1500 -1.0033
 5423SOL     OW27904   1.364   4.318   7.077  0.3887  0.0952 -0.1835
 5423SOL    HW127905   1.326   4.322   7.164  1.3271  2.0778  0.1380
 5423SOL    HW227906   1.387   4.410   7.064  0.9523  0.1815  1.4876
 5424SOL     OW27907   3.437   1.973   2.917  0.0916  0.1138  0.3329
 5424SOL    HW127908   3.509   1.944   2.861 -0.1921 -0.7758  0.4219
 5424SOL    HW227909   3.489   2.030   2.973  0.2200  0.5838 -0.2556
 5425SOL     OW27910   3.046   3.753   2.027  0.5796  0.1881 -0.1085
 5425SOL    HW127911   3.088   3.689   1.969  0.5101 -1.2350  1.4241
 5425SOL    HW227912   3.111   3.822   2.016  3.5558 -2.1657  2.5901
 5426SOL     OW27913   2.432   2.921  10.359 -0.5464  0.4637  0.3887
 5426SOL    HW127914   2.514   2.873  10.369 -0.1325  0.5204 -2.7467
 5426SOL    HW227915   2.387   2.856  10.305  0.9003  0.3240 -0.6428
 5427SOL     OW27916   4.342   1.771  10.516  0.0776 -0.1898  0.6953
 5427SOL    HW127917   4.383   1.828  10.581 -0.7035  0.5695  0.5134
 5427SOL    HW227918   4.267   1.823  10.486 -0.3907 -1.0445  0.3716
 5428SOL     OW27919   4.619   2.574  11.946 -0.0070  0.1370  0.6912
 5428SOL    HW127920   4.715   2.572  11.948 -0.0022 -1.7768 -1.6531
 5428SOL    HW227921   4.594   2.484  11.929 -0.5303  0.4284 -0.0798
 5429SOL     OW27922   1.217   0.296   4.447 -0.0300 -0.3476  0.0884
 5429SOL    HW127923   1.229   0.204   4.468  2.8777 -0.1531 -0.7971
 5429SOL    HW227924   1.299   0.331   4.481 -0.1917  0.4593 -0.3411
 5430SOL     OW27925   2.120   1.369   7.863 -0.1195 -0.1632  0.3373
 5430SOL    HW127926   2.213   1.367   7.842  0.0784 -1.0526  1.3154
 5430SOL    HW227927   2.122   1.304   7.933  1.5610  0.4954  0.9030
 5431SOL     OW27928   4.437   1.099   5.479 -0.2812 -0.3340  0.3164
 5431SOL    HW127929   4.500   1.095   5.407  1.6132  0.8235  1.9167
 5431SOL    HW227930   4.463   1.020   5.527 -1.1991 -0.6229  0.3378
 5432SOL     OW27931   0.361   1.854   6.132  0.5912 -0.0028  0.2091
 5432SOL    HW127932   0.434   1.915   6.122  1.0055 -0.4435  0.5807
 5432SOL    HW227933   0.327   1.879   6.218 -0.9703 -0.3861 -0.2985
 5433SOL     OW27934   2.394   2.095   4.118 -0.3887 -0.3924 -0.2919
 5433SOL    HW127935   2.452   2.073   4.045 -1.8000 -0.5688 -1.3572
 5433SOL    HW227936   2.435   2.042   4.187 -0.5718  0.2918  0.3435
 5434SOL     OW27937   3.486   4.644   3.631  0.7258 -0.0253 -0.1527
 5434SOL    HW127938   3.548   4.578   3.663  3.7835  2.4886 -0.9977
 5434SOL    HW227939   3.402   4.614   3.667  0.7997 -1.1921 -0.9615
 5435SOL     OW27940   3.868   3.825   0.676 -0.3717 -0.1421 -0.0615
 5435SOL    HW127941   3.930   3.852   0.608  0.6740 -1.0040  0.5409
 5435SOL    HW227942   3.841   3.910   0.709  0.9087 -0.0649  0.7874
 5436SOL     OW27943   4.240   0.248   3.430 -0.6295  0.3629 -0.0549
 5436SOL    HW127944   4.283   0.170   3.465  0.0526  1.1608  0.8821
 5436SOL    HW227945   4.167   0.205   3.387  0.3495 -0.3830 -0.9545
 5437SOL     OW27946   4.504   4.060  17.357 -0.3014  0.2833 -0.0657
 5437SOL    HW127947   4.426   4.013  17.389  0.4277 -0.8586  0.0311
 5437SOL    HW227948   4.478   4.059  17.265  0.6768 -1.3142 -0.3268
 5438SOL     OW27949   3.193   4.159   7.185 -0.4465  0.5758  0.4332
 5438SOL    HW127950   3.286   4.137   7.195 -0.3208  0.1599 -1.6119
 5438SOL    HW227951   3.187   4.235   7.243 -1.0747  0.6780  0.2389
 5439SOL     OW27952   2.667   0.355  10.702 -0.2329 -0.7345  0.4765
 5439SOL    HW127953   2.695   0.446  10.701  2.7612 -1.6110  3.7889
 5439SOL    HW227954   2.684   0.340  10.795  0.2458  0.9385  0.6547
 5440SOL     OW27955   1.415   0.612   1.660 -1.0316  0.5478  0.2838
 5440SOL    HW127956   1.370   0.569   1.588  3.6231 -1.4895 -1.4668
 5440SOL    HW227957   1.367   0.693   1.677  1.1658  1.4480  2.2498
 5441SOL     OW27958   0.809   1.743  17.579  0.0523 -0.5643  0.1646
 5441SOL    HW127959   0.786   1.663  17.625 -2.2332 -0.9667 -1.6749
 5441SOL    HW227960   0.904   1.736  17.566  0.1567 -0.6736  1.0349
 5442SOL     OW27961   3.039   3.045   3.482 -0.1168  0.3117 -0.4140
 5442SOL    HW127962   3.024   2.962   3.436 -3.3338  0.0532  1.0786
 5442SOL    HW227963   3.119   3.067   3.435 -0.4469 -1.5020 -1.8656
 5443SOL     OW27964   1.068   2.041   9.767  0.1746 -0.1510 -0.1176
 5443SOL    HW127965   0.993   2.020   9.823 -0.2141  0.4648 -0.3997
 5443SOL    HW227966   1.060   1.965   9.709 -0.8825 -0.9231  1.0371
 5444SOL     OW27967   1.450   3.641   3.159  0.0675 -0.3649 -0.9791
 5444SOL    HW127968   1.492   3.656   3.244  0.4734 -2.1785 -0.8616
 5444SOL    HW227969   1.525   3.669   3.106 -0.1015 -0.8194 -1.4461
 5445SOL     OW27970   1.000   1.923   9.299 -0.6589  0.1267 -0.4574
 5445SOL    HW127971   1.030   2.009   9.330 -0.3475  0.4982 -1.7719
 5445SOL    HW227972   1.016   1.932   9.205 -2.1963  1.4269 -0.6039
 5446SOL     OW27973   0.984   2.199   2.275  0.0638  0.0503  0.1433
 5446SOL    HW127974   0.980   2.105   2.292 -1.1754 -0.0085 -0.4852
 5446SOL    HW227975   1.067   2.232   2.311 -1.1577  1.8183  1.3481
 5447SOL     OW27976   3.632   1.794   8.336 -0.3104 -0.1105  0.1029
 5447SOL    HW127977   3.705   1.828   8.388 -0.4135  0.1110  0.0996
 5447SOL    HW227978   3.553   1.838   8.367 -0.9435 -0.8871 -0.4084
 5448SOL     OW27979   1.498   1.355   5.897  0.4634  0.2820  0.1322
 5448SOL    HW127980   1.412   1.313   5.893  0.8538 -0.4708 -0.2650
 5448SOL    HW227981   1.475   1.423   5.960  0.7937  0.1405  0.4038
 5449SOL     OW27982   2.434   0.410  11.372 -0.0617  0.0738  1.1864
 5449SOL    HW127983   2.366   0.460  11.416 -1.2894  0.9993 -1.7343
 5449SOL    HW227984   2.506   0.413  11.434  0.6042 -3.1057  0.5798
 5450SOL     OW27985   3.543   1.240   2.863  0.7500 -0.3222 -0.3850
 5450SOL    HW127986   3.557   1.333   2.880  0.9554 -0.2908 -0.7462
 5450SOL    HW227987   3.508   1.216   2.949 -0.0383  0.0494 -0.6042
 5451SOL     OW27988   3.837   4.066  12.270  0.1983 -0.6550  0.0319
 5451SOL    HW127989   3.901   4.117  12.220  0.8251 -1.6540 -0.1806
 5451SOL    HW227990   3.893   3.990  12.283 -1.9997 -2.2165  0.2737
 5452SOL     OW27991   0.634   3.005  10.500 -0.3578 -0.3310 -0.1476
 5452SOL    HW127992   0.682   3.075  10.457 -1.1727  0.6149  0.4938
 5452SOL    HW227993   0.687   2.927  10.483  0.5851  0.3508 -0.2676
 5453SOL     OW27994   1.599   2.414  10.453  0.2392  0.6260  0.7235
 5453SOL    HW127995   1.668   2.394  10.390 -0.0699 -2.0689  1.2624
 5453SOL    HW227996   1.570   2.492  10.405  0.2671  0.4383  0.4049
 5454SOL     OW27997   0.951   4.105   1.804 -0.7593 -0.4882 -0.4246
 5454SOL    HW127998   0.964   4.116   1.710 -1.8459  1.5889 -0.3263
 5454SOL    HW227999   1.019   4.039   1.819 -0.7870 -0.6316 -0.9440
 5455SOL     OW28000   2.519   3.198   8.447 -0.6013 -0.0685 -0.1519
 5455SOL    HW128001   2.449   3.137   8.470 -0.0315 -0.2738  1.0201
 5455SOL    HW228002   2.464   3.277   8.438  0.7524  0.6273 -2.2378
 5456SOL     OW28003   0.686   1.183   5.871 -1.1482  0.0719  0.4571
 5456SOL    HW128004   0.617   1.124   5.902 -0.2260 -0.5054  1.4102
 5456SOL    HW228005   0.673   1.268   5.913  0.1772  0.5989 -0.1844
 5457SOL     OW28006   2.928   4.510  15.125  0.5861  0.6335 -0.0800
 5457SOL    HW128007   2.918   4.600  15.094  0.1973  1.1534  1.5814
 5457SOL    HW228008   2.839   4.494  15.155 -0.2047 -2.6040 -4.0361
 5458SOL     OW28009   2.258   0.461   6.951  0.0216 -0.1317 -0.3941
 5458SOL    HW128010   2.221   0.423   6.871  2.6274 -1.8814 -0.7475
 5458SOL    HW228011   2.245   0.556   6.944 -0.0934 -0.1712 -0.7257
 5459SOL     OW28012   2.270   1.503  11.188 -0.1879 -0.1202  0.0003
 5459SOL    HW128013   2.289   1.422  11.141 -1.9982 -2.0405  2.5349
 5459SOL    HW228014   2.179   1.482  11.208 -0.3001  0.7082  0.3790
 5460SOL     OW28015   1.234   3.704   3.912  0.1383  0.7644  0.1441
 5460SOL    HW128016   1.264   3.787   3.874 -1.5556  1.4694  0.3615
 5460SOL    HW228017   1.169   3.670   3.851  2.4968 -1.2430 -1.2631
 5461SOL     OW28018   1.344   3.009  13.870 -0.3658 -0.1300  0.5873
 5461SOL    HW128019   1.298   2.940  13.820 -1.6640  0.9474  0.2895
 5461SOL    HW228020   1.386   3.056  13.798 -1.3862  0.1292  0.1542
 5462SOL     OW28021   0.556   1.305   2.736  0.0756 -0.1847  0.2989
 5462SOL    HW128022   0.566   1.217   2.700 -0.6508 -0.2386  0.2120
 5462SOL    HW228023   0.595   1.293   2.822 -1.4383 -2.8424  0.6378
 5463SOL     OW28024   1.759   3.026   9.278 -0.1952  0.3907  0.1660
 5463SOL    HW128025   1.740   2.989   9.192 -1.1855  2.8375 -0.6578
 5463SOL    HW228026   1.759   3.119   9.257 -1.0469  0.6674  1.3920
 5464SOL     OW28027   1.155   4.254  10.383 -0.1849  0.1977 -0.2273
 5464SOL    HW128028   1.132   4.289  10.297 -0.8923  1.0936  0.3352
 5464SOL    HW228029   1.161   4.161  10.359  0.3289  0.7040 -2.0782
 5465SOL     OW28030   2.696   0.363   7.105 -0.4722  0.2110  0.1811
 5465SOL    HW128031   2.776   0.324   7.140 -1.2003 -2.0610 -0.6644
 5465SOL    HW228032   2.719   0.363   7.012  0.1412  0.3475  0.3337
 5466SOL     OW28033   4.164   1.257  12.577  0.0200 -0.7567  0.2891
 5466SOL    HW128034   4.217   1.300  12.644  1.2430 -2.4425  0.3993
 5466SOL    HW228035   4.228   1.232  12.510  0.2531  1.8204 -0.4497
 5467SOL     OW28036   0.954   3.866   3.575  0.3658 -0.0082  0.4629
 5467SOL    HW128037   1.012   3.838   3.646 -0.1318 -1.3143  0.3437
 5467SOL    HW228038   1.013   3.868   3.499 -0.4891 -0.6578 -0.2156
 5468SOL     OW28039   1.340   2.807   9.575  0.3090  0.2088 -0.1555
 5468SOL    HW128040   1.252   2.785   9.547 -1.0184  1.9476  2.6792
 5468SOL    HW228041   1.392   2.797   9.496 -2.2591  0.4674 -1.8523
 5469SOL     OW28042   4.698   3.758   2.108  0.1484 -0.5887 -0.1208
 5469SOL    HW128043   4.632   3.826   2.094 -0.6699 -1.2640  0.4643
 5469SOL    HW228044   4.657   3.691   2.162  0.1241  0.3749  1.0682
 5470SOL     OW28045   0.511   2.092   3.335 -0.1612 -0.1835 -0.2735
 5470SOL    HW128046   0.597   2.126   3.360  0.2917 -0.4699 -1.4654
 5470SOL    HW228047   0.520   2.096   3.240 -1.9041  0.0533 -0.4326
 5471SOL     OW28048   1.788   3.242   5.566  0.1338 -0.0189 -0.3145
 5471SOL    HW128049   1.773   3.174   5.501  1.6296  0.0544 -0.7420
 5471SOL    HW228050   1.845   3.309   5.527  1.2444 -0.4332  0.5780
 5472SOL     OW28051   3.919   0.372  11.275  0.4122  0.6451  0.0363
 5472SOL    HW128052   4.015   0.372  11.276  0.3725  0.5927  2.5373
 5472SOL    HW228053   3.910   0.358  11.369  0.0645 -1.6241 -0.3403
 5473SOL     OW28054   2.774   3.236   6.914  0.7380 -0.3269 -0.1933
 5473SOL    HW128055   2.682   3.263   6.914  1.0887  0.9484  3.4983
 5473SOL    HW228056   2.775   3.148   6.950 -0.6819  0.6291  2.1605
 5474SOL     OW28057   4.139   3.256   9.097 -0.2611  0.2828 -0.3300
 5474SOL    HW128058   4.080   3.182   9.084 -0.1340  0.1054  0.1033
 5474SOL    HW228059   4.192   3.251   9.017  1.6236 -0.0633  0.9361
 5475SOL     OW28060   1.684   4.286   6.165  0.3172  0.0336 -0.6882
 5475SOL    HW128061   1.645   4.199   6.153  1.2218 -0.4568 -0.0201
 5475SOL    HW228062   1.622   4.332   6.222  1.3762  0.1521  0.3752
 5476SOL     OW28063   3.050   3.161   4.572 -0.0065  0.2571 -0.5951
 5476SOL    HW128064   2.975   3.214   4.598 -1.3405 -1.9973  0.1983
 5476SOL    HW228065   3.116   3.228   4.556 -1.9808  2.1949 -0.5921
 5477SOL     OW28066   2.269   4.716   5.623 -0.3016 -0.1898 -0.4215
 5477SOL    HW128067   2.352   4.689   5.661 -0.9344  1.0270  1.8078
 5477SOL    HW228068   2.253   4.635   5.575 -3.2035 -0.6277  1.2706
 5478SOL     OW28069   1.114   3.310   6.013 -0.2347 -0.1765 -0.5617
 5478SOL    HW128070   1.155   3.231   5.978 -1.7518  0.2066 -3.2556
 5478SOL    HW228071   1.024   3.279   6.005 -0.4283  0.9892 -2.9467
 5479SOL     OW28072   2.560   4.303   2.020  0.2067 -0.3047  0.7969
 5479SOL    HW128073   2.518   4.261   1.945 -0.2084  0.5348  0.5571
 5479SOL    HW228074   2.635   4.328   1.965  1.2060 -1.8087  1.4850
 5480SOL     OW28075   0.003   4.567  13.386  0.0653 -0.3706 -0.4244
 5480SOL    HW128076   4.734   4.512  13.465 -0.3178  0.1600 -0.0729
 5480SOL    HW228077   4.657   4.617  13.386  0.2990  0.0104 -0.3240
 5481SOL     OW28078   4.458   1.344   2.951  0.0175  0.1207 -0.0337
 5481SOL    HW128079   4.545   1.371   2.921 -0.5218  0.1377 -1.5923
 5481SOL    HW228080   4.438   1.398   3.028 -1.4687  1.4816 -1.3725
 5482SOL     OW28081   2.419   4.549   7.641 -0.0086  0.2666  0.2557
 5482SOL    HW128082   2.509   4.573   7.618  0.8746 -0.1484  3.3118
 5482SOL    HW228083   2.372   4.596   7.571  1.7220 -1.8156 -2.2988
 5483SOL     OW28084   0.264   1.993   2.841 -0.3913 -0.3431  0.5990
 5483SOL    HW128085   0.189   2.002   2.782 -0.8139 -0.7232  1.0629
 5483SOL    HW228086   0.336   1.973   2.782  0.6381 -1.6654  2.3056
 5484SOL     OW28087   1.913   0.936   1.025 -0.2832  0.1960  0.1206
 5484SOL    HW128088   1.979   0.960   1.091  1.5921  0.3803 -1.7870
 5484SOL    HW228089   1.848   0.906   1.087 -0.0367 -0.0657  0.2510
 5485SOL     OW28090   4.543   2.714   7.270  0.0971  0.9098 -0.9225
 5485SOL    HW128091   4.502   2.758   7.344  0.0504  0.6126 -0.7735
 5485SOL    HW228092   4.469   2.681   7.219 -0.0035  1.6934 -1.2900
 5486SOL     OW28093   4.534   3.240   3.143 -0.2091  0.3089 -0.1136
 5486SOL    HW128094   4.477   3.314   3.121 -0.2404  0.2337 -0.2860
 5486SOL    HW228095   4.468   3.175   3.165 -0.2811 -0.3416 -2.2831
 5487SOL     OW28096   2.656   3.925   7.873 -0.4442  0.2061 -0.4476
 5487SOL    HW128097   2.656   4.012   7.913  0.7178  0.4804 -1.0527
 5487SOL    HW228098   2.740   3.889   7.902 -0.9121 -0.0231  0.6095
 5488SOL     OW28099   1.037   1.043   5.885  0.5343 -0.7716 -0.1851
 5488SOL    HW128100   1.071   0.991   5.957  2.3050 -1.0160 -1.1849
 5488SOL    HW228101   0.958   0.998   5.854  0.7104 -1.2908  0.1295
 5489SOL     OW28102   3.846   4.124   6.516  0.4266 -0.7411  0.3050
 5489SOL    HW128103   3.836   4.066   6.591 -0.6659  0.5560  1.1606
 5489SOL    HW228104   3.760   4.167   6.523  0.6705 -0.5663  2.1244
 5490SOL     OW28105   1.857   0.082   5.538  0.4096  0.9199  0.0047
 5490SOL    HW128106   1.849   0.006   5.595  0.0609 -0.5155 -1.9440
 5490SOL    HW228107   1.933   0.118   5.584  1.4280 -1.4753  0.1900
 5491SOL     OW28108   1.746   3.407   2.917 -0.2293  0.7687  0.0046
 5491SOL    HW128109   1.798   3.483   2.943 -0.1306  0.3292  1.0654
 5491SOL    HW228110   1.704   3.375   2.996 -2.0399 -1.8159 -2.0229
 5492SOL     OW28111   1.028   2.831   3.532 -0.5417  0.5636  0.4574
 5492SOL    HW128112   1.100   2.768   3.543 -0.0715  1.0337  0.0838
 5492SOL    HW228113   1.028   2.838   3.437  1.0054 -0.3822  0.3807
 5493SOL     OW28114   2.065   0.847   5.350 -0.3443  0.0731 -0.8744
 5493SOL    HW128115   2.150   0.803   5.349 -0.7927 -0.7967 -0.0196
 5493SOL    HW228116   2.037   0.833   5.260 -0.1845 -1.1111 -0.7398
 5494SOL     OW28117   2.215   4.693   7.477  0.0541  0.4949  0.0265
 5494SOL    HW128118   2.249   0.035   7.434 -1.0623 -0.6739 -2.9495
 5494SOL    HW228119   2.176   4.719   7.560 -0.0368  2.6966 -0.7245
 5495SOL     OW28120   1.490   1.805   6.255  0.1345  0.1861  0.0797
 5495SOL    HW128121   1.397   1.803   6.232  0.2943 -0.4485 -0.4923
 5495SOL    HW228122   1.493   1.728   6.312  2.1374 -0.1623 -0.4925
 5496SOL     OW28123   1.085   1.493   3.198 -0.8208  0.8695  0.4462
 5496SOL    HW128124   1.007   1.468   3.247 -2.7087  0.5626 -2.7470
 5496SOL    HW228125   1.103   1.417   3.142  1.2254  1.3678  0.4038
 5497SOL     OW28126   2.418   1.961   9.031 -0.1778 -0.2011  0.1948
 5497SOL    HW128127   2.379   1.883   9.070  1.4128 -0.1997  1.8134
 5497SOL    HW228128   2.393   1.934   8.943  1.5597 -0.2334 -0.2983
 5498SOL     OW28129   3.625   0.094   1.510  0.2189 -0.3527  0.7194
 5498SOL    HW128130   3.651   0.183   1.486 -0.0431 -0.5721 -0.3780
 5498SOL    HW228131   3.689   0.034   1.472 -0.7748  0.9973 -3.1843
 5499SOL     OW28132   0.100   2.744   5.709 -0.5310 -0.3333  0.1372
 5499SOL    HW128133   0.188   2.717   5.685  0.4513  1.6686  1.5564
 5499SOL    HW228134   0.064   2.681   5.645 -2.0433  0.3915  0.2635
 5500SOL     OW28135   1.885   0.986   7.233  0.7832  0.3634  0.2750
 5500SOL    HW128136   1.791   0.985   7.213  0.9719 -0.3783 -0.5716
 5500SOL    HW228137   1.919   0.909   7.187 -1.6485 -0.9189  0.6448
 5501SOL     OW28138   3.895   3.068   0.270 -0.3642  0.4959 -0.7449
 5501SOL    HW128139   3.864   3.154   0.244  1.3507  1.3164 -0.0261
 5501SOL    HW228140   3.807   3.036   0.293  1.2658 -2.2027  1.7621
 5502SOL     OW28141   1.758   3.565   2.030  0.2006 -0.1901 -0.4120
 5502SOL    HW128142   1.687   3.595   2.086  0.3387 -0.3454 -0.1578
 5502SOL    HW228143   1.792   3.499   2.090 -0.2970 -3.0578 -3.2561
 5503SOL     OW28144   1.014   0.177   1.758 -0.2353 -0.1133 -0.4073
 5503SOL    HW128145   0.930   0.182   1.802  0.6189 -0.3181  1.2349
 5503SOL    HW228146   1.002   0.122   1.680  1.7972 -0.3752 -0.5517
 5504SOL     OW28147   3.970   3.432   8.441 -0.4495  0.7485  0.1090
 5504SOL    HW128148   4.048   3.487   8.453  0.9288 -1.6618  2.3007
 5504SOL    HW228149   3.918   3.482   8.379  2.8009  2.1183 -1.5046
 5505SOL     OW28150   4.393   3.321   6.143  0.1792 -0.5989  0.7034
 5505SOL    HW128151   4.331   3.248   6.147 -0.5946  0.0394  0.1724
 5505SOL    HW228152   4.461   3.277   6.092  1.0629 -1.5555  2.7096
 5506SOL     OW28153   2.188   2.240   2.796 -0.3791  0.2228  0.3126
 5506SOL    HW128154   2.178   2.189   2.877 -0.9712 -0.6396 -0.3086
 5506SOL    HW228155   2.106   2.289   2.794 -0.4957 -0.0964 -2.8317
 5507SOL     OW28156   0.733   0.659   2.249  0.5651 -0.3677 -0.2398
 5507SOL    HW128157   0.669   0.600   2.210  0.0085  0.8493 -1.1981
 5507SOL    HW228158   0.786   0.686   2.174  0.2272  2.0117  0.3640
 5508SOL     OW28159   4.346   1.159  14.730  0.0037 -0.5123 -0.8110
 5508SOL    HW128160   4.311   1.142  14.643 -0.5580  1.3375 -0.9312
 5508SOL    HW228161   4.401   1.084  14.752 -1.2165 -1.5475 -1.2944
 5509SOL     OW28162   3.394   0.653   1.986 -0.1985 -0.2189 -0.7065
 5509SOL    HW128163   3.451   0.577   2.000 -0.5933 -0.2415  0.6893
 5509SOL    HW228164   3.308   0.616   2.004 -0.5920  0.6527 -0.8361
 5510SOL     OW28165   4.111   2.484   6.523  0.2909  0.1613 -0.3213
 5510SOL    HW128166   4.116   2.413   6.587 -0.9936 -0.3592 -0.7920
 5510SOL    HW228167   4.018   2.504   6.515  0.0265 -1.2354 -0.7929
 5511SOL     OW28168   2.425   0.348  15.012 -0.5286 -0.4483  0.6173
 5511SOL    HW128169   2.383   0.320  14.931  0.7051  1.6492 -0.7339
 5511SOL    HW228170   2.344   0.375  15.056 -1.2209 -0.8379 -0.4052
 5512SOL     OW28171   4.016   1.395   5.520 -0.0280 -0.4828  0.0594
 5512SOL    HW128172   4.059   1.381   5.436 -1.6895 -1.2268 -0.6770
 5512SOL    HW228173   4.054   1.475   5.555  1.1203 -0.4728 -1.2400
 5513SOL     OW28174   1.439   0.765   2.777 -0.0514 -0.3662 -0.4285
 5513SOL    HW128175   1.377   0.735   2.843 -0.8672  1.6212 -0.2725
 5513SOL    HW228176   1.414   0.706   2.706 -1.3423  0.8840 -1.0259
 5514SOL     OW28177   2.384   2.631   1.901  0.1466 -0.1819 -0.0044
 5514SOL    HW128178   2.293   2.604   1.914 -0.0883  1.8444  2.5935
 5514SOL    HW228179   2.417   2.606   1.987  0.5036 -0.6972 -0.2928
 5515SOL     OW28180   1.827   1.695   0.885  0.5719  0.2709 -0.5149
 5515SOL    HW128181   1.884   1.703   0.809 -1.9042 -1.0689 -2.5008
 5515SOL    HW228182   1.861   1.609   0.911  1.1984  0.0023 -2.2659
 5516SOL     OW28183   2.085   2.349   4.860  0.5799  0.2159 -0.2529
 5516SOL    HW128184   2.028   2.326   4.787 -1.8911  0.8807  1.4642
 5516SOL    HW228185   2.156   2.395   4.815  1.1809  1.5720  2.1088
 5517SOL     OW28186   2.585   0.337  11.154 -0.5671  0.0998  0.2759
 5517SOL    HW128187   2.656   0.400  11.166 -1.6188  1.1571  0.9555
 5517SOL    HW228188   2.533   0.368  11.228  0.1497  0.8428  0.4752
 5518SOL     OW28189   0.556   3.151   2.979 -0.0692  0.3243  0.6506
 5518SOL    HW128190   0.609   3.228   3.001 -0.4960  0.8250 -0.0734
 5518SOL    HW228191   0.486   3.167   3.042  0.5286 -0.4265  1.5094
 5519SOL     OW28192   2.359   0.441   4.546  0.4493 -0.6345 -0.0497
 5519SOL    HW128193   2.437   0.435   4.491 -0.9126 -2.0768 -1.8097
 5519SOL    HW228194   2.287   0.459   4.486  1.4738 -2.7052 -1.9303
 5520SOL     OW28195   0.923   0.973   3.140  0.1550  0.1674 -0.2054
 5520SOL    HW128196   0.985   0.988   3.068  2.6189 -1.0656  1.6494
 5520SOL    HW228197   0.986   0.934   3.201  2.7390  1.3796 -2.0990
 5521SOL     OW28198   0.300   3.424  15.088  0.4449  0.1537 -0.1093
 5521SOL    HW128199   0.360   3.352  15.108 -0.2515 -0.9657 -2.0166
 5521SOL    HW228200   0.217   3.376  15.079  1.2514 -1.3119  0.1959
 5522SOL     OW28201   0.898   3.201   6.406  0.1070 -0.3852 -0.2330
 5522SOL    HW128202   0.840   3.277   6.418 -0.2429 -0.1627 -3.3652
 5522SOL    HW228203   0.963   3.230   6.342  0.2062  0.1695  0.1139
 5523SOL     OW28204   2.271   3.900   1.534  0.2917 -0.4108  0.5748
 5523SOL    HW128205   2.253   3.845   1.458 -1.9564 -0.1731  0.9379
 5523SOL    HW228206   2.293   3.986   1.497  0.2996 -0.7222 -0.1570
 5524SOL     OW28207   0.348   1.575   7.214 -0.3384  0.3413  0.3964
 5524SOL    HW128208   0.316   1.538   7.296 -2.3085  1.2473  0.0274
 5524SOL    HW228209   0.281   1.549   7.151 -1.0050 -0.2047  1.3459
 5525SOL     OW28210   1.248   0.892   9.965 -0.3041  0.3271 -0.3713
 5525SOL    HW128211   1.201   0.954  10.020 -0.8753  1.5469 -2.2512
 5525SOL    HW228212   1.180   0.867   9.903 -0.0482  1.7019 -1.1898
 5526SOL     OW28213   0.199   4.003   4.681  0.5662  0.0777  0.4185
 5526SOL    HW128214   0.137   4.075   4.696 -2.1506 -1.9282 -1.1140
 5526SOL    HW228215   0.144   3.928   4.701  0.2094  0.4877  0.9876
 5527SOL     OW28216   4.171   3.685   8.978 -0.7051  0.3019  0.4970
 5527SOL    HW128217   4.145   3.614   8.920  1.4783 -0.2869  0.2531
 5527SOL    HW228218   4.214   3.745   8.917  3.2764 -1.8516  1.1881
 5528SOL     OW28219   0.978   2.224   4.158  0.2880  0.1825 -0.4952
 5528SOL    HW128220   0.905   2.281   4.135  0.1828  0.2144 -0.0799
 5528SOL    HW228221   1.051   2.286   4.158  1.8969 -1.6708 -1.2057
 5529SOL     OW28222   2.497   0.879   1.468  0.1343  0.4818  0.0984
 5529SOL    HW128223   2.578   0.831   1.485 -0.3429 -0.4462 -0.2640
 5529SOL    HW228224   2.438   0.814   1.505 -0.6810  1.6262  0.8277
 5530SOL     OW28225   4.190   2.466   4.507 -0.0834 -0.4476  0.1712
 5530SOL    HW128226   4.260   2.481   4.570  0.4709 -0.3847 -0.4626
 5530SOL    HW228227   4.233   2.505   4.430  0.6464 -1.4386  0.0818
 5531SOL     OW28228   3.652   2.087   1.854  0.5568 -0.0924  0.3264
 5531SOL    HW128229   3.723   2.024   1.861 -0.1410 -0.9554 -0.3341
 5531SOL    HW228230   3.681   2.142   1.781 -1.7882 -0.5968 -0.9982
 5532SOL     OW28231   1.677   2.659   3.410  0.3978 -0.2776  0.1647
 5532SOL    HW128232   1.735   2.651   3.335  0.2724  1.4875 -0.1305
 5532SOL    HW228233   1.593   2.642   3.367  1.1124 -1.7497 -0.6480
 5533SOL     OW28234   1.982   4.198  14.607 -0.1098 -0.3647 -0.2528
 5533SOL    HW128235   1.918   4.202  14.678  0.0895  0.1850 -0.1066
 5533SOL    HW228236   2.015   4.109  14.621  0.4905  0.0132  0.7322
 5534SOL     OW28237   4.321   4.147  11.275  0.0062  0.1097 -0.0716
 5534SOL    HW128238   4.255   4.078  11.284  0.1244 -0.2282 -1.8502
 5534SOL    HW228239   4.336   4.157  11.181 -0.1866  2.0678  0.1099
 5535SOL     OW28240   2.898   4.135   7.712  0.0249  0.1385 -0.0471
 5535SOL    HW128241   2.961   4.135   7.640 -1.4191  1.4402 -1.3272
 5535SOL    HW228242   2.882   4.044   7.735  0.6706 -0.4985 -2.1382
 5536SOL     OW28243   1.963   0.138   2.265  0.2133  0.3587 -0.1099
 5536SOL    HW128244   1.993   0.111   2.178  0.4483  0.4461 -0.0550
 5536SOL    HW228245   1.985   0.230   2.256  0.6127  0.0809 -1.8784
 5537SOL     OW28246   0.917   3.654   3.079 -0.1658  0.0971  0.3888
 5537SOL    HW128247   0.855   3.644   3.152 -0.3101  2.1648  0.5459
 5537SOL    HW228248   1.003   3.657   3.120 -0.7249  3.0441  1.3588
 5538SOL     OW28249   2.170   0.603   6.503  0.7076  0.2618  0.7662
 5538SOL    HW128250   2.223   0.643   6.434  1.2377 -2.3626 -0.3394
 5538SOL    HW228251   2.171   0.671   6.571  2.3529  0.0291  0.9964
 5539SOL     OW28252   2.435   4.313   2.958  0.0157  0.1289  0.7034
 5539SOL    HW128253   2.506   4.378   2.960  1.5520 -1.5663  1.7586
 5539SOL    HW228254   2.412   4.328   2.866  1.2597 -0.8781  0.2228
 5540SOL     OW28255   1.715   1.348   8.336  0.4025  0.1909 -0.0362
 5540SOL    HW128256   1.697   1.406   8.410  2.4869  0.3715  0.3377
 5540SOL    HW228257   1.631   1.337   8.290 -0.3359 -0.7400  1.5521
 5541SOL     OW28258   4.681   1.495   6.566  0.0616  0.2185 -0.0075
 5541SOL    HW128259   4.693   1.496   6.471 -1.9103 -1.3050 -0.2907
 5541SOL    HW228260   4.632   1.414   6.580 -0.3737  0.2497 -1.3400
 5542SOL     OW28261   3.024   0.886   3.484  0.5878  0.3849 -0.8252
 5542SOL    HW128262   3.110   0.927   3.488  0.4685  0.6638 -1.1140
 5542SOL    HW228263   2.981   0.915   3.565  1.1572  0.3412 -0.5038
 5543SOL     OW28264   4.596   4.564   3.492 -0.3806 -0.1393 -0.4915
 5543SOL    HW128265   4.631   4.492   3.439  1.1019 -0.9437  1.5477
 5543SOL    HW228266   4.586   4.628   3.422 -1.1269  0.6980  0.3968
 5544SOL     OW28267   4.110   4.416   3.782 -0.1550  0.5761  0.7027
 5544SOL    HW128268   4.191   4.374   3.811  0.5067  1.5496  0.2878
 5544SOL    HW228269   4.126   4.510   3.774  1.1164  0.4227  1.4282
 5545SOL     OW28270   2.068   0.795   4.836  0.1695  0.1882 -0.0329
 5545SOL    HW128271   2.148   0.767   4.792 -0.6962 -2.6886  0.2170
 5545SOL    HW228272   2.049   0.880   4.796 -0.4357  0.2603  0.4166
 5546SOL     OW28273   4.696   3.597   4.331  0.9255  0.3358 -0.3665
 5546SOL    HW128274   4.703   3.506   4.300 -2.3341  0.3861 -1.2771
 5546SOL    HW228275   0.053   3.622   4.339  1.3440 -1.1673 -0.3510
 5547SOL     OW28276   2.514   4.056   2.930  0.0810 -0.0446 -0.4053
 5547SOL    HW128277   2.473   4.131   2.887 -0.7090 -0.3676 -0.2183
 5547SOL    HW228278   2.445   4.039   2.994  0.5880 -0.4844  0.0206
 5548SOL     OW28279   2.146   0.382   6.668  0.4375  0.3856 -0.2648
 5548SOL    HW128280   2.143   0.465   6.621 -0.0057  0.6954  0.3176
 5548SOL    HW228281   2.210   0.338   6.612 -1.4098 -1.1024 -1.1987
 5549SOL     OW28282   3.214   1.923   1.753 -0.2972 -0.5133 -0.5210
 5549SOL    HW128283   3.289   1.916   1.812 -0.1205 -0.3588 -0.7257
 5549SOL    HW228284   3.238   2.013   1.731 -0.1858 -0.6756 -1.0674
 5550SOL     OW28285   3.389   3.344   2.639 -0.1969 -0.2916  0.3107
 5550SOL    HW128286   3.340   3.426   2.646  0.5663  0.2848 -1.0727
 5550SOL    HW228287   3.413   3.336   2.731  1.6074  0.8041 -0.0587
 5551SOL     OW28288   1.101   2.022   7.349  0.2543  0.1545  0.3269
 5551SOL    HW128289   1.060   2.046   7.432 -1.1187 -1.2214  0.0585
 5551SOL    HW228290   1.088   1.927   7.349 -0.8221  0.2999  1.5433
 5552SOL     OW28291   1.712   2.659   6.979 -0.2554  0.3760 -0.2871
 5552SOL    HW128292   1.797   2.640   6.938  0.2219 -1.2631  1.4766
 5552SOL    HW228293   1.653   2.608   6.924 -2.6801  0.2096  2.5056
 5553SOL     OW28294   1.712   0.322   6.007 -0.3523  0.3181 -0.0102
 5553SOL    HW128295   1.713   0.250   5.944  0.8151 -0.0071  0.3786
 5553SOL    HW228296   1.731   0.393   5.945 -0.4042  0.9193  0.6691
 5554SOL     OW28297   0.147   1.632  16.181  0.0193  0.2852  0.0344
 5554SOL    HW128298   0.116   1.694  16.248  1.7925  2.1119 -0.8598
 5554SOL    HW228299   0.058   1.618  16.148  0.9960 -2.6880 -1.3608
 5555SOL     OW28300   3.319   1.411   9.388 -0.5443 -0.2721  0.1425
 5555SOL    HW128301   3.369   1.491   9.374  0.9316 -0.9630  1.3957
 5555SOL    HW228302   3.372   1.334   9.366 -1.0472 -0.6848  0.3543
 5556SOL     OW28303   3.264   1.644   1.047 -0.1297 -0.2489  0.0370
 5556SOL    HW128304   3.312   1.669   1.126 -2.5379 -1.3217  1.8646
 5556SOL    HW228305   3.317   1.564   1.043 -0.3949 -0.5977  3.0602
 5557SOL     OW28306   1.274   1.089  12.854  0.3924 -0.2578  0.2582
 5557SOL    HW128307   1.283   1.006  12.901 -0.6093  1.1229  2.9288
 5557SOL    HW228308   1.344   1.150  12.877 -1.2520  2.1184 -0.9765
 5558SOL     OW28309   0.822   0.370   4.826  0.0410  0.0907  0.8024
 5558SOL    HW128310   0.796   0.331   4.742 -2.9642  0.6039  1.4932
 5558SOL    HW228311   0.808   0.296   4.884  1.4528 -2.1578 -1.7080
 5559SOL     OW28312   1.352   0.642  16.785 -0.0764  0.1566  0.5481
 5559SOL    HW128313   1.346   0.618  16.693 -1.1056  1.3554  0.3032
 5559SOL    HW228314   1.314   0.569  16.835 -1.1808 -1.1439 -2.1694
 5560SOL     OW28315   2.495   1.181   4.673  0.5282  0.0186  0.0602
 5560SOL    HW128316   2.511   1.094   4.638  0.0870 -0.7830  1.8333
 5560SOL    HW228317   2.430   1.168   4.742  1.3643  0.0350  0.8524
 5561SOL     OW28318   3.550   0.696   5.822 -0.2457 -0.2098 -0.8026
 5561SOL    HW128319   3.616   0.635   5.855 -1.0465 -0.4127  0.4315
 5561SOL    HW228320   3.609   0.759   5.780 -0.6134  0.7931  0.1813
 5562SOL     OW28321   0.912   0.850  10.109 -0.1730 -0.0060  0.3569
 5562SOL    HW128322   0.843   0.882  10.051  0.4741 -0.6318 -0.7652
 5562SOL    HW228323   0.922   0.756  10.092  1.1277 -0.0692  1.4617
 5563SOL     OW28324   1.973   0.008   4.514 -0.0838 -0.3331  0.3306
 5563SOL    HW128325   1.900   4.688   4.484  1.0731 -0.5702 -2.0655
 5563SOL    HW228326   1.918   0.087   4.515  0.1990 -0.1158 -1.8377
 5564SOL     OW28327   4.145   4.242   5.358  0.0302 -0.1260 -0.8019
 5564SOL    HW128328   4.197   4.193   5.422  0.7073  2.5374  0.6576
 5564SOL    HW228329   4.132   4.328   5.397 -1.7230  0.1712 -2.0205
 5565SOL     OW28330   4.574   3.964   1.411  0.0261  0.2578  0.3488
 5565SOL    HW128331   4.527   3.917   1.342 -0.7769 -2.5421  2.7943
 5565SOL    HW228332   4.633   3.894   1.440 -2.1533 -1.4365  0.6614
 5566SOL     OW28333   1.508   3.393   1.846  0.7011  0.5028 -0.2593
 5566SOL    HW128334   1.457   3.466   1.811 -1.0085  0.3969  2.0273
 5566SOL    HW228335   1.466   3.319   1.802  0.8711 -0.4349  1.1919
 5567SOL     OW28336   1.732   1.101   2.073  0.1048  0.0456  0.1906
 5567SOL    HW128337   1.726   1.196   2.074  0.8037  0.0800  1.1325
 5567SOL    HW228338   1.709   1.071   2.161  2.7824 -0.8908  0.5801
 5568SOL     OW28339   2.207   2.758   2.852 -0.1642  0.0348  0.1480
 5568SOL    HW128340   2.251   2.840   2.832 -0.3747  0.0560 -0.2307
 5568SOL    HW228341   2.285   2.723   2.896  0.5362 -0.3403 -1.3971
 5569SOL     OW28342   4.458   3.162   7.281 -0.3711  0.4930  0.4667
 5569SOL    HW128343   4.476   3.103   7.208 -0.8917  0.9358 -0.0221
 5569SOL    HW228344   4.448   3.243   7.230  1.8621  0.6845  0.2997
 5570SOL     OW28345   3.865   4.570   7.377  0.0451 -0.1027  0.2229
 5570SOL    HW128346   3.821   4.654   7.382  2.0385  0.9930 -0.7067
 5570SOL    HW228347   3.791   4.518   7.346 -1.8119  1.7392  1.6329
 5571SOL     OW28348   2.645   2.413   9.967 -0.0259 -0.1835  0.2080
 5571SOL    HW128349   2.616   2.504   9.976 -0.3570 -0.2968  0.2655
 5571SOL    HW228350   2.741   2.410   9.972 -0.0518 -1.7077 -0.1338
 5572SOL     OW28351   0.350   4.475  15.069 -0.3639  0.1744  0.1376
 5572SOL    HW128352   0.376   4.478  14.977  0.9122  0.3097  0.4894
 5572SOL    HW228353   0.420   4.423  15.109 -0.3537  0.2163  0.1750
 5573SOL     OW28354   4.123   3.946  16.492  0.5285 -0.4401  0.4146
 5573SOL    HW128355   4.046   3.951  16.436 -1.4574 -0.2226  3.1522
 5573SOL    HW228356   4.115   4.034  16.529  1.4480 -0.4030  0.5295
 5574SOL     OW28357   2.419   0.518   6.667 -0.3422 -0.2534 -0.5909
 5574SOL    HW128358   2.434   0.513   6.762  0.6180 -2.4953 -0.8564
 5574SOL    HW228359   2.454   0.606   6.652  1.2014 -1.1444 -2.1914
 5575SOL     OW28360   0.573   3.349  16.625 -0.3711 -0.3412  0.5929
 5575SOL    HW128361   0.488   3.390  16.607 -1.4035 -2.3622  0.8640
 5575SOL    HW228362   0.611   3.335  16.539 -0.5450  1.6754  0.1890
 5576SOL     OW28363   2.733   4.378   2.273  0.6365 -0.3200  0.2246
 5576SOL    HW128364   2.705   4.342   2.188 -0.3595 -0.2649  0.5240
 5576SOL    HW228365   2.662   4.344   2.328  2.3093 -0.8190  2.0363
 5577SOL     OW28366   1.719   1.879  13.489 -0.0492  0.9129  0.0224
 5577SOL    HW128367   1.646   1.931  13.521 -0.1545  0.0103  1.2677
 5577SOL    HW228368   1.774   1.880  13.568 -0.3184  1.9324  0.1889
 5578SOL     OW28369   0.299   0.045   0.313 -0.7084  0.4487 -0.0044
 5578SOL    HW128370   0.208   0.017   0.314 -0.5619  0.0102  0.8337
 5578SOL    HW228371   0.350   4.700   0.314 -2.5559 -0.7067  0.4569
 5579SOL     OW28372   1.402   0.979   2.004 -0.3749 -0.0788  0.1865
 5579SOL    HW128373   1.418   1.027   2.085 -1.0016  2.2918 -1.1066
 5579SOL    HW228374   1.415   0.891   2.041  1.8822  0.6605  1.1489
 5580SOL     OW28375   3.525   0.841   8.759  0.6762  0.2250 -0.5594
 5580SOL    HW128376   3.472   0.909   8.801  0.1779 -0.5482  0.0648
 5580SOL    HW228377   3.608   0.888   8.767  1.7270 -1.5987 -0.6273
 5581SOL     OW28378   0.249   1.776   6.818  0.3833  0.0544  0.0356
 5581SOL    HW128379   0.339   1.807   6.830  1.0475 -0.8486 -2.4839
 5581SOL    HW228380   0.260   1.681   6.813  1.1598  0.1743 -0.6181
 5582SOL     OW28381   1.758   0.714  17.175  0.1332 -0.2652 -0.4152
 5582SOL    HW128382   1.840   0.710  17.225 -0.4288 -0.5164  0.4761
 5582SOL    HW228383   1.707   0.748  17.248 -0.3262  0.8762 -1.2469
 5583SOL     OW28384   3.023   3.533   3.602  0.1373  0.2705  0.2733
 5583SOL    HW128385   2.984   3.473   3.665  0.2894 -0.1912 -0.0742
 5583SOL    HW228386   3.115   3.509   3.614 -0.2724 -0.3088  2.2204
 5584SOL     OW28387   3.336   2.138   9.172  0.5757 -0.1147 -0.6334
 5584SOL    HW128388   3.345   2.232   9.158 -1.9790  0.0318 -1.2195
 5584SOL    HW228389   3.254   2.137   9.221  1.1960 -0.0743  0.4244
 5585SOL     OW28390   4.528   4.254   3.743 -0.8249 -0.3778  0.0624
 5585SOL    HW128391   4.509   4.322   3.678 -3.0686 -0.4466  0.6161
 5585SOL    HW228392   4.457   4.192   3.724 -0.6081 -1.1240  1.6701
 5586SOL     OW28393   4.707   3.086   6.855  0.7188  0.0301  0.4196
 5586SOL    HW128394   4.629   3.124   6.814  0.0641 -0.1876  1.4728
 5586SOL    HW228395   0.045   3.103   6.796  0.9319  1.1574  1.0129
 5587SOL     OW28396   3.796   1.117   3.830  0.3659  0.7892 -0.3813
 5587SOL    HW128397   3.702   1.129   3.817  0.8144 -0.5233 -4.8115
 5587SOL    HW228398   3.803   1.062   3.909 -2.7609 -0.0754 -0.7131
 5588SOL     OW28399   3.413   2.754   6.577 -0.0536 -0.3164 -0.2054
 5588SOL    HW128400   3.426   2.761   6.483 -0.3484  1.1080 -0.1348
 5588SOL    HW228401   3.469   2.826   6.605 -0.1223 -0.5811  0.6250
 5589SOL     OW28402   3.552   0.631   8.046  0.3230  0.1401 -0.0668
 5589SOL    HW128403   3.523   0.633   7.954 -2.6140 -1.4985  0.8293
 5589SOL    HW228404   3.473   0.650   8.096 -0.1738  2.0004 -1.5341
 5590SOL     OW28405   1.399   4.337  13.209  0.3097 -0.4098 -0.1938
 5590SOL    HW128406   1.433   4.262  13.258 -1.0140 -0.1728  1.0987
 5590SOL    HW228407   1.483   4.370  13.177  1.6377 -2.5546  1.0791
 5591SOL     OW28408   4.395   2.471   5.076  0.2261  0.1300 -0.0445
 5591SOL    HW128409   4.374   2.507   4.990 -1.3225 -1.5080 -0.3606
 5591SOL    HW228410   4.445   2.545   5.110 -0.1799  0.0700  0.6915
 5592SOL     OW28411   1.892   1.854   0.437  0.1207  0.0745 -0.0497
 5592SOL    HW128412   1.940   1.862   0.354  0.8025 -1.2348  0.2115
 5592SOL    HW228413   1.862   1.764   0.424  2.2343 -0.6337  0.0024
 5593SOL     OW28414   4.189   0.120   2.669 -0.1063  0.0122  0.0604
 5593SOL    HW128415   4.207   0.182   2.740  0.9391 -1.6420  1.2776
 5593SOL    HW228416   4.262   0.133   2.609 -0.9517  1.2907 -0.6914
 5594SOL     OW28417   3.247   1.387   8.069  0.4474  0.2587  1.1930
 5594SOL    HW128418   3.339   1.374   8.093  0.7428  2.2994  1.1594
 5594SOL    HW228419   3.243   1.480   8.088  1.5627  0.3226  1.1297
 5595SOL     OW28420   1.493   3.770   7.221 -0.0247  0.4141  0.5520
 5595SOL    HW128421   1.428   3.727   7.277 -1.1346  2.8333  1.1234
 5595SOL    HW228422   1.446   3.848   7.190 -0.3024 -0.0231 -0.1234
 5596SOL     OW28423   0.326   2.989   4.454  0.2170  0.2808 -0.1990
 5596SOL    HW128424   0.372   2.922   4.505 -1.4600  0.6890  1.8570
 5596SOL    HW228425   0.352   3.075   4.488 -3.5962  0.4176  2.4464
 5597SOL     OW28426   4.521   2.749  17.047 -0.1710 -0.4116  0.0006
 5597SOL    HW128427   4.463   2.766  17.121  0.9756 -0.8086  1.0041
 5597SOL    HW228428   4.564   2.833  17.036 -0.0144 -0.8184 -2.6094
 5598SOL     OW28429   1.174   2.823   5.357 -0.3220  0.4028  0.6522
 5598SOL    HW128430   1.141   2.803   5.445 -1.0885 -1.7541 -0.1351
 5598SOL    HW228431   1.198   2.914   5.372 -1.0963  0.8001 -0.5994
 5599SOL     OW28432   1.227   2.934  14.149 -0.3096  0.4625 -0.4224
 5599SOL    HW128433   1.235   2.957  14.057  1.5820 -1.8244 -0.8284
 5599SOL    HW228434   1.149   2.880  14.133 -0.2040 -0.0345  0.7170
 5600SOL     OW28435   0.720   3.849  16.193 -0.4156 -0.4293 -0.2022
 5600SOL    HW128436   0.649   3.891  16.144 -0.5975 -0.2980  0.1659
 5600SOL    HW228437   0.689   3.818  16.279  0.7643  1.1102  0.7874
 5601SOL     OW28438   3.950   4.429  16.339 -0.7274 -0.0225 -0.5662
 5601SOL    HW128439   3.871   4.437  16.392 -0.2403 -0.3664  0.2213
 5601SOL    HW228440   4.000   4.503  16.375  0.2735 -0.5149 -0.9219
 5602SOL     OW28441   0.264   4.691   7.454 -0.1112 -0.4262  0.0632
 5602SOL    HW128442   0.334   4.641   7.413  0.4990 -0.1330  0.7440
 5602SOL    HW228443   0.308   0.032   7.492  0.0680 -0.0303 -0.9313
 5603SOL     OW28444   3.575   4.122  12.193 -0.2024 -0.2974  0.3832
 5603SOL    HW128445   3.659   4.086  12.222  0.6704 -1.5394 -3.6464
 5603SOL    HW228446   3.519   4.066  12.247  0.0305 -0.5991  0.3152
 5604SOL     OW28447   0.767   2.669   2.887 -0.3022 -0.3410 -0.2381
 5604SOL    HW128448   0.673   2.678   2.898 -0.3038 -2.0302  1.1695
 5604SOL    HW228449   0.774   2.662   2.792  0.7300 -1.1557 -0.1017
 5605SOL     OW28450   2.453   2.399   5.819 -0.2602  0.2841 -0.5714
 5605SOL    HW128451   2.482   2.436   5.736 -0.4370  1.5934 -0.0547
 5605SOL    HW228452   2.533   2.363   5.857 -0.6624  1.5747  1.5489
 5606SOL     OW28453   0.415   3.319   2.163 -0.4579  0.5856 -0.1663
 5606SOL    HW128454   0.361   3.384   2.207 -2.0254  1.0499 -2.7781
 5606SOL    HW228455   0.473   3.282   2.230  0.8190 -1.4989 -2.3965
 5607SOL     OW28456   0.805   4.257   0.253 -0.1883 -0.4028 -0.3875
 5607SOL    HW128457   0.739   4.302   0.306 -2.3508  1.5249 -4.7496
 5607SOL    HW228458   0.746   4.188   0.221  0.7458 -1.3455 -0.0893
 5608SOL     OW28459   4.222   2.483   2.475  0.1355 -0.5407  0.2821
 5608SOL    HW128460   4.128   2.498   2.462  0.4514  3.5921  2.5822
 5608SOL    HW228461   4.232   2.402   2.425  1.0813 -0.7595  0.8286
 5609SOL     OW28462   3.271   3.558   1.167  0.4086 -0.2608  0.1201
 5609SOL    HW128463   3.231   3.504   1.099  0.6321 -1.2026  0.7371
 5609SOL    HW228464   3.201   3.539   1.230  0.7655  0.2406  0.6683
 5610SOL     OW28465   3.605   2.916   3.657  0.2000 -0.5635 -0.8600
 5610SOL    HW128466   3.663   2.991   3.642 -1.4194  0.3249 -2.8026
 5610SOL    HW228467   3.669   2.860   3.699  0.2808 -1.4930 -2.2229
 5611SOL     OW28468   4.062   1.185  10.838  0.5129 -0.4352 -0.1022
 5611SOL    HW128469   4.130   1.130  10.875  0.7427  0.3800  0.6769
 5611SOL    HW228470   4.024   1.227  10.915 -1.4702  0.9585 -1.8203
 5612SOL     OW28471   2.795   2.017   4.074  0.2222 -0.2860  0.0512
 5612SOL    HW128472   2.730   1.977   4.133  0.8512 -1.0644  0.2269
 5612SOL    HW228473   2.874   2.013   4.129  1.4368 -2.5378 -1.8391
 5613SOL     OW28474   3.599   3.724   6.774 -0.1864 -0.4971  0.0932
 5613SOL    HW128475   3.666   3.792   6.766  0.4415 -0.8537  2.5543
 5613SOL    HW228476   3.644   3.645   6.744 -1.4931 -0.7626 -1.1606
 5614SOL     OW28477   1.919   3.781   8.108  0.4701 -0.2520  0.4665
 5614SOL    HW128478   1.853   3.795   8.039 -0.8835 -2.6572  1.2583
 5614SOL    HW228479   1.964   3.865   8.101 -0.3018  0.2738  1.7147
 5615SOL     OW28480   2.699   3.660  15.465 -0.2068 -0.0661 -0.1677
 5615SOL    HW128481   2.772   3.599  15.461  0.4005  0.5184  2.0444
 5615SOL    HW228482   2.695   3.676  15.371  2.2052  0.0972 -0.2172
 5616SOL     OW28483   3.242   2.286  10.108  0.2633 -0.0434  0.0350
 5616SOL    HW128484   3.166   2.311  10.055  0.4089  2.8731  1.2022
 5616SOL    HW228485   3.208   2.224  10.173 -2.0331  1.1125 -0.0477
 5617SOL     OW28486   4.011   3.943   0.484 -0.1485 -0.4440  0.3655
 5617SOL    HW128487   3.998   4.031   0.450  0.4477 -0.6651 -0.4441
 5617SOL    HW228488   4.101   3.933   0.455 -0.9996 -3.4721 -1.3161
 5618SOL     OW28489   2.538   1.276   4.290 -0.5095 -0.3267  0.4540
 5618SOL    HW128490   2.551   1.337   4.362  2.3520 -0.2583 -0.0902
 5618SOL    HW228491   2.606   1.213   4.314 -0.1131 -0.3712 -0.7764
 5619SOL     OW28492   2.819   0.139  12.469  0.0834  0.4625 -0.0391
 5619SOL    HW128493   2.877   0.088  12.525 -1.1650  0.6361  1.3985
 5619SOL    HW228494   2.831   0.092  12.386  0.2351  2.2024 -1.0019
 5620SOL     OW28495   2.253   1.036   4.475  0.1959 -0.1794 -0.2837
 5620SOL    HW128496   2.225   0.998   4.392 -1.0811  0.4881 -0.1475
 5620SOL    HW228497   2.347   1.016   4.480 -0.2027 -1.8465  0.6208
 5621SOL     OW28498   0.516   2.700  17.273 -0.4831 -0.3429  0.3240
 5621SOL    HW128499   0.581   2.654  17.327 -1.4016 -1.1508  0.7343
 5621SOL    HW228500   0.539   2.686  17.182  1.3964  0.0587  0.7199
 5622SOL     OW28501   1.202   3.893   6.884  0.7254  0.4040  0.1802
 5622SOL    HW128502   1.183   3.964   6.823  0.6278 -0.8773 -1.3068
 5622SOL    HW228503   1.274   3.935   6.931  0.2592 -0.0488  1.2945
 5623SOL     OW28504   3.611   2.193   2.117 -0.2271  0.0614  0.0935
 5623SOL    HW128505   3.532   2.170   2.168 -1.8174  1.1551 -1.8811
 5623SOL    HW228506   3.578   2.184   2.028 -0.5032 -1.3108  0.3392
 5624SOL     OW28507   3.147   2.819   0.952  0.0464  0.0710  0.1020
 5624SOL    HW128508   3.212   2.771   1.003  1.7956 -0.2806 -2.4622
 5624SOL    HW228509   3.074   2.810   1.013 -0.5122  0.4703 -0.5090
 5625SOL     OW28510   0.351   4.551   7.899  0.7277 -0.1823 -0.3037
 5625SOL    HW128511   0.322   4.476   7.846  0.5372 -1.2573  1.3405
 5625SOL    HW228512   0.277   4.612   7.894  0.4950 -0.4544 -0.1743
 5626SOL     OW28513   3.885   3.865  11.627  0.2794  0.3151  0.3682
 5626SOL    HW128514   3.927   3.911  11.699  1.8477 -1.0627  0.3230
 5626SOL    HW228515   3.915   3.922  11.556 -1.1386 -0.5293 -0.9115
 5627SOL     OW28516   2.046   2.974  12.450  0.0305 -0.3667 -0.2634
 5627SOL    HW128517   1.979   2.928  12.500  1.0524 -0.7633  0.7587
 5627SOL    HW228518   2.022   2.970  12.357  0.2686 -0.9648 -0.2963
 5628SOL     OW28519   3.896   0.085  15.628  0.4084  0.2533  0.1192
 5628SOL    HW128520   3.850   0.001  15.622 -0.2781  0.5804  0.7487
 5628SOL    HW228521   3.969   0.072  15.567 -0.0662 -1.2723 -0.1197
 5629SOL     OW28522   2.339   3.125   6.241 -0.4227  0.4292 -0.0014
 5629SOL    HW128523   2.251   3.132   6.204  0.4108  2.5065 -1.5561
 5629SOL    HW228524   2.343   3.210   6.283  3.5109  0.0272  0.4490
 5630SOL     OW28525   0.196   0.031   3.579 -0.5464  0.5600 -1.1661
 5630SOL    HW128526   0.278   4.718   3.571 -2.3899 -2.6169 -0.8761
 5630SOL    HW228527   0.197   0.064   3.669  1.6830 -0.1631 -0.9332
 5631SOL     OW28528   3.941   2.430   2.660 -0.2006 -0.3669  0.2617
 5631SOL    HW128529   3.939   2.453   2.567  0.7243 -2.0771 -0.1907
 5631SOL    HW228530   3.903   2.513   2.688  2.1153  0.5717  0.6447
 5632SOL     OW28531   1.118   0.485   5.869 -0.1941 -0.0501  0.0108
 5632SOL    HW128532   1.131   0.491   5.963  2.8433  0.2073 -0.4200
 5632SOL    HW228533   1.136   0.573   5.835 -1.3438  0.0333 -0.3727
 5633SOL     OW28534   1.894   0.782  14.220  0.0987  0.4317 -0.3605
 5633SOL    HW128535   1.977   0.824  14.195  0.6947 -1.4964 -1.5670
 5633SOL    HW228536   1.911   0.703  14.271  1.5938  0.5910 -0.6135
 5634SOL     OW28537   0.113   0.142   5.908 -0.6419  0.3203  0.4089
 5634SOL    HW128538   0.101   0.139   6.003 -0.4386 -0.9951  0.3895
 5634SOL    HW228539   0.207   0.152   5.896 -0.5566 -0.2179  0.6192
 5635SOL     OW28540   0.478   0.220   0.077  0.0212  0.2725  0.1074
 5635SOL    HW128541   0.528   0.298   0.056 -2.2255  2.4945  2.9975
 5635SOL    HW228542   0.500   0.210   0.170 -1.0856  0.4782  0.3860
 5636SOL     OW28543   4.222   4.728   5.431  0.0074 -0.3919 -0.2008
 5636SOL    HW128544   4.219   0.054   5.358 -0.8302  0.3861  0.4927
 5636SOL    HW228545   4.286   4.665   5.397 -0.4797  0.0215 -1.9050
 5637SOL     OW28546   3.382   2.157  12.929 -0.4849  0.0757  0.6434
 5637SOL    HW128547   3.402   2.184  13.019  0.9672  0.3988  0.2316
 5637SOL    HW228548   3.447   2.207  12.880 -0.3879 -0.5501  0.1333
 5638SOL     OW28549   3.908   0.916   0.879  0.3130 -0.5549 -0.3407
 5638SOL    HW128550   3.939   1.004   0.900 -1.8642  0.1648 -0.0383
 5638SOL    HW228551   3.847   0.903   0.952  0.6829  3.2194  0.6487
 5639SOL     OW28552   1.259   2.014   2.530  0.4291  0.7050 -0.0648
 5639SOL    HW128553   1.193   1.975   2.588 -0.8199  0.3912 -1.6944
 5639SOL    HW228554   1.251   1.951   2.458 -2.2810 -0.5298  1.3125
 5640SOL     OW28555   1.595   0.701   4.568  0.9467  0.2625  0.1628
 5640SOL    HW128556   1.617   0.790   4.541 -1.9917  0.5185 -1.4409
 5640SOL    HW228557   1.667   0.652   4.529  0.2492 -1.6566  1.2744
 5641SOL     OW28558   1.489   4.415  11.630  0.0705  0.1378  0.4492
 5641SOL    HW128559   1.494   4.406  11.725 -1.1044  0.4270  0.5417
 5641SOL    HW228560   1.395   4.408  11.612  0.6814 -1.7507 -1.9665
 5642SOL     OW28561   0.419   3.541   5.860 -0.2365  0.0380  0.2212
 5642SOL    HW128562   0.360   3.568   5.789  3.2569  2.4162 -1.8079
 5642SOL    HW228563   0.498   3.556   5.808  1.0498 -0.5138  2.0151
 5643SOL     OW28564   2.206   2.226   7.664 -0.0301  0.2999 -0.2241
 5643SOL    HW128565   2.196   2.140   7.623  2.8083  0.7000 -1.7533
 5643SOL    HW228566   2.240   2.283   7.595  1.1530 -0.0111  0.1124
 5644SOL     OW28567   0.583   1.731   2.470  0.2678  0.0635  0.3449
 5644SOL    HW128568   0.662   1.786   2.467 -0.2380  0.7753  0.0054
 5644SOL    HW228569   0.625   1.648   2.494 -0.3546 -0.6094 -0.9296
 5645SOL     OW28570   4.301   0.086   7.178  0.3333  1.0195 -0.3193
 5645SOL    HW128571   4.368   0.024   7.150  0.7138  1.4009 -0.2525
 5645SOL    HW228572   4.242   0.034   7.233  1.1249 -0.1939 -0.6053
 5646SOL     OW28573   1.982   2.312   2.466 -0.6282  0.6122  0.3140
 5646SOL    HW128574   1.966   2.392   2.516 -3.1584 -0.6348  1.5268
 5646SOL    HW228575   2.043   2.345   2.401 -0.0993  1.3188  1.1722
 5647SOL     OW28576   1.789   0.595   5.912 -0.1823 -0.1288 -0.2422
 5647SOL    HW128577   1.868   0.546   5.891 -1.6675 -1.9155 -1.7266
 5647SOL    HW228578   1.767   0.612   5.820 -0.4756  0.2007 -0.1116
 5648SOL     OW28579   4.386   3.583   8.234  0.2774 -0.4562  0.0430
 5648SOL    HW128580   4.445   3.657   8.217 -1.7059  0.4879 -2.8813
 5648SOL    HW228581   4.437   3.508   8.206  1.7955  0.0284  1.5316
 5649SOL     OW28582   1.594   2.209   9.904  0.6806  0.1499  0.4578
 5649SOL    HW128583   1.507   2.169   9.894 -0.0500  1.9343 -0.4018
 5649SOL    HW228584   1.644   2.127   9.898  0.9004  0.1802  1.9335
 5650SOL     OW28585   2.359   0.937  14.865  0.0525 -0.3757 -0.1849
 5650SOL    HW128586   2.425   0.898  14.921 -0.1327  1.4996  1.3347
 5650SOL    HW228587   2.370   1.027  14.896  1.2705 -1.4935  2.5909
 5651SOL     OW28588   1.568   0.908  12.733  0.3204 -0.2249  0.5491
 5651SOL    HW128589   1.645   0.851  12.730  1.8545  1.8659  0.6057
 5651SOL    HW228590   1.511   0.848  12.685  0.2515  1.2632 -1.2345
 5652SOL     OW28591   1.483   2.047   1.814  0.7491  0.5356  0.2069
 5652SOL    HW128592   1.446   2.047   1.902 -1.3920  1.9045 -0.7026
 5652SOL    HW228593   1.464   1.957   1.787  0.4103  1.2099 -1.7838
 5653SOL     OW28594   2.845   1.742   4.039 -0.3885  0.0345 -0.2672
 5653SOL    HW128595   2.869   1.782   3.955 -0.6791  1.8536  0.5029
 5653SOL    HW228596   2.795   1.817   4.072  1.8733  1.2522  0.3962
 5654SOL     OW28597   3.934   3.469   2.151 -0.2278 -0.0774 -0.1605
 5654SOL    HW128598   4.012   3.415   2.144 -0.1750  0.1125 -1.0823
 5654SOL    HW228599   3.951   3.545   2.095  0.7079  0.3635  0.7191
 5655SOL     OW28600   2.491   4.121   8.516 -0.0554  0.1844 -0.3660
 5655SOL    HW128601   2.575   4.150   8.553 -0.5509 -0.3778  1.1743
 5655SOL    HW228602   2.464   4.205   8.479  2.1281  1.6411  1.3078
 5656SOL     OW28603   0.316   3.450   7.490 -0.0761  0.7332  0.4149
 5656SOL    HW128604   0.364   3.370   7.509  0.4457  0.3333 -2.5194
 5656SOL    HW228605   0.225   3.420   7.489 -0.4595  1.9679 -2.1517
 5657SOL     OW28606   4.723   1.582  11.440  0.2907  0.3526  0.1091
 5657SOL    HW128607   0.016   1.628  11.361 -0.0637  1.5011  0.6571
 5657SOL    HW228608   0.032   1.636  11.505  0.4923  2.9564 -2.1898
 5658SOL     OW28609   0.514   0.304  12.693 -0.0812  0.2842  0.0190
 5658SOL    HW128610   0.562   0.277  12.615 -1.1553 -2.8018  0.3945
 5658SOL    HW228611   0.586   0.281  12.752 -0.4465  1.0424  0.7648
 5659SOL     OW28612   1.638   1.879   7.418  0.2039 -0.8332  0.3195
 5659SOL    HW128613   1.553   1.921   7.409  0.8449  0.5707  0.6999
 5659SOL    HW228614   1.614   1.791   7.446 -1.4120 -0.7141 -0.7048
 5660SOL     OW28615   2.359   2.306   1.929 -0.5952 -0.9116 -0.3601
 5660SOL    HW128616   2.445   2.333   1.961 -0.0771  1.0284 -3.4356
 5660SOL    HW228617   2.353   2.369   1.857 -0.6945 -0.4900  0.0099
 5661SOL     OW28618   4.035   0.542   7.692  0.1688 -0.6160 -0.0784
 5661SOL    HW128619   4.040   0.584   7.778 -2.0937  0.2761 -0.4006
 5661SOL    HW228620   3.941   0.548   7.679 -0.3184 -3.2625  2.1199
 5662SOL     OW28621   1.326   3.413   7.249  0.2331 -1.0422 -0.0538
 5662SOL    HW128622   1.309   3.337   7.195  0.5850 -1.0053 -0.2130
 5662SOL    HW228623   1.239   3.437   7.282 -0.6893 -6.0201  1.1340
 5663SOL     OW28624   1.291   0.751  11.866  0.1944  0.4710  0.5565
 5663SOL    HW128625   1.204   0.713  11.856  1.3928 -1.3579 -2.9918
 5663SOL    HW228626   1.316   0.782  11.779 -0.3871 -0.2390  0.1365
 5664SOL     OW28627   0.901   4.703   7.236  0.0293 -1.0149  0.6884
 5664SOL    HW128628   0.834   4.731   7.298 -0.4285  1.9981 -1.1844
 5664SOL    HW228629   0.876   0.012   7.155  0.5155 -1.2934  0.3842
 5665SOL     OW28630   1.674   4.667   6.129 -0.1366  0.5885 -0.0318
 5665SOL    HW128631   1.703   4.613   6.202  0.1572  2.5563  1.3053
 5665SOL    HW228632   1.676   0.017   6.171  1.1165  1.0867 -1.0837
 5666SOL     OW28633   0.850   3.008  10.167  0.4450 -0.2775  0.2110
 5666SOL    HW128634   0.819   2.950  10.237 -0.0306 -1.0400 -0.6403
 5666SOL    HW228635   0.875   3.079  10.228  1.4510  0.4818 -1.0748
 5667SOL     OW28636   4.310   3.029   3.081 -0.0727 -0.8725  0.3914
 5667SOL    HW128637   4.234   3.051   3.136 -0.2200  1.0099 -0.5831
 5667SOL    HW228638   4.310   2.934   3.095  3.3388 -0.8334  0.6794
 5668SOL     OW28639   2.663   4.364   8.424 -0.5553 -0.2143 -0.4128
 5668SOL    HW128640   2.756   4.348   8.404 -0.3000  0.1484  0.4931
 5668SOL    HW228641   2.672   4.446   8.473 -1.5559 -1.1191  1.3006
 5669SOL     OW28642   4.231   3.946  10.623 -0.5245 -0.2031  0.0306
 5669SOL    HW128643   4.296   3.952  10.693  0.1017 -1.1494 -0.4699
 5669SOL    HW228644   4.243   3.854  10.598 -1.1478  0.1136 -1.4373
 5670SOL     OW28645   2.141   0.145   7.049 -0.9654 -0.4019  0.4179
 5670SOL    HW128646   2.225   0.099   7.052  0.3487  2.0528  0.9227
 5670SOL    HW228647   2.150   0.193   6.967 -2.9382  1.5983  1.3632
 5671SOL     OW28648   4.339   4.255   4.616  0.0747  0.2937  0.1570
 5671SOL    HW128649   4.304   4.324   4.673  1.4735 -0.7708  2.3197
 5671SOL    HW228650   4.258   4.213   4.589 -0.1857 -0.1683  1.6418
 5672SOL     OW28651   1.721   4.502   4.232  0.2151 -0.3837 -0.0204
 5672SOL    HW128652   1.652   4.448   4.194 -1.8212  2.0904  0.1585
 5672SOL    HW228653   1.716   4.581   4.177  3.5762  0.6480  1.1644
 5673SOL     OW28654   3.346   3.444   5.975 -0.1694 -0.0102 -0.2785
 5673SOL    HW128655   3.277   3.446   6.041  0.6897 -0.9002  0.6373
 5673SOL    HW228656   3.312   3.378   5.915 -0.9406 -0.5935  0.7942
 5674SOL     OW28657   4.191   3.169   4.824  0.2810 -0.4561 -0.1586
 5674SOL    HW128658   4.142   3.249   4.804  1.4093 -0.2042 -1.9218
 5674SOL    HW228659   4.278   3.208   4.828  0.0669  0.1750 -1.7771
 5675SOL     OW28660   0.878   1.156   7.530 -0.1047  0.6854 -0.0273
 5675SOL    HW128661   0.858   1.233   7.583 -2.4729  0.5291 -0.7039
 5675SOL    HW228662   0.792   1.117   7.516  0.4164 -0.5036  0.0552
 5676SOL     OW28663   3.967   1.526  15.542 -0.4379  0.2587 -0.0021
 5676SOL    HW128664   3.992   1.483  15.460  0.2929 -0.5962  0.6753
 5676SOL    HW228665   4.051   1.560  15.574  0.4784 -1.4453 -0.6219
 5677SOL     OW28666   1.639   2.275  12.855  0.2552 -0.4649 -0.3057
 5677SOL    HW128667   1.725   2.258  12.893  0.6376 -1.8683 -1.7516
 5677SOL    HW228668   1.595   2.216  12.916 -0.3838  0.3674  0.0333
 5678SOL     OW28669   1.909   2.215  12.902 -0.4354 -0.0839 -0.1336
 5678SOL    HW128670   1.899   2.120  12.893  1.6402 -0.3559  0.6444
 5678SOL    HW228671   1.998   2.225  12.935 -0.4261  2.4685 -0.9337
 5679SOL     OW28672   0.747   4.073   7.949  0.2991 -0.1024 -0.1565
 5679SOL    HW128673   0.763   3.979   7.961  1.8738  0.2095  0.1972
 5679SOL    HW228674   0.804   4.097   7.876  0.4085  2.4170  0.7872
 5680SOL     OW28675   3.029   3.597   6.842  0.6664 -0.2652  0.5181
 5680SOL    HW128676   3.125   3.596   6.847  0.6007 -0.5622  1.8188
 5680SOL    HW228677   3.017   3.598   6.937 -1.2648 -0.0783  0.2795
 5681SOL     OW28678   2.530   2.958   1.239 -0.1726 -0.0017  0.0445
 5681SOL    HW128679   2.573   2.920   1.316 -1.9513 -1.7594  0.1548
 5681SOL    HW228680   2.502   3.043   1.272  0.6326 -0.1828  1.2403
 5682SOL     OW28681   2.963   2.465  10.213 -0.6383 -0.0653  0.3460
 5682SOL    HW128682   3.031   2.493  10.273 -0.2608 -0.2112 -0.0172
 5682SOL    HW228683   3.004   2.485  10.129 -0.0309 -1.1417  0.3881
 5683SOL     OW28684   2.197   0.127   8.231  0.1243  0.0335 -0.4101
 5683SOL    HW128685   2.147   0.063   8.282 -0.6718  1.5566  0.6884
 5683SOL    HW228686   2.282   0.115   8.272 -0.7269 -1.0449  1.0315
 5684SOL     OW28687   3.082   4.384   6.766 -0.5194  0.1988  0.2498
 5684SOL    HW128688   3.058   4.305   6.718 -3.4996  0.2934  1.5450
 5684SOL    HW228689   3.046   4.454   6.712 -0.1595  1.6469  1.9052
 5685SOL     OW28690   4.258   1.506  10.427 -0.7296 -0.1003  0.7840
 5685SOL    HW128691   4.210   1.449  10.487  1.3815 -2.2755  0.4235
 5685SOL    HW228692   4.290   1.582  10.476 -1.9694  0.3611  0.8847
 5686SOL     OW28693   0.580   2.792  12.407  0.3901 -0.1712  0.1147
 5686SOL    HW128694   0.552   2.730  12.340  1.3712 -0.3847 -0.0964
 5686SOL    HW228695   0.560   2.873  12.361  0.2374  0.3597  1.1207
 5687SOL     OW28696   1.649   1.665   3.458 -0.5593 -0.4868  0.0071
 5687SOL    HW128697   1.615   1.749   3.428  1.0801  0.1449 -0.1058
 5687SOL    HW228698   1.703   1.701   3.529 -0.6497  1.2667 -0.8051
 5688SOL     OW28699   3.426   2.531   3.375  0.3401  0.0916  0.2338
 5688SOL    HW128700   3.457   2.590   3.306  1.0952  0.2595  0.7098
 5688SOL    HW228701   3.507   2.507   3.420 -0.0762 -1.6209  0.0607
 5689SOL     OW28702   0.700   3.600   5.270  0.8091  0.3216  0.4026
 5689SOL    HW128703   0.770   3.658   5.301 -1.3181  2.1967  1.6669
 5689SOL    HW228704   0.674   3.548   5.347 -1.4853 -2.3996 -2.2121
 5690SOL     OW28705   3.126   1.909  17.704 -0.2381 -0.0962  0.3497
 5690SOL    HW128706   3.203   1.919  17.648  0.4726 -1.6391  1.0644
 5690SOL    HW228707   3.104   2.002  17.705 -0.8371 -0.2398  0.2722
 5691SOL     OW28708   1.049   2.431  11.982 -0.2845  0.2761 -0.3514
 5691SOL    HW128709   1.078   2.473  12.062  0.8606  0.3619 -0.8162
 5691SOL    HW228710   1.084   2.342  11.985  0.5488  0.5895 -0.7768
 5692SOL     OW28711   4.611   1.816   3.493  0.0297 -0.7218  0.0081
 5692SOL    HW128712   4.589   1.909   3.497  1.0077 -0.4060 -1.9108
 5692SOL    HW228713   4.580   1.795   3.405  1.5492 -0.7471 -0.5109
 5693SOL     OW28714   0.650   3.070   1.804  0.0915 -0.3439  0.3763
 5693SOL    HW128715   0.695   3.113   1.877 -1.9805  1.6838  0.4475
 5693SOL    HW228716   0.607   2.999   1.852  0.1226 -2.7930 -3.2592
 5694SOL     OW28717   2.051   0.785   2.008  0.3340  0.3489  0.5473
 5694SOL    HW128718   2.063   0.730   2.086 -1.3004  0.8085  1.1225
 5694SOL    HW228719   2.114   0.749   1.946  1.2478  1.4394  0.8272
 5695SOL     OW28720   4.724   2.222   3.208  0.4428 -0.7602 -0.2601
 5695SOL    HW128721   4.723   2.168   3.130 -0.9611 -0.3044 -0.5644
 5695SOL    HW228722   0.081   2.246   3.210  0.8096 -2.2296  0.1216
 5696SOL     OW28723   4.479   0.511   1.427  0.0683 -0.0156 -0.0081
 5696SOL    HW128724   4.494   0.423   1.392 -0.0377 -1.4040  3.4115
 5696SOL    HW228725   4.538   0.498   1.501  0.9563  1.7805 -0.3946
 5697SOL     OW28726   4.605   4.180   1.598 -0.7017  0.3484  0.3798
 5697SOL    HW128727   4.537   4.231   1.556 -0.1883 -0.2478 -1.1634
 5697SOL    HW228728   4.603   4.102   1.543 -0.3879  0.0327  0.8072
 5698SOL     OW28729   1.636   0.817   3.813  0.9810  0.4519  0.0739
 5698SOL    HW128730   1.680   0.856   3.737  0.8270  1.8572  0.7021
 5698SOL    HW228731   1.548   0.842   3.784  1.2681  0.4892 -0.7630
 5699SOL     OW28732   3.555   4.527  11.255 -0.5695 -0.2554 -0.6113
 5699SOL    HW128733   3.554   4.445  11.305  0.8183 -0.8631 -1.5922
 5699SOL    HW228734   3.543   4.587  11.329  2.7291 -0.4449  0.0602
 5700SOL     OW28735   1.240   0.834   4.381  0.0179  0.1239  0.2036
 5700SOL    HW128736   1.208   0.825   4.471  0.4584 -0.2085  0.3243
 5700SOL    HW228737   1.238   0.741   4.361 -0.1170  0.1795 -0.0402
 5701SOL     OW28738   1.040   3.860   4.248  0.1302 -0.3454 -0.8875
 5701SOL    HW128739   0.986   3.815   4.313  0.0934 -0.1907 -0.8101
 5701SOL    HW228740   1.113   3.889   4.302 -0.1524 -0.9726 -0.1664
 5702SOL     OW28741   2.584   1.472   0.505  0.9476  0.1055 -0.5063
 5702SOL    HW128742   2.560   1.540   0.568  0.6634 -0.7646  0.3378
 5702SOL    HW228743   2.599   1.529   0.430  0.2856 -1.4798 -1.8396
 5703SOL     OW28744   1.895   1.982   2.100 -0.3311 -0.3815 -0.0463
 5703SOL    HW128745   1.887   2.004   2.007  1.7485 -2.0170 -0.6185
 5703SOL    HW228746   1.971   2.039   2.116  0.4605 -1.7953  1.2242
 5704SOL     OW28747   2.005   1.718   3.479  0.1807 -0.3146  0.5086
 5704SOL    HW128748   1.941   1.736   3.547 -0.2444  1.7113 -0.4172
 5704SOL    HW228749   2.085   1.733   3.531  1.4184  0.0488 -1.4990
 5705SOL     OW28750   1.313   1.495  15.215 -0.4480 -0.0540 -0.0475
 5705SOL    HW128751   1.236   1.459  15.260 -0.3132 -1.1225 -0.6758
 5705SOL    HW228752   1.377   1.445  15.267  0.8441  1.8270  0.1626
 5706SOL     OW28753   0.736   2.046  17.454 -0.0891 -0.0417 -0.6237
 5706SOL    HW128754   0.707   2.121  17.402  1.9218  1.2132  0.0740
 5706SOL    HW228755   0.713   1.980  17.388  1.2293 -0.0868 -1.0392
 5707SOL     OW28756   0.185   3.307  15.824  0.4582 -0.0293 -0.6583
 5707SOL    HW128757   0.247   3.291  15.753  1.3852  0.3006  0.0775
 5707SOL    HW228758   0.240   3.322  15.901 -0.8579 -0.7835  0.4369
 5708SOL     OW28759   0.139   1.329   8.377  0.1760 -0.5052  0.2766
 5708SOL    HW128760   0.219   1.341   8.326 -0.2378 -2.5463 -0.8312
 5708SOL    HW228761   0.160   1.249   8.425  2.8334 -1.1337 -1.9283
 5709SOL     OW28762   3.518   2.695   1.413  0.0026  0.0062  0.6149
 5709SOL    HW128763   3.542   2.634   1.483  3.3990  2.6118  1.7445
 5709SOL    HW228764   3.427   2.672   1.394  0.4295  0.8783 -2.5105
 5710SOL     OW28765   3.608   1.043  12.533 -0.0796 -0.3186  0.0740
 5710SOL    HW128766   3.554   1.049  12.454  0.1315  1.9494  0.0826
 5710SOL    HW228767   3.572   1.123  12.573  2.2835  1.0726 -0.5521
 5711SOL     OW28768   0.203   3.687   8.148  0.0776 -0.3211 -0.4503
 5711SOL    HW128769   0.218   3.741   8.226 -1.0030  0.5444 -0.8473
 5711SOL    HW228770   0.296   3.668   8.142 -0.0461 -0.6396 -1.3036
 5712SOL     OW28771   2.886   1.761  14.232 -0.2673 -0.1056 -0.4777
 5712SOL    HW128772   2.917   1.731  14.146  2.2513 -2.0167  1.1019
 5712SOL    HW228773   2.868   1.853  14.217  1.1654  0.1423 -0.6986
 5713SOL     OW28774   3.249   3.739  11.639 -0.0259  0.3099 -0.3998
 5713SOL    HW128775   3.324   3.788  11.673  1.2891 -1.3472 -0.8936
 5713SOL    HW228776   3.245   3.676  11.710  1.7146  0.4013 -0.2238
 5714SOL     OW28777   3.312   3.098   7.739 -0.4842  0.5185 -0.1357
 5714SOL    HW128778   3.250   3.074   7.807 -0.1067 -0.8507 -0.2860
 5714SOL    HW228779   3.324   3.189   7.767  0.1109  0.6868 -0.9227
 5715SOL     OW28780   0.648   4.454   8.302  0.3492  0.2212 -0.1759
 5715SOL    HW128781   0.608   4.501   8.229 -0.0616 -1.3553 -0.9696
 5715SOL    HW228782   0.736   4.442   8.265  0.9253 -1.0317  1.6062
 5716SOL     OW28783   0.357   2.162   7.669  0.0405  0.1431  0.5743
 5716SOL    HW128784   0.330   2.235   7.614  1.5124  1.9259  2.2195
 5716SOL    HW228785   0.418   2.200   7.732 -0.5941  2.0506  0.0279
 5717SOL     OW28786   2.726   4.119   3.137 -0.3854  0.1566  0.1390
 5717SOL    HW128787   2.669   4.068   3.195  0.0145  0.7613  1.0732
 5717SOL    HW228788   2.672   4.152   3.066  1.5437 -1.3709 -2.0320
 5718SOL     OW28789   4.209   3.962   6.914 -0.3680  0.1492  0.1439
 5718SOL    HW128790   4.258   4.043   6.928  0.5130 -0.2427 -0.6775
 5718SOL    HW228791   4.278   3.905   6.880 -0.4069 -0.0153  0.3435
 5719SOL     OW28792   3.099   2.553   5.836  0.0249 -0.6725  0.1456
 5719SOL    HW128793   3.063   2.475   5.877  0.8394 -1.6294 -0.9781
 5719SOL    HW228794   3.138   2.524   5.753 -1.3751 -0.8106 -0.4554
 5720SOL     OW28795   3.687   1.709  16.418  0.2980  0.2520  0.7161
 5720SOL    HW128796   3.763   1.680  16.468 -0.8688  1.9724  3.4831
 5720SOL    HW228797   3.676   1.800  16.445  0.4114  1.0168 -1.8338
 5721SOL     OW28798   1.786   0.208   5.069  0.3521 -0.1131 -0.5562
 5721SOL    HW128799   1.861   0.266   5.066 -0.4668  1.0372  1.6013
 5721SOL    HW228800   1.715   0.256   5.025 -0.1709 -1.0370 -0.7237
 5722SOL     OW28801   0.672   2.637   9.060  0.4115 -0.0323  0.0635
 5722SOL    HW128802   0.596   2.678   9.101 -1.1196 -1.9625 -0.8273
 5722SOL    HW228803   0.697   2.706   9.000 -1.0996 -2.1941 -3.0551
 5723SOL     OW28804   4.242   2.768  14.771 -0.3039 -0.2984 -0.0334
 5723SOL    HW128805   4.240   2.693  14.830 -1.7385 -1.2932 -1.3511
 5723SOL    HW228806   4.290   2.741  14.693  0.1470 -2.1445  0.8819
 5724SOL     OW28807   0.075   4.250   7.322 -0.1507 -0.0232  0.2569
 5724SOL    HW128808   0.088   4.214   7.410  0.8674  1.9850  0.9157
 5724SOL    HW228809   0.073   4.166   7.275  0.8216  1.1149 -1.8094
 5725SOL     OW28810   0.624   1.170   0.520  0.5925  0.0696  0.3682
 5725SOL    HW128811   0.620   1.075   0.535 -2.1063  0.3470  1.5146
 5725SOL    HW228812   0.701   1.174   0.464  0.2946  2.1641  0.1236
 5726SOL     OW28813   3.468   0.439   2.403 -0.1410 -0.1206 -0.2399
 5726SOL    HW128814   3.437   0.349   2.400  2.7812 -1.1121 -0.3846
 5726SOL    HW228815   3.401   0.484   2.352  1.5718  1.9003 -0.7090
 5727SOL     OW28816   1.315   3.532  13.554  0.1392  0.1949 -0.0890
 5727SOL    HW128817   1.253   3.496  13.490 -1.7651  2.5297  0.4490
 5727SOL    HW228818   1.370   3.593  13.506  0.8883  0.9725  1.7828
 5728SOL     OW28819   4.054   3.037  12.596 -0.4605  0.4963 -0.2054
 5728SOL    HW128820   4.026   2.999  12.513 -1.3239  2.0610 -0.6325
 5728SOL    HW228821   4.127   3.094  12.571 -0.3353  0.3521 -0.1717
 5729SOL     OW28822   3.079   4.548   6.271 -1.0170  0.6198 -0.1359
 5729SOL    HW128823   3.002   4.514   6.224  0.0629 -1.1409 -0.6191
 5729SOL    HW228824   3.097   4.632   6.227 -0.3052  0.3728 -0.3101
 5730SOL     OW28825   2.331   1.687  10.993 -0.0427 -0.3088 -0.1691
 5730SOL    HW128826   2.413   1.720  11.029 -1.2868  2.3595  0.1885
 5730SOL    HW228827   2.311   1.617  11.055 -1.0962 -1.6468 -2.0388
 5731SOL     OW28828   0.132   3.054   9.256  0.1101 -0.1142  0.3787
 5731SOL    HW128829   0.051   3.053   9.308 -0.0950  0.5686  0.0785
 5731SOL    HW228830   0.135   3.144   9.223 -2.0490 -1.3346 -3.1267
 5732SOL     OW28831   4.088   2.489   3.750 -0.1168 -0.0526 -0.2343
 5732SOL    HW128832   4.182   2.505   3.753  0.3184 -2.4810 -1.0940
 5732SOL    HW228833   4.059   2.567   3.797  1.7400 -0.9591  2.3722
 5733SOL     OW28834   4.356   1.514   4.168  0.0645  0.7979 -0.0041
 5733SOL    HW128835   4.429   1.555   4.121  1.5866 -1.6276  0.2283
 5733SOL    HW228836   4.406   1.446   4.214 -1.3242  0.1199  0.5198
 5734SOL     OW28837   1.858   0.042   2.862 -0.4617  0.2638  0.1885
 5734SOL    HW128838   1.855   0.058   2.956 -1.4620 -1.7974  0.5227
 5734SOL    HW228839   1.833   0.127   2.828  0.6350  1.0922  1.4493
 5735SOL     OW28840   0.762   4.244  13.670 -0.1490 -0.4152 -0.0537
 5735SOL    HW128841   0.675   4.210  13.691 -1.3563  1.5053 -1.9400
 5735SOL    HW228842   0.805   4.230  13.754  0.4208 -0.6151 -0.3791
 5736SOL     OW28843   0.813   2.816   7.451 -0.4020 -0.2901  0.3973
 5736SOL    HW128844   0.719   2.824   7.461 -0.0494  0.1555  3.2241
 5736SOL    HW228845   0.819   2.749   7.520  0.8117 -0.3358  0.2443
 5737SOL     OW28846   0.495   4.298   9.200  0.1496 -0.4582 -0.4729
 5737SOL    HW128847   0.471   4.260   9.284 -0.4375 -0.1913 -0.5215
 5737SOL    HW228848   0.581   4.260   9.182  0.6922  0.7896 -0.5084
 5738SOL     OW28849   3.960   3.565  11.868 -0.3692  0.4624 -0.7341
 5738SOL    HW128850   3.981   3.658  11.881 -1.3509  0.5603  0.1781
 5738SOL    HW228851   3.869   3.571  11.839 -0.7420  2.3021  0.7880
 5739SOL     OW28852   1.935   1.009  16.639 -0.3772  0.5881 -0.4095
 5739SOL    HW128853   1.993   0.937  16.662 -1.3368 -0.3184 -0.8355
 5739SOL    HW228854   1.964   1.085  16.689  1.7701 -0.7325  0.3487
 5740SOL     OW28855   4.465   1.009   7.216 -0.3468  0.3327 -0.0913
 5740SOL    HW128856   4.524   1.076   7.180  3.1642 -2.4491  0.5068
 5740SOL    HW228857   4.447   1.049   7.301 -0.9931 -0.3835  0.1052
 5741SOL     OW28858   0.549   4.619   8.107  0.0221 -0.3764  0.1999
 5741SOL    HW128859   0.501   4.692   8.145 -1.6576 -1.1085 -0.5314
 5741SOL    HW228860   0.501   4.598   8.027  1.9773 -0.1192 -1.0505
 5742SOL     OW28861   1.953   2.246   8.974  0.0782  0.0511  0.4531
 5742SOL    HW128862   2.003   2.239   9.055  1.4349 -1.9981 -0.5636
 5742SOL    HW228863   1.953   2.158   8.937 -2.7304  0.4338 -0.4166
 5743SOL     OW28864   1.671   1.257  15.828 -0.3487  0.2234 -0.6260
 5743SOL    HW128865   1.706   1.338  15.791  3.1198 -1.0058 -0.1014
 5743SOL    HW228866   1.724   1.249  15.907  1.4747 -0.7324 -1.9432
 5744SOL     OW28867   1.699   1.892   1.050  0.1132  0.3976 -0.7006
 5744SOL    HW128868   1.668   1.954   0.984  0.6374  2.2729  0.8436
 5744SOL    HW228869   1.735   1.824   0.992  1.0852  0.2298  0.1076
 5745SOL     OW28870   1.785   4.509   1.005  0.1601 -0.4220 -0.3957
 5745SOL    HW128871   1.693   4.532   0.993  0.8348  2.4676  0.0207
 5745SOL    HW228872   1.802   4.471   0.919  4.1249 -0.2030  0.3002
 5746SOL     OW28873   4.084   4.018   8.464 -0.1124 -0.2115 -0.2502
 5746SOL    HW128874   4.001   4.057   8.437  0.6901  1.6679 -0.0383
 5746SOL    HW228875   4.130   4.041   8.382  1.5624 -0.2283  0.6731
 5747SOL     OW28876   2.723   0.220   1.272 -0.1980 -0.0096 -0.3149
 5747SOL    HW128877   2.800   0.229   1.328 -0.9784 -0.2536  0.7952
 5747SOL    HW228878   2.689   0.309   1.275  0.2987  0.1716 -0.0738
 5748SOL     OW28879   0.292   2.763  10.428  0.1429  0.4480  0.3016
 5748SOL    HW128880   0.325   2.846  10.461  0.8799 -1.0642  3.3704
 5748SOL    HW228881   0.199   2.784  10.423  0.1769  0.6683  0.6211
 5749SOL     OW28882   2.192   1.452   5.668 -0.4443 -0.2901  0.0628
 5749SOL    HW128883   2.188   1.361   5.637 -1.3388 -0.1680 -0.2000
 5749SOL    HW228884   2.106   1.489   5.645 -1.0526 -1.9734 -0.3785
 5750SOL     OW28885   0.995   0.459   9.656 -0.4099  0.3405  0.1814
 5750SOL    HW128886   0.902   0.449   9.678 -0.2854 -2.3448 -0.5477
 5750SOL    HW228887   1.007   0.554   9.650  2.2892 -0.0003  0.0604
 5751SOL     OW28888   2.749   2.317   2.728 -0.4499 -0.2333  0.3086
 5751SOL    HW128889   2.686   2.372   2.682  0.4345  1.6507  1.3601
 5751SOL    HW228890   2.735   2.340   2.820  1.2010  1.2256  0.2077
 5752SOL     OW28891   1.170   4.367   6.831 -0.1575 -0.1152 -0.2439
 5752SOL    HW128892   1.253   4.388   6.788 -0.3618 -0.3291 -0.7395
 5752SOL    HW228893   1.200   4.336   6.916 -1.2598 -1.3161 -0.2910
 5753SOL     OW28894   3.544   1.284   8.021  0.3091  0.0042 -0.5694
 5753SOL    HW128895   3.603   1.213   7.994  1.3403  0.4658  0.4713
 5753SOL    HW228896   3.521   1.238   8.102  1.0184 -0.8058 -0.8274
 5754SOL     OW28897   1.169   3.170  13.585  0.8500 -0.0316  0.4732
 5754SOL    HW128898   1.253   3.215  13.594  1.2165  0.0255 -3.1037
 5754SOL    HW228899   1.103   3.235  13.607 -0.1956 -1.1163  0.5341
 5755SOL     OW28900   0.040   0.079   8.611 -0.2015  0.4146  0.4225
 5755SOL    HW128901   4.714   0.018   8.570  0.4952  0.6502 -0.9636
 5755SOL    HW228902   4.719   0.118   8.678 -1.1742 -0.2685  0.0149
 5756SOL     OW28903   3.990   4.441   6.398 -0.5193 -0.0700 -0.7625
 5756SOL    HW128904   3.968   4.534   6.403 -0.9261 -0.1359 -1.2865
 5756SOL    HW228905   3.912   4.394   6.427 -0.9175  2.7701  2.7053
 5757SOL     OW28906   2.160   2.432   3.167 -0.0848 -0.5629 -0.3205
 5757SOL    HW128907   2.146   2.375   3.242 -1.5379  0.0944 -0.0891
 5757SOL    HW228908   2.131   2.513   3.208 -0.0248 -0.7260  0.0415
 5758SOL     OW28909   0.233   2.453   7.209 -0.1626  0.9328 -0.5349
 5758SOL    HW128910   0.287   2.498   7.144 -1.2406  0.4040 -1.7837
 5758SOL    HW228911   0.153   2.506   7.205 -0.3549  0.8934  2.5856
 5759SOL     OW28912   3.991   3.753   3.334  0.3099  0.5405 -0.5661
 5759SOL    HW128913   3.902   3.743   3.367  1.3538 -0.7810  1.8206
 5759SOL    HW228914   4.050   3.745   3.409 -1.2618  1.2057  0.7326
 5760SOL     OW28915   0.430   3.751   4.763  0.2305 -0.1558  0.3320
 5760SOL    HW128916   0.394   3.830   4.803 -3.4089 -1.9771  0.6419
 5760SOL    HW228917   0.394   3.687   4.825  0.4421 -0.8168 -0.2239
 5761SOL     OW28918   2.794   0.792  17.233  0.3276 -0.7376 -0.6322
 5761SOL    HW128919   2.848   0.759  17.160  2.1232  0.3596  0.1961
 5761SOL    HW228920   2.712   0.823  17.195 -0.7677 -2.5733  0.2477
 5762SOL     OW28921   2.485   0.931   0.976 -0.9461 -0.2106  0.0520
 5762SOL    HW128922   2.441   0.952   1.058  0.5949  1.3296  0.4734
 5762SOL    HW228923   2.408   0.890   0.936 -1.1593  1.2196 -1.0070
 5763SOL     OW28924   1.869   1.426   0.118  0.2688 -0.5411 -0.2316
 5763SOL    HW128925   1.961   1.439   0.093 -0.0414  0.4345 -0.8598
 5763SOL    HW228926   1.832   1.393   0.037 -2.7227  0.1865  0.8290
 5764SOL     OW28927   1.954   0.771  10.381  0.2550 -0.4824 -0.4305
 5764SOL    HW128928   1.984   0.802  10.467 -1.0495 -1.0632  0.2271
 5764SOL    HW228929   1.892   0.699  10.396  0.1830  0.0175  1.7853
 5765SOL     OW28930   2.573   3.791   6.717 -0.2746 -0.0955  0.5117
 5765SOL    HW128931   2.566   3.767   6.624  2.4208 -2.7814  1.0182
 5765SOL    HW228932   2.573   3.700   6.747  0.6388  0.3680  1.8786
 5766SOL     OW28933   4.485   0.347  11.536 -0.3843 -0.1880 -0.3693
 5766SOL    HW128934   4.562   0.398  11.558 -0.9150  0.3848  0.1764
 5766SOL    HW228935   4.444   0.343  11.622 -0.0303 -2.6047 -0.3166
 5767SOL     OW28936   2.215   3.815   6.808 -0.4117  0.3495  0.2647
 5767SOL    HW128937   2.133   3.858   6.784 -0.9075 -1.1857 -0.7926
 5767SOL    HW228938   2.289   3.876   6.801 -0.4048  0.4479  1.0885
 5768SOL     OW28939   1.368   0.543  13.697 -0.8534  0.3466  0.1950
 5768SOL    HW128940   1.435   0.609  13.682  0.0480 -0.4231  0.7612
 5768SOL    HW228941   1.364   0.487  13.619  0.7716  1.0669 -0.3985
 5769SOL     OW28942   0.117   0.618   2.691 -0.2345 -0.1349  0.6665
 5769SOL    HW128943   0.067   0.580   2.618 -0.9788 -0.2357  1.2376
 5769SOL    HW228944   0.152   0.698   2.652 -0.6845 -1.3566 -2.2687
 5770SOL     OW28945   3.094   4.107   3.295  0.4254  0.4506 -0.3132
 5770SOL    HW128946   3.023   4.109   3.359  1.3870  1.5405  0.7271
 5770SOL    HW228947   3.064   4.035   3.240 -2.6607  1.9418 -0.5809
 5771SOL     OW28948   3.475   1.127   3.147 -0.2321  0.2778  0.0768
 5771SOL    HW128949   3.569   1.144   3.147 -0.3771  1.0841  1.6232
 5771SOL    HW228950   3.469   1.037   3.181 -0.8058  1.1609  2.3228
 5772SOL     OW28951   1.515   0.326   4.426 -0.2289 -0.6571  0.0605
 5772SOL    HW128952   1.592   0.357   4.379 -0.9281  0.4820 -0.3208
 5772SOL    HW228953   1.545   0.235   4.437 -0.8428 -0.9931 -1.0931
 5773SOL     OW28954   2.422   3.385  12.623 -0.2546 -0.2891  0.0146
 5773SOL    HW128955   2.445   3.385  12.716  0.2175  0.1784 -0.1036
 5773SOL    HW228956   2.446   3.298  12.591  2.5185 -0.0706  1.5131
 5774SOL     OW28957   2.069   2.167  10.234  0.5523  0.9676  0.2571
 5774SOL    HW128958   2.114   2.084  10.248  0.9548  0.8089 -1.9676
 5774SOL    HW228959   1.995   2.149  10.292 -1.3361 -1.3227 -2.9197
 5775SOL     OW28960   2.408   4.667   9.811 -0.2474  0.2066  0.4572
 5775SOL    HW128961   2.395   4.668   9.717 -0.8303  0.1514  0.5360
 5775SOL    HW228962   2.328   4.707   9.845 -0.7461 -0.0924 -0.3558
 5776SOL     OW28963   2.551   1.751  11.217  0.0100 -0.0070 -0.4402
 5776SOL    HW128964   2.490   1.821  11.194  0.2196 -0.6344 -2.9365
 5776SOL    HW228965   2.583   1.780  11.302 -0.8181  0.3924 -0.2638
 5777SOL     OW28966   1.825   3.213   5.841 -0.0082  0.6193 -0.1543
 5777SOL    HW128967   1.812   3.119   5.825  0.2739  0.3673  1.1301
 5777SOL    HW228968   1.819   3.244   5.751 -0.1185  3.7676  0.9519
 5778SOL     OW28969   3.707   4.169   9.459 -0.5643  0.0594  0.4106
 5778SOL    HW128970   3.644   4.226   9.503 -0.2248  1.4128 -0.8863
 5778SOL    HW228971   3.662   4.085   9.453 -0.8113  0.1202  1.3023
 5779SOL     OW28972   0.107   0.270   6.279  0.0921  0.3540  0.4138
 5779SOL    HW128973   0.040   0.265   6.346 -2.8284  0.8692 -2.4904
 5779SOL    HW228974   0.118   0.178   6.253  0.2192  1.1972 -2.5058
 5780SOL     OW28975   3.962   2.844   3.615 -0.1049 -0.6757 -0.2510
 5780SOL    HW128976   3.923   2.930   3.633  1.2171 -0.2185  0.4355
 5780SOL    HW228977   3.923   2.800   3.690  0.4611 -1.6679 -0.5482
 5781SOL     OW28978   3.930   1.497   6.117 -0.0188 -0.4424  0.4674
 5781SOL    HW128979   3.841   1.526   6.100 -0.1301 -0.4827  0.9890
 5781SOL    HW228980   3.981   1.575   6.137  0.4089 -0.0933 -1.9920
 5782SOL     OW28981   4.645   2.328   9.857 -0.1929  0.3385  0.9074
 5782SOL    HW128982   4.601   2.399   9.810 -1.8136 -0.6376  0.9934
 5782SOL    HW228983   4.569   2.309   9.911 -1.4504 -0.7945 -1.3234
 5783SOL     OW28984   0.628   0.482   0.630  0.4667  0.2970 -0.4616
 5783SOL    HW128985   0.572   0.407   0.608 -0.0552  0.1908  1.2722
 5783SOL    HW228986   0.631   0.536   0.551 -1.5111 -0.1410 -0.8424
 5784SOL     OW28987   2.192   0.931   8.284 -0.1115 -0.3281  0.3885
 5784SOL    HW128988   2.175   0.890   8.198 -1.1567  0.4043  0.2457
 5784SOL    HW228989   2.117   0.891   8.328  2.0810 -2.0512  2.5895
 5785SOL     OW28990   0.549   4.504   2.377 -0.5376  0.9163 -0.2632
 5785SOL    HW128991   0.516   4.442   2.441 -1.6013  0.2766 -1.4217
 5785SOL    HW228992   0.613   4.546   2.434  0.7166 -1.6727  0.2004
 5786SOL     OW28993   0.547   0.047   5.517  0.2115 -0.1240  0.2850
 5786SOL    HW128994   0.508   0.055   5.430  0.5814 -0.2600  0.1050
 5786SOL    HW228995   0.641   0.043   5.498  0.2162  0.8376  0.0857
 5787SOL     OW28996   4.169   0.473  16.470  0.0970 -0.4527 -0.0988
 5787SOL    HW128997   4.257   0.443  16.448  0.8047  2.1915 -0.8513
 5787SOL    HW228998   4.186   0.566  16.455  2.1316 -0.5233  1.8014
 5788SOL     OW28999   1.759   1.133   2.888  0.2169 -0.4243 -0.2606
 5788SOL    HW129000   1.720   1.220   2.901  2.3020  0.2192  1.7342
 5788SOL    HW229001   1.844   1.164   2.920 -0.8431  1.8188  0.4458
 5789SOL     OW29002   1.642   2.414   5.335  0.1231  0.1306  0.4223
 5789SOL    HW129003   1.580   2.381   5.271 -0.3341 -2.8691  2.3953
 5789SOL    HW229004   1.596   2.386   5.415  0.8544 -2.4035 -0.0547
 5790SOL     OW29005   3.806   0.564   1.843  0.2338  0.2916 -0.2380
 5790SOL    HW129006   3.798   0.472   1.868 -0.4129 -0.1400 -2.0217
 5790SOL    HW229007   3.881   0.578   1.901 -2.4036  1.1078  2.8932
 5791SOL     OW29008   2.488   1.884  17.661  0.4931  0.0729  0.1955
 5791SOL    HW129009   2.441   1.815  17.615  0.9850  0.1334 -0.3971
 5791SOL    HW229010   2.567   1.842  17.696 -0.2027  0.3268  2.1088
 5792SOL     OW29011   1.980   1.908   8.444  0.2376  0.1377  1.5049
 5792SOL    HW129012   1.982   1.818   8.477 -1.0251 -1.1758 -2.0062
 5792SOL    HW229013   1.887   1.927   8.455 -0.5421 -1.5734 -1.8910
 5793SOL     OW29014   3.170   1.749   7.071  0.6984  0.3244 -0.0703
 5793SOL    HW129015   3.240   1.703   7.024  0.8640 -0.5280  0.9793
 5793SOL    HW229016   3.227   1.791   7.135 -0.2760  0.7981  0.4864
 5794SOL     OW29017   0.559   3.189  15.394  0.3709  0.2435 -0.6316
 5794SOL    HW129018   0.639   3.239  15.381  0.1840  1.1866  1.8619
 5794SOL    HW229019   0.589   3.132  15.465  0.6967  1.4559  0.2011
 5795SOL     OW29020   4.267   2.819   3.638 -0.4717 -0.1404  0.6228
 5795SOL    HW129021   4.172   2.805   3.628 -0.1727 -2.2748  0.7235
 5795SOL    HW229022   4.309   2.803   3.554  0.1516  2.0789  0.5216
 5796SOL     OW29023   3.528   0.712   8.986  0.3459  0.2473  0.0490
 5796SOL    HW129024   3.546   0.758   8.905  0.5894 -0.2257 -0.1641
 5796SOL    HW229025   3.609   0.730   9.034  0.0927  2.4825 -0.3921
 5797SOL     OW29026   1.084   1.646   6.452 -0.1923  0.0190  0.0341
 5797SOL    HW129027   1.038   1.727   6.472 -0.1875 -0.5060  2.1677
 5797SOL    HW229028   1.028   1.576   6.486 -1.2539  1.8704  2.0999
 5798SOL     OW29029   3.711   4.464   2.984  0.4781  0.3512 -0.2535
 5798SOL    HW129030   3.695   4.369   2.981  1.2422  0.2608 -1.2557
 5798SOL    HW229031   3.717   4.473   3.079 -0.0600 -4.0349  0.2197
 5799SOL     OW29032   3.393   2.964   7.010 -0.1555 -0.0404  0.3514
 5799SOL    HW129033   3.457   2.898   7.036 -1.2975 -1.1248  0.3800
 5799SOL    HW229034   3.361   2.994   7.095 -1.7240 -1.1151  0.1195
 5800SOL     OW29035   1.245   2.272   2.379 -0.4447 -0.3741 -0.0352
 5800SOL    HW129036   1.301   2.274   2.302 -0.9422  0.0215 -0.3859
 5800SOL    HW229037   1.288   2.202   2.429  1.4363  0.1419 -0.9428
 5801SOL     OW29038   3.658   3.471   5.370 -0.4463  0.4690  0.0815
 5801SOL    HW129039   3.727   3.530   5.402 -1.8662  2.1216  0.1198
 5801SOL    HW229040   3.701   3.386   5.381 -1.1380  0.3770  2.2052
 5802SOL     OW29041   4.218   3.156   4.481 -0.1315  0.3585 -0.1287
 5802SOL    HW129042   4.307   3.147   4.515 -0.0844  1.3495  0.0079
 5802SOL    HW229043   4.200   3.067   4.450 -2.1865  0.6235  0.2879
 5803SOL     OW29044   2.422   3.213   1.318 -0.1137  0.1976  0.2213
 5803SOL    HW129045   2.373   3.211   1.400 -0.6345  1.0960 -0.0641
 5803SOL    HW229046   2.420   3.307   1.301 -2.2455  0.0095 -0.4732
 5804SOL     OW29047   2.273   4.042  14.508  0.0890  0.0074 -0.0973
 5804SOL    HW129048   2.322   3.975  14.460  3.8738  2.3262  0.5061
 5804SOL    HW229049   2.192   4.051  14.458  0.1634  0.5050 -0.1256
 5805SOL     OW29050   3.179   3.151   6.207  0.6172 -0.3736 -0.3976
 5805SOL    HW129051   3.139   3.118   6.127  1.8559 -0.4692 -0.9766
 5805SOL    HW229052   3.264   3.108   6.201 -0.1073 -1.7925 -0.3575
 5806SOL     OW29053   2.182   1.135   7.040 -0.0143 -0.1251  0.0459
 5806SOL    HW129054   2.156   1.227   7.038  0.3364  0.0270  2.8475
 5806SOL    HW229055   2.126   1.087   6.979  1.2263 -1.1033 -0.3163
 5807SOL     OW29056   2.810   4.024   5.494  0.0979  0.3475  0.6050
 5807SOL    HW129057   2.886   4.079   5.508  0.7147 -0.7167  1.4614
 5807SOL    HW229058   2.800   4.041   5.400  0.5073  1.8504  0.8310
 5808SOL     OW29059   2.070   3.079  10.342  0.6108  0.0210  0.3619
 5808SOL    HW129060   1.991   3.129  10.321  0.4322  0.8891  3.0102
 5808SOL    HW229061   2.088   3.046  10.254 -0.9602 -0.9994  0.4206
 5809SOL     OW29062   4.348   2.094   6.557 -0.7567 -0.1830 -0.3240
 5809SOL    HW129063   4.380   2.183   6.543  1.7898 -1.3133 -1.8012
 5809SOL    HW229064   4.360   2.092   6.652 -1.5846  0.8855 -0.2047
 5810SOL     OW29065   2.483   1.907   4.953 -0.4365  0.1807 -0.1704
 5810SOL    HW129066   2.425   1.883   4.881  0.9789  0.6871 -1.4866
 5810SOL    HW229067   2.561   1.950   4.918  1.1968 -0.6978  2.3233
 5811SOL     OW29068   3.059   1.300   0.568 -0.2232 -0.2176  0.6790
 5811SOL    HW129069   3.044   1.393   0.555 -2.7644 -0.6066  0.8058
 5811SOL    HW229070   2.976   1.276   0.609  0.4850 -1.3132  1.4656
 5812SOL     OW29071   1.996   2.646   8.359  0.4615 -0.2013  0.1010
 5812SOL    HW129072   1.991   2.593   8.438 -1.6500 -1.2492 -0.7349
 5812SOL    HW229073   2.088   2.634   8.337  0.6873  1.3410  0.1919
 5813SOL     OW29074   0.238   3.934   7.466  0.2047 -0.0929  0.2509
 5813SOL    HW129075   0.234   3.874   7.540 -0.4470 -1.3124 -0.7722
 5813SOL    HW229076   0.145   3.953   7.460 -0.1840 -2.0075  0.4046
 5814SOL     OW29077   2.800   0.779   8.159  0.6486  0.2288  0.6675
 5814SOL    HW129078   2.875   0.836   8.175  0.0592  1.0691  0.4188
 5814SOL    HW229079   2.851   0.698   8.156  0.2072 -0.0197 -0.1433
 5815SOL     OW29080   2.699   0.880   8.499 -0.8018 -0.0718 -0.1721
 5815SOL    HW129081   2.781   0.870   8.547  0.3750  0.6503 -2.0119
 5815SOL    HW229082   2.726   0.951   8.440  0.9347 -1.7855 -1.4294
 5816SOL     OW29083   1.572   3.990  12.761  0.3421  1.1820 -0.6228
 5816SOL    HW129084   1.579   3.974  12.855 -0.2998 -0.9999 -0.9259
 5816SOL    HW229085   1.478   3.999  12.745  0.1295  1.9187  1.0495
 5817SOL     OW29086   0.843   1.548   6.450 -0.6074 -0.2225  0.0514
 5817SOL    HW129087   0.812   1.617   6.509  1.4819 -0.0034  0.8767
 5817SOL    HW229088   0.800   1.472   6.489  0.0638 -0.8644 -0.4606
 5818SOL     OW29089   2.797   1.456   1.828  0.2124 -0.3472  0.7381
 5818SOL    HW129090   2.765   1.388   1.769 -0.5863  1.0063 -0.3987
 5818SOL    HW229091   2.725   1.519   1.839 -0.0633 -0.3523 -1.0144
 5819SOL     OW29092   1.306   1.490   6.639  0.2636  1.0227 -0.5118
 5819SOL    HW129093   1.296   1.584   6.626  1.9686  1.4814  1.4752
 5819SOL    HW229094   1.399   1.471   6.647 -0.0472 -0.8594 -1.2540
 5820SOL     OW29095   1.493   0.797   9.402  0.6101 -0.5639  0.1700
 5820SOL    HW129096   1.540   0.877   9.425 -0.5877  0.1302  0.1928
 5820SOL    HW229097   1.568   0.746   9.433  0.3481 -0.7261  0.5550
 5821SOL     OW29098   3.025   3.470   4.784  0.4955 -0.8673  0.0202
 5821SOL    HW129099   3.105   3.493   4.736  1.0728 -2.3900  0.2452
 5821SOL    HW229100   2.968   3.522   4.727 -1.9162 -0.8273  2.4419
 5822SOL     OW29101   1.868   2.009   7.492  0.3514 -0.1752  0.0164
 5822SOL    HW129102   1.823   2.090   7.514  0.8244  0.5768 -1.7741
 5822SOL    HW229103   1.795   1.950   7.476 -0.3251  0.3158  1.3334
 5823SOL     OW29104   1.941   1.515   7.275  0.4218 -0.0598  0.1047
 5823SOL    HW129105   1.967   1.597   7.318  0.2024  0.9469 -1.6870
 5823SOL    HW229106   1.848   1.530   7.257  0.1753  0.1384  1.5645
 5824SOL     OW29107   0.493   2.891   6.311  0.1219  0.3565  0.0671
 5824SOL    HW129108   0.571   2.942   6.332  0.3220  0.9295 -2.1477
 5824SOL    HW229109   0.500   2.824   6.380 -0.7292 -0.7411 -0.9048
 5825SOL     OW29110   1.997   3.523   3.703 -0.1383 -0.3516  0.6353
 5825SOL    HW129111   2.075   3.498   3.654  0.4134 -0.1246  1.3849
 5825SOL    HW229112   1.925   3.472   3.665 -0.5481  2.2410 -2.0352
 5826SOL     OW29113   4.447   2.718   6.855  0.1181 -0.0935 -0.3114
 5826SOL    HW129114   4.443   2.623   6.846  0.9839 -0.1639  0.0488
 5826SOL    HW229115   4.542   2.725   6.865  0.1024 -1.0818  0.6756
 5827SOL     OW29116   2.621   0.516   2.054 -0.7225  0.1726 -0.7860
 5827SOL    HW129117   2.688   0.475   2.110  0.5141  1.3364 -1.4091
 5827SOL    HW229118   2.547   0.511   2.114  0.0813  0.4524  0.2338
 5828SOL     OW29119   0.593   2.561  13.496 -0.5537 -0.2457 -0.1212
 5828SOL    HW129120   0.592   2.485  13.437 -1.3901  0.8292 -1.4814
 5828SOL    HW229121   0.553   2.633  13.447 -0.2091 -1.3279 -1.9872
 5829SOL     OW29122   3.080   2.284   5.901 -0.0829 -0.2837 -0.1493
 5829SOL    HW129123   3.056   2.204   5.948  1.1384  0.3653  1.5639
 5829SOL    HW229124   3.175   2.288   5.909 -0.2076 -1.1227  1.6583
 5830SOL     OW29125   3.545   3.441   6.928  0.6112  0.0353  0.2033
 5830SOL    HW129126   3.500   3.362   6.958 -1.0812  1.1240  0.5259
 5830SOL    HW229127   3.633   3.406   6.913 -0.3779 -1.8754 -1.2825
 5831SOL     OW29128   3.004   4.328   2.314  0.0461 -0.1851 -0.1197
 5831SOL    HW129129   2.987   4.262   2.247  1.8273  0.7729 -1.5385
 5831SOL    HW229130   2.920   4.373   2.317  0.8877  1.1926  2.7809
 5832SOL     OW29131   2.990   0.821   7.539 -0.1990  0.0568  0.7284
 5832SOL    HW129132   2.975   0.751   7.601  0.4937 -1.0025 -0.3007
 5832SOL    HW229133   2.918   0.805   7.477 -1.1534  0.6949  1.6744
 5833SOL     OW29134   2.949   0.422   6.610 -0.0245  0.2034 -0.7781
 5833SOL    HW129135   2.949   0.335   6.569 -0.1097 -0.7735  1.2914
 5833SOL    HW229136   3.038   0.444   6.582 -0.2868 -0.8651 -2.4470
 5834SOL     OW29137   4.107   0.706   6.617  0.0600  0.2812  0.0613
 5834SOL    HW129138   4.172   0.656   6.569  1.7084  1.3000  1.2130
 5834SOL    HW229139   4.155   0.710   6.700 -1.3952 -0.8770  0.9618
 5835SOL     OW29140   1.714   3.876   5.925 -0.3067 -0.1756  0.4618
 5835SOL    HW129141   1.795   3.920   5.901 -0.2803 -0.9587 -0.8848
 5835SOL    HW229142   1.715   3.882   6.020 -2.3378  0.8792  0.4118
 5836SOL     OW29143   1.168   2.293   3.378 -0.3295 -1.1284 -0.1900
 5836SOL    HW129144   1.225   2.333   3.444 -0.4105  2.8553 -2.5948
 5836SOL    HW229145   1.080   2.327   3.385  0.2209  0.2798 -0.2187
 5837SOL     OW29146   2.754   1.293   4.785 -0.2759 -0.1335  0.6877
 5837SOL    HW129147   2.769   1.212   4.834  0.9983 -0.7482 -0.7463
 5837SOL    HW229148   2.681   1.258   4.733  1.9623 -2.5121 -0.8376
 5838SOL     OW29149   2.947   0.189   8.956 -0.0501 -0.1891  0.0674
 5838SOL    HW129150   2.886   0.260   8.975  0.3774 -0.4979  2.5129
 5838SOL    HW229151   2.991   0.175   9.040 -1.2918 -0.8681  0.6139
 5839SOL     OW29152   0.410   4.727   5.963 -0.6145 -0.0243  0.7736
 5839SOL    HW129153   0.332   4.713   6.017 -2.9756  0.9914 -2.3784
 5839SOL    HW229154   0.391   4.674   5.886  1.1336 -1.6955  1.4780
 5840SOL     OW29155   3.584   2.449   8.592 -0.0820  0.2518 -0.1776
 5840SOL    HW129156   3.568   2.543   8.604  0.3128  0.2179  0.6076
 5840SOL    HW229157   3.528   2.424   8.518  0.4321 -2.2329  0.2670
 5841SOL     OW29158   2.752   4.566   6.203 -0.3451  0.4192 -0.2456
 5841SOL    HW129159   2.777   4.615   6.124 -2.5105 -1.1204 -1.9132
 5841SOL    HW229160   2.661   4.593   6.215 -0.0018  1.1502  0.7333
 5842SOL     OW29161   3.402   1.106   0.690  0.2668 -0.0117  0.6946
 5842SOL    HW129162   3.351   1.183   0.664 -0.7143 -0.6935  0.5948
 5842SOL    HW229163   3.334   1.066   0.744  0.3946 -0.2290  0.6937
 5843SOL     OW29164   3.630   4.389   4.446  0.4754  0.3185  0.5327
 5843SOL    HW129165   3.597   4.473   4.479 -0.9902 -0.1625  0.2899
 5843SOL    HW229166   3.695   4.419   4.382 -0.6369  0.6318 -0.4462
 5844SOL     OW29167   1.102   2.352   2.673  0.4182 -0.0505 -0.1002
 5844SOL    HW129168   1.128   2.282   2.615 -1.1921  0.5968 -1.5959
 5844SOL    HW229169   1.014   2.373   2.642 -0.0060  0.6185  1.5350
 5845SOL     OW29170   2.327   3.452   8.981  0.0383  0.2725 -0.3412
 5845SOL    HW129171   2.310   3.396   8.905  0.2432  0.2983 -0.4037
 5845SOL    HW229172   2.394   3.512   8.949 -1.3721  1.9033 -0.2480
 5846SOL     OW29173   2.092   2.845   7.692 -0.1125 -0.1803 -0.1868
 5846SOL    HW129174   2.053   2.760   7.711 -0.1703 -0.1932 -0.3607
 5846SOL    HW229175   2.153   2.818   7.624  2.0840 -1.2819  2.2018
 5847SOL     OW29176   0.108   2.176   3.587 -0.7993 -0.0822 -0.6478
 5847SOL    HW129177   0.163   2.144   3.515  0.0135  0.8330 -0.4219
 5847SOL    HW229178   0.135   2.124   3.662 -0.0568  2.1122  0.5885
 5848SOL     OW29179   1.506   0.640   5.087  0.1459  0.2627 -0.5706
 5848SOL    HW129180   1.437   0.575   5.099  0.5898  0.2005  1.6740
 5848SOL    HW229181   1.507   0.659   4.993  0.8889  2.0675 -0.1966
 5849SOL     OW29182   0.169   4.328   6.465 -0.3032 -0.2858 -0.3820
 5849SOL    HW129183   0.235   4.307   6.531 -1.1139 -3.5584 -0.6510
 5849SOL    HW229184   0.116   4.379   6.526  1.8277  0.6727  0.6628
 5850SOL     OW29185   1.633   3.973   8.632 -0.1238 -0.3486 -0.6860
 5850SOL    HW129186   1.696   3.915   8.590 -1.5032 -2.2261 -0.1273
 5850SOL    HW229187   1.641   3.928   8.716 -2.2991  1.8221  0.6796
 5851SOL     OW29188   1.167   0.626   8.261 -0.6766  0.0998  0.4424
 5851SOL    HW129189   1.140   0.574   8.186 -0.3804 -0.2058  0.5446
 5851SOL    HW229190   1.241   0.675   8.227  0.4587 -0.8912  1.4642
 5852SOL     OW29191   1.300   1.641  15.634 -0.9979  0.0218  0.3535
 5852SOL    HW129192   1.351   1.713  15.597  1.0761 -1.3351  0.5690
 5852SOL    HW229193   1.222   1.644  15.579 -0.7159 -3.1239 -0.2143
 5853SOL     OW29194   2.291   4.510   7.873  0.5363  0.2165 -0.1503
 5853SOL    HW129195   2.348   4.512   7.797  1.3369  3.7056  0.5221
 5853SOL    HW229196   2.337   4.574   7.927 -2.2521  1.5378  0.6815
 5854SOL     OW29197   0.232   0.483   1.753  0.1651 -0.1839 -0.1034
 5854SOL    HW129198   0.209   0.402   1.707 -0.8528  0.0975 -0.0966
 5854SOL    HW229199   0.326   0.493   1.737  0.0415  0.5144 -0.3817
 5855SOL     OW29200   3.336   4.061  11.883 -0.2378  0.3933  0.1587
 5855SOL    HW129201   3.358   3.975  11.848  0.1840  0.2466  0.7830
 5855SOL    HW229202   3.398   4.108  11.827 -0.5715  0.4509 -0.1618
 5856SOL     OW29203   2.749   0.812   5.270 -0.1923 -0.3266  0.3398
 5856SOL    HW129204   2.716   0.726   5.294  1.6979 -1.7922 -2.3080
 5856SOL    HW229205   2.841   0.799   5.246 -0.2037  0.8165 -0.3659
 5857SOL     OW29206   1.227   2.595   5.662 -0.1207 -0.4896  0.5865
 5857SOL    HW129207   1.151   2.652   5.647  0.8622  1.1252  1.8476
 5857SOL    HW229208   1.293   2.658   5.690 -0.8421  0.5920 -0.1181
 5858SOL     OW29209   3.321   2.562   8.754  0.3416 -0.0436 -0.3506
 5858SOL    HW129210   3.250   2.625   8.755  1.9988  1.8029  0.5385
 5858SOL    HW229211   3.390   2.609   8.800 -2.0032  1.9773  1.0559
 5859SOL     OW29212   3.321   0.746  15.837  0.5788 -0.3132 -0.0179
 5859SOL    HW129213   3.373   0.815  15.797  0.8233 -0.5150 -0.0459
 5859SOL    HW229214   3.365   0.750  15.921  0.5671 -1.7818  0.0609
 5860SOL     OW29215   1.950   4.172   4.064 -0.2949  0.4517  0.1781
 5860SOL    HW129216   1.919   4.123   3.989 -2.1330  0.7124  0.7560
 5860SOL    HW229217   2.034   4.131   4.082 -1.2698 -0.6575  2.2573
 5861SOL     OW29218   3.111   4.475   7.027 -0.2436  0.1473 -0.2837
 5861SOL    HW129219   3.110   4.428   6.943  0.3631 -2.4884  1.1786
 5861SOL    HW229220   3.194   4.450   7.068 -0.5753 -0.2716  0.1298
 5862SOL     OW29221   4.339   3.449  16.433  0.5405 -0.3788 -0.2759
 5862SOL    HW129222   4.266   3.451  16.495  2.0225  0.8925  1.4209
 5862SOL    HW229223   4.305   3.382  16.373 -0.3708 -0.7658  0.6732
 5863SOL     OW29224   2.078   0.198  13.697  0.2379 -0.2477 -0.1919
 5863SOL    HW129225   2.117   0.117  13.730 -0.1887  0.2424  1.5109
 5863SOL    HW229226   2.066   0.251  13.776 -0.6392 -0.5787 -0.1070
 5864SOL     OW29227   1.371   2.997  10.403  0.5449 -0.2988 -0.3157
 5864SOL    HW129228   1.391   3.031  10.315 -0.8172  1.1912 -0.0436
 5864SOL    HW229229   1.275   3.003  10.399  0.5540  0.9183  1.1443
 5865SOL     OW29230   0.510   2.331   4.198 -0.0141  0.4380 -0.7262
 5865SOL    HW129231   0.454   2.269   4.245  0.4914  0.9343  0.5296
 5865SOL    HW229232   0.479   2.418   4.225  0.0526  0.6889 -1.4682
 5866SOL     OW29233   0.739   1.304   5.508 -0.2081 -0.4243 -0.0176
 5866SOL    HW129234   0.813   1.320   5.449 -1.9817 -2.0220 -2.7270
 5866SOL    HW229235   0.664   1.348   5.467 -0.4370 -3.3029 -2.7454
 5867SOL     OW29236   4.392   1.773  17.637  0.4128  0.7132 -0.5365
 5867SOL    HW129237   4.458   1.810  17.578  1.3554 -0.3363 -0.1307
 5867SOL    HW229238   4.449   1.711  17.682 -0.3218 -1.4717 -2.6012
 5868SOL     OW29239   1.362   0.159  12.039 -0.0161 -0.0613 -0.4606
 5868SOL    HW129240   1.369   0.078  12.090 -1.7100 -0.3234 -0.6496
 5868SOL    HW229241   1.386   0.230  12.098 -2.0296 -1.0324  1.4653
 5869SOL     OW29242   2.298   0.844   7.712 -0.2597  0.3427 -0.4094
 5869SOL    HW129243   2.304   0.876   7.802 -2.3262 -0.6390  0.0799
 5869SOL    HW229244   2.217   0.794   7.719  1.0315 -1.4960  1.7566
 5870SOL     OW29245   2.743   3.268   9.415 -0.2066  0.8285  0.3814
 5870SOL    HW129246   2.655   3.301   9.434 -0.1670  1.4482 -0.4941
 5870SOL    HW229247   2.803   3.341   9.432  0.2497  0.4512  0.3706
 5871SOL     OW29248   0.351   0.633   3.983  0.5538  0.4227 -0.2493
 5871SOL    HW129249   0.334   0.583   4.063  2.9155 -1.1055 -0.6873
 5871SOL    HW229250   0.416   0.695   4.015  0.4404  0.8718 -0.9040
 5872SOL     OW29251   2.434   0.030   8.336 -0.3324  0.3001  0.7720
 5872SOL    HW129252   2.422   4.673   8.358 -3.5555  0.2316 -1.2498
 5872SOL    HW229253   2.490   0.074   8.399 -1.9796 -2.9031  4.4881
 5873SOL     OW29254   0.435   2.631   7.342  0.9052  0.0557 -0.2596
 5873SOL    HW129255   0.515   2.596   7.303  1.7118  0.0576  1.4127
 5873SOL    HW229256   0.368   2.589   7.287 -1.2721  0.3701  2.1891
 5874SOL     OW29257   0.637   1.047   7.528  0.2478  0.7077  0.1358
 5874SOL    HW129258   0.547   1.026   7.552  0.2146  2.0609  1.1849
 5874SOL    HW229259   0.649   1.003   7.444 -1.1203 -1.1966  0.9372
 5875SOL     OW29260   0.960   0.122   0.783 -0.0611 -0.5010 -0.8162
 5875SOL    HW129261   0.995   0.206   0.753 -1.5696  0.0465 -1.0203
 5875SOL    HW229262   0.935   0.074   0.704 -0.2182 -0.1220 -0.9923
 5876SOL     OW29263   1.918   0.551   5.448  0.4108  0.1695  0.4335
 5876SOL    HW129264   1.865   0.475   5.423 -1.3864  1.4930  0.2712
 5876SOL    HW229265   1.891   0.618   5.386  1.2745 -0.0321 -0.1568
 5877SOL     OW29266   4.341   3.384   6.566 -0.3546 -0.2230  0.1087
 5877SOL    HW129267   4.428   3.424   6.560 -0.2613 -0.5696 -0.9200
 5877SOL    HW229268   4.313   3.412   6.479 -0.9060 -1.9663 -0.2820
 5878SOL     OW29269   3.843   4.461   5.372 -0.1198 -0.3735 -0.2427
 5878SOL    HW129270   3.904   4.439   5.442 -1.1527 -3.7764 -0.4376
 5878SOL    HW229271   3.771   4.403   5.395 -1.6798  2.3313  1.7669
 5879SOL     OW29272   0.010   1.706  15.445 -0.0245  0.3075  0.6608
 5879SOL    HW129273   4.651   1.701  15.455 -0.2444  1.2293 -1.0544
 5879SOL    HW229274   0.051   1.633  15.492  0.3732 -0.1367 -0.3864
 5880SOL     OW29275   0.647   3.843   3.596 -0.3818  0.1548  0.1848
 5880SOL    HW129276   0.717   3.887   3.547 -0.7403  0.1740 -0.3104
 5880SOL    HW229277   0.659   3.750   3.576  1.1937  0.9808 -2.8946
 5881SOL     OW29278   4.546   2.662   3.061 -0.5957  0.2759 -0.2428
 5881SOL    HW129279   4.594   2.712   2.995  2.2254 -1.8700  0.1856
 5881SOL    HW229280   4.618   2.613   3.102  0.5653  0.6380 -1.8417
 5882SOL     OW29281   3.474   0.684   2.558  0.4652 -0.3333 -0.9040
 5882SOL    HW129282   3.505   0.636   2.481 -0.7308  1.4189 -2.4699
 5882SOL    HW229283   3.552   0.671   2.612  1.0078 -0.4741 -1.7174
 5883SOL     OW29284   2.152   2.362   5.700  0.0064  0.0073 -0.2346
 5883SOL    HW129285   2.179   2.385   5.788  1.6409 -0.4835 -0.6205
 5883SOL    HW229286   2.062   2.329   5.707  0.3052 -0.5913  0.7127
 5884SOL     OW29287   1.290   1.213  17.164 -0.1699  0.1048  0.8331
 5884SOL    HW129288   1.351   1.140  17.174 -2.6789 -2.1618 -0.5128
 5884SOL    HW229289   1.207   1.167  17.175 -0.1234 -0.4163 -1.0239
 5885SOL     OW29290   2.869   3.325  13.386 -0.3718 -0.0627 -0.2835
 5885SOL    HW129291   2.953   3.280  13.374 -0.3567  0.1628 -1.0530
 5885SOL    HW229292   2.893   3.417  13.398 -0.5694 -0.2453  1.4438
 5886SOL     OW29293   2.166   2.053   6.414 -0.0001  0.0540 -0.2196
 5886SOL    HW129294   2.072   2.063   6.430  0.4106  0.6640  1.9132
 5886SOL    HW229295   2.184   2.128   6.472  0.1123  0.8299 -1.2686
 5887SOL     OW29296   3.355   1.058  16.573  0.2563  0.3834 -0.5005
 5887SOL    HW129297   3.391   1.131  16.523 -1.8199  0.9579 -1.1179
 5887SOL    HW229298   3.266   1.050  16.540 -0.2047 -0.5095  0.9300
 5888SOL     OW29299   0.532   2.410  12.294 -0.2990 -0.4769 -0.6506
 5888SOL    HW129300   0.621   2.437  12.273  0.6504 -1.6706  1.9188
 5888SOL    HW229301   0.541   2.319  12.321 -0.0177 -0.3104 -0.1906
 5889SOL     OW29302   2.153   0.456  12.173 -0.6728  0.0351  0.2390
 5889SOL    HW129303   2.213   0.384  12.195 -2.7228 -2.4962 -2.4359
 5889SOL    HW229304   2.094   0.404  12.120  0.8331  0.0683 -1.4710
 5890SOL     OW29305   3.544   3.243  16.311  0.0387 -0.0933  0.4526
 5890SOL    HW129306   3.630   3.242  16.352  0.0361  2.9375  0.4623
 5890SOL    HW229307   3.536   3.147  16.302  0.0660 -0.2352  2.0539
 5891SOL     OW29308   4.502   0.448   7.054 -0.2349  0.1107  0.2166
 5891SOL    HW129309   4.563   0.376   7.038 -0.1856  0.6724 -2.0639
 5891SOL    HW229310   4.495   0.426   7.147 -0.3554  0.9690  0.4070
 5892SOL     OW29311   0.538   4.420   6.134 -0.0243  0.0436 -0.4183
 5892SOL    HW129312   0.609   4.439   6.195 -0.2232 -1.7108  0.3588
 5892SOL    HW229313   0.502   4.350   6.188  3.2491  0.0749  1.8250
 5893SOL     OW29314   1.899   1.476   6.300 -0.1772 -0.0108  0.4842
 5893SOL    HW129315   1.909   1.429   6.383  0.6465 -0.1761  0.2947
 5893SOL    HW229316   1.989   1.475   6.266 -0.1335  0.6952  0.5828
 5894SOL     OW29317   0.690   4.159   4.626 -0.5849  0.5864 -0.1402
 5894SOL    HW129318   0.721   4.071   4.606  1.6208  1.3139  0.0309
 5894SOL    HW229319   0.595   4.146   4.627 -0.6777  1.1393 -1.6404
 5895SOL     OW29320   4.546   4.587   2.399  0.4610  0.0241  0.6642
 5895SOL    HW129321   4.543   4.595   2.303 -1.6304 -1.3653  0.6114
 5895SOL    HW229322   4.628   4.544   2.421 -0.3104 -2.0732 -0.6029
 5896SOL     OW29323   3.488   3.095   4.613 -0.2487  0.0875 -0.2924
 5896SOL    HW129324   3.440   3.100   4.530  1.9222  2.2171 -1.4387
 5896SOL    HW229325   3.581   3.095   4.591  0.4240  0.5996  2.4933
 5897SOL     OW29326   3.225   2.779   4.944 -0.9813 -0.0967 -0.4099
 5897SOL    HW129327   3.133   2.754   4.930 -0.6036  0.8518 -4.5242
 5897SOL    HW229328   3.202   2.852   5.001  0.0637  0.8597 -1.2408
 5898SOL     OW29329   0.185   1.332   5.227 -0.2341  0.0786  0.5398
 5898SOL    HW129330   0.195   1.240   5.252  0.5876  0.5798  2.0462
 5898SOL    HW229331   0.269   1.363   5.194  0.5494  1.0120  3.3820
 5899SOL     OW29332   4.048   4.687   3.123  0.7409 -0.3399  0.5791
 5899SOL    HW129333   4.122   4.679   3.062  0.4395  1.0666  0.0289
 5899SOL    HW229334   3.971   4.692   3.067  1.8257  0.0819 -0.8896
 5900SOL     OW29335   3.206   0.371   5.981  0.2754 -0.9647  0.4847
 5900SOL    HW129336   3.155   0.450   5.996  1.3529  0.1446 -1.8106
 5900SOL    HW229337   3.228   0.374   5.888 -0.5995 -1.0780  0.2680
 5901SOL     OW29338   0.817   2.889   6.108  0.1974 -0.7019  0.3381
 5901SOL    HW129339   0.864   2.807   6.126  0.2594 -0.5179  1.0081
 5901SOL    HW229340   0.779   2.917   6.191 -0.6129  2.4303 -1.1204
 5902SOL     OW29341   2.453   2.610   3.533  0.1182 -0.3803  0.2104
 5902SOL    HW129342   2.444   2.553   3.456 -1.7794 -0.0222  0.1617
 5902SOL    HW229343   2.392   2.566   3.591 -1.3672  0.4843 -0.7004
 5903SOL     OW29344   4.627   4.712   4.094  0.2643  0.0073 -0.1104
 5903SOL    HW129345   4.718   4.711   4.064 -0.4162 -1.3843 -2.1073
 5903SOL    HW229346   4.595   0.067   4.083 -0.6939 -0.3426 -0.2404
 5904SOL     OW29347   1.707   2.838   2.639  0.4890  0.0113  0.2500
 5904SOL    HW129348   1.678   2.888   2.563  1.5678  1.9778  1.1383
 5904SOL    HW229349   1.670   2.752   2.618  0.7234  0.3954 -1.7885
 5905SOL     OW29350   3.203   2.106  17.158  0.1163  0.3216 -0.1001
 5905SOL    HW129351   3.290   2.101  17.118  0.2185 -1.1391  0.3085
 5905SOL    HW229352   3.188   2.017  17.189 -0.9072  0.3669 -0.4716
 5906SOL     OW29353   0.107   0.735   3.786  0.4985  0.3043 -0.3616
 5906SOL    HW129354   0.181   0.777   3.831  1.4683  1.0905 -2.6710
 5906SOL    HW229355   0.039   0.727   3.852  1.0958  0.9005  0.3282
 5907SOL     OW29356   4.196   1.424  17.311  0.0184  0.0182 -0.0886
 5907SOL    HW129357   4.272   1.376  17.280 -0.7893 -0.9285 -0.6007
 5907SOL    HW229358   4.225   1.515  17.312 -0.4716  0.1828 -0.4577
 5908SOL     OW29359   2.603   3.923   7.405 -0.4864  0.2716 -0.4368
 5908SOL    HW129360   2.605   3.985   7.332  0.7766  1.3003  0.4708
 5908SOL    HW229361   2.584   3.980   7.480  2.8526  0.5255  0.2528
 5909SOL     OW29362   2.922   3.350   7.275  0.0273 -0.0645  0.4322
 5909SOL    HW129363   2.951   3.263   7.248 -1.1545 -0.2832 -0.1252
 5909SOL    HW229364   2.858   3.330   7.342 -0.5837 -2.3577 -0.8154
 5910SOL     OW29365   1.142   1.125   5.475  0.1797 -0.4255 -0.2812
 5910SOL    HW129366   1.210   1.146   5.539 -1.9479 -0.5173  2.0429
 5910SOL    HW229367   1.183   1.161   5.397  0.5821  1.2828  0.7233
 5911SOL     OW29368   1.644   4.047   4.026  0.4711 -0.2862 -0.8705
 5911SOL    HW129369   1.608   4.039   3.938  1.0564  2.8640 -1.4111
 5911SOL    HW229370   1.728   4.087   4.003  0.8538 -0.2356  0.5800
 5912SOL     OW29371   3.589   0.692   2.241 -0.1086  0.3536 -0.5574
 5912SOL    HW129372   3.666   0.726   2.195 -2.0101  3.9364 -1.1010
 5912SOL    HW229373   3.620   0.626   2.303  1.8761  0.6783 -1.2028
 5913SOL     OW29374   2.311   0.570   7.974 -0.4225  0.5051 -0.7513
 5913SOL    HW129375   2.287   0.551   7.883 -0.7378  0.7399 -0.7171
 5913SOL    HW229376   2.223   0.569   8.011  0.4428 -0.0147  1.3041
 5914SOL     OW29377   4.432   3.402  13.024 -0.0709  0.0777  0.6565
 5914SOL    HW129378   4.338   3.416  13.029  0.0276  0.7925  0.4737
 5914SOL    HW229379   4.433   3.313  13.059 -1.3994 -1.5510 -3.4614
 5915SOL     OW29380   0.622   2.222   2.517  0.4044  0.4154  0.5175
 5915SOL    HW129381   0.607   2.173   2.436 -0.6999  2.1492 -0.3430
 5915SOL    HW229382   0.563   2.297   2.522  0.4738  0.5962 -1.5386
 5916SOL     OW29383   4.431   2.830   6.138  0.1610  0.0007  0.2787
 5916SOL    HW129384   4.399   2.742   6.118  0.8671 -0.1343 -0.2483
 5916SOL    HW229385   4.437   2.866   6.049  1.8659 -2.5059 -0.6015
 5917SOL     OW29386   3.038   3.489   3.924  0.2081 -0.4093 -0.1728
 5917SOL    HW129387   3.026   3.514   4.016 -4.0325 -1.3725 -0.4405
 5917SOL    HW229388   3.132   3.494   3.905 -0.0100  2.0909 -0.6559
 5918SOL     OW29389   0.833   3.384   8.538  0.3643  0.2886  0.0177
 5918SOL    HW129390   0.854   3.305   8.588 -1.5920  0.9260  1.8028
 5918SOL    HW229391   0.897   3.441   8.582 -1.1207  0.2440  2.2055
 5919SOL     OW29392   3.930   3.451   7.181  0.0971  0.2271  0.0052
 5919SOL    HW129393   3.838   3.462   7.203 -0.6187 -1.3865 -2.1219
 5919SOL    HW229394   3.915   3.389   7.110  0.5887 -0.9874  0.9722
 5920SOL     OW29395   2.295   2.157   6.997 -0.2184 -0.1874  0.6941
 5920SOL    HW129396   2.305   2.133   7.089  1.5228 -2.0507  0.0052
 5920SOL    HW229397   2.293   2.253   6.998  3.8607 -0.0639 -0.2728
 5921SOL     OW29398   1.060   3.397   4.327 -0.0151 -0.0225  0.1795
 5921SOL    HW129399   1.142   3.413   4.374  0.5712  0.2926 -0.9367
 5921SOL    HW229400   1.067   3.454   4.250  0.3637 -0.8834 -0.4344
 5922SOL     OW29401   0.943   1.297   4.135 -0.6298 -0.5425  0.2603
 5922SOL    HW129402   0.976   1.228   4.077 -0.2092  0.5679 -0.8154
 5922SOL    HW229403   0.906   1.251   4.211 -3.0582  0.6014 -0.2372
 5923SOL     OW29404   1.795   3.729   9.092 -0.2457 -0.1581  0.1348
 5923SOL    HW129405   1.826   3.664   9.029  2.2980 -0.5009  1.7746
 5923SOL    HW229406   1.793   3.671   9.168 -0.1946 -1.9376 -1.2215
 5924SOL     OW29407   1.948   2.892  14.506 -0.7923 -0.1356 -0.1633
 5924SOL    HW129408   2.018   2.860  14.563 -0.1976 -0.9324 -1.3532
 5924SOL    HW229409   1.938   2.820  14.443 -0.3542 -0.2743 -0.0747
 5925SOL     OW29410   2.944   1.806   1.588 -0.3730 -0.1531 -0.0248
 5925SOL    HW129411   2.993   1.771   1.514  1.0030  1.8593 -0.0649
 5925SOL    HW229412   2.855   1.813   1.552 -0.2125 -2.1646 -0.7607
 5926SOL     OW29413   2.461   3.810   2.221 -0.5443  0.4689 -0.6236
 5926SOL    HW129414   2.396   3.777   2.159 -2.0486 -1.4989  2.0116
 5926SOL    HW229415   2.470   3.902   2.195 -0.6261  0.6317 -0.0784
 5927SOL     OW29416   4.581   2.792   2.561  0.5010 -0.3493 -0.4817
 5927SOL    HW129417   4.518   2.805   2.490  0.2562  0.4419 -0.1238
 5927SOL    HW229418   4.655   2.849   2.541 -0.4485  1.6185  1.6062
 5928SOL     OW29419   2.513   0.187   8.927 -0.5991  0.7951 -0.2310
 5928SOL    HW129420   2.514   0.122   8.997 -0.0639 -0.9752 -1.8706
 5928SOL    HW229421   2.546   0.129   8.858  1.4384  1.4603  0.1923
 5929SOL     OW29422   3.135   2.855   9.588  0.2545 -0.1261  0.4841
 5929SOL    HW129423   3.071   2.839   9.518  0.3782  1.7682 -0.0588
 5929SOL    HW229424   3.215   2.869   9.538 -1.0044 -1.4681 -1.9040
 5930SOL     OW29425   0.261   3.521   7.091  0.8088  0.7917  0.1933
 5930SOL    HW129426   0.210   3.534   7.171  2.4526  3.3438  0.8298
 5930SOL    HW229427   0.217   3.587   7.037  1.8194  1.3612  0.0614
 5931SOL     OW29428   0.053   2.957   3.604 -0.1731  0.3910  0.3077
 5931SOL    HW129429   0.009   2.875   3.579 -1.0896  0.8155  0.5565
 5931SOL    HW229430   4.723   3.000   3.659  0.6254 -0.0144  1.5939
 5932SOL     OW29431   0.411   2.159   8.603 -0.0280 -0.1669  0.6357
 5932SOL    HW129432   0.340   2.177   8.665 -0.6713  1.4582 -0.5933
 5932SOL    HW229433   0.363   2.110   8.536 -1.3431  0.4000  1.1690
 5933SOL     OW29434   3.849   2.249  12.485 -0.2148 -0.0707 -0.0802
 5933SOL    HW129435   3.917   2.184  12.467 -0.4570 -0.3950  0.1868
 5933SOL    HW229436   3.822   2.263  12.395 -3.5170 -1.1331  0.7357
 5934SOL     OW29437   1.637   1.392  10.302  0.5886 -0.1000  0.4655
 5934SOL    HW129438   1.661   1.375  10.210 -0.3136 -0.4094  0.2890
 5934SOL    HW229439   1.638   1.488  10.300  0.0218 -0.0916  0.5813
 5935SOL     OW29440   3.489   0.917   2.126 -0.4775  0.0110  0.0975
 5935SOL    HW129441   3.490   0.822   2.132 -0.4255 -0.0409 -0.6598
 5935SOL    HW229442   3.539   0.942   2.203  0.0844 -3.0082  0.6992
 5936SOL     OW29443   2.598   0.718  14.906 -0.0497 -0.4775  0.6243
 5936SOL    HW129444   2.655   0.753  14.974 -0.9242  1.3836  0.3925
 5936SOL    HW229445   2.629   0.756  14.824  1.2526 -1.0295  0.8567
 5937SOL     OW29446   2.875   2.926   7.435 -0.1533 -0.6486  0.0211
 5937SOL    HW129447   2.793   2.894   7.396 -0.6378 -0.8631  1.1986
 5937SOL    HW229448   2.834   2.992   7.491 -1.0642 -0.0937 -1.3111
 5938SOL     OW29449   2.204   0.759   4.146 -0.2574 -0.5807 -0.0334
 5938SOL    HW129450   2.228   0.851   4.159 -0.6669 -0.5986  0.8654
 5938SOL    HW229451   2.235   0.751   4.056  0.7926  0.0970  0.2748
 5939SOL     OW29452   3.798   4.292   6.048 -0.0486 -0.4231  0.9331
 5939SOL    HW129453   3.710   4.313   6.016  1.0609 -1.0742 -2.5477
 5939SOL    HW229454   3.765   4.231   6.114 -1.6935 -0.3895  0.1376
 5940SOL     OW29455   2.749   2.920   1.045 -0.1496 -0.2455  0.4003
 5940SOL    HW129456   2.670   2.925   1.098 -0.6426  0.2340 -0.3784
 5940SOL    HW229457   2.707   2.877   0.971 -0.4995 -0.6898  0.8618
 5941SOL     OW29458   3.484   3.275   0.356  0.4568 -0.0311 -0.4348
 5941SOL    HW129459   3.493   3.345   0.421 -1.8992  1.0087 -1.2221
 5941SOL    HW229460   3.567   3.228   0.363  0.4036  0.2582  2.3511
 5942SOL     OW29461   0.672   0.063   8.765 -0.4132 -0.2328 -0.0878
 5942SOL    HW129462   0.585   0.076   8.803 -0.5779 -0.4573 -0.3757
 5942SOL    HW229463   0.667   0.092   8.674  0.4082  0.5118  0.1110
 5943SOL     OW29464   3.796   4.220  11.580 -1.0718  0.0071  0.2995
 5943SOL    HW129465   3.800   4.252  11.490  1.7345 -0.4669  0.2256
 5943SOL    HW229466   3.885   4.186  11.593 -0.8773 -0.0634 -1.2239
 5944SOL     OW29467   2.933   3.482   6.338  0.9060  0.4329 -0.4188
 5944SOL    HW129468   2.939   3.409   6.399  1.7976  2.0315  1.3982
 5944SOL    HW229469   2.933   3.555   6.400 -1.1518 -0.8099  1.0680
 5945SOL     OW29470   2.640   3.026   7.253  0.6052  0.1298 -0.1682
 5945SOL    HW129471   2.559   3.032   7.201  0.7881  2.8735 -0.1284
 5945SOL    HW229472   2.622   3.095   7.316  0.9799  0.0657  0.0101
 5946SOL     OW29473   0.931   2.921   0.694  0.2771  0.1551 -0.5828
 5946SOL    HW129474   0.980   2.923   0.777  1.3285 -1.6254 -1.1719
 5946SOL    HW229475   0.986   2.859   0.646  1.3859  1.6123 -1.2105
 5947SOL     OW29476   0.847   0.728   8.832 -0.0778 -0.0361 -0.0024
 5947SOL    HW129477   0.942   0.732   8.816 -0.2968  2.0024 -0.7557
 5947SOL    HW229478   0.811   0.769   8.753 -0.5728  0.7552  0.6427
 5948SOL     OW29479   0.859   0.061   8.999  0.0332 -0.0491  0.2132
 5948SOL    HW129480   0.934   0.120   8.987  0.8962 -1.2702 -0.3682
 5948SOL    HW229481   0.820   0.065   8.911  1.0933  0.1802 -0.2515
 5949SOL     OW29482   0.711   1.715   4.259 -0.7911  1.1587 -0.0315
 5949SOL    HW129483   0.721   1.632   4.212 -1.3907 -0.3496  2.4972
 5949SOL    HW229484   0.622   1.696   4.290 -0.3843  0.9406  1.0025
 5950SOL     OW29485   3.337   3.836   5.387 -0.0792  0.1946 -0.5964
 5950SOL    HW129486   3.351   3.750   5.428 -1.5840  0.4237  0.4056
 5950SOL    HW229487   3.365   3.818   5.297 -0.5923  1.6218 -1.0386
 5951SOL     OW29488   1.874   2.241   7.302 -0.2477  0.3213  0.0855
 5951SOL    HW129489   1.877   2.335   7.282  1.1831  0.1779 -0.2915
 5951SOL    HW229490   1.832   2.245   7.388  0.5394 -2.1871  0.5782
 5952SOL     OW29491   1.546   3.638   4.549 -0.3467 -0.0680  0.3541
 5952SOL    HW129492   1.561   3.631   4.455  0.7968 -3.3608  0.7656
 5952SOL    HW229493   1.474   3.700   4.552 -0.7841 -0.5452 -0.3568
 5953SOL     OW29494   1.829   1.275   7.097 -0.4644  0.2493 -0.0036
 5953SOL    HW129495   1.900   1.318   7.145  0.4999 -2.8929  1.4315
 5953SOL    HW229496   1.784   1.237   7.173 -1.5515  1.0423 -0.2489
 5954SOL     OW29497   1.600   1.321  11.331  0.0475 -0.6540 -0.2589
 5954SOL    HW129498   1.645   1.340  11.413 -0.2825  1.8192 -0.6669
 5954SOL    HW229499   1.679   1.300  11.280 -0.2849 -1.0379 -0.6199
 5955SOL     OW29500   4.646   2.480  11.110  0.1060 -0.4275  0.3016
 5955SOL    HW129501   4.718   2.433  11.069 -0.7690 -0.9113 -0.6891
 5955SOL    HW229502   4.679   2.565  11.138  1.7275 -1.1386  0.5892
 5956SOL     OW29503   1.121   1.008   2.950  0.2571 -0.0387 -0.1145
 5956SOL    HW129504   1.054   1.031   2.885  1.5016 -0.8878 -1.6916
 5956SOL    HW229505   1.145   0.921   2.920 -1.1507 -0.4163 -0.1454
 5957SOL     OW29506   3.206   4.286   1.690  0.2034  0.3019 -0.6314
 5957SOL    HW129507   3.248   4.215   1.643  0.7030 -1.3435  2.2891
 5957SOL    HW229508   3.130   4.235   1.718 -0.5473  1.4585 -0.5582
 5958SOL     OW29509   0.126   3.259   8.892 -0.1255 -0.0230 -0.8120
 5958SOL    HW129510   0.083   3.286   8.811  1.4925  0.7776 -1.4038
 5958SOL    HW229511   0.214   3.243   8.858 -0.3669 -0.5748 -1.1807
 5959SOL     OW29512   2.057   0.727   7.742 -0.1713 -0.3693  0.4399
 5959SOL    HW129513   1.978   0.715   7.689 -0.0083  0.0026  0.1118
 5959SOL    HW229514   2.099   0.643   7.724 -0.1142 -1.1050  3.9773
 5960SOL     OW29515   2.897   3.494  15.408  0.1495  0.6515  0.0350
 5960SOL    HW129516   2.956   3.463  15.477 -1.1225 -0.3071  0.6997
 5960SOL    HW229517   2.888   3.417  15.351  0.5447  0.7790 -0.2030
 5961SOL     OW29518   3.255   3.734   8.279 -0.0466  0.2501 -0.0097
 5961SOL    HW129519   3.165   3.757   8.300  0.2342  1.7477 -0.4896
 5961SOL    HW229520   3.296   3.820   8.290  1.0368 -0.3205  0.4810
 5962SOL     OW29521   1.851   2.927   4.994  0.0254 -0.4882 -0.0280
 5962SOL    HW129522   1.947   2.924   4.990  0.1642 -1.7440  3.7342
 5962SOL    HW229523   1.846   3.021   4.976 -1.6591 -0.5730 -0.0371
 5963SOL     OW29524   4.415   3.878   6.023 -0.5988 -0.5864 -0.1139
 5963SOL    HW129525   4.383   3.949   6.079  1.6800  0.5623 -0.2880
 5963SOL    HW229526   4.368   3.898   5.942  0.9460  0.4308 -0.7539
 5964SOL     OW29527   2.254   4.443   5.538 -0.5797  0.2107  0.5058
 5964SOL    HW129528   2.244   4.483   5.451 -0.1549  0.4051  0.5452
 5964SOL    HW229529   2.343   4.407   5.532 -0.2893  1.1707 -1.1081
 5965SOL     OW29530   0.474   2.587   3.221 -0.0475  0.5572  0.1712
 5965SOL    HW129531   0.437   2.514   3.270  0.9850 -1.0392 -1.4512
 5965SOL    HW229532   0.395   2.637   3.202  0.2048  1.0298  0.3561
 5966SOL     OW29533   2.097   1.623  10.059 -0.3216  0.0789  0.3166
 5966SOL    HW129534   2.189   1.596  10.059 -0.5325 -0.6488 -0.2780
 5966SOL    HW229535   2.092   1.717  10.076 -1.0091  0.1539 -0.3201
 5967SOL     OW29536   2.909   2.494   9.039 -0.2206 -0.1805 -0.1855
 5967SOL    HW129537   2.924   2.504   9.133 -1.5025 -1.4952  0.1462
 5967SOL    HW229538   2.883   2.582   9.010  1.6334  1.2331  2.4424
 5968SOL     OW29539   4.054   0.366   6.759 -0.3143  0.1182 -0.0695
 5968SOL    HW129540   4.139   0.409   6.773  0.1704 -1.5919  2.1983
 5968SOL    HW229541   4.048   0.321   6.843  0.6573  1.0578  0.5221
 5969SOL     OW29542   4.633   3.066  10.601 -0.1210  0.8718  0.1729
 5969SOL    HW129543   4.669   3.041  10.516 -0.9856 -2.3582  0.7519
 5969SOL    HW229544   4.708   3.053  10.659  0.2921 -0.9890 -0.7733
 5970SOL     OW29545   4.261   3.276   3.231 -0.0863  0.2894 -0.2516
 5970SOL    HW129546   4.297   3.334   3.165  0.1497 -1.2740 -1.5083
 5970SOL    HW229547   4.253   3.333   3.308  0.8305 -0.8475  0.6974
 5971SOL     OW29548   0.749   0.441   1.405 -0.0443 -0.5871 -0.4099
 5971SOL    HW129549   0.821   0.383   1.425  0.2846 -0.6773 -1.8485
 5971SOL    HW229550   0.792   0.521   1.436  1.4652 -1.7627  0.5027
 5972SOL     OW29551   1.698   0.878   6.900 -0.0246  0.8767 -0.1080
 5972SOL    HW129552   1.671   0.939   6.830  1.1626 -0.1875 -1.4993
 5972SOL    HW229553   1.709   0.797   6.851 -1.2696  1.1388 -0.8384
 5973SOL     OW29554   1.798   3.686   6.876 -0.0683  0.0797  0.5034
 5973SOL    HW129555   1.778   3.741   6.951 -0.2108 -2.6506  2.4866
 5973SOL    HW229556   1.861   3.743   6.833 -0.2874 -1.0421 -1.3117
 5974SOL     OW29557   4.502   2.340   6.551  0.7187 -0.1169  0.4140
 5974SOL    HW129558   4.519   2.433   6.561  0.2187  0.0770 -0.5203
 5974SOL    HW229559   4.582   2.297   6.579  1.7085  3.0319  2.3611
 5975SOL     OW29560   4.606   0.312   2.632 -0.2412 -0.7383 -0.0618
 5975SOL    HW129561   4.701   0.308   2.630 -0.2214 -1.1872  2.3507
 5975SOL    HW229562   4.598   0.270   2.717 -1.4507  0.0980  0.2490
 5976SOL     OW29563   0.401   3.557   4.980 -0.4014  0.0436 -0.3887
 5976SOL    HW129564   0.382   3.582   5.070 -1.6636 -2.4339  0.0261
 5976SOL    HW229565   0.495   3.542   4.980 -0.0867  1.9383 -1.5988
 5977SOL     OW29566   0.157   4.514  14.848  0.2537 -0.2273  0.4744
 5977SOL    HW129567   0.233   4.494  14.903  0.7828  1.2872  0.3043
 5977SOL    HW229568   0.166   4.450  14.777  2.9955  0.5944  0.0563
 5978SOL     OW29569   2.862   1.826   7.401 -0.0585 -0.1573 -0.7681
 5978SOL    HW129570   2.905   1.862   7.324 -0.5516  0.3147 -0.8234
 5978SOL    HW229571   2.858   1.731   7.388  0.2588 -0.0989 -1.2977
 5979SOL     OW29572   3.685   3.438   0.928  0.3440  0.2319 -0.1148
 5979SOL    HW129573   3.758   3.381   0.951  0.3667  0.0849 -0.5519
 5979SOL    HW229574   3.723   3.526   0.921 -0.5843  0.6114 -0.3094
 5980SOL     OW29575   0.421   0.048  10.792  0.1131  0.4107 -0.2821
 5980SOL    HW129576   0.460   0.133  10.773 -0.9970  0.8678 -0.5470
 5980SOL    HW229577   0.471   0.021  10.869 -1.0730  1.5308  0.9071
 5981SOL     OW29578   0.880   1.094   2.493  0.6437  0.1711 -0.1644
 5981SOL    HW129579   0.795   1.050   2.501 -0.6829  2.9453  1.1246
 5981SOL    HW229580   0.854   1.177   2.452 -0.4647 -0.6662 -1.1650
 5982SOL     OW29581   3.199   4.177   2.978 -0.2353 -0.4073 -0.0025
 5982SOL    HW129582   3.162   4.107   2.923  0.4145 -2.5664  2.3245
 5982SOL    HW229583   3.275   4.206   2.929 -0.9194 -0.7999 -1.3203
 5983SOL     OW29584   2.587   3.950   8.804  0.4270  0.3836 -0.3293
 5983SOL    HW129585   2.647   3.931   8.732  0.1471 -0.3311 -0.3668
 5983SOL    HW229586   2.502   3.918   8.774 -1.1318  0.5575  3.9170
 5984SOL     OW29587   1.499   2.756   7.720  0.0310 -0.3480  0.0284
 5984SOL    HW129588   1.577   2.782   7.770  0.2678 -1.1031  0.0575
 5984SOL    HW229589   1.487   2.840   7.677  1.6551 -0.2031 -0.1635
 5985SOL     OW29590   0.892   0.278   3.275 -0.0063  0.1094  0.2051
 5985SOL    HW129591   0.928   0.256   3.361  1.6953  2.8556  0.2224
 5985SOL    HW229592   0.967   0.256   3.220 -2.2629 -0.1663 -2.7669
 5986SOL     OW29593   2.386   2.158   3.589 -0.2259  1.0453 -0.4725
 5986SOL    HW129594   2.336   2.155   3.507  0.7767 -1.1650 -1.0137
 5986SOL    HW229595   2.473   2.131   3.558 -0.7395 -1.7948  0.6011
 5987SOL     OW29596   0.752   2.800  13.597 -0.4211  0.0184 -0.2149
 5987SOL    HW129597   0.693   2.725  13.594  0.8021 -1.0261  1.6315
 5987SOL    HW229598   0.700   2.876  13.572 -0.1957 -0.3737 -1.8351
 5988SOL     OW29599   4.440   2.648  11.316  0.1879  0.3817  0.1597
 5988SOL    HW129600   4.521   2.658  11.266 -0.7729 -0.5313 -1.6125
 5988SOL    HW229601   4.439   2.720  11.379  0.8710 -0.0155  0.6177
 5989SOL     OW29602   0.058   4.570  17.427 -0.4809 -0.1968 -0.4690
 5989SOL    HW129603   4.720   4.621  17.460  0.3122  0.4828  0.2533
 5989SOL    HW229604   0.024   4.482  17.440  0.3222 -0.6143 -1.2512
 5990SOL     OW29605   3.955   4.532   4.220  0.4256 -0.3695 -0.2323
 5990SOL    HW129606   3.983   4.615   4.181 -3.3253  0.7293 -0.5921
 5990SOL    HW229607   3.970   4.558   4.311 -3.2845  2.3513 -0.4134
 5991SOL     OW29608   0.186   2.437   4.295 -0.0228 -0.4015 -0.8153
 5991SOL    HW129609   0.138   2.399   4.369  2.4797 -2.3247 -0.1754
 5991SOL    HW229610   0.255   2.489   4.336 -0.7304 -0.4787  0.4730
 5992SOL     OW29611   3.061   2.172   8.450 -0.1431  0.4315  0.3995
 5992SOL    HW129612   3.115   2.250   8.439  1.0440 -0.6154 -1.0520
 5992SOL    HW229613   3.088   2.120   8.375 -1.9516  3.1128 -2.1025
 5993SOL     OW29614   2.219   3.550  16.606  0.4988  0.3059  0.1679
 5993SOL    HW129615   2.189   3.630  16.561 -0.1561 -0.9540 -1.6304
 5993SOL    HW229616   2.173   3.481  16.558  0.3257 -0.8737  2.0264
 5994SOL     OW29617   0.895   0.382  14.620  0.0372  0.0181 -0.3586
 5994SOL    HW129618   0.909   0.351  14.709  1.9866 -0.3589 -0.8206
 5994SOL    HW229619   0.890   0.471  14.656  0.8720  0.5136 -1.4795
 5995SOL     OW29620   4.335   2.378   3.292  0.5664 -0.0353 -0.4866
 5995SOL    HW129621   4.412   2.322   3.285 -0.5994 -1.7118  0.0855
 5995SOL    HW229622   4.271   2.310   3.314 -0.5022  1.8753  2.3278
 5996SOL     OW29623   0.524   0.172   1.515 -0.3154 -0.6473  0.4068
 5996SOL    HW129624   0.598   0.213   1.471 -0.4103 -1.3546 -0.4224
 5996SOL    HW229625   0.499   0.100   1.457  0.0410 -1.7682  1.6265
 5997SOL     OW29626   3.652   4.365   7.319 -0.0347 -0.3077  0.4594
 5997SOL    HW129627   3.584   4.424   7.350  1.0472  1.3414 -0.2598
 5997SOL    HW229628   3.631   4.331   7.232 -0.9179 -0.8726  0.8906
 5998SOL     OW29629   4.729   2.875   4.481 -0.5696  0.3461 -0.3694
 5998SOL    HW129630   4.709   2.854   4.572  1.8697  0.2795  0.1454
 5998SOL    HW229631   4.720   2.970   4.478 -1.0017  0.3759  1.9675
 5999SOL     OW29632   0.864   0.824   7.367  0.4755  0.5769  0.1801
 5999SOL    HW129633   0.930   0.860   7.426  2.7517  0.8286 -2.4577
 5999SOL    HW229634   0.919   0.752   7.335  1.0150 -0.0234  2.4569
 6000SOL     OW29635   3.957   2.909  12.330  0.2051 -0.5804 -0.0565
 6000SOL    HW129636   4.013   2.880  12.258 -0.7300 -1.9501 -0.2316
 6000SOL    HW229637   3.869   2.915  12.295 -0.5626 -1.6762  1.6733
 6001SOL     OW29638   0.492   4.601   6.892 -0.3276  0.2451 -0.6396
 6001SOL    HW129639   0.455   4.568   6.974 -0.8977 -1.4093 -1.5650
 6001SOL    HW229640   0.463   4.692   6.900 -0.6389 -0.1336  2.6222
 6002SOL     OW29641   3.341   1.193  17.379  0.1006 -0.3027  0.0076
 6002SOL    HW129642   3.411   1.153  17.431  0.8953 -0.4890 -1.2255
 6002SOL    HW229643   3.309   1.119  17.328  0.4168 -0.2235 -0.3082
 6003SOL     OW29644   1.975   4.526  12.670 -0.1106  0.2398 -0.2966
 6003SOL    HW129645   2.043   4.555  12.731 -1.4633 -0.9042  1.7299
 6003SOL    HW229646   2.020   4.550  12.588 -0.7292 -1.1276 -1.0384
 6004SOL     OW29647   2.488   2.859   4.207  0.3917 -0.2543 -0.2826
 6004SOL    HW129648   2.526   2.843   4.121 -0.0729  0.6022 -0.6465
 6004SOL    HW229649   2.405   2.902   4.187  1.1535  2.6570  2.5801
 6005SOL     OW29650   1.741   3.248   7.964  0.3742 -0.1865 -0.8358
 6005SOL    HW129651   1.805   3.278   7.900 -1.1133 -0.1723 -2.3105
 6005SOL    HW229652   1.799   3.198   8.022  1.8985  3.0644  0.4327
 6006SOL     OW29653   3.230   2.058   8.226 -0.3353  0.5798  0.3067
 6006SOL    HW129654   3.292   2.024   8.162 -1.2801 -1.4479  0.4733
 6006SOL    HW229655   3.256   2.150   8.216 -0.9729  0.9730  2.1773
 6007SOL     OW29656   2.342   0.096   3.726  0.5382  0.4088 -0.0972
 6007SOL    HW129657   2.418   0.111   3.670  1.2724 -0.1522  0.7485
 6007SOL    HW229658   2.367   0.091   3.818  2.0104 -0.5598 -0.5484
 6008SOL     OW29659   4.009   3.020   7.008  0.3032  0.2558 -0.1006
 6008SOL    HW129660   3.986   3.030   6.915 -1.0195  3.2118  0.5629
 6008SOL    HW229661   3.943   3.071   7.054  1.1724 -0.1527  1.5883
 6009SOL     OW29662   1.845   2.866  12.599  0.8133 -0.0961 -0.5969
 6009SOL    HW129663   1.760   2.882  12.560 -0.0223  1.3433  1.7608
 6009SOL    HW229664   1.814   2.853  12.689 -2.6641  0.6973 -1.6898
 6010SOL     OW29665   1.509   1.139   8.518  1.0053 -0.0921 -0.6826
 6010SOL    HW129666   1.427   1.097   8.545  0.5527  1.4389  0.3398
 6010SOL    HW229667   1.498   1.227   8.552 -0.7717 -1.3316  1.9875
 6011SOL     OW29668   2.690   3.963   0.897 -0.3339 -0.1108  0.1252
 6011SOL    HW129669   2.677   3.868   0.890  2.9114 -0.4608 -1.2994
 6011SOL    HW229670   2.629   4.007   0.838 -2.3989 -2.9178  0.1812
 6012SOL     OW29671   2.669   4.256   7.563 -0.2242 -0.2769 -0.6266
 6012SOL    HW129672   2.579   4.239   7.592 -0.0291 -1.3491 -0.6688
 6012SOL    HW229673   2.728   4.231   7.634 -1.6010  0.9098  0.9602
 6013SOL     OW29674   1.697   0.629   9.541  0.4294 -0.1749  0.4165
 6013SOL    HW129675   1.731   0.678   9.616  1.8314 -0.3058 -0.1421
 6013SOL    HW229676   1.696   0.538   9.572  1.2674 -0.1616  0.4912
 6014SOL     OW29677   3.496   1.352   1.287 -0.6110 -0.0682  0.3382
 6014SOL    HW129678   3.487   1.403   1.368  3.0002 -1.6576  1.7401
 6014SOL    HW229679   3.533   1.273   1.327 -0.6374 -1.8431 -3.1831
 6015SOL     OW29680   0.088   0.893   2.986 -0.3493 -0.3234  0.3292
 6015SOL    HW129681   0.019   0.959   2.989 -1.2009 -1.0965 -2.0297
 6015SOL    HW229682   0.162   0.944   2.954 -0.6460 -1.7078 -2.5357
 6016SOL     OW29683   3.850   2.533   6.535 -0.5195 -0.1842  0.3062
 6016SOL    HW129684   3.764   2.492   6.526  0.3464 -1.9739  0.2260
 6016SOL    HW229685   3.836   2.616   6.490 -1.1099 -0.4706 -0.0566
 6017SOL     OW29686   1.057   2.313   6.513  0.3660  0.5777 -0.5980
 6017SOL    HW129687   1.146   2.294   6.481 -0.0448 -0.9427 -0.8752
 6017SOL    HW229688   1.067   2.317   6.608  0.7524 -1.2983 -0.5616
 6018SOL     OW29689   3.140   4.470  13.312 -0.2055 -0.1575 -0.1497
 6018SOL    HW129690   3.219   4.417  13.300 -0.8378 -1.7933  2.9100
 6018SOL    HW229691   3.091   4.415  13.374 -1.8577  0.3963 -0.9783
 6019SOL     OW29692   0.688   2.225   2.933 -0.5952  0.2684 -0.3018
 6019SOL    HW129693   0.739   2.282   2.990  1.3164  0.9513 -2.6868
 6019SOL    HW229694   0.622   2.284   2.896 -0.9944 -0.7008 -1.1363
 6020SOL     OW29695   2.926   3.785  12.906 -0.0241  0.8140  0.2711
 6020SOL    HW129696   2.920   3.747  12.818  1.5517 -0.0568  0.5398
 6020SOL    HW229697   3.006   3.741  12.933 -0.9238  1.3256  3.7906
 6021SOL     OW29698   1.398   0.936  13.556 -0.2442  0.2038 -0.1108
 6021SOL    HW129699   1.469   0.875  13.577  1.5073  2.5179  0.8090
 6021SOL    HW229700   1.345   0.889  13.492  0.0813 -1.4425  0.8298
 6022SOL     OW29701   3.025   4.201   0.363  0.3445  0.0015  0.2399
 6022SOL    HW129702   3.058   4.145   0.293  0.8268  1.3299 -0.5895
 6022SOL    HW229703   3.030   4.286   0.320  0.2363  0.3947  1.0012
 6023SOL     OW29704   3.121   1.811   4.624  0.5307  0.4245 -0.2028
 6023SOL    HW129705   3.157   1.732   4.585  0.1051  0.0665  0.1356
 6023SOL    HW229706   3.028   1.791   4.625  0.2293  1.8007  0.2299
 6024SOL     OW29707   4.032   4.247   0.478 -0.0525 -0.2165 -0.4344
 6024SOL    HW129708   4.040   4.337   0.508 -2.2023 -0.8289  1.8962
 6024SOL    HW229709   4.006   4.205   0.559 -2.2081 -0.2337 -1.1456
 6025SOL     OW29710   3.558   4.330   6.249  0.1671  0.9336  0.0712
 6025SOL    HW129711   3.540   4.414   6.206 -0.4768 -0.5208 -2.5559
 6025SOL    HW229712   3.473   4.289   6.267  1.2764 -1.6382 -0.5464
 6026SOL     OW29713   0.251   1.626  12.875 -0.1275  0.4193 -0.4002
 6026SOL    HW129714   0.320   1.565  12.901 -0.3208  0.4218  0.1206
 6026SOL    HW229715   0.292   1.712  12.885  2.5695 -0.8997 -0.0959
 6027SOL     OW29716   2.860   1.233   2.173 -0.4773 -0.4723  0.0581
 6027SOL    HW129717   2.869   1.143   2.142  1.8493 -0.3300  0.3028
 6027SOL    HW229718   2.953   1.255   2.184 -0.2348 -1.7719  0.6828
 6028SOL     OW29719   3.991   4.338   7.833  0.0962 -0.2540 -0.2370
 6028SOL    HW129720   3.948   4.308   7.753 -2.5845 -1.4219  1.6590
 6028SOL    HW229721   4.085   4.336   7.813  0.0750 -0.4683 -0.3184
 6029SOL     OW29722   1.763   1.782  10.849 -0.5016  0.0440 -0.2307
 6029SOL    HW129723   1.736   1.834  10.925 -3.2987  0.5391 -1.5790
 6029SOL    HW229724   1.836   1.830  10.812 -0.8323 -0.1524 -1.1330
 6030SOL     OW29725   0.250   2.968   8.309  0.6011  0.0194 -0.4897
 6030SOL    HW129726   0.276   2.973   8.401 -0.1477  0.0129 -0.2770
 6030SOL    HW229727   0.333   2.937   8.274  1.8048 -0.2221  2.5361
 6031SOL     OW29728   4.712   3.323   5.687 -0.0956  0.8966  0.2271
 6031SOL    HW129729   0.040   3.255   5.711  1.3499  1.9659 -0.5241
 6031SOL    HW229730   4.708   3.373   5.768 -1.6630  1.9610 -0.5175
 6032SOL     OW29731   2.561   1.055   2.337  0.2216 -0.6294  0.0672
 6032SOL    HW129732   2.522   1.098   2.260 -2.3659 -3.7979 -0.4008
 6032SOL    HW229733   2.551   1.128   2.398 -1.7442 -1.5768  0.8794
 6033SOL     OW29734   3.037   2.183  16.284 -0.0078 -0.3942 -0.0682
 6033SOL    HW129735   3.015   2.161  16.194 -0.3035 -0.6724  0.0735
 6033SOL    HW229736   3.126   2.219  16.276  0.1548 -0.5209  1.1328
 6034SOL     OW29737   4.197   3.471  10.671 -0.1818  0.0063 -0.4311
 6034SOL    HW129738   4.183   3.428  10.587 -0.8000  1.4392 -1.0473
 6034SOL    HW229739   4.254   3.543  10.646 -0.7113 -0.5741 -3.2502
 6035SOL     OW29740   3.602   1.866  16.829 -0.4671 -0.4392 -0.3663
 6035SOL    HW129741   3.591   1.779  16.793 -1.7942  0.3708 -1.9121
 6035SOL    HW229742   3.638   1.921  16.759 -2.3855 -0.3308 -1.2643
 6036SOL     OW29743   2.346   3.308   4.280  0.6125 -0.3006 -0.1133
 6036SOL    HW129744   2.423   3.300   4.336  2.1728 -2.3444 -2.5485
 6036SOL    HW229745   2.309   3.394   4.301  1.0049 -0.3633  0.8559
 6037SOL     OW29746   2.883   4.411   5.012  0.0356 -0.6119 -0.2818
 6037SOL    HW129747   2.945   4.338   5.010 -0.0523 -0.6898 -0.1469
 6037SOL    HW229748   2.859   4.411   4.919  3.1931  0.8592 -1.0824
 6038SOL     OW29749   1.024   2.987  13.394  0.0013 -0.1619  0.2325
 6038SOL    HW129750   0.946   3.035  13.421 -0.9711 -1.5301 -0.1748
 6038SOL    HW229751   1.088   3.047  13.433  1.2985 -1.4905  0.1550
 6039SOL     OW29752   3.085   1.627   1.747 -0.5267  0.2954 -0.1392
 6039SOL    HW129753   3.034   1.694   1.703 -1.0044 -0.2732 -0.4504
 6039SOL    HW229754   3.156   1.682   1.779 -0.7210  1.1080 -1.1196
 6040SOL     OW29755   0.572   0.187  13.748  0.5848  0.0279  0.0842
 6040SOL    HW129756   0.652   0.239  13.755  0.5726  0.2038 -1.1986
 6040SOL    HW229757   0.515   0.263  13.738 -0.8871 -0.8838  1.4572
 6041SOL     OW29758   3.682   4.577   2.042  0.0121  0.0147  0.5494
 6041SOL    HW129759   3.613   4.642   2.034  0.2292  0.3787  1.6542
 6041SOL    HW229760   3.646   4.522   2.111 -1.7071 -0.0273 -0.3830
 6042SOL     OW29761   2.578   2.220   0.482 -0.0260  0.4238  0.6989
 6042SOL    HW129762   2.549   2.179   0.401  2.1300  0.1057  0.0865
 6042SOL    HW229763   2.633   2.285   0.439  0.9641 -0.8628  0.0200
 6043SOL     OW29764   4.153   2.572   8.774 -0.0489 -0.1875 -0.3488
 6043SOL    HW129765   4.087   2.533   8.831  1.3024 -1.9979 -0.0390
 6043SOL    HW229766   4.227   2.515   8.794 -0.0277  0.0505  0.2337
 6044SOL     OW29767   1.436   3.016   5.436 -0.3525  0.3176  0.8856
 6044SOL    HW129768   1.342   3.033   5.432 -0.3178  0.8531  2.3447
 6044SOL    HW229769   1.452   3.079   5.507  2.5232  0.1459  0.3958
 6045SOL     OW29770   3.932   0.752   7.143  0.6347 -1.3661 -0.2309
 6045SOL    HW129771   3.919   0.696   7.067 -3.8385 -0.0197 -0.4782
 6045SOL    HW229772   3.899   0.838   7.119  2.7623 -0.5567 -0.2167
 6046SOL     OW29773   2.174   4.637   1.295  0.3315  0.3111  0.1020
 6046SOL    HW129774   2.228   4.646   1.217 -0.1560  0.5458 -0.2045
 6046SOL    HW229775   2.087   4.643   1.256  0.7830  0.0234 -0.9622
 6047SOL     OW29776   1.535   3.235   3.762  0.7028 -0.0304 -0.3316
 6047SOL    HW129777   1.596   3.266   3.829  0.3355  1.8970 -0.8698
 6047SOL    HW229778   1.530   3.314   3.707 -2.1393 -1.5611 -2.2818
 6048SOL     OW29779   1.686   1.580  11.928  0.3796  0.2862  0.4451
 6048SOL    HW129780   1.610   1.627  11.893  1.7968  0.6268 -2.1531
 6048SOL    HW229781   1.659   1.563  12.019 -0.9014  0.7885  0.1644
 6049SOL     OW29782   2.965   0.155   5.369  0.0830  0.2077  0.3435
 6049SOL    HW129783   3.009   0.240   5.364 -0.1514  0.4593  2.4422
 6049SOL    HW229784   2.882   0.184   5.333  0.2850  1.3017  0.7728
 6050SOL     OW29785   2.882   1.314   8.424 -0.0985 -0.4876 -0.0933
 6050SOL    HW129786   2.873   1.348   8.513 -0.0295  0.8729 -0.6085
 6050SOL    HW229787   2.844   1.379   8.364 -1.4558 -0.9018  0.3221
 6051SOL     OW29788   3.092   3.754   6.183  0.5659 -0.2908  0.1240
 6051SOL    HW129789   3.006   3.791   6.166 -0.2630 -1.6432  1.4631
 6051SOL    HW229790   3.134   3.799   6.109  0.0027 -2.0157 -1.2254
 6052SOL     OW29791   0.337   4.287   8.982 -0.2578 -0.3444  0.0687
 6052SOL    HW129792   0.398   4.319   9.048 -2.8988 -0.4398  2.5887
 6052SOL    HW229793   0.319   4.206   9.029  0.5892 -0.6712 -0.1772
 6053SOL     OW29794   3.095   1.277   6.357  0.3410  0.2244 -0.2841
 6053SOL    HW129795   3.164   1.211   6.350 -0.1324 -0.3891  0.7468
 6053SOL    HW229796   3.037   1.222   6.410  1.8527 -1.1377 -0.0444
 6054SOL     OW29797   4.002   2.049  12.415  0.0369 -0.7346 -0.0705
 6054SOL    HW129798   4.062   2.044  12.340  3.1484 -0.8881  2.4414
 6054SOL    HW229799   3.951   1.971  12.393 -2.3533  0.2523  2.0704
 6055SOL     OW29800   1.227   4.183   4.175  0.2268 -0.2405 -0.2645
 6055SOL    HW129801   1.219   4.274   4.144  0.2798  0.1414  0.8688
 6055SOL    HW229802   1.259   4.133   4.100 -2.8190 -1.5378 -0.6952
 6056SOL     OW29803   2.594   3.462   7.331 -0.1354 -0.0637 -0.7597
 6056SOL    HW129804   2.565   3.429   7.246  1.4014  1.0882 -1.7211
 6056SOL    HW229805   2.651   3.391   7.358  1.8149  2.2625  1.1530
 6057SOL     OW29806   0.094   1.681   3.324 -0.0794  0.2859  0.3327
 6057SOL    HW129807   0.011   1.650   3.288  0.9619 -2.1690  0.0622
 6057SOL    HW229808   0.062   1.751   3.381 -0.1071  0.1889  0.4356
 6058SOL     OW29809   4.468   3.657   9.840  0.4247  0.4344 -0.5365
 6058SOL    HW129810   4.454   3.611   9.757  0.9123 -0.7860  0.0573
 6058SOL    HW229811   4.461   3.748   9.812  0.2083  0.9821  1.3094
 6059SOL     OW29812   4.029   0.468   7.419  0.2676  0.4976  0.2146
 6059SOL    HW129813   4.074   0.385   7.428 -1.2851 -0.4890 -1.1817
 6059SOL    HW229814   4.031   0.498   7.511 -3.0113  0.0676  0.4357
 6060SOL     OW29815   2.020   3.363   8.791  0.1591  0.3670  0.9518
 6060SOL    HW129816   2.103   3.315   8.791 -0.4198 -0.6406 -0.1024
 6060SOL    HW229817   2.004   3.368   8.697 -1.6268  1.3825  1.3132
 6061SOL     OW29818   0.339   4.132  17.139  0.7107 -0.4487  0.0831
 6061SOL    HW129819   0.270   4.066  17.133  0.6366 -0.1047 -2.5667
 6061SOL    HW229820   0.302   4.206  17.186  1.2533  0.9663 -1.7363
 6062SOL     OW29821   2.250   1.587   2.520  0.4388  0.5548  0.1938
 6062SOL    HW129822   2.190   1.655   2.490  0.9529  1.0780  0.3507
 6062SOL    HW229823   2.333   1.634   2.518  0.7576 -0.1075 -1.8492
 6063SOL     OW29824   1.749   3.589   2.460 -0.2335  0.1851 -0.2414
 6063SOL    HW129825   1.826   3.551   2.502 -0.7817 -0.4045  0.2447
 6063SOL    HW229826   1.691   3.591   2.536  1.6879 -2.1610  1.3090
 6064SOL     OW29827   1.946   3.552   7.072 -0.0899  0.1088 -0.5802
 6064SOL    HW129828   1.946   3.598   6.988 -0.6937 -0.9941 -1.1782
 6064SOL    HW229829   1.853   3.529   7.075  0.0777 -0.4705  0.0289
 6065SOL     OW29830   1.043   1.015  12.565  0.4801 -0.2072 -0.2182
 6065SOL    HW129831   0.970   1.044  12.510  3.4098 -0.4097 -4.2535
 6065SOL    HW229832   1.113   1.080  12.555  0.3313  0.2412  1.6980
 6066SOL     OW29833   0.443   2.790   6.074  0.0307  0.4509  0.2059
 6066SOL    HW129834   0.457   2.813   6.166  0.8371 -0.2369  0.2520
 6066SOL    HW229835   0.419   2.698   6.077 -1.2975  0.7832 -0.3445
 6067SOL     OW29836   2.780   4.268   6.265 -0.2598  0.3646  0.9735
 6067SOL    HW129837   2.753   4.358   6.251  3.1785  1.3944  1.0247
 6067SOL    HW229838   2.708   4.231   6.213  0.6490 -1.4069  0.9599
 6068SOL     OW29839   1.863   4.457   7.677  0.1083 -0.5549 -0.3350
 6068SOL    HW129840   1.827   4.542   7.652  0.2105 -0.7857 -1.2727
 6068SOL    HW229841   1.909   4.474   7.759  0.9442 -0.9088 -0.7212
 6069SOL     OW29842   0.632   1.078   2.908  0.1902 -0.2724 -0.1926
 6069SOL    HW129843   0.609   0.990   2.939  2.4507 -1.1203 -0.8792
 6069SOL    HW229844   0.715   1.061   2.864 -0.0456 -0.0294 -0.7402
 6070SOL     OW29845   3.117   3.453   7.562 -0.4239  0.4466 -0.0561
 6070SOL    HW129846   3.129   3.530   7.617 -1.6279  0.7676 -0.2543
 6070SOL    HW229847   3.135   3.489   7.475  1.6320  0.2716  0.2930
 6071SOL     OW29848   3.537   3.362   4.680 -0.2907 -0.0616 -0.4432
 6071SOL    HW129849   3.496   3.276   4.685 -0.3858  0.0693  0.9374
 6071SOL    HW229850   3.576   3.364   4.592  0.7693  0.2962  0.0425
 6072SOL     OW29851   0.509   0.224   1.800 -0.1672 -0.1392  0.0709
 6072SOL    HW129852   0.461   0.164   1.857  0.8287  0.4866  1.5686
 6072SOL    HW229853   0.487   0.195   1.712  2.4497 -1.4342 -0.1318
 6073SOL     OW29854   0.403   2.458  17.042  0.7072 -0.1390  0.2677
 6073SOL    HW129855   0.340   2.530  17.031  0.3868 -0.3414  0.8078
 6073SOL    HW229856   0.447   2.463  16.957  1.2429 -0.9422  0.5030
 6074SOL     OW29857   1.567   2.228  10.635  0.6096 -0.1648 -0.1343
 6074SOL    HW129858   1.472   2.232  10.622  0.3594  1.1390  2.2232
 6074SOL    HW229859   1.591   2.290  10.565 -1.7474  0.4828 -0.3709
 6075SOL     OW29860   4.134   1.414   2.002  0.2556 -0.0989 -0.2783
 6075SOL    HW129861   4.097   1.403   1.914  0.3683 -1.2262 -0.1832
 6075SOL    HW229862   4.068   1.395   2.068 -0.5699 -1.5416 -1.5254
 6076SOL     OW29863   3.422   1.408   1.042 -0.5723 -0.0334  0.2936
 6076SOL    HW129864   3.448   1.394   1.133 -0.4667  0.0431  0.2753
 6076SOL    HW229865   3.402   1.315   1.032 -0.2339 -0.2123  1.2823
 6077SOL     OW29866   0.651   4.003  14.256  0.1817  0.1497  0.0446
 6077SOL    HW129867   0.680   3.974  14.170 -1.3905  2.6035 -1.2856
 6077SOL    HW229868   0.562   4.034  14.241 -0.1952 -1.0206 -0.1334
 6078SOL     OW29869   1.776   2.789   7.573 -0.3608 -0.0589 -0.2387
 6078SOL    HW129870   1.746   2.699   7.560  0.0900 -0.1480 -0.6761
 6078SOL    HW229871   1.837   2.811   7.502 -0.7405  2.6109  0.2645
 6079SOL     OW29872   0.030   2.617   7.163  0.2665 -0.0474 -0.5778
 6079SOL    HW129873   4.725   2.545   7.113  1.1519 -0.3719 -0.8194
 6079SOL    HW229874   4.684   2.646   7.205 -1.9660 -0.1012 -4.8020
 6080SOL     OW29875   0.189   0.346   0.173 -0.0733  0.3507 -0.2517
 6080SOL    HW129876   0.230   0.422   0.131  1.0507 -1.1289 -1.8497
 6080SOL    HW229877   0.265   0.292   0.197  1.7569  1.8638 -2.5194
 6081SOL     OW29878   1.558   4.243   9.245  0.1323  0.3198  0.4659
 6081SOL    HW129879   1.468   4.247   9.213  0.1391 -1.5031  0.2069
 6081SOL    HW229880   1.549   4.307   9.315 -2.6527  0.1542  0.2606
 6082SOL     OW29881   3.982   3.404  16.971 -1.0863  0.1152  0.7301
 6082SOL    HW129882   4.016   3.483  16.929  0.6806 -0.8829  0.3054
 6082SOL    HW229883   3.941   3.443  17.048 -1.0550  1.6823 -0.0308
 6083SOL     OW29884   4.066   4.273   6.168 -0.2293  0.3204 -0.7154
 6083SOL    HW129885   3.982   4.290   6.125 -1.2854  0.6496  1.4769
 6083SOL    HW229886   4.047   4.323   6.247 -0.2263 -0.5713 -0.1522
 6084SOL     OW29887   0.688   3.538  16.279  0.2581  0.1557  0.1259
 6084SOL    HW129888   0.739   3.528  16.199 -1.5236  0.3584 -1.0506
 6084SOL    HW229889   0.735   3.606  16.326  0.5651 -0.0482  0.1099
 6085SOL     OW29890   0.367   3.869  13.906 -0.3233 -0.2421 -0.3200
 6085SOL    HW129891   0.288   3.922  13.919  1.4001  1.9047  1.6423
 6085SOL    HW229892   0.348   3.837  13.818  0.2360  0.9064 -0.8541
 6086SOL     OW29893   0.561   3.489   5.505 -0.0789 -0.1028  0.1321
 6086SOL    HW129894   0.621   3.486   5.579  0.6967 -0.5089 -0.5146
 6086SOL    HW229895   0.494   3.422   5.519  0.6786 -0.6956  0.9216
 6087SOL     OW29896   2.990   1.470   4.862 -0.2847 -0.5934 -0.8262
 6087SOL    HW129897   2.905   1.458   4.819 -1.1628 -0.4900  0.8708
 6087SOL    HW229898   3.008   1.555   4.902 -0.4086 -1.4516  1.0503
 6088SOL     OW29899   4.581   4.696  12.318 -0.5641 -0.3080  0.0785
 6088SOL    HW129900   4.543   4.677  12.232  1.8427 -0.0527 -1.0556
 6088SOL    HW229901   4.612   0.051  12.311 -2.1060  0.2894  1.0588
 6089SOL     OW29902   1.455   2.571   5.904 -0.1318  0.3147  0.3593
 6089SOL    HW129903   1.518   2.580   5.975 -1.6829 -1.5189  1.9763
 6089SOL    HW229904   1.442   2.663   5.883  0.7525  0.1358 -0.9513
 6090SOL     OW29905   3.789   1.823  15.239  0.0904 -0.1402  0.3469
 6090SOL    HW129906   3.796   1.913  15.206  0.0085 -0.2704 -0.0298
 6090SOL    HW229907   3.738   1.824  15.320  0.2725 -2.5582  0.4772
 6091SOL     OW29908   0.992   3.957   9.116 -0.3321 -0.0946  1.1228
 6091SOL    HW129909   0.985   3.990   9.027  0.6194 -3.6292 -0.2560
 6091SOL    HW229910   0.914   3.999   9.151  0.0104 -0.7402  2.6988
 6092SOL     OW29911   1.349   0.595   6.543  0.0820 -0.5871 -0.2708
 6092SOL    HW129912   1.326   0.583   6.636 -0.1616 -0.8637 -0.3654
 6092SOL    HW229913   1.407   0.670   6.554  0.5824 -1.1310  0.9459
 6093SOL     OW29914   2.002   2.356   3.431  0.4993  0.2145  0.3111
 6093SOL    HW129915   1.998   2.261   3.440 -2.5017  0.5417  2.4896
 6093SOL    HW229916   1.927   2.380   3.375  0.6612 -0.1489 -0.0598
 6094SOL     OW29917   2.881   4.230  15.066  0.0785  0.5851  0.0362
 6094SOL    HW129918   2.807   4.277  15.027  1.5238  1.9744 -1.0451
 6094SOL    HW229919   2.943   4.304  15.067  2.1665 -1.1644  0.2299
 6095SOL     OW29920   0.306   4.039   1.871  0.4110  0.0286  0.9875
 6095SOL    HW129921   0.216   4.051   1.839  0.9405 -0.4916 -0.6699
 6095SOL    HW229922   0.334   3.963   1.821  0.3693 -0.2887  1.4424
 6096SOL     OW29923   4.105   4.227   5.081  0.6306 -0.5889 -0.5382
 6096SOL    HW129924   4.111   4.231   5.176 -1.4103  2.1468 -0.5472
 6096SOL    HW229925   4.155   4.299   5.042 -0.2512  0.2586 -0.0944
 6097SOL     OW29926   2.976   1.021  10.018 -0.2665  0.5044 -0.3347
 6097SOL    HW129927   2.944   0.945   9.970  1.2812 -0.3648 -0.0037
 6097SOL    HW229928   3.019   1.068   9.946 -0.1447  1.5901  0.4468
 6098SOL     OW29929   0.188   2.108   4.064  0.0350 -0.6470  0.2603
 6098SOL    HW129930   0.230   2.127   4.148  0.4166  1.6940 -0.4661
 6098SOL    HW229931   0.264   2.056   4.037  1.8819  1.8204  0.6831
 6099SOL     OW29932   4.629   2.720   3.880 -0.2535 -0.3909  0.2980
 6099SOL    HW129933   4.657   2.717   3.971 -0.9120 -2.0844  0.4495
 6099SOL    HW229934   4.651   2.810   3.856  0.5927 -0.4042  1.0238
 6100SOL     OW29935   3.368   1.134   1.023 -0.0638  0.0874 -0.0165
 6100SOL    HW129936   3.437   1.071   1.002  1.6041  1.6464  0.8572
 6100SOL    HW229937   3.305   1.106   0.957  0.5377 -0.1481 -0.4879
 6101SOL     OW29938   1.066   3.536   5.294  0.1498  0.1531 -0.0288
 6101SOL    HW129939   0.981   3.581   5.299  0.3093  0.6106 -1.4768
 6101SOL    HW229940   1.062   3.509   5.203 -0.5611 -3.1824  0.9866
 6102SOL     OW29941   1.360   4.003   7.149  0.8904  0.2849  0.1624
 6102SOL    HW129942   1.426   4.058   7.105  0.7246 -0.5009 -1.0678
 6102SOL    HW229943   1.343   4.067   7.218 -1.1935  0.6130 -0.6771
 6103SOL     OW29944   2.165   0.523   5.212 -0.2119  0.5062 -0.2168
 6103SOL    HW129945   2.167   0.549   5.120 -2.1509  0.3632 -0.2907
 6103SOL    HW229946   2.095   0.458   5.216  0.2761  0.1027  1.8460
 6104SOL     OW29947   4.234   1.067   0.234 -0.5743 -0.2158  0.3699
 6104SOL    HW129948   4.250   0.989   0.287  1.5141  0.0312  0.0687
 6104SOL    HW229949   4.165   1.112   0.284  0.3910  1.1678  0.4458
 6105SOL     OW29950   0.730   4.232   2.917 -0.6814  0.5099  0.4987
 6105SOL    HW129951   0.798   4.210   2.981  0.4094  0.8548 -0.5457
 6105SOL    HW229952   0.691   4.312   2.952 -1.8722 -0.8437  2.2488
 6106SOL     OW29953   3.305   1.106   6.380  0.1759  0.5556 -0.1546
 6106SOL    HW129954   3.322   1.055   6.459 -0.6211 -0.2121 -0.4800
 6106SOL    HW229955   3.386   1.078   6.337  1.9033  1.9451  2.1740
 6107SOL     OW29956   0.738   0.315   2.955  0.1188  0.4893  0.4637
 6107SOL    HW129957   0.768   0.382   3.015 -1.8092  1.3735  0.4360
 6107SOL    HW229958   0.821   0.303   2.910 -0.3888  1.1868 -0.6614
 6108SOL     OW29959   4.519   4.344   9.939 -0.4530 -0.2400 -0.3130
 6108SOL    HW129960   4.549   4.435   9.932 -0.1633 -0.3447 -0.4314
 6108SOL    HW229961   4.454   4.337   9.869  0.9609  0.2483 -1.6764
 6109SOL     OW29962   1.168   2.330   5.240  0.2199 -0.5421 -0.4291
 6109SOL    HW129963   1.232   2.399   5.221  1.8110 -1.0476  3.0371
 6109SOL    HW229964   1.149   2.344   5.333  1.5116  1.2071 -0.4167
 6110SOL     OW29965   1.691   1.870  14.750  0.6314 -0.7287  0.6415
 6110SOL    HW129966   1.702   1.909  14.837  0.2412  0.4688  0.1517
 6110SOL    HW229967   1.619   1.921  14.713  0.6039 -1.8709 -0.9055
 6111SOL     OW29968   3.865   4.558   5.720  0.2491 -0.2561  0.3339
 6111SOL    HW129969   3.777   4.520   5.719  1.2107 -2.4973  0.2889
 6111SOL    HW229970   3.854   4.653   5.714 -3.0756 -0.7082 -0.4952
 6112SOL     OW29971   4.388   1.955   5.935  0.1555  0.0815  0.5412
 6112SOL    HW129972   4.337   2.025   5.975  0.7261  0.5837  0.3991
 6112SOL    HW229973   4.324   1.911   5.880 -0.2929 -0.7235  1.7049
 6113SOL     OW29974   1.407   3.384  12.857 -0.7459  0.0256  0.0334
 6113SOL    HW129975   1.499   3.392  12.831  0.0475  0.5715  3.0766
 6113SOL    HW229976   1.382   3.294  12.835  0.5274  0.1098 -1.7544
 6114SOL     OW29977   1.619   1.709   8.055  0.0428  0.4944 -0.6952
 6114SOL    HW129978   1.577   1.697   8.140  1.5297  0.6969  0.0809
 6114SOL    HW229979   1.709   1.715   8.088 -0.2140  1.9709 -0.2627
 6115SOL     OW29980   2.062   1.469   3.413 -0.2836  0.5475 -0.4591
 6115SOL    HW129981   2.008   1.548   3.412 -0.0235  0.7205 -0.6702
 6115SOL    HW229982   2.011   1.401   3.457 -0.2492 -0.1572 -1.5036
 6116SOL     OW29983   3.535   2.300  12.594  0.6040  0.7005  0.1155
 6116SOL    HW129984   3.628   2.278  12.600  0.4616 -0.3017 -1.3207
 6116SOL    HW229985   3.529   2.295  12.499  0.5290 -2.2903  0.2511
 6117SOL     OW29986   3.619   2.216   3.938  0.4044  0.1166 -0.5713
 6117SOL    HW129987   3.702   2.238   3.895  0.3142 -1.2597 -1.4814
 6117SOL    HW229988   3.650   2.228   4.028 -0.1450 -1.0355 -0.2227
 6118SOL     OW29989   1.121   4.573   6.545  0.0265  0.1236 -0.5058
 6118SOL    HW129990   1.140   4.645   6.604 -0.9751  2.1488 -2.6559
 6118SOL    HW229991   1.170   4.605   6.469  2.4528  2.1680  1.9280
 6119SOL     OW29992   1.247   1.845   9.406  0.0379  0.3301 -0.5720
 6119SOL    HW129993   1.253   1.759   9.362 -0.3444  0.7413 -1.4228
 6119SOL    HW229994   1.158   1.871   9.382  1.1152  1.6675 -3.1567
 6120SOL     OW29995   2.183   2.080   3.054 -0.0906 -0.3664 -1.2768
 6120SOL    HW129996   2.199   1.990   3.080 -0.4804  0.5440  2.0407
 6120SOL    HW229997   2.090   2.062   3.041 -0.5128 -0.2740  1.7638
 6121SOL     OW29998   1.297   4.250   6.219  0.3041 -0.0979  0.1278
 6121SOL    HW129999   1.361   4.285   6.281  2.2379 -0.7719 -1.5021
 6121SOL    HW230000   1.237   4.196   6.272  1.1459 -0.3469  0.8309
 6122SOL     OW30001   2.706   2.408   4.070  0.1581 -0.4745  0.2163
 6122SOL    HW130002   2.756   2.488   4.086  2.2047 -2.3715  3.3060
 6122SOL    HW230003   2.688   2.380   4.160  0.2246 -0.7191  0.1532
 6123SOL     OW30004   4.097   3.829   8.112  0.5200 -0.1941 -0.1443
 6123SOL    HW130005   4.081   3.831   8.018 -0.0921 -0.1100 -0.0416
 6123SOL    HW230006   4.013   3.862   8.145  1.2587  1.2748  0.2867
 6124SOL     OW30007   3.104   2.248   1.209 -0.2319 -0.8817 -0.4481
 6124SOL    HW130008   3.014   2.261   1.239 -0.3716  0.3528 -1.4263
 6124SOL    HW230009   3.110   2.325   1.153 -0.7491 -0.5022  0.0262
 6125SOL     OW30010   0.240   4.591   6.372 -0.1370  0.1199  0.1479
 6125SOL    HW130011   0.253   4.498   6.392 -0.5087 -0.3040 -1.6344
 6125SOL    HW230012   0.332   4.618   6.369 -0.0098 -0.2493  0.6731
 6126SOL     OW30013   4.365   0.155   3.147 -0.3156 -0.3591  0.1105
 6126SOL    HW130014   4.277   0.192   3.153 -0.3247 -0.5017  0.7959
 6126SOL    HW230015   4.420   0.233   3.152  0.6502 -1.0216 -0.1832
 6127SOL     OW30016   3.438   1.979   8.080  0.0042  0.0230 -0.1766
 6127SOL    HW130017   3.509   1.915   8.068  0.7044  1.0069 -1.3814
 6127SOL    HW230018   3.464   2.044   8.015  2.0523  0.4962  1.1113
 6128SOL     OW30019   3.585   4.389   5.891 -0.8281  0.2257 -0.0612
 6128SOL    HW130020   3.595   4.397   5.796 -1.1025 -1.7474 -0.2601
 6128SOL    HW230021   3.509   4.331   5.891 -1.1987  0.7017  2.7849
 6129SOL     OW30022   1.875   0.390   7.656 -0.1917 -0.1094 -0.0346
 6129SOL    HW130023   1.785   0.421   7.665 -0.4057 -1.2051  1.5069
 6129SOL    HW230024   1.879   0.367   7.563  0.1513 -0.0453 -0.0365
 6130SOL     OW30025   2.988   1.356  12.512  0.7874 -0.1667 -0.8484
 6130SOL    HW130026   2.990   1.418  12.585  0.1494 -1.5321  0.3240
 6130SOL    HW230027   2.923   1.382  12.448  1.5839  2.8354 -0.4617
 6131SOL     OW30028   3.434   1.942   7.453 -0.4096  0.4408 -0.1613
 6131SOL    HW130029   3.363   1.917   7.513 -1.5266 -0.1450 -1.7171
 6131SOL    HW230030   3.513   1.931   7.506 -0.5282 -0.3141 -0.1397
 6132SOL     OW30031   4.504   0.125   2.285 -0.4979  0.1336  0.6220
 6132SOL    HW130032   4.436   0.063   2.312 -0.4900 -0.8013 -1.4634
 6132SOL    HW230033   4.487   0.195   2.347  1.4373 -0.2216  1.5563
 6133SOL     OW30034   2.254   0.656   3.162  0.0414 -0.2306  0.0021
 6133SOL    HW130035   2.307   0.666   3.083 -0.1539 -0.7733 -0.1953
 6133SOL    HW230036   2.174   0.701   3.135 -0.7481  0.0712  2.9091
 6134SOL     OW30037   3.139   1.214   7.612 -0.1008 -0.0727  0.2375
 6134SOL    HW130038   3.102   1.159   7.681 -0.4946  0.6165  0.5745
 6134SOL    HW230039   3.216   1.251   7.654  0.6214 -1.5448  0.2034
 6135SOL     OW30040   4.196   3.581   1.833  0.5231 -0.0690  0.3815
 6135SOL    HW130041   4.149   3.498   1.839 -1.2793  0.7793 -2.0293
 6135SOL    HW230042   4.269   3.548   1.885 -0.1858  0.1713  1.5173
 6136SOL     OW30043   2.605   1.331   9.768  0.2054 -0.1883 -0.2096
 6136SOL    HW130044   2.559   1.262   9.818 -0.8076  0.6407  0.0003
 6136SOL    HW230045   2.693   1.312   9.799  0.1575  1.9107  1.2050
 6137SOL     OW30046   1.572   1.841   1.404  0.2965  0.1394  0.0983
 6137SOL    HW130047   1.585   1.759   1.357 -0.9262  1.2925 -2.2134
 6137SOL    HW230048   1.500   1.876   1.353 -1.2742 -0.0992  2.1173
 6138SOL     OW30049   0.826   3.372   8.246  0.0876 -0.0912 -0.1726
 6138SOL    HW130050   0.833   3.353   8.339  1.4651  1.2080 -0.0062
 6138SOL    HW230051   0.730   3.376   8.242  0.0659 -1.5014 -1.2077
 6139SOL     OW30052   1.900   1.149   7.727 -0.0179  0.2754  0.3498
 6139SOL    HW130053   1.897   1.242   7.705 -1.0753  0.3332  0.7446
 6139SOL    HW230054   1.977   1.122   7.677  0.5339  1.9151  0.3265
 6140SOL     OW30055   0.208   0.508  17.002  0.3084  0.0517 -0.4030
 6140SOL    HW130056   0.191   0.450  16.928 -1.3397  2.3942 -1.8638
 6140SOL    HW230057   0.154   0.474  17.073 -1.9361  0.0136 -2.1497
 6141SOL     OW30058   1.769   1.142   9.243  0.1484  0.0929 -0.2131
 6141SOL    HW130059   1.728   1.141   9.330  0.7892  0.3672  0.0938
 6141SOL    HW230060   1.695   1.165   9.186 -0.9500 -0.8111  0.8559
 6142SOL     OW30061   3.941   3.072  11.285 -0.2768 -0.0014  0.3512
 6142SOL    HW130062   3.997   3.046  11.358 -1.3047 -1.8975  0.4716
 6142SOL    HW230063   4.007   3.118  11.234 -0.3991  0.2028  0.3731
 6143SOL     OW30064   0.855   1.096  13.474  1.1469 -0.2575 -0.0449
 6143SOL    HW130065   0.869   1.021  13.416 -0.1625 -1.1777  0.8129
 6143SOL    HW230066   0.841   1.059  13.562  0.1272  0.7251  0.2094
 6144SOL     OW30067   3.385   2.815  16.894  0.0750 -0.2634  0.5028
 6144SOL    HW130068   3.442   2.816  16.970  0.6145  0.4664  0.0954
 6144SOL    HW230069   3.347   2.727  16.898  0.9728 -0.5804  1.9916
 6145SOL     OW30070   1.494   1.611   7.449  0.5170 -0.1918  0.1687
 6145SOL    HW130071   1.411   1.650   7.477  0.6565  1.0999 -1.1831
 6145SOL    HW230072   1.538   1.612   7.534 -0.7093  1.7311  0.7964
 6146SOL     OW30073   2.447   3.742  15.825  0.0008  0.3312 -0.3158
 6146SOL    HW130074   2.529   3.711  15.863 -0.5351  0.3010  0.8103
 6146SOL    HW230075   2.481   3.813  15.771 -0.8675  2.1307  1.4951
 6147SOL     OW30076   4.616   0.065   7.472  0.1192  0.3022  0.0360
 6147SOL    HW130077   4.649   4.713   7.495  2.1732  1.1611  0.2905
 6147SOL    HW230078   4.524   0.055   7.500 -0.1810 -0.9125 -1.4056
 6148SOL     OW30079   3.901   0.040   0.668  0.8140 -0.1731  0.0938
 6148SOL    HW130080   3.908   0.054   0.573 -2.9371 -4.8348 -0.8438
 6148SOL    HW230081   3.826   0.092   0.696  0.2505 -0.5522 -0.7330
 6149SOL     OW30082   1.213   1.747   4.514  0.5794 -0.0207 -0.3288
 6149SOL    HW130083   1.279   1.700   4.566 -1.8251 -2.6075  0.4064
 6149SOL    HW230084   1.246   1.734   4.425  0.8518  0.2474 -0.2673
 6150SOL     OW30085   4.115   4.330  10.597 -0.3204  0.0280  0.1297
 6150SOL    HW130086   4.078   4.244  10.578 -2.2535  1.4011 -2.3936
 6150SOL    HW230087   4.050   4.382  10.643  0.1242  0.9866 -0.3307
 6151SOL     OW30088   2.790   1.592  15.354  0.4298  0.5946 -1.0264
 6151SOL    HW130089   2.873   1.569  15.396 -0.5351  2.0184  1.6476
 6151SOL    HW230090   2.819   1.614  15.266 -1.3375 -2.0786 -2.2608
 6152SOL     OW30091   0.522   1.462   1.394  0.0252  0.2419 -0.3470
 6152SOL    HW130092   0.579   1.530   1.356 -0.7138  0.3030 -1.3394
 6152SOL    HW230093   0.455   1.514   1.436  1.3158  0.8073  1.0090
 6153SOL     OW30094   3.758   0.510   9.184  0.1111 -0.1080 -0.4440
 6153SOL    HW130095   3.832   0.569   9.199 -1.1472  0.7238  2.4780
 6153SOL    HW230096   3.793   0.425   9.213  1.1433  1.2298  2.2313
 6154SOL     OW30097   3.144   1.203   9.908 -0.0211 -0.0457 -0.2024
 6154SOL    HW130098   3.147   1.274   9.843  0.2998 -1.0117 -1.2487
 6154SOL    HW230099   3.238   1.187   9.919  0.2662  1.5842 -0.1496
 6155SOL     OW30100   1.311   3.159   3.587 -0.3461  0.4413  0.1016
 6155SOL    HW130101   1.345   3.166   3.676  1.5475  0.2658 -0.6109
 6155SOL    HW230102   1.354   3.230   3.540 -1.4794  1.4779  0.6464
 6156SOL     OW30103   1.275   4.524   8.043 -0.0934 -0.2001 -0.3327
 6156SOL    HW130104   1.199   4.465   8.045 -0.9396  0.8742 -0.7283
 6156SOL    HW230105   1.239   4.595   8.096  2.4493  0.6211  0.2512
 6157SOL     OW30106   0.108   4.521   5.958 -0.0175  0.1311  0.1428
 6157SOL    HW130107   0.035   4.492   6.012 -1.2367 -0.0740 -1.6137
 6157SOL    HW230108   0.082   4.551   5.871 -1.9557 -0.4021  0.5426
 6158SOL     OW30109   0.408   1.646   6.433  0.3263 -0.0866  0.0644
 6158SOL    HW130110   0.471   1.639   6.504 -2.2842  1.5702  2.5811
 6158SOL    HW230111   0.396   1.741   6.430 -2.0249 -0.3900 -0.2798
 6159SOL     OW30112   3.959   2.152  16.120  0.4810  0.1185 -0.1359
 6159SOL    HW130113   3.873   2.170  16.158 -0.3177 -1.9007 -1.0201
 6159SOL    HW230114   4.008   2.132  16.200 -0.2950 -0.4579  0.1926
 6160SOL     OW30115   1.619   0.886   7.445  0.3647  0.0449  0.6148
 6160SOL    HW130116   1.629   0.894   7.350  2.1228  0.5075  0.8434
 6160SOL    HW230117   1.525   0.865   7.443  0.2776  0.5336 -0.3723
 6161SOL     OW30118   2.916   3.406  12.773 -0.1237 -0.5061 -0.2831
 6161SOL    HW130119   2.833   3.387  12.816 -1.6072  0.1050 -2.8507
 6161SOL    HW230120   2.936   3.336  12.712  1.3091 -0.8118  0.5416
 6162SOL     OW30121   3.108   2.954  14.240  0.5530  0.2895 -0.0750
 6162SOL    HW130122   3.169   2.980  14.309  0.7365 -1.1641  0.3111
 6162SOL    HW230123   3.047   2.899  14.289 -1.9119  0.9961 -2.3333
 6163SOL     OW30124   0.145   2.054  12.988  0.0045  0.2231 -0.2314
 6163SOL    HW130125   0.138   2.060  13.083 -0.2218  1.1676 -0.3101
 6163SOL    HW230126   0.057   2.021  12.968  1.5227 -3.8412 -0.1320
 6164SOL     OW30127   2.496   4.064   2.162 -0.8164 -0.0989  0.2752
 6164SOL    HW130128   2.401   4.068   2.177 -1.1914  1.0641 -2.5235
 6164SOL    HW230129   2.515   4.152   2.131  0.5775 -0.3668  0.3634
 6165SOL     OW30130   2.240   3.391   8.280 -0.4058 -0.2230 -0.3516
 6165SOL    HW130131   2.248   3.303   8.242  1.7541 -1.1113  2.2300
 6165SOL    HW230132   2.156   3.426   8.251 -0.1830 -0.7275 -1.6419
 6166SOL     OW30133   2.356   1.267   8.528 -0.4338  0.0701 -0.2060
 6166SOL    HW130134   2.355   1.186   8.579 -0.9411 -0.3857 -0.9438
 6166SOL    HW230135   2.444   1.275   8.490 -0.6305  1.0855 -0.4523
 6167SOL     OW30136   0.122   2.013   3.793  0.3752 -0.2785  0.1805
 6167SOL    HW130137   0.142   2.036   3.884  3.6108 -2.0848 -0.0829
 6167SOL    HW230138   0.040   1.966   3.809 -0.4397  0.5520 -1.5534
 6168SOL     OW30139   1.602   2.265   2.458  0.3723 -0.1326 -0.3411
 6168SOL    HW130140   1.637   2.338   2.509  0.2059 -1.0233  1.0546
 6168SOL    HW230141   1.632   2.290   2.371  0.0391 -1.4368 -0.8399
 6169SOL     OW30142   0.705   1.697  10.210  0.2288  0.3524 -0.6018
 6169SOL    HW130143   0.758   1.776  10.224 -0.6002  0.9053 -0.5327
 6169SOL    HW230144   0.780   1.638  10.201 -0.3122 -0.5468  0.7728
 6170SOL     OW30145   0.051   3.513  13.137 -0.0720 -0.0390 -0.0522
 6170SOL    HW130146   4.724   3.442  13.153  0.0425  0.0921  0.9726
 6170SOL    HW230147   0.135   3.473  13.159 -0.2200  0.4723  1.4735
 6171SOL     OW30148   2.080   0.490   7.289 -0.2995 -0.1719  0.2194
 6171SOL    HW130149   2.082   0.572   7.240 -0.6282 -1.2893 -1.6583
 6171SOL    HW230150   2.149   0.494   7.355 -0.0772 -0.1218 -0.0175
 6172SOL     OW30151   3.490   4.339  17.513  0.2255  0.0171 -0.5059
 6172SOL    HW130152   3.462   4.252  17.484 -1.0711  0.4051 -0.4133
 6172SOL    HW230153   3.552   4.305  17.578  1.3103  1.0609 -0.9993
 6173SOL     OW30154   3.178   0.849   5.386 -0.0090 -0.7203 -0.4671
 6173SOL    HW130155   3.163   0.944   5.391 -0.5156 -0.6677 -2.7044
 6173SOL    HW230156   3.197   0.825   5.476 -2.0467 -0.2147  0.0910
 6174SOL     OW30157   3.732   3.700   5.580  0.2245 -0.3996  0.2397
 6174SOL    HW130158   3.736   3.731   5.671  1.2161 -1.9781  0.7322
 6174SOL    HW230159   3.709   3.778   5.529  0.7738 -1.1998 -1.2348
 6175SOL     OW30160   1.397   2.511   5.208  0.5959 -0.2313  0.2763
 6175SOL    HW130161   1.415   2.605   5.209  0.1355 -0.1598  1.0778
 6175SOL    HW230162   1.433   2.481   5.291 -2.4195 -0.4360  1.5009
 6176SOL     OW30163   3.362   0.669   3.260  0.5906 -0.4160  0.1512
 6176SOL    HW130164   3.369   0.673   3.164  1.4730 -0.5944  0.2050
 6176SOL    HW230165   3.348   0.576   3.277 -0.2478 -0.0919  1.2391
 6177SOL     OW30166   4.488   3.146   2.585 -0.2081 -1.2143 -0.0554
 6177SOL    HW130167   4.546   3.131   2.511  1.3902  0.5415  0.8423
 6177SOL    HW230168   4.548   3.115   2.653 -0.7539 -2.9383 -0.3636
 6178SOL     OW30169   2.287   2.464   1.633  0.3057  0.2423 -0.4039
 6178SOL    HW130170   2.210   2.485   1.686  1.2751 -1.4808  1.6881
 6178SOL    HW230171   2.287   2.369   1.632  0.4241  0.2414 -0.2590
 6179SOL     OW30172   4.317   2.618   6.010 -0.3239 -0.3953  0.1416
 6179SOL    HW130173   4.310   2.575   5.925 -3.7607  0.0670  0.2207
 6179SOL    HW230174   4.254   2.561   6.055  1.0507 -1.6672  0.4679
 6180SOL     OW30175   2.006   4.234   3.689  0.4329 -0.7553 -0.0548
 6180SOL    HW130176   1.962   4.153   3.714 -1.1505  0.2585  0.4447
 6180SOL    HW230177   1.973   4.289   3.761 -0.1701  0.6277 -1.3696
 6181SOL     OW30178   0.775   0.432   3.841 -0.5915 -0.5696 -0.7649
 6181SOL    HW130179   0.743   0.410   3.753 -0.7386 -2.8889 -0.1284
 6181SOL    HW230180   0.844   0.492   3.812 -0.0989  0.2380  2.1303
 6182SOL     OW30181   3.949   4.588   8.928  0.0424 -0.6530 -0.0254
 6182SOL    HW130182   3.994   4.510   8.961  1.7536 -0.4102 -1.7652
 6182SOL    HW230183   3.906   4.622   9.006  1.2842  0.6065  0.1111
 6183SOL     OW30184   3.807   1.251  16.906  0.2695  0.0264 -0.0773
 6183SOL    HW130185   3.734   1.209  16.860 -0.3155  1.7156 -0.7040
 6183SOL    HW230186   3.849   1.298  16.833 -0.2540 -0.0293 -0.4132
 6184SOL     OW30187   0.652   2.429   3.597  0.0280  0.1294  0.0673
 6184SOL    HW130188   0.729   2.483   3.613 -0.0081 -0.3864  1.9756
 6184SOL    HW230189   0.600   2.441   3.677  0.2485 -0.3492  0.2840
 6185SOL     OW30190   4.557   3.618   5.020  0.2204  0.4294 -0.2106
 6185SOL    HW130191   4.493   3.687   5.038 -0.2494  0.0026 -0.2303
 6185SOL    HW230192   4.495   3.548   4.999 -0.8548  0.9530  1.1755
 6186SOL     OW30193   1.433   0.489   4.613  0.2552 -0.1524 -0.2920
 6186SOL    HW130194   1.483   0.570   4.602 -0.9317  0.6209 -0.0019
 6186SOL    HW230195   1.465   0.434   4.541 -0.0785 -0.0420 -0.5257
 6187SOL     OW30196   0.553   2.208  13.507  0.2612  0.2369  0.1717
 6187SOL    HW130197   0.497   2.185  13.433  2.1188 -0.7170 -0.9507
 6187SOL    HW230198   0.490   2.229  13.576 -0.0154 -0.1572  0.0376
 6188SOL     OW30199   0.235   0.038  15.591  0.3366 -0.2856 -0.5392
 6188SOL    HW130200   0.328   0.022  15.572 -0.5704  0.5805 -5.5882
 6188SOL    HW230201   0.196   4.707  15.534 -1.2650  1.3843 -1.4044
 6189SOL     OW30202   1.979   1.769   7.402 -0.7627  0.3245  0.1584
 6189SOL    HW130203   2.037   1.810   7.338 -1.2990  0.9957  0.1025
 6189SOL    HW230204   1.968   1.851   7.450 -0.9328  0.9928 -1.0264
 6190SOL     OW30205   3.972   3.450   2.956 -0.1108 -0.0583  0.1079
 6190SOL    HW130206   3.888   3.488   2.983  0.1831  0.8938 -0.3170
 6190SOL    HW230207   4.027   3.489   3.023 -1.4376 -0.2151  1.2893
 6191SOL     OW30208   2.848   0.136   6.906 -0.0899  1.0132 -0.3254
 6191SOL    HW130209   2.813   0.047   6.897  1.2827  0.3070  1.2895
 6191SOL    HW230210   2.938   0.124   6.877  0.6226  3.0310  1.0490
 6192SOL     OW30211   3.187   3.712   4.700  0.3284 -0.0441  0.6545
 6192SOL    HW130212   3.210   3.713   4.607 -0.2551 -0.4086  0.5052
 6192SOL    HW230213   3.268   3.676   4.737  1.4700  1.4735 -0.3465
 6193SOL     OW30214   4.359   4.735  17.116 -0.8111 -0.5242  0.3150
 6193SOL    HW130215   4.347   0.012  17.210  0.0625  0.6123  0.2785
 6193SOL    HW230216   4.433   4.675  17.128 -0.2113  0.0706 -0.3989
 6194SOL     OW30217   0.099   1.983   0.221  0.0179  0.3090  0.2557
 6194SOL    HW130218   0.191   1.965   0.202 -0.0663  2.3759 -2.0044
 6194SOL    HW230219   0.050   1.907   0.188 -1.3250  1.2410  0.1249
 6195SOL     OW30220   3.144   2.254   4.508 -0.0799 -0.3515  0.5850
 6195SOL    HW130221   3.177   2.168   4.531 -1.8201 -1.6565 -1.8292
 6195SOL    HW230222   3.049   2.243   4.518 -0.0823 -1.2433 -0.4921
 6196SOL     OW30223   4.240   0.831   0.396  0.3563 -0.1935  0.3727
 6196SOL    HW130224   4.165   0.777   0.418  0.8047 -0.1660  1.9616
 6196SOL    HW230225   4.293   0.782   0.333 -1.8776  0.9361 -2.3910
 6197SOL     OW30226   1.409   1.187   6.312 -0.1332 -0.5598 -0.4016
 6197SOL    HW130227   1.466   1.231   6.248 -0.8734  2.2872  0.8678
 6197SOL    HW230228   1.458   1.108   6.335 -1.4373 -0.9786  0.9531
 6198SOL     OW30229   3.654   4.331   7.809  0.0427  0.2667 -0.2581
 6198SOL    HW130230   3.728   4.284   7.770 -0.0894  1.9004 -2.5377
 6198SOL    HW230231   3.696   4.412   7.839  0.4890 -0.4964  1.1423
 6199SOL     OW30232   1.102   1.742   7.343 -0.3994  0.5950 -0.1544
 6199SOL    HW130233   1.164   1.677   7.310  0.6310  2.5699 -2.0822
 6199SOL    HW230234   1.021   1.691   7.336  0.3668 -0.6369 -0.1043
 6200SOL     OW30235   2.739   4.495  10.396  0.2354  0.4095  0.0172
 6200SOL    HW130236   2.721   4.486  10.302 -0.3176 -2.4275  0.3984
 6200SOL    HW230237   2.672   4.555  10.427  0.3587 -0.0766  1.2228
 6201SOL     OW30238   1.805   1.438   5.853  0.1149  0.0876  0.2281
 6201SOL    HW130239   1.712   1.417   5.864 -0.0358 -0.3901 -1.9311
 6201SOL    HW230240   1.846   1.352   5.841  1.9294  0.9299  0.4203
 6202SOL     OW30241   0.072   0.608   0.904 -0.1931 -0.2122 -0.0053
 6202SOL    HW130242   4.726   0.656   0.886 -0.3752 -0.3011  0.5612
 6202SOL    HW230243   0.044   0.544   0.970  0.2920 -0.5182 -0.0944
 6203SOL     OW30244   0.704   2.579  12.586  0.0680 -0.3412  0.4507
 6203SOL    HW130245   0.645   2.607  12.515 -0.7495 -2.7356  0.1906
 6203SOL    HW230246   0.792   2.606  12.562 -0.2075 -1.2211 -1.5784
 6204SOL     OW30247   1.230   2.027   3.255 -0.7197 -0.2758  0.4473
 6204SOL    HW130248   1.179   1.983   3.324 -1.7694 -1.6878 -1.2304
 6204SOL    HW230249   1.264   2.107   3.295 -0.5983 -0.4830  0.7650
 6205SOL     OW30250   0.332   1.608   8.516 -0.1704  0.7674  0.1309
 6205SOL    HW130251   0.341   1.638   8.606  0.9236 -0.5462  0.4635
 6205SOL    HW230252   0.298   1.689   8.479  1.0799  0.3438 -1.9528
 6206SOL     OW30253   2.938   0.544   8.193 -0.2472  0.0656 -0.0245
 6206SOL    HW130254   2.926   0.579   8.282  2.1284  0.1486  0.2608
 6206SOL    HW230255   2.854   0.500   8.182 -0.6727  0.9897 -0.4575
 6207SOL     OW30256   3.206   1.018   2.378  0.6080  0.1873 -0.4247
 6207SOL    HW130257   3.201   0.939   2.432 -1.0018 -0.3982 -1.4257
 6207SOL    HW230258   3.216   0.972   2.295 -3.2227 -3.5894  1.1788
 6208SOL     OW30259   4.275   2.321  13.420 -0.2055 -0.6027 -0.1242
 6208SOL    HW130260   4.266   2.263  13.344  0.0265  0.0519 -0.6488
 6208SOL    HW230261   4.346   2.284  13.472  0.0033  0.4027  0.2970
 6209SOL     OW30262   0.898   0.062   1.559  0.3378  0.3794  0.1446
 6209SOL    HW130263   0.826   0.083   1.499 -1.2120 -2.0602  1.1187
 6209SOL    HW230264   0.887   4.703   1.574  1.8035  0.5066  2.1011
 6210SOL     OW30265   3.503   3.151  11.731 -0.0462 -0.3397 -0.3124
 6210SOL    HW130266   3.481   3.077  11.674  0.9454 -0.0048 -1.1414
 6210SOL    HW230267   3.416   3.182  11.758 -1.3420 -2.0375 -2.5474
 6211SOL     OW30268   4.052   0.764   4.488  0.6125  0.8868  0.4921
 6211SOL    HW130269   4.045   0.698   4.419  1.9224  0.1967  1.0131
 6211SOL    HW230270   4.113   0.708   4.535 -0.3166 -1.0078 -0.5410
 6212SOL     OW30271   4.383   1.519   8.559 -0.1542 -0.2683 -0.8045
 6212SOL    HW130272   4.293   1.553   8.553  0.7143  1.5692 -3.4642
 6212SOL    HW230273   4.403   1.525   8.652  2.0675 -0.3563 -1.2804
 6213SOL     OW30274   4.609   4.428   4.238  0.7183 -0.3166  0.1979
 6213SOL    HW130275   4.610   4.512   4.192  2.6927 -0.0853  0.6647
 6213SOL    HW230276   4.662   4.370   4.183  0.4846 -0.4905  0.1581
 6214SOL     OW30277   1.840   1.183   0.542  0.4068  0.3921 -0.5062
 6214SOL    HW130278   1.838   1.125   0.618  2.6726 -2.4287 -2.5799
 6214SOL    HW230279   1.810   1.269   0.573 -4.1086 -0.9824 -1.1112
 6215SOL     OW30280   0.074   3.976   2.381  0.2026 -0.1022 -0.2240
 6215SOL    HW130281   0.015   4.045   2.348 -0.2381  0.4101  1.6216
 6215SOL    HW230282   0.145   4.037   2.400  1.0906 -1.1407 -0.2126
 6216SOL     OW30283   2.882   1.741   2.094 -0.1448  0.0075 -0.0110
 6216SOL    HW130284   2.926   1.717   2.175  0.4221 -2.0126 -0.8885
 6216SOL    HW230285   2.898   1.666   2.036 -0.5705 -0.5564  0.6100
 6217SOL     OW30286   1.919   1.486  16.080 -0.5403  0.2890 -0.1712
 6217SOL    HW130287   1.938   1.499  16.173  1.0058 -0.8920 -0.3238
 6217SOL    HW230288   1.862   1.560  16.061 -0.7337 -0.3835 -2.1960
 6218SOL     OW30289   1.949   0.572  10.122  0.7584 -0.5527  0.0039
 6218SOL    HW130290   1.926   0.534  10.207 -0.9182 -1.4144 -0.8289
 6218SOL    HW230291   2.032   0.525  10.114  2.3447  2.3959 -0.7557
 6219SOL     OW30292   3.158   4.485   3.047  0.4404  0.0765 -0.2872
 6219SOL    HW130293   3.092   4.555   3.053  0.7742  0.3142  0.6651
 6219SOL    HW230294   3.118   4.414   2.997  1.6191 -0.0321 -1.0923
 6220SOL     OW30295   1.990   1.070  16.999  0.2371  0.1718 -0.2548
 6220SOL    HW130296   2.068   1.095  17.049  0.4893  0.7092 -0.9173
 6220SOL    HW230297   1.976   1.146  16.941  1.8291  1.3534  0.9007
 6221SOL     OW30298   1.708   2.040   3.602  0.2085 -0.2151 -0.2549
 6221SOL    HW130299   1.621   2.004   3.619  0.9020 -1.8061  0.0026
 6221SOL    HW230300   1.700   2.133   3.620 -3.0365 -0.5999  0.2745
 6222SOL     OW30301   2.864   2.511   1.562 -0.0313  0.4997  0.1260
 6222SOL    HW130302   2.893   2.518   1.653 -1.3596  1.3940  0.4774
 6222SOL    HW230303   2.869   2.602   1.532  1.4650  0.8439  1.4164
 6223SOL     OW30304   3.476   2.405   6.770  0.2698 -0.0515  0.2441
 6223SOL    HW130305   3.406   2.348   6.802  2.0787 -2.0111  0.6655
 6223SOL    HW230306   3.550   2.369   6.819  0.3735  0.9390  0.8193
 6224SOL     OW30307   0.972   3.899   5.076 -0.1313 -0.3971  0.2805
 6224SOL    HW130308   0.961   3.877   5.169  0.1191  2.5398  0.9908
 6224SOL    HW230309   1.021   3.981   5.069 -0.8854  0.2269  2.1915
 6225SOL     OW30310   1.889   2.094  10.454 -0.9861  0.3542 -0.3298
 6225SOL    HW130311   1.850   2.157  10.515  2.5576  0.9584  1.2712
 6225SOL    HW230312   1.949   2.052  10.515 -1.7402 -2.1611 -1.3303
 6226SOL     OW30313   1.144   1.113   4.944 -0.6413  0.0673 -0.1686
 6226SOL    HW130314   1.054   1.086   4.966  0.5515 -2.3812  1.7505
 6226SOL    HW230315   1.173   1.123   5.035 -0.7185  2.5713 -0.4385
 6227SOL     OW30316   2.796   2.724   6.181  0.0748 -0.0825 -0.2303
 6227SOL    HW130317   2.833   2.647   6.138 -0.5272  0.2239 -1.3154
 6227SOL    HW230318   2.872   2.782   6.183 -1.8648  2.4371  1.1897
 6228SOL     OW30319   0.983   1.828  11.094 -0.3931  0.2118 -0.3917
 6228SOL    HW130320   1.078   1.823  11.083 -0.2440 -1.9127  2.0276
 6228SOL    HW230321   0.967   1.922  11.087  2.3398  0.8918  2.3252
 6229SOL     OW30322   1.145   1.958   6.896  0.1188  0.0336  0.1134
 6229SOL    HW130323   1.217   1.895   6.904 -0.6469 -0.9761 -0.9286
 6229SOL    HW230324   1.162   2.003   6.813 -2.2798  0.0725 -0.3546
 6230SOL     OW30325   3.870   3.509   8.022 -0.1016 -0.3508 -0.0519
 6230SOL    HW130326   3.904   3.549   8.102 -1.9424 -0.3005  0.7076
 6230SOL    HW230327   3.873   3.581   7.959  2.7242  1.1567  1.7560
 6231SOL     OW30328   2.833   1.202   5.335 -0.6567  0.2439  0.0169
 6231SOL    HW130329   2.812   1.266   5.267 -0.3132  0.0646 -0.2605
 6231SOL    HW230330   2.868   1.248   5.411 -0.3038  1.2140 -0.7382
 6232SOL     OW30331   0.490   2.813   4.601 -0.2137 -0.1481 -0.0417
 6232SOL    HW130332   0.549   2.752   4.558 -0.0230  0.3365 -0.4641
 6232SOL    HW230333   0.444   2.752   4.659 -0.0209 -1.5238 -1.3613
 6233SOL     OW30334   2.756   1.356   8.935 -0.1848  0.0433  0.4722
 6233SOL    HW130335   2.846   1.342   8.966  1.1821  2.5360 -2.3091
 6233SOL    HW230336   2.728   1.414   9.006 -3.9108 -1.9225  0.5885
 6234SOL     OW30337   1.066   4.526   6.154 -0.0244 -0.6429  0.2703
 6234SOL    HW130338   1.060   4.431   6.153 -0.0768 -0.6381 -0.3441
 6234SOL    HW230339   1.130   4.540   6.223  0.8591  4.0538 -1.4896
 6235SOL     OW30340   3.918   1.224  12.673 -0.6880  0.2699  0.0994
 6235SOL    HW130341   3.890   1.133  12.664  0.9438 -0.1915 -0.3411
 6235SOL    HW230342   4.003   1.223  12.629 -1.3087 -2.2942 -1.0429
 6236SOL     OW30343   2.421   4.467   8.363  0.6136  0.1113 -0.3405
 6236SOL    HW130344   2.497   4.419   8.394 -0.5963 -1.6129 -0.0515
 6236SOL    HW230345   2.357   4.400   8.339  2.3241 -1.3286 -0.8238
 6237SOL     OW30346   2.315   1.449   8.128  0.3599 -0.5731  0.4499
 6237SOL    HW130347   2.373   1.398   8.185  2.0279  0.0003 -0.7499
 6237SOL    HW230348   2.341   1.412   8.044  1.2607  1.1245 -0.0254
 6238SOL     OW30349   4.532   3.992  10.585  0.1633 -0.2217 -0.1279
 6238SOL    HW130350   4.469   4.041  10.532 -1.3395  1.1758  2.9568
 6238SOL    HW230351   4.570   4.064  10.634  0.7194 -0.0242 -0.8525
 6239SOL     OW30352   0.520   0.507   2.982  0.4972 -0.2333  0.9094
 6239SOL    HW130353   0.563   0.569   3.041  1.3178 -0.2598  0.3417
 6239SOL    HW230354   0.492   0.445   3.049  0.8620 -1.9705 -0.5511
 6240SOL     OW30355   1.106   0.822   7.017 -0.6192  0.0840 -0.2150
 6240SOL    HW130356   1.167   0.772   7.071 -0.0855 -0.3461 -1.2132
 6240SOL    HW230357   1.169   0.867   6.961 -0.8319 -1.2643 -1.5509
 6241SOL     OW30358   3.645   2.926   2.003  0.2971  0.1311  0.3414
 6241SOL    HW130359   3.628   2.903   1.912 -0.6911 -3.0899  1.3377
 6241SOL    HW230360   3.673   2.845   2.046 -2.8576 -0.8158  0.6482
 6242SOL     OW30361   2.465   3.495   2.926 -0.2199 -0.2430 -0.1448
 6242SOL    HW130362   2.389   3.440   2.906 -1.9790  2.5391 -1.0985
 6242SOL    HW230363   2.505   3.512   2.841 -1.8094 -1.6517 -1.1730
 6243SOL     OW30364   1.064   1.312  13.480 -0.4028  0.4299  0.0243
 6243SOL    HW130365   1.143   1.260  13.496  0.2804  0.9382 -1.6241
 6243SOL    HW230366   1.000   1.243  13.464  0.5180 -0.6072  0.7724
 6244SOL     OW30367   3.032   3.208   8.748  0.1226  0.4728 -0.6738
 6244SOL    HW130368   2.960   3.254   8.790  1.2636  1.1161  0.6033
 6244SOL    HW230369   3.096   3.279   8.759  0.9696 -0.1811 -1.4203
 6245SOL     OW30370   0.677   2.881   4.103  0.5363  0.9771  0.1236
 6245SOL    HW130371   0.744   2.846   4.162 -0.1923 -1.0926 -0.3105
 6245SOL    HW230372   0.626   2.936   4.163 -0.2866  1.2486 -0.8198
 6246SOL     OW30373   0.962   4.554   7.472 -0.7363 -0.2385 -0.4752
 6246SOL    HW130374   0.917   4.482   7.428 -0.8081  0.6679 -1.8705
 6246SOL    HW230375   0.972   4.622   7.406 -1.7202 -0.6836 -1.0802
 6247SOL     OW30376   3.633   1.878   7.633 -0.7847  0.6598  0.1739
 6247SOL    HW130377   3.632   1.950   7.695  1.6373  0.3863  0.5300
 6247SOL    HW230378   3.586   1.819   7.691  0.4078  0.5136  0.9788
 6248SOL     OW30379   2.754   4.470  15.896  0.5165 -0.4201 -0.2463
 6248SOL    HW130380   2.670   4.426  15.897  0.3812 -0.1115  1.5165
 6248SOL    HW230381   2.823   4.407  15.875  1.0996  0.3347 -0.6099
 6249SOL     OW30382   2.319   0.948   5.866  0.2969 -0.0354 -0.3956
 6249SOL    HW130383   2.273   0.959   5.782  1.3194  0.9747 -0.8224
 6249SOL    HW230384   2.276   1.018   5.914  1.5151 -0.6400  1.5731
 6250SOL     OW30385   1.106   1.268   2.320 -0.6162  0.2203 -0.9533
 6250SOL    HW130386   1.067   1.236   2.239 -1.7820  1.6987 -0.9886
 6250SOL    HW230387   1.065   1.355   2.320 -1.4889 -0.2017  3.7893
 6251SOL     OW30388   1.717   0.393   4.870  0.2483  0.3057 -0.0515
 6251SOL    HW130389   1.753   0.431   4.790 -1.3307 -1.5461 -1.6440
 6251SOL    HW230390   1.631   0.369   4.835  1.0055 -1.0638 -0.9642
 6252SOL     OW30391   4.691   1.884   9.922  0.1414  0.1464 -0.1193
 6252SOL    HW130392   4.608   1.931   9.918  0.4552  0.7016 -0.0937
 6252SOL    HW230393   0.007   1.947   9.872 -1.1655  0.2718 -1.2838
 6253SOL     OW30394   1.754   4.624   5.705 -0.1249 -0.0865 -0.0535
 6253SOL    HW130395   1.663   4.635   5.677 -0.4526 -2.3906  0.0490
 6253SOL    HW230396   1.754   4.547   5.762 -3.3546  0.4159  0.6345
 6254SOL     OW30397   1.302   1.868   5.853 -0.1763 -0.6328 -0.3359
 6254SOL    HW130398   1.290   1.922   5.931  0.7446  0.1500 -0.7338
 6254SOL    HW230399   1.283   1.794   5.910 -2.6624  1.6823  1.8488
 6255SOL     OW30400   3.797   2.448   2.148 -0.4922 -0.3822  0.0901
 6255SOL    HW130401   3.748   2.530   2.140 -1.8343 -1.0653  1.4886
 6255SOL    HW230402   3.725   2.386   2.142 -0.6364 -0.0940 -1.0775
 6256SOL     OW30403   3.159   4.050   6.842 -0.4383  0.3459  0.3000
 6256SOL    HW130404   3.185   4.055   6.934 -0.0597 -0.1659  0.2173
 6256SOL    HW230405   3.086   4.112   6.831  0.9128  1.8263 -0.2664
 6257SOL     OW30406   3.937   1.630   2.518 -0.1154  0.3496 -0.3596
 6257SOL    HW130407   3.882   1.693   2.471  0.0650  0.2540 -0.7039
 6257SOL    HW230408   3.997   1.611   2.446  0.5344  0.2407  0.2071
 6258SOL     OW30409   3.143   2.959   6.878  0.4863 -0.3908 -0.1727
 6258SOL    HW130410   3.176   2.987   6.793 -1.6513 -0.8957 -1.1693
 6258SOL    HW230411   3.193   3.024   6.927 -0.8698  0.6456 -0.1501
 6259SOL     OW30412   2.588   3.403   4.861  0.4452 -0.0854  0.1226
 6259SOL    HW130413   2.565   3.460   4.788  2.4818  1.6690  0.8747
 6259SOL    HW230414   2.620   3.321   4.823  0.5478  0.3096 -0.6621
 6260SOL     OW30415   2.612   3.324   2.396 -0.6754  0.0405 -0.0365
 6260SOL    HW130416   2.529   3.292   2.362  0.5348  0.5440 -3.4435
 6260SOL    HW230417   2.664   3.245   2.380  1.7171  0.5808  4.9497
 6261SOL     OW30418   3.628   0.145   3.600  0.0000 -0.0209 -0.3496
 6261SOL    HW130419   3.567   0.076   3.628 -0.1297 -1.0717 -3.2365
 6261SOL    HW230420   3.683   0.086   3.548  0.5253  0.5349 -0.4127
 6262SOL     OW30421   1.323   2.822   2.363  0.5100  0.4087 -0.1849
 6262SOL    HW130422   1.330   2.771   2.444  1.0505  1.0256  0.1503
 6262SOL    HW230423   1.229   2.826   2.348  0.2570  1.8695  1.7995
 6263SOL     OW30424   0.367   2.523   6.983 -0.5741  0.0052 -0.2107
 6263SOL    HW130425   0.430   2.473   6.931  1.9333  3.2629 -0.3200
 6263SOL    HW230426   0.321   2.558   6.907 -2.9984  0.6648  1.5819
 6264SOL     OW30427   1.457   1.793   7.155  0.6567 -0.3808 -0.3610
 6264SOL    HW130428   1.422   1.705   7.169 -0.4969  0.4363  1.8968
 6264SOL    HW230429   1.424   1.836   7.234  1.8379  0.6792 -0.4544
 6265SOL     OW30430   3.459   3.616   4.182  0.4412  0.1126  0.3696
 6265SOL    HW130431   3.477   3.565   4.262 -1.1591  1.0752  1.3529
 6265SOL    HW230432   3.524   3.685   4.190  0.2481  0.1905  1.3715
 6266SOL     OW30433   3.105   1.565   5.261 -0.4282  0.1892 -0.1612
 6266SOL    HW130434   3.022   1.578   5.215 -0.7302  0.6970  0.5154
 6266SOL    HW230435   3.086   1.580   5.354  0.1891  1.6975 -0.2794
 6267SOL     OW30436   2.142   1.917   5.649  0.8774 -0.2503  0.0832
 6267SOL    HW130437   2.071   1.960   5.601  0.2339  1.1929  2.3516
 6267SOL    HW230438   2.207   1.985   5.635  0.3227  0.2712  0.0219
 6268SOL     OW30439   3.777   0.310   1.960  0.4708  0.6037  0.4239
 6268SOL    HW130440   3.688   0.295   1.989  0.8038 -1.6046  0.3004
 6268SOL    HW230441   3.822   0.331   2.042  0.5663 -0.1624  0.5678
 6269SOL     OW30442   2.803   0.572  11.129 -0.0076  0.4285  0.2010
 6269SOL    HW130443   2.812   0.648  11.071 -0.8275 -2.0281 -3.2144
 6269SOL    HW230444   2.846   0.497  11.089 -0.6466  0.8248 -1.2442
 6270SOL     OW30445   3.139   1.876  16.932  0.0353 -0.2649  0.2869
 6270SOL    HW130446   3.209   1.848  16.991 -0.2395 -1.7717 -0.0971
 6270SOL    HW230447   3.142   1.797  16.878 -0.0514 -0.3222  0.3675
 6271SOL     OW30448   1.087   0.159   5.919 -0.2477 -0.5499 -0.0102
 6271SOL    HW130449   1.057   0.247   5.898  0.3696 -0.4554 -0.5018
 6271SOL    HW230450   1.009   0.107   5.939 -1.8050  1.6549 -0.3317
 6272SOL     OW30451   2.296   2.463   4.758  0.7187 -0.0178  0.2057
 6272SOL    HW130452   2.262   2.528   4.696 -0.6791  0.0440  1.0232
 6272SOL    HW230453   2.388   2.452   4.734  0.9208  0.9810  0.5286
 6273SOL     OW30454   2.361   3.121   5.424 -0.4752 -0.4230  0.0705
 6273SOL    HW130455   2.366   3.035   5.382  1.3731 -0.2396 -0.0897
 6273SOL    HW230456   2.275   3.113   5.465 -0.0784 -0.0671  0.9719
 6274SOL     OW30457   1.019   3.094   3.587  0.5178  0.0751 -0.0513
 6274SOL    HW130458   1.114   3.102   3.593  0.4916 -0.4064  0.9706
 6274SOL    HW230459   1.011   3.007   3.548 -0.0400  0.0962  0.0098
 6275SOL     OW30460   0.467   1.333   5.160  0.0481  0.1825  0.0072
 6275SOL    HW130461   0.450   1.243   5.131 -1.7430  0.3791  0.4559
 6275SOL    HW230462   0.449   1.380   5.078  1.2115  0.3798 -0.1353
 6276SOL     OW30463   2.761   4.565   4.260  0.0419 -0.7265 -0.1683
 6276SOL    HW130464   2.715   4.545   4.178 -0.1331 -0.4962 -0.1280
 6276SOL    HW230465   2.754   4.660   4.250 -0.3430 -0.7299  0.0958
 6277SOL     OW30466   1.062   1.656  13.739 -0.1686 -0.0505 -0.1811
 6277SOL    HW130467   1.125   1.588  13.761  1.9478  1.9778  0.0358
 6277SOL    HW230468   1.078   1.719  13.809 -0.5626 -0.2318  0.0764
 6278SOL     OW30469   1.222   1.568   9.399 -0.5792  0.5971  0.3632
 6278SOL    HW130470   1.175   1.491   9.432  1.0974 -0.0798  1.1979
 6278SOL    HW230471   1.303   1.576   9.450 -1.3150  0.3851  1.5787
 6279SOL     OW30472   4.075   3.036   6.715  0.2298 -0.2939 -1.0373
 6279SOL    HW130473   4.165   3.058   6.736 -0.1230  0.2969 -0.1269
 6279SOL    HW230474   4.039   3.117   6.677  1.2870  0.1337 -1.1144
 6280SOL     OW30475   2.942   3.158  10.423  0.0918  0.0396  0.5035
 6280SOL    HW130476   2.895   3.098  10.481  1.2837 -0.4939  0.9176
 6280SOL    HW230477   3.033   3.135  10.443  0.4822  1.7904  0.7581
 6281SOL     OW30478   1.787   3.385   3.614 -0.4712  0.3062  0.0074
 6281SOL    HW130479   1.773   3.393   3.520  0.9917 -1.4751 -0.3657
 6281SOL    HW230480   1.785   3.289   3.618  1.5840  0.2506 -0.3441
 6282SOL     OW30481   3.942   3.310   5.337  0.4080 -0.1737  0.1283
 6282SOL    HW130482   3.968   3.229   5.381 -1.1939 -0.4416  0.5714
 6282SOL    HW230483   3.973   3.384   5.388 -1.2243  0.2486  0.5169
 6283SOL     OW30484   2.955   1.876   3.448  0.2600  0.0093  0.6668
 6283SOL    HW130485   2.916   1.963   3.447 -2.1477 -1.0902 -1.1426
 6283SOL    HW230486   2.917   1.831   3.523 -1.1196  0.1132  0.0235
 6284SOL     OW30487   3.205   2.082   2.328 -0.4701 -0.4028 -0.9437
 6284SOL    HW130488   3.219   2.165   2.374  0.6999 -0.9422 -0.3196
 6284SOL    HW230489   3.168   2.032   2.401  3.1916 -1.9807 -0.1778
 6285SOL     OW30490   4.033   0.383   2.667 -0.4172 -0.6678 -0.1856
 6285SOL    HW130491   4.075   0.468   2.680 -1.7551  0.0406 -0.4564
 6285SOL    HW230492   4.105   0.329   2.700 -0.8758 -0.2353  1.5326
 6286SOL     OW30493   0.439   1.821   9.356  0.7500 -0.4467  0.2663
 6286SOL    HW130494   0.519   1.769   9.352  0.3400 -1.0532 -0.0783
 6286SOL    HW230495   0.371   1.754   9.343 -0.4138  0.5940  1.0055
 6287SOL     OW30496   3.858   3.373   6.933  0.1944 -0.3758 -0.5345
 6287SOL    HW130497   3.935   3.388   6.879  0.2475 -0.3992 -0.4653
 6287SOL    HW230498   3.825   3.293   6.892  0.1015 -0.3241 -0.5615
 6288SOL     OW30499   4.314   1.209  17.024 -0.3309  0.3114  0.1329
 6288SOL    HW130500   4.325   1.154  16.946 -0.0989  1.0510 -0.3608
 6288SOL    HW230501   4.220   1.201  17.040 -0.0968 -2.6524 -0.0151
 6289SOL     OW30502   2.093   0.167   5.647  0.2332  0.4109  0.1136
 6289SOL    HW130503   2.144   0.086   5.642 -0.0788  0.0487  2.6716
 6289SOL    HW230504   2.159   0.235   5.659  1.3101 -0.4490 -0.9037
 6290SOL     OW30505   3.444   4.718   5.555  0.4542 -0.0154 -0.0637
 6290SOL    HW130506   3.400   4.687   5.476  1.0880 -1.3131  0.0989
 6290SOL    HW230507   3.399   0.066   5.564 -0.0513 -0.1083 -1.8294
 6291SOL     OW30508   3.469   1.494   2.416 -0.2365  0.3592  0.1046
 6291SOL    HW130509   3.448   1.431   2.485  1.3408 -2.1366 -1.6964
 6291SOL    HW230510   3.436   1.452   2.336 -2.7544  3.7471 -0.6128
 6292SOL     OW30511   1.619   3.209   9.527 -0.2752  0.0097 -0.0158
 6292SOL    HW130512   1.580   3.267   9.462  1.2476 -0.1623 -1.0955
 6292SOL    HW230513   1.702   3.250   9.548 -0.5909 -0.1258  1.4896
 6293SOL     OW30514   0.348   4.272   4.940 -0.1328 -0.1021  0.1978
 6293SOL    HW130515   0.401   4.286   5.019  1.3090 -0.1711 -0.7559
 6293SOL    HW230516   0.288   4.205   4.974  0.1378 -0.7561 -0.6242
 6294SOL     OW30517   3.434   3.017   6.734  0.5827  0.4236  0.0543
 6294SOL    HW130518   3.411   2.970   6.813 -0.7643  0.3272 -0.4016
 6294SOL    HW230519   3.347   3.056   6.733 -0.1494 -1.2335 -1.8882
 6295SOL     OW30520   1.471   0.718   1.316  0.3125 -0.1276  0.1547
 6295SOL    HW130521   1.409   0.790   1.304  1.8093  1.2129  0.4904
 6295SOL    HW230522   1.408   0.653   1.346 -0.1369  0.8275  1.2553
 6296SOL     OW30523   2.947   2.640   5.525  0.4243  0.0929 -0.1992
 6296SOL    HW130524   3.013   2.608   5.464 -0.9060 -1.4841 -0.8382
 6296SOL    HW230525   2.874   2.579   5.511  0.7149 -0.0722 -0.9540
 6297SOL     OW30526   4.673   4.706   8.301 -0.3280  1.0101 -0.6177
 6297SOL    HW130527   4.659   0.063   8.321  3.2883  1.2051  0.9865
 6297SOL    HW230528   4.653   4.700   8.208 -0.6241  2.5025 -0.6483
 6298SOL     OW30529   1.630   1.472   7.935 -0.3323 -0.2903 -0.0200
 6298SOL    HW130530   1.718   1.444   7.959 -0.5643  0.3529  1.6105
 6298SOL    HW230531   1.626   1.556   7.981 -1.6628  0.5757 -1.7189
 6299SOL     OW30532   1.875   1.743   5.885 -0.0145  0.1000  0.6958
 6299SOL    HW130533   1.874   1.764   5.791  1.0623  2.1620  1.1558
 6299SOL    HW230534   1.852   1.651   5.872 -0.5311  0.3774 -0.3810
 6300SOL     OW30535   3.862   2.765   8.450  0.3196 -0.4937 -0.0625
 6300SOL    HW130536   3.907   2.765   8.534 -2.3356  0.4193  1.3669
 6300SOL    HW230537   3.794   2.830   8.469  1.2941  0.8521 -1.1941
 6301SOL     OW30538   1.295   4.660  14.735  0.0972 -0.0065 -0.1425
 6301SOL    HW130539   1.248   4.609  14.800  1.9002  0.1229  1.2902
 6301SOL    HW230540   1.318   0.009  14.775 -0.4954 -0.1003  0.3794
 6302SOL     OW30541   4.237   1.868   1.305 -0.2473  0.2823  0.2714
 6302SOL    HW130542   4.297   1.812   1.354  0.8048 -0.7653 -2.2247
 6302SOL    HW230543   4.164   1.806   1.309 -1.7418  2.0128 -0.1693
 6303SOL     OW30544   4.606   3.783   2.454 -0.7242  0.0182  0.0915
 6303SOL    HW130545   4.685   3.808   2.407 -0.2364 -2.1948 -0.2821
 6303SOL    HW230546   4.540   3.792   2.385  0.7408  1.0221 -1.1595
 6304SOL     OW30547   1.150   0.254   2.484 -0.2204  0.3336  0.1286
 6304SOL    HW130548   1.162   0.172   2.436 -0.1928  2.4232 -3.4666
 6304SOL    HW230549   1.111   0.303   2.412 -1.3923 -0.4143  0.2415
 6305SOL     OW30550   1.858   0.034  12.614 -0.0591 -0.3817  0.6037
 6305SOL    HW130551   1.953   0.044  12.619  0.2862 -3.2149 -0.1172
 6305SOL    HW230552   1.841   4.675  12.609 -1.1618 -0.0445 -2.1059
 6306SOL     OW30553   3.483   4.128   7.455  0.3572 -0.0861  0.9316
 6306SOL    HW130554   3.476   4.102   7.363  0.7885 -1.1014  1.1852
 6306SOL    HW230555   3.565   4.176   7.462  1.2233 -1.8186  2.7639
 6307SOL     OW30556   2.712   0.634   0.097 -0.1477  0.0856 -0.4209
 6307SOL    HW130557   2.617   0.624   0.094 -0.0856 -0.7495  0.4667
 6307SOL    HW230558   2.741   0.543   0.100 -1.7979 -0.4241  0.0766
 6308SOL     OW30559   0.317   4.482   8.578 -0.5178 -0.0323  0.1469
 6308SOL    HW130560   0.284   4.513   8.494  1.1825 -2.3593 -1.4230
 6308SOL    HW230561   0.294   4.550   8.641 -0.6567  0.3865 -0.3574
 6309SOL     OW30562   4.259   1.467  14.285 -0.1151  0.5490 -0.1275
 6309SOL    HW130563   4.352   1.451  14.304 -0.4729  0.0230  1.1608
 6309SOL    HW230564   4.205   1.429  14.354 -2.0751  1.6845 -1.0343
 6310SOL     OW30565   0.317   4.205   4.064 -0.1728 -0.1510 -0.2301
 6310SOL    HW130566   0.316   4.222   3.970 -1.5591  0.2371 -0.1452
 6310SOL    HW230567   0.411   4.195   4.077 -0.0401  1.4475 -0.0054
 6311SOL     OW30568   3.268   1.430   4.256 -0.2681  0.4266  0.0049
 6311SOL    HW130569   3.236   1.489   4.187  2.8193  1.2873 -0.6690
 6311SOL    HW230570   3.182   1.389   4.269  0.2563 -0.6877 -0.1149
 6312SOL     OW30571   3.830   0.767   1.191 -0.0673  0.2398  0.6281
 6312SOL    HW130572   3.834   0.779   1.286 -1.3133  1.0828  0.5756
 6312SOL    HW230573   3.802   0.855   1.167 -0.2109  0.2291  0.7578
 6313SOL     OW30574   3.513   4.283  11.942 -0.3331 -0.5124  0.4468
 6313SOL    HW130575   3.514   4.234  11.860  1.1491 -1.9807  1.3312
 6313SOL    HW230576   3.523   4.217  12.011  0.5452 -0.2158  0.5984
 6314SOL     OW30577   3.770   1.556  12.942  0.3016  0.1542 -0.8867
 6314SOL    HW130578   3.830   1.628  12.962  1.4458 -0.7485 -1.1305
 6314SOL    HW230579   3.816   1.479  12.973  1.2849  1.4146  0.7778
 6315SOL     OW30580   3.920   2.468   4.965  0.0527  0.4687  0.2729
 6315SOL    HW130581   3.918   2.471   4.869  1.2136 -1.5143  0.1972
 6315SOL    HW230582   3.915   2.563   4.976  0.4030  0.5050  0.1150
 6316SOL     OW30583   1.427   4.580   4.415  0.0659 -0.4464  0.1180
 6316SOL    HW130584   1.521   4.595   4.431  0.0586 -1.9667  1.5809
 6316SOL    HW230585   1.416   4.486   4.429  0.2351 -0.5374 -0.3724
 6317SOL     OW30586   0.759   3.195  10.357 -0.3858 -0.6588 -0.2735
 6317SOL    HW130587   0.719   3.202  10.271 -0.4009 -4.5717 -0.5829
 6317SOL    HW230588   0.851   3.220  10.345 -0.6988  1.7112  2.2889
 6318SOL     OW30589   2.667   1.343   7.693 -0.2034  0.2222 -0.3008
 6318SOL    HW130590   2.600   1.278   7.671 -0.4319  0.5180 -0.4783
 6318SOL    HW230591   2.742   1.316   7.641  0.6746  0.7450  0.7034
 6319SOL     OW30592   4.353   0.952  16.889 -0.6017  0.8464 -0.2089
 6319SOL    HW130593   4.407   0.917  16.817  1.8411  1.3175  1.3949
 6319SOL    HW230594   4.398   0.920  16.967 -0.7182 -0.3914 -0.6425
 6320SOL     OW30595   3.857   4.642  17.088  0.3380 -0.5718  0.1616
 6320SOL    HW130596   3.775   4.680  17.056  1.6057  2.0692 -0.0035
 6320SOL    HW230597   3.875   4.568  17.030  1.6263 -0.0624 -0.0880
 6321SOL     OW30598   2.896   0.168   7.195 -0.1032 -0.1530 -0.6982
 6321SOL    HW130599   2.914   0.116   7.117 -0.7803 -1.1135 -0.2196
 6321SOL    HW230600   2.881   0.104   7.265  1.3930  2.8357  2.4068
 6322SOL     OW30601   3.533   3.375   2.218 -0.4022 -0.3225 -0.2497
 6322SOL    HW130602   3.587   3.333   2.151 -2.1589  0.1322 -1.9493
 6322SOL    HW230603   3.589   3.371   2.295  0.4285 -0.5103 -0.8652
 6323SOL     OW30604   2.100   1.873  10.218 -0.3905 -0.1213  0.3433
 6323SOL    HW130605   2.148   1.829  10.289 -1.0009  0.3393  1.0434
 6323SOL    HW230606   2.014   1.834  10.232  0.8892 -2.3504  2.0675
 6324SOL     OW30607   3.517   0.294  16.841  0.0913  0.0475  0.1650
 6324SOL    HW130608   3.581   0.357  16.807  1.3923 -0.3630  1.8280
 6324SOL    HW230609   3.495   0.244  16.763 -1.0862  0.6182  0.1341
 6325SOL     OW30610   1.948   2.531   1.496 -0.4360  0.0301 -0.4267
 6325SOL    HW130611   1.956   2.465   1.428 -0.2038  0.5876 -0.9349
 6325SOL    HW230612   2.027   2.580   1.477  0.3483 -1.0320  0.0990
 6326SOL     OW30613   0.000   4.093   3.655 -0.3760 -0.3551 -0.0821
 6326SOL    HW130614   4.664   4.146   3.689  0.3320  1.0543 -0.8011
 6326SOL    HW230615   0.044   4.152   3.593 -0.3069  1.0650  1.3560
 6327SOL     OW30616   2.658   3.715   7.674 -0.9174  0.6128 -0.3838
 6327SOL    HW130617   2.586   3.652   7.673 -1.0064  0.7155 -0.3855
 6327SOL    HW230618   2.638   3.768   7.751 -2.1390 -0.0294 -0.2580
 6328SOL     OW30619   3.327   3.244   2.413 -0.1573  1.0156  0.5525
 6328SOL    HW130620   3.416   3.229   2.381 -0.0046 -1.1991  2.0353
 6328SOL    HW230621   3.354   3.280   2.498  0.0947 -0.2849  1.0219
 6329SOL     OW30622   1.018   0.136   3.808  0.0110 -0.2806  0.9314
 6329SOL    HW130623   0.959   0.152   3.881 -0.7992 -0.2266  0.2698
 6329SOL    HW230624   1.104   0.141   3.851  0.0674 -0.2023  0.8092
 6330SOL     OW30625   2.057   2.797   2.366 -0.2833 -0.5284  0.5886
 6330SOL    HW130626   2.035   2.834   2.452  2.0093  1.1900  0.4626
 6330SOL    HW230627   2.137   2.844   2.341  0.1502 -2.3176 -1.3973
 6331SOL     OW30628   1.360   3.023   8.090  0.3894 -0.2737 -0.0898
 6331SOL    HW130629   1.442   3.067   8.113  0.4482 -2.3003  3.5131
 6331SOL    HW230630   1.300   3.097   8.089  2.7628  1.6521  0.3663
 6332SOL     OW30631   0.169   4.731   6.136 -0.2077  0.2746 -0.5083
 6332SOL    HW130632   0.127   4.679   6.068 -1.1832 -1.8604  1.7120
 6332SOL    HW230633   0.182   4.668   6.207 -0.9511  0.3559 -0.2894
 6333SOL     OW30634   4.490   0.040  11.777 -0.0578  0.2206 -0.4256
 6333SOL    HW130635   4.446   0.125  11.775  0.4959  0.5290  0.9667
 6333SOL    HW230636   4.539   0.050  11.858 -2.4582  4.5307  0.5104
 6334SOL     OW30637   2.855   0.766   5.995 -0.2704 -0.2565  0.4286
 6334SOL    HW130638   2.779   0.726   6.037 -0.6796 -2.3370 -2.2610
 6334SOL    HW230639   2.820   0.853   5.980  3.0006  1.2051  1.1847
 6335SOL     OW30640   1.954   0.031   6.358  0.2197 -0.3181 -0.2667
 6335SOL    HW130641   1.923   0.089   6.288  1.5671  0.3506 -0.3118
 6335SOL    HW230642   1.920   0.078   6.435 -0.6011  0.5094 -1.1337
 6336SOL     OW30643   3.600   4.592   8.036 -1.0591 -0.5719  0.3659
 6336SOL    HW130644   3.557   4.676   8.046  0.6943 -0.1110  3.7998
 6336SOL    HW230645   3.671   4.611   7.975 -2.3310  0.6101 -0.7539
 6337SOL     OW30646   4.089   2.987  15.040 -0.4261  0.0137 -0.1646
 6337SOL    HW130647   4.031   2.975  14.965  0.5795  0.2467 -0.9855
 6337SOL    HW230648   4.036   3.036  15.102  2.4164  0.8559  1.6334
 6338SOL     OW30649   2.532   2.452  10.736 -0.3945  0.2498 -0.0027
 6338SOL    HW130650   2.439   2.460  10.757  0.2210  2.7965  1.8169
 6338SOL    HW230651   2.539   2.545  10.712  0.1877 -0.1748 -1.4333
 6339SOL     OW30652   3.473   2.947   7.567 -0.1610 -0.6770  0.1301
 6339SOL    HW130653   3.418   2.965   7.643  0.0236  0.5105 -0.0209
 6339SOL    HW230654   3.464   2.854   7.547  2.5222 -0.8115 -0.5323
 6340SOL     OW30655   0.906   2.368  12.474  0.4822  0.0816  0.7108
 6340SOL    HW130656   0.836   2.303  12.480  0.2962  0.1703 -0.4395
 6340SOL    HW230657   0.916   2.384  12.568 -0.0529 -1.0923  0.9597
 6341SOL     OW30658   3.339   0.005   2.296 -0.4759 -0.2829 -0.1148
 6341SOL    HW130659   3.422   4.732   2.343  0.5196  2.6975 -1.3440
 6341SOL    HW230660   3.311   4.648   2.294 -1.2382 -0.0552 -0.1770
 6342SOL     OW30661   1.643   4.515   8.435 -0.5991 -0.5460 -0.4403
 6342SOL    HW130662   1.593   4.596   8.440  1.4320  0.5921  1.7423
 6342SOL    HW230663   1.651   4.502   8.530 -0.2333 -1.4792 -0.6022
 6343SOL     OW30664   2.566   0.721   4.725 -0.0812  0.4660 -0.4434
 6343SOL    HW130665   2.605   0.646   4.680 -0.8629 -0.5701  0.6323
 6343SOL    HW230666   2.629   0.794   4.723  0.6870 -0.2459 -3.0806
 6344SOL     OW30667   0.227   4.323  17.293  0.0191 -0.1751 -0.0053
 6344SOL    HW130668   0.210   4.347  17.384 -2.2022 -2.3156  0.1659
 6344SOL    HW230669   0.242   4.410  17.255 -1.9245  1.1605  2.2839
 6345SOL     OW30670   1.769   2.957   5.820  0.2085  0.1733 -0.4041
 6345SOL    HW130671   1.710   2.938   5.894 -0.3506  0.9048 -0.6625
 6345SOL    HW230672   1.723   2.917   5.746 -0.3129 -1.2037  0.6704
 6346SOL     OW30673   1.878   1.173   8.109  0.0625 -0.0675 -0.1363
 6346SOL    HW130674   1.882   1.260   8.150 -0.1940  1.4743 -3.3786
 6346SOL    HW230675   1.945   1.169   8.041  1.0259 -1.5736  0.9075
 6347SOL     OW30676   3.555   0.975   6.417  0.0990  0.2928  0.1136
 6347SOL    HW130677   3.577   0.972   6.324 -0.8236  2.6262 -0.1915
 6347SOL    HW230678   3.648   0.983   6.442  0.4407 -0.5090 -0.8968
 6348SOL     OW30679   2.597   1.449   6.421 -0.0136  0.7832 -0.1549
 6348SOL    HW130680   2.523   1.505   6.443  0.1223  0.1814  1.8666
 6348SOL    HW230681   2.668   1.492   6.470  1.8031 -0.5642 -1.6039
 6349SOL     OW30682   0.644   0.164  10.466 -0.1342  0.3746 -0.2305
 6349SOL    HW130683   0.565   0.115  10.444 -0.3865  0.2889  0.8410
 6349SOL    HW230684   0.610   0.219  10.537 -1.4664 -0.6621 -0.0610
 6350SOL     OW30685   2.607   1.411   3.127 -0.2383  0.0132 -0.4729
 6350SOL    HW130686   2.686   1.441   3.172  0.9416 -0.1115 -2.4679
 6350SOL    HW230687   2.640   1.416   3.037 -0.9220 -0.6301 -0.7566
 6351SOL     OW30688   0.956   2.038   3.169  0.5762  0.2273  0.5907
 6351SOL    HW130689   1.010   2.111   3.138 -2.1825  1.0907 -2.1600
 6351SOL    HW230690   1.029   1.978   3.181  2.0797  1.8450 -0.5166
 6352SOL     OW30691   3.581   1.509   2.835  0.1421 -0.7990  0.2795
 6352SOL    HW130692   3.633   1.500   2.755  0.9001  0.1008  0.6576
 6352SOL    HW230693   3.518   1.575   2.805  1.3569  0.0865 -0.3303
 6353SOL     OW30694   2.886   1.919   0.214 -0.2657  0.1359  0.8637
 6353SOL    HW130695   2.899   1.835   0.257  1.1805  0.3407  0.8363
 6353SOL    HW230696   2.924   1.968   0.287  0.0482  1.6113 -0.2905
 6354SOL     OW30697   3.400   0.676   2.986 -0.5150 -0.3776  0.4145
 6354SOL    HW130698   3.483   0.638   2.958  0.6986 -1.0796  4.8412
 6354SOL    HW230699   3.388   0.741   2.917 -1.3003 -0.8786  0.0836
 6355SOL     OW30700   4.441   2.159  13.563  0.2519 -0.5362  0.0349
 6355SOL    HW130701   4.516   2.133  13.617  0.5030  1.2184  0.5409
 6355SOL    HW230702   4.369   2.107  13.600  0.7330 -1.3210 -0.1409
 6356SOL     OW30703   3.076   1.437   1.570 -0.6128  0.4749 -0.3875
 6356SOL    HW130704   3.116   1.355   1.598  0.8328  0.1670 -3.3472
 6356SOL    HW230705   3.039   1.468   1.653  1.2739 -3.5063  1.9279
 6357SOL     OW30706   0.752   1.014   6.793  0.7978 -0.4925 -0.2177
 6357SOL    HW130707   0.800   0.949   6.742  0.3096 -1.4914  0.5909
 6357SOL    HW230708   0.804   1.094   6.778  1.3415 -0.4481  1.9218
 6358SOL     OW30709   2.220   0.563  15.863  0.2349  0.0189 -0.0234
 6358SOL    HW130710   2.168   0.625  15.915 -0.9179 -2.2762  1.5538
 6358SOL    HW230711   2.227   0.607  15.779  0.6375  0.3366  0.1731
 6359SOL     OW30712   2.190   1.620  15.849 -0.8293  0.6731  0.2206
 6359SOL    HW130713   2.182   1.710  15.818  0.7656  0.6595 -0.2513
 6359SOL    HW230714   2.282   1.606  15.824 -0.9555 -0.2084  0.2342
 6360SOL     OW30715   3.886   3.682   2.332  0.2158  0.5739  0.4904
 6360SOL    HW130716   3.888   3.619   2.259  0.4152  1.0443  0.0893
 6360SOL    HW230717   3.981   3.682   2.340  0.3883  1.1583 -1.4057
 6361SOL     OW30718   2.301   2.900  11.446 -0.2452 -0.2572  0.2298
 6361SOL    HW130719   2.305   2.984  11.400 -1.4268 -0.4762 -0.2798
 6361SOL    HW230720   2.379   2.894  11.501 -0.1137 -1.1618 -0.0519
 6362SOL     OW30721   2.228   2.868  13.287 -0.2901 -0.2070  0.5339
 6362SOL    HW130722   2.235   2.941  13.225 -0.8174 -2.0523 -1.7203
 6362SOL    HW230723   2.190   2.918  13.360 -3.0048  0.4748 -1.3487
 6363SOL     OW30724   4.495   1.508  15.296  0.3369 -0.0438 -0.1363
 6363SOL    HW130725   4.534   1.581  15.248 -1.5153  0.4259 -0.9412
 6363SOL    HW230726   4.479   1.451  15.220  1.6610 -1.9522  1.0143
 6364SOL     OW30727   3.064   4.474   9.506  0.7621 -0.1930  0.2589
 6364SOL    HW130728   3.081   4.566   9.525 -0.0433  0.0504 -0.1813
 6364SOL    HW230729   2.991   4.460   9.567 -0.1893  0.3766 -0.7561
 6365SOL     OW30730   0.390   0.224   8.762 -0.2554 -0.5904  0.1618
 6365SOL    HW130731   0.418   0.196   8.849 -1.1840 -0.2962  0.5607
 6365SOL    HW230732   0.340   0.148   8.732  1.6319 -1.0718 -1.7872
 6366SOL     OW30733   1.014   4.515  12.556  0.3450 -0.7150 -0.0103
 6366SOL    HW130734   1.087   4.578  12.556  0.8085 -1.2474 -0.0988
 6366SOL    HW230735   1.048   4.437  12.599 -0.0842 -0.0808  1.4871
 6367SOL     OW30736   1.180   4.561  12.199  0.3008 -0.3053 -0.0287
 6367SOL    HW130737   1.254   4.598  12.247 -0.3138  0.7246  0.1399
 6367SOL    HW230738   1.159   4.483  12.251  3.0185  0.3412  2.0546
 6368SOL     OW30739   2.282   3.722   8.288  0.5947 -0.4695  0.1571
 6368SOL    HW130740   2.190   3.717   8.313  0.7547 -2.2946  0.3995
 6368SOL    HW230741   2.332   3.754   8.364 -1.1207  2.0824  0.1986
 6369SOL     OW30742   3.006   3.200  15.909 -0.0262  0.5052  0.0900
 6369SOL    HW130743   3.079   3.247  15.868 -0.3220 -0.0201 -1.0511
 6369SOL    HW230744   3.050   3.146  15.974  1.3521  0.7776 -0.6170
 6370SOL     OW30745   0.401   4.516   1.913 -0.4961  0.4136 -0.7410
 6370SOL    HW130746   0.479   4.570   1.919 -0.1139 -0.2282 -0.0082
 6370SOL    HW230747   0.382   4.501   2.005  1.3684  4.9712  0.3341
 6371SOL     OW30748   0.061   4.087   1.772  0.3362 -0.2257  0.1770
 6371SOL    HW130749   4.720   4.083   1.830 -0.5056  1.6110 -0.8206
 6371SOL    HW230750   0.027   4.157   1.717 -0.5794 -0.4116  0.5113
 6372SOL     OW30751   1.158   3.752   2.622 -0.6041  0.0048  0.4009
 6372SOL    HW130752   1.197   3.715   2.543 -0.2448  3.0654 -0.8136
 6372SOL    HW230753   1.068   3.719   2.631 -0.5852  0.0037  0.6015
 6373SOL     OW30754   4.259   0.202   5.662  0.0750  0.1644  0.1490
 6373SOL    HW130755   4.250   0.121   5.610 -1.0853  0.2900  0.1501
 6373SOL    HW230756   4.253   0.155   5.745  0.6676 -0.1551  0.0151
 6374SOL     OW30757   1.165   3.086  14.592 -0.0812 -0.7068  0.0209
 6374SOL    HW130758   1.225   3.072  14.666 -0.5514 -1.0710  0.3360
 6374SOL    HW230759   1.230   3.089  14.522  0.6904  1.8242  0.8186
 6375SOL     OW30760   4.553   0.191   2.877  0.4528 -0.5080 -0.3883
 6375SOL    HW130761   4.467   0.150   2.888  0.0771 -0.4838 -3.1095
 6375SOL    HW230762   4.529   0.273   2.921  0.3510 -1.3995  1.2064
 6376SOL     OW30763   0.086   0.495   9.185 -0.2028  0.2241  0.4779
 6376SOL    HW130764   0.041   0.556   9.243 -2.9290 -0.8582 -0.5059
 6376SOL    HW230765   0.111   0.551   9.112 -0.8033 -0.2046 -0.0646
 6377SOL     OW30766   4.042   1.765   2.756  0.8820 -0.2922  0.5499
 6377SOL    HW130767   4.019   1.726   2.671  2.1255 -0.7763  0.4288
 6377SOL    HW230768   4.045   1.858   2.735  0.3131 -0.1984  0.8951
 6378SOL     OW30769   1.095   1.670  17.482  0.6838  0.3430  0.2129
 6378SOL    HW130770   1.146   1.690  17.561  1.3124  2.1145 -0.6281
 6378SOL    HW230771   1.161   1.686  17.415  1.0484 -2.3775 -0.0850
 6379SOL     OW30772   4.632   2.656   5.901  0.3542 -0.1877  0.3166
 6379SOL    HW130773   4.701   2.676   5.838 -1.0207 -0.1346 -1.1827
 6379SOL    HW230774   4.666   2.594   5.966  1.1776  0.8698  0.8766
 6380SOL     OW30775   2.283   4.243   3.701 -0.0475 -0.4053  0.2183
 6380SOL    HW130776   2.189   4.259   3.698  0.2165  1.0043 -0.4979
 6380SOL    HW230777   2.302   4.271   3.611 -3.1853  2.5519  0.4726
 6381SOL     OW30778   0.605   4.558   2.118 -0.6455 -0.1848 -0.5011
 6381SOL    HW130779   0.581   4.546   2.209 -0.9242 -0.4750 -0.6153
 6381SOL    HW230780   0.689   4.511   2.115  0.0476  1.0554 -0.8119
 6382SOL     OW30781   2.651   3.591   3.939  0.7416 -0.2240 -0.1254
 6382SOL    HW130782   2.647   3.558   3.850  1.9506 -1.1372  0.1479
 6382SOL    HW230783   2.593   3.667   3.935  0.3280 -0.4943  0.6386
 6383SOL     OW30784   2.435   3.523   7.055 -0.2955  0.2928  0.0739
 6383SOL    HW130785   2.479   3.608   7.064 -2.0477  1.0939  1.2338
 6383SOL    HW230786   2.352   3.553   7.017 -0.4719  0.3227  0.4847
 6384SOL     OW30787   0.850   0.043   4.233  0.2120 -0.9353 -0.3028
 6384SOL    HW130788   0.901   0.114   4.273 -2.0828 -1.5351  3.6632
 6384SOL    HW230789   0.816   0.088   4.156 -0.2945  2.3081  1.8197
 6385SOL     OW30790   0.112   0.626   6.665 -0.6139  0.3133  0.3925
 6385SOL    HW130791   0.097   0.683   6.590  0.6517  1.3068  0.8948
 6385SOL    HW230792   0.167   0.562   6.622 -0.7660 -0.8012  1.8689
 6386SOL     OW30793   1.031   2.246   5.708  0.4933 -0.0975  0.6029
 6386SOL    HW130794   1.035   2.164   5.757  2.0663  0.6347  1.6760
 6386SOL    HW230795   0.995   2.301   5.778 -2.5668 -1.6418  0.2839
 6387SOL     OW30796   1.173   4.546  14.925  0.4104  0.5145 -0.0443
 6387SOL    HW130797   1.127   4.473  14.884 -0.1583  1.3235 -0.8281
 6387SOL    HW230798   1.235   4.491  14.974 -1.0366 -0.9007  0.1809
 6388SOL     OW30799   1.949   0.756  17.367  0.4163 -0.0263  0.0136
 6388SOL    HW130800   2.032   0.710  17.353 -0.2814 -0.9746 -1.0002
 6388SOL    HW230801   1.977   0.840  17.404 -0.8211 -0.2947  1.5480
 6389SOL     OW30802   4.089   0.638   2.711 -0.5029 -0.6225  0.1193
 6389SOL    HW130803   4.127   0.723   2.693  1.6381 -2.1255 -2.3876
 6389SOL    HW230804   4.038   0.654   2.791 -1.4000 -0.1951 -0.5404
 6390SOL     OW30805   0.400   2.654   5.397  0.4622  0.4574 -0.3478
 6390SOL    HW130806   0.423   2.695   5.313 -1.0465 -1.8400 -1.8915
 6390SOL    HW230807   0.372   2.566   5.372  0.3097  0.0211  1.3922
 6391SOL     OW30808   2.945   2.493   6.145  0.0074  0.0523 -0.3597
 6391SOL    HW130809   3.036   2.509   6.121  0.1000  1.1655  0.7024
 6391SOL    HW230810   2.957   2.433   6.219 -0.1007  0.5218  0.0377
 6392SOL     OW30811   3.566   2.226   8.286  0.2734  0.2697 -0.4568
 6392SOL    HW130812   3.475   2.237   8.259  0.1989  0.0452 -0.2975
 6392SOL    HW230813   3.594   2.211   8.196  1.1045 -1.3031  0.0582
 6393SOL     OW30814   1.952   1.545   5.590  0.0217  0.2696 -0.8912
 6393SOL    HW130815   1.885   1.485   5.622  0.7651  0.2586  0.6265
 6393SOL    HW230816   1.910   1.630   5.605  0.5841  0.4511 -0.3403
 6394SOL     OW30817   3.740   0.251   1.052 -0.4227  0.5160 -0.1339
 6394SOL    HW130818   3.757   0.346   1.047  0.8495  0.3566  0.9458
 6394SOL    HW230819   3.816   0.220   1.102 -1.4277  0.4723  1.3765
 6395SOL     OW30820   4.220   0.756  11.325  0.3598 -0.6073  0.0917
 6395SOL    HW130821   4.289   0.694  11.350  0.2967 -1.4624 -1.8551
 6395SOL    HW230822   4.268   0.826  11.281  0.6785 -1.3753 -0.7736
 6396SOL     OW30823   2.081   3.188   2.899  0.9156  0.0903 -0.4726
 6396SOL    HW130824   2.004   3.139   2.927  1.9384 -0.7405  0.8882
 6396SOL    HW230825   2.107   3.150   2.815 -1.8429  0.6123 -1.5494
 6397SOL     OW30826   2.649   1.197   0.878 -0.3095  0.8376 -0.2190
 6397SOL    HW130827   2.691   1.117   0.910 -1.1632  0.1557 -0.7774
 6397SOL    HW230828   2.587   1.166   0.811  0.2173 -0.1119 -0.2711
 6398SOL     OW30829   0.673   2.400  17.109  0.8996  0.0842  0.4932
 6398SOL    HW130830   0.583   2.392  17.080  0.8619  1.0426  0.3427
 6398SOL    HW230831   0.722   2.363  17.035  0.2091  3.3390 -1.6036
 6399SOL     OW30832   3.492   0.142  16.308 -0.7162  0.2407  0.0245
 6399SOL    HW130833   3.547   0.217  16.331 -0.9598 -0.1955  2.0343
 6399SOL    HW230834   3.508   0.120  16.216  0.6268  2.1905 -0.1975
 6400SOL     OW30835   0.128   1.281   0.255 -0.1798  0.3970 -0.0849
 6400SOL    HW130836   0.126   1.360   0.308  2.9572 -0.7406  1.7657
 6400SOL    HW230837   0.197   1.229   0.297 -0.4771  0.4638  0.4714
 6401SOL     OW30838   4.104   0.216   7.455 -0.3227 -0.2937  0.6449
 6401SOL    HW130839   4.106   0.124   7.431 -1.7033 -0.0141 -0.5430
 6401SOL    HW230840   4.109   0.211   7.551  1.0606 -1.3517  0.5155
 6402SOL     OW30841   4.307   0.534  12.185  1.0482 -0.3464 -0.4190
 6402SOL    HW130842   4.283   0.590  12.258 -0.6599 -1.6878  0.0616
 6402SOL    HW230843   4.392   0.498  12.212  0.7956 -0.9470 -0.4242
 6403SOL     OW30844   1.821   4.038  14.205 -0.2228 -0.1179  0.0166
 6403SOL    HW130845   1.800   4.124  14.169 -0.1905 -0.1544 -0.0911
 6403SOL    HW230846   1.785   4.038  14.293  1.7143 -0.1433  0.8029
 6404SOL     OW30847   3.902   0.787   3.524 -0.2622 -0.2681  0.1741
 6404SOL    HW130848   3.839   0.734   3.476 -0.0337  1.1332 -1.6590
 6404SOL    HW230849   3.923   0.743   3.607  0.4531 -0.8592 -0.3200
 6405SOL     OW30850   1.226   3.785   8.455 -0.0693  0.2397 -0.5117
 6405SOL    HW130851   1.256   3.875   8.441  1.0333  0.3724  2.9985
 6405SOL    HW230852   1.135   3.816   8.448  0.0481  0.3211 -1.7882
 6406SOL     OW30853   1.354   1.139   2.237  0.0659  0.4683  0.1470
 6406SOL    HW130854   1.421   1.151   2.304  1.1489  0.2903 -0.9042
 6406SOL    HW230855   1.288   1.207   2.251 -0.2029  0.4387 -0.9526
 6407SOL     OW30856   4.180   4.035   2.811 -0.1237  0.7692 -0.0997
 6407SOL    HW130857   4.214   4.021   2.899 -3.0585  2.0168  1.2145
 6407SOL    HW230858   4.252   3.999   2.759 -0.6925 -1.5014  0.7193
 6408SOL     OW30859   2.107   0.487   4.100  0.3528  1.1706  0.4618
 6408SOL    HW130860   2.019   0.454   4.111  0.0055  1.8631 -0.2092
 6408SOL    HW230861   2.099   0.551   4.029 -1.5025  1.4766  0.9620
 6409SOL     OW30862   3.815   1.822   8.539  0.0124 -0.5470  0.2179
 6409SOL    HW130863   3.770   1.809   8.622 -1.1050  1.8430 -0.0236
 6409SOL    HW230864   3.892   1.870   8.568 -1.5218  1.2460  1.2897
 6410SOL     OW30865   1.728   0.955   4.024  0.1993  0.4310  0.1187
 6410SOL    HW130866   1.707   0.912   3.942  2.3424  0.5273 -0.4698
 6410SOL    HW230867   1.681   0.898   4.086 -1.4250 -0.6706 -2.1286
 6411SOL     OW30868   4.311   3.030  14.716 -0.0174  0.8041 -0.0872
 6411SOL    HW130869   4.303   2.942  14.751  1.0323  0.6136 -0.3227
 6411SOL    HW230870   4.368   3.020  14.640  0.5638 -0.2382  0.4955
 6412SOL     OW30871   1.595   3.385   7.318 -0.1635  0.2152  0.2290
 6412SOL    HW130872   1.601   3.420   7.229 -1.3709  1.4206  0.6341
 6412SOL    HW230873   1.501   3.392   7.335 -0.3274 -1.4820  0.0360
 6413SOL     OW30874   3.181   0.761   7.749  0.3997 -0.0094  0.0596
 6413SOL    HW130875   3.263   0.792   7.788 -0.3851 -2.9390  4.0278
 6413SOL    HW230876   3.130   0.714   7.815  0.4435  0.3054  0.3207
 6414SOL     OW30877   4.043   1.862   5.871  0.0224  0.2035 -0.0042
 6414SOL    HW130878   4.015   1.948   5.901  1.2345  0.6338 -0.0869
 6414SOL    HW230879   4.085   1.892   5.790 -0.2351  2.9729  0.8677
 6415SOL     OW30880   1.592   3.148   9.837 -0.2218 -0.4893 -0.5650
 6415SOL    HW130881   1.511   3.198   9.846  0.6794  1.5017 -3.1388
 6415SOL    HW230882   1.623   3.157   9.927  1.5559  2.0618 -1.4353
 6416SOL     OW30883   0.596   0.384   3.269 -0.6130  0.2335  0.2376
 6416SOL    HW130884   0.691   0.368   3.271 -0.6172  0.0101 -2.2011
 6416SOL    HW230885   0.587   0.479   3.262 -2.0202  0.1585  1.1681
 6417SOL     OW30886   3.455   3.204   1.641 -0.2176 -0.3574  0.3207
 6417SOL    HW130887   3.419   3.225   1.555  1.9757 -0.8118 -0.7162
 6417SOL    HW230888   3.445   3.282   1.697  1.9884  1.1697 -1.3967
 6418SOL     OW30889   0.516   0.302  10.683 -0.0223 -0.3449 -0.1242
 6418SOL    HW130890   0.533   0.334  10.771  0.0510  1.4612 -0.7969
 6418SOL    HW230891   0.478   0.375  10.634 -1.8524 -2.6264 -2.1692
 6419SOL     OW30892   1.936   2.997  17.682  0.4179 -0.3410 -0.3821
 6419SOL    HW130893   1.874   3.069  17.683  3.2490  2.1145 -2.5200
 6419SOL    HW230894   2.010   3.057  17.676  0.9466 -0.9020  0.4830
 6420SOL     OW30895   4.286   4.430  11.288 -0.7235  0.1837  0.3753
 6420SOL    HW130896   4.306   4.340  11.261 -0.5422  1.2631 -3.0181
 6420SOL    HW230897   4.360   4.473  11.245  0.3775 -2.1611 -0.0666
 6421SOL     OW30898   0.847   4.236   2.069 -0.2870 -0.0186 -0.2464
 6421SOL    HW130899   0.906   4.226   1.994  1.6607 -2.0192  1.5620
 6421SOL    HW230900   0.829   4.143   2.085 -0.3497  0.0908  0.3006
 6422SOL     OW30901   0.948   1.262   5.325 -0.2429  0.5553 -0.0045
 6422SOL    HW130902   0.929   1.224   5.239  2.5741 -3.5690  1.1637
 6422SOL    HW230903   0.996   1.198   5.378  0.6952  0.9607 -0.3697
 6423SOL     OW30904   1.770   4.404  11.952  0.1335 -0.8697 -0.2821
 6423SOL    HW130905   1.679   4.416  11.925 -0.1163 -2.9201 -0.3552
 6423SOL    HW230906   1.749   4.348  12.026  0.5839 -0.0247  0.5001
 6424SOL     OW30907   3.749   4.231   4.635  0.3107 -0.7601 -0.1706
 6424SOL    HW130908   3.680   4.285   4.597  0.0423 -1.2040 -0.3101
 6424SOL    HW230909   3.800   4.208   4.558  0.6515 -1.0564  0.1479
 6425SOL     OW30910   1.807   1.664   0.249 -0.0745 -0.0427 -0.0469
 6425SOL    HW130911   1.804   1.572   0.225 -1.0433  0.2947 -1.2191
 6425SOL    HW230912   1.902   1.669   0.255 -0.2294  2.8397  0.0218
 6426SOL     OW30913   2.474   0.916   3.893  0.5053 -0.3560 -0.0345
 6426SOL    HW130914   2.486   0.916   3.798  0.7931 -1.3579  0.0033
 6426SOL    HW230915   2.431   0.831   3.902  0.6565 -0.2750  1.3916
 6427SOL     OW30916   4.564   0.088   5.934  0.1250  0.1126 -0.3233
 6427SOL    HW130917   4.653   0.118   5.916  0.4062  0.6242  1.8940
 6427SOL    HW230918   4.510   0.164   5.912 -0.8471 -0.5715 -0.2780
 6428SOL     OW30919   3.783   4.285   6.866 -0.2881  0.1664  0.4232
 6428SOL    HW130920   3.859   4.230   6.882  0.2737  1.2892  1.5713
 6428SOL    HW230921   3.821   4.343   6.800 -0.2417 -0.0772  0.2374
 6429SOL     OW30922   3.560   2.412   1.087  0.3063  0.1981 -0.1114
 6429SOL    HW130923   3.595   2.341   1.033  2.5705 -1.6573  3.8282
 6429SOL    HW230924   3.642   2.439   1.128 -1.2885  0.7884  2.6658
 6430SOL     OW30925   1.656   1.421   5.002  0.0713 -0.6300  0.1726
 6430SOL    HW130926   1.720   1.373   4.948  0.3895  1.7626 -1.5687
 6430SOL    HW230927   1.717   1.456   5.067 -0.4240  0.4152  0.0569
 6431SOL     OW30928   1.047   0.589   2.366 -0.2221  0.3510 -0.2859
 6431SOL    HW130929   1.048   0.608   2.272 -0.7563  2.0580  0.0630
 6431SOL    HW230930   1.019   0.497   2.366  0.5529  0.1241  1.6022
 6432SOL     OW30931   4.152   3.952   4.884  0.6245  0.0213 -0.2035
 6432SOL    HW130932   4.200   4.006   4.947 -0.5014  0.0099  0.6586
 6432SOL    HW230933   4.068   3.997   4.885  0.2346 -0.6551 -2.1253
 6433SOL     OW30934   1.513   2.839   3.132 -0.4088 -0.0403  0.1730
 6433SOL    HW130935   1.521   2.753   3.172  2.9539  0.5083  0.7351
 6433SOL    HW230936   1.423   2.831   3.103 -0.1741 -0.9329 -0.3080
 6434SOL     OW30937   3.706   3.785   4.301 -0.1115 -0.4281 -0.4276
 6434SOL    HW130938   3.801   3.775   4.307 -0.1471 -1.3893 -1.2988
 6434SOL    HW230939   3.678   3.753   4.386  2.1485 -0.2038  0.3948
 6435SOL     OW30940   2.398   1.240  13.208 -0.4123  0.0606  0.2013
 6435SOL    HW130941   2.439   1.268  13.290  0.4706 -0.4614 -0.0634
 6435SOL    HW230942   2.367   1.154  13.236 -0.4883  0.5414  1.5818
 6436SOL     OW30943   1.359   3.254  13.993  0.4464  0.4198  0.2535
 6436SOL    HW130944   1.320   3.178  13.949  1.3255 -0.0675  0.3149
 6436SOL    HW230945   1.351   3.315  13.919  0.1468 -0.3032 -0.3120
 6437SOL     OW30946   4.384   3.770   8.507 -0.2042 -0.3020 -0.2649
 6437SOL    HW130947   4.445   3.737   8.442  0.1620 -1.2159  0.5425
 6437SOL    HW230948   4.301   3.746   8.466 -1.4454  3.1556  0.2346
 6438SOL     OW30949   4.157   3.711  17.314  0.0075 -0.0615  0.0012
 6438SOL    HW130950   4.146   3.805  17.330  0.7673  0.5455 -3.1218
 6438SOL    HW230951   4.240   3.716  17.266  0.2818  0.0103  0.4730
 6439SOL     OW30952   2.534   0.882   2.691  0.1029 -0.2741  0.2947
 6439SOL    HW130953   2.521   0.822   2.618  1.4405 -0.0303 -0.1466
 6439SOL    HW230954   2.570   0.821   2.755  1.7248  1.0662  0.6696
 6440SOL     OW30955   3.752   2.621   2.665  0.2882  0.0822 -0.4075
 6440SOL    HW130956   3.803   2.697   2.635  2.0792 -0.3759  1.4615
 6440SOL    HW230957   3.684   2.668   2.713 -0.0486 -0.9409  0.0986
 6441SOL     OW30958   2.613   1.943   8.707 -0.0507  0.3666  0.5219
 6441SOL    HW130959   2.590   1.860   8.664  2.6676 -0.4635  0.6378
 6441SOL    HW230960   2.577   1.999   8.638 -0.6071 -2.9428 -1.8959
 6442SOL     OW30961   3.202   3.321  15.372 -0.0479 -0.5226 -1.1170
 6442SOL    HW130962   3.206   3.416  15.384 -0.2835 -0.7650  0.8453
 6442SOL    HW230963   3.174   3.289  15.458 -0.5741 -0.2715 -1.1906
 6443SOL     OW30964   4.330   0.555  12.775 -0.2123  0.1388 -0.2143
 6443SOL    HW130965   4.394   0.519  12.836 -0.0065  0.3689 -0.2935
 6443SOL    HW230966   4.263   0.606  12.819  0.2955 -0.0265  0.7405
 6444SOL     OW30967   1.016   1.638   4.057 -0.9275  0.6929 -0.4857
 6444SOL    HW130968   0.993   1.671   4.144 -3.1275  0.1998 -0.8762
 6444SOL    HW230969   1.112   1.632   4.057 -0.8440  2.0449  0.6318
 6445SOL     OW30970   0.330   4.423   2.185  0.2021  0.5047 -0.2615
 6445SOL    HW130971   0.345   4.328   2.187 -2.1845  0.0981 -1.5076
 6445SOL    HW230972   0.399   4.458   2.241  1.3127 -0.6545 -0.8945
 6446SOL     OW30973   0.651   3.539  11.799  0.0292  0.1279 -0.0908
 6446SOL    HW130974   0.649   3.510  11.707  1.8815 -2.5909  0.7259
 6446SOL    HW230975   0.707   3.473  11.840 -0.7979 -0.7169 -0.3023
 6447SOL     OW30976   2.973   1.633   1.192 -0.1205 -0.1750  0.0503
 6447SOL    HW130977   3.012   1.676   1.116 -0.0588 -0.4433 -0.0706
 6447SOL    HW230978   3.009   1.694   1.256 -1.1864  2.6931 -2.0666
 6448SOL     OW30979   2.592   2.254   6.716  0.6341 -0.1556  0.0072
 6448SOL    HW130980   2.574   2.216   6.631  0.6669  0.5622 -0.3263
 6448SOL    HW230981   2.578   2.172   6.762  1.3114  0.7207  1.8010
 6449SOL     OW30982   3.314   2.213  16.072 -0.8629  0.0016  0.1537
 6449SOL    HW130983   3.232   2.192  16.029  0.1484 -0.4739 -1.5526
 6449SOL    HW230984   3.365   2.223  15.991 -1.4098  1.4680 -0.0016
 6450SOL     OW30985   3.134   0.047   2.632 -0.1619 -0.0949  0.3368
 6450SOL    HW130986   3.039   0.053   2.640 -0.2499  0.1830 -0.8202
 6450SOL    HW230987   3.164   0.062   2.542  1.9216 -0.4207  0.9624
 6451SOL     OW30988   2.169   4.557  11.940  0.8653 -0.7780 -0.2582
 6451SOL    HW130989   2.129   4.615  12.004 -2.9526 -2.3125 -1.2067
 6451SOL    HW230990   2.230   4.512  11.999  0.8319 -0.5207 -0.0284
 6452SOL     OW30991   4.709   3.285   8.650 -0.1340 -0.4502 -0.0464
 6452SOL    HW130992   4.646   3.341   8.605  0.7429  2.1860  2.0371
 6452SOL    HW230993   4.691   3.201   8.607  1.9013  0.1525 -2.0859
 6453SOL     OW30994   2.841   3.454   8.527  0.5317  0.4681  0.4971
 6453SOL    HW130995   2.777   3.513   8.487  3.1824  3.0441  0.0645
 6453SOL    HW230996   2.812   3.419   8.611  0.0747 -0.5933 -0.0936
 6454SOL     OW30997   1.252   0.538   5.081  0.6515  0.0843  0.1593
 6454SOL    HW130998   1.177   0.535   5.140 -0.5966  3.0375 -1.3176
 6454SOL    HW230999   1.221   0.569   4.996  0.9520 -1.0437 -0.3695
 6455SOL     OW31000   2.271   1.717   0.045  0.0911  0.0233  0.0182
 6455SOL    HW131001   2.327   1.795   0.037 -0.7731  0.6276 -0.1671
 6455SOL    HW231002   2.312   1.667   0.116  2.5979 -0.4173 -1.7200
 6456SOL     OW31003   1.422   0.767   9.797 -0.4226  0.1277  0.5064
 6456SOL    HW131004   1.380   0.683   9.775  3.0107 -1.4723  0.1124
 6456SOL    HW231005   1.349   0.800   9.849 -0.5327 -1.1636  1.1758
 6457SOL     OW31006   1.639   4.361   2.900  0.4889  0.8206 -0.2592
 6457SOL    HW131007   1.648   4.418   2.977 -1.0528  0.1651  0.4139
 6457SOL    HW231008   1.709   4.302   2.926  0.3275  0.2464 -1.1442
 6458SOL     OW31009   1.801   3.877   3.644  0.2055 -0.3510 -0.6509
 6458SOL    HW131010   1.764   3.798   3.684 -3.3874  0.3467 -2.5288
 6458SOL    HW231011   1.826   3.856   3.554  0.0952 -1.7871 -0.3396
 6459SOL     OW31012   1.655   3.698   2.985  0.4420 -0.4231  0.0959
 6459SOL    HW131013   1.668   3.791   2.967  0.6077 -0.3744  0.4631
 6459SOL    HW231014   1.748   3.679   2.984  0.2510 -1.4443  1.2373
 6460SOL     OW31015   4.123   2.080   8.230 -0.4252  0.0116  0.1998
 6460SOL    HW131016   4.131   2.109   8.140 -0.8618 -0.6381 -0.0467
 6460SOL    HW231017   4.072   2.143   8.282  1.3621  1.7846 -0.2182
 6461SOL     OW31018   1.782   4.270   7.873 -0.0384  0.6389  0.3915
 6461SOL    HW131019   1.762   4.333   7.804 -1.4112 -0.5542 -0.3133
 6461SOL    HW231020   1.874   4.248   7.859  0.0432  1.5265 -0.4882
 6462SOL     OW31021   1.336   2.801   1.009 -0.0135  0.2394  0.3861
 6462SOL    HW131022   1.410   2.832   0.957 -0.8334 -1.0058 -1.5137
 6462SOL    HW231023   1.330   2.708   0.990 -0.1909  0.2378  0.4559
 6463SOL     OW31024   3.547   4.543   2.707  0.3264  0.2062 -0.3581
 6463SOL    HW131025   3.503   4.547   2.791  1.1715  0.0488  0.0998
 6463SOL    HW231026   3.634   4.559   2.745  0.3250  0.0485 -0.2863
 6464SOL     OW31027   3.311   2.243   9.617 -0.0036 -0.0062  0.0421
 6464SOL    HW131028   3.242   2.228   9.682 -0.0549  1.4743  0.3159
 6464SOL    HW231029   3.283   2.324   9.576 -0.9631 -0.2906  0.1421
 6465SOL     OW31030   4.192   1.432   0.018  1.0068  0.5329  0.5400
 6465SOL    HW131031   4.199   1.511  17.704 -0.1139 -1.3383 -2.3411
 6465SOL    HW231032   4.111   1.465   0.056 -1.4523 -3.4633 -1.2757
 6466SOL     OW31033   1.864   3.448  11.247 -0.4772 -0.0921 -0.0114
 6466SOL    HW131034   1.806   3.389  11.296  0.7803 -0.9479  0.4486
 6466SOL    HW231035   1.804   3.468  11.175  1.0267 -2.3239 -1.9027
 6467SOL     OW31036   4.670   3.722   8.257 -0.4059 -0.3529 -0.0243
 6467SOL    HW131037   4.714   3.680   8.183  0.9060  0.3362  0.3588
 6467SOL    HW231038   0.005   3.785   8.275  0.7464 -1.2164 -1.5110
 6468SOL     OW31039   3.321   4.512   7.648  0.3300  0.2091 -0.1571
 6468SOL    HW131040   3.334   4.509   7.742  2.0311 -0.0221 -0.4011
 6468SOL    HW231041   3.270   4.592   7.634  1.2625  1.0190  1.0172
 6469SOL     OW31042   1.492   3.554   1.469  0.2407  0.1089 -0.4934
 6469SOL    HW131043   1.493   3.484   1.534  2.2307  0.6347  0.0614
 6469SOL    HW231044   1.526   3.630   1.517 -1.4958  0.9546 -0.6103
 6470SOL     OW31045   3.094   4.105   4.099  0.0753  0.6326  0.2935
 6470SOL    HW131046   3.098   4.011   4.079  0.9824  0.8731 -0.6057
 6470SOL    HW231047   3.072   4.132   4.010  1.5636 -1.3849 -0.6913
 6471SOL     OW31048   2.420   0.914   7.440  0.9856 -0.5536  0.4068
 6471SOL    HW131049   2.505   0.953   7.422 -0.8406  3.2294 -0.0921
 6471SOL    HW231050   2.421   0.884   7.531  2.6261 -0.5256  0.3874
 6472SOL     OW31051   2.172   2.529  11.485  0.2966 -0.5658  0.4890
 6472SOL    HW131052   2.120   2.449  11.484  0.2833 -0.5418 -0.3427
 6472SOL    HW231053   2.202   2.534  11.394  0.3933  1.7023  0.6516
 6473SOL     OW31054   3.673   1.989  16.408 -0.1978 -0.1647 -0.0737
 6473SOL    HW131055   3.716   2.066  16.446 -0.5016 -1.0392  2.0237
 6473SOL    HW231056   3.604   2.032  16.359 -2.6980 -3.7017  0.3667
 6474SOL     OW31057   0.780   0.860   0.158 -0.2446  0.3825 -0.0116
 6474SOL    HW131058   0.691   0.853   0.123  0.6676 -1.0338 -2.0105
 6474SOL    HW231059   0.776   0.785   0.218 -0.5377  0.9091  0.6321
 6475SOL     OW31060   2.513   3.831   3.985 -0.2694 -0.8463 -0.0683
 6475SOL    HW131061   2.595   3.879   3.971 -2.2366  2.3173 -0.7409
 6475SOL    HW231062   2.456   3.890   3.937  0.1099  0.5777  1.2062
 6476SOL     OW31063   3.177   1.988   5.362 -0.7518 -0.3957 -0.1530
 6476SOL    HW131064   3.096   1.954   5.401 -1.5677 -0.0375 -1.5313
 6476SOL    HW231065   3.174   2.084   5.358  1.8583 -0.2489  1.9343
 6477SOL     OW31066   3.520   4.169   8.438  0.2008 -0.0439 -0.3317
 6477SOL    HW131067   3.481   4.176   8.351  1.6697  1.7637 -0.8374
 6477SOL    HW231068   3.460   4.218   8.493  1.9313 -0.1508  1.6740
 6478SOL     OW31069   2.743   2.296   6.306  0.4022  0.2259 -0.4978
 6478SOL    HW131070   2.684   2.239   6.355  1.1028  2.5800  3.0819
 6478SOL    HW231071   2.820   2.292   6.363 -0.3213 -0.3676  0.4382
 6479SOL     OW31072   0.288   4.210   6.241  0.2171  0.6165 -0.3952
 6479SOL    HW131073   0.258   4.201   6.331  0.0698 -1.4271 -0.6453
 6479SOL    HW231074   0.376   4.175   6.254  0.4982  1.6355  0.4781
 6480SOL     OW31075   3.006   2.662   2.937  0.9469  0.0048  0.5051
 6480SOL    HW131076   2.949   2.585   2.935  0.3719  0.4591 -0.9226
 6480SOL    HW231077   3.079   2.615   2.975  2.0014  0.4784 -0.9344
 6481SOL     OW31078   2.211   1.162   6.005  0.2881  0.1448  0.2797
 6481SOL    HW131079   2.186   1.179   6.096  0.1166  0.2400  0.2129
 6481SOL    HW231080   2.250   1.242   5.971 -0.3402  0.5145  0.4386
 6482SOL     OW31081   0.115   3.248  11.191  0.0935 -0.5282 -0.4704
 6482SOL    HW131082   0.090   3.156  11.200  0.9395 -0.6840  0.2814
 6482SOL    HW231083   0.199   3.236  11.147  1.1674  0.2115  1.4125
 6483SOL     OW31084   3.698   4.298  10.959 -0.0821 -0.4396  0.2347
 6483SOL    HW131085   3.608   4.271  10.942  0.4769 -2.4142  0.5185
 6483SOL    HW231086   3.753   4.221  10.953  2.0674  1.3255 -2.7526
 6484SOL     OW31087   0.558   0.817   2.815 -0.3947 -0.1997  0.3641
 6484SOL    HW131088   0.540   0.758   2.741 -1.9786  1.5676 -0.6851
 6484SOL    HW231089   0.636   0.773   2.847  0.0435  1.6901  1.8993
 6485SOL     OW31090   3.793   3.867   2.920  0.5051  0.1887 -0.0004
 6485SOL    HW131091   3.849   3.917   2.861  0.4808 -0.1528 -0.3111
 6485SOL    HW231092   3.850   3.879   2.996  1.3887 -0.0543 -0.6352
 6486SOL     OW31093   4.223   0.208  15.140  0.0974  0.5956 -0.7551
 6486SOL    HW131094   4.276   0.284  15.163  0.8735  0.0368 -0.6771
 6486SOL    HW231095   4.299   0.150  15.133 -0.3597  0.0089 -0.8487
 6487SOL     OW31096   1.486   0.259   1.998 -0.1765 -0.5832 -0.4261
 6487SOL    HW131097   1.437   0.299   1.926  0.7341  2.7836  0.8292
 6487SOL    HW231098   1.565   0.312   2.008 -1.2723  0.9447  0.1127
 6488SOL     OW31099   1.688   3.862   8.869  0.4531 -0.3717 -0.0368
 6488SOL    HW131100   1.722   3.801   8.935 -0.5843 -0.3212  0.5541
 6488SOL    HW231101   1.679   3.942   8.921 -0.7513  0.3856 -1.3888
 6489SOL     OW31102   0.980   3.322   4.787  0.1907 -0.4242 -0.0979
 6489SOL    HW131103   0.992   3.321   4.692  0.9597  2.5221 -0.0187
 6489SOL    HW231104   0.962   3.230   4.807  1.0365  0.2968  3.9461
 6490SOL     OW31105   2.333   1.907  11.864 -0.0447 -0.3564  0.3617
 6490SOL    HW131106   2.322   1.897  11.769  1.3410  1.1581  0.0455
 6490SOL    HW231107   2.242   1.932  11.878 -0.2118 -0.0032 -1.3140
 6491SOL     OW31108   0.443   0.102  14.169 -0.0320  0.1527 -0.0848
 6491SOL    HW131109   0.476   0.044  14.100 -0.5368 -1.3145  0.9052
 6491SOL    HW231110   0.417   0.172  14.109 -1.1742 -1.1361 -1.0886
 6492SOL     OW31111   4.412   0.284   4.458  0.2646 -0.0005 -1.0635
 6492SOL    HW131112   4.495   0.332   4.453 -0.0323  0.6717  0.5448
 6492SOL    HW231113   4.404   0.288   4.553  1.2383 -0.3053 -0.9610
 6493SOL     OW31114   0.776   3.541   1.654 -0.6393  0.0387  0.2171
 6493SOL    HW131115   0.796   3.493   1.734  0.0215 -1.0898 -0.6253
 6493SOL    HW231116   0.680   3.547   1.662 -0.5042  0.6893  1.2865
 6494SOL     OW31117   1.682   3.347   3.958 -0.6423  0.1501 -0.5332
 6494SOL    HW131118   1.767   3.391   3.950 -0.8751  0.4191 -1.5996
 6494SOL    HW231119   1.688   3.325   4.051  2.2731  1.8820 -0.3127
 6495SOL     OW31120   0.877   1.080   2.787 -0.0892 -0.2979  0.0532
 6495SOL    HW131121   0.912   1.168   2.792 -0.5125 -0.3061  2.7027
 6495SOL    HW231122   0.876   1.074   2.691  1.3670 -0.7930  0.0752
 6496SOL     OW31123   2.590   2.808   3.976 -0.1617  0.6381 -0.5283
 6496SOL    HW131124   2.584   2.726   3.927 -1.0779  0.8243 -0.7296
 6496SOL    HW231125   2.526   2.860   3.928 -2.2861 -0.8306  0.7171
 6497SOL     OW31126   3.201   3.210   6.978 -0.2410  0.3342  0.3416
 6497SOL    HW131127   3.187   3.255   7.061 -0.6965  1.0542 -0.1222
 6497SOL    HW231128   3.227   3.281   6.919  0.1446  0.1815  0.3279
 6498SOL     OW31129   2.204   2.183   8.400 -0.3027 -0.1919 -0.0124
 6498SOL    HW131130   2.276   2.233   8.439 -0.7199  1.2322 -1.0935
 6498SOL    HW231131   2.242   2.096   8.411 -2.3923 -1.0924 -0.0425
 6499SOL     OW31132   0.669   3.130   0.365  0.3954  0.6473  0.1424
 6499SOL    HW131133   0.741   3.079   0.327 -2.2159 -2.4933 -0.6557
 6499SOL    HW231134   0.697   3.130   0.457 -1.5631 -0.2325  0.7518
 6500SOL     OW31135   0.035   1.848   6.294 -0.0090  0.4408 -0.6367
 6500SOL    HW131136   0.046   1.811   6.382  0.8715 -2.6816 -2.0460
 6500SOL    HW231137   0.042   1.940   6.319 -1.6093  0.6799 -1.1199
 6501SOL     OW31138   4.003   4.500   7.121 -0.3414  0.2505  0.3707
 6501SOL    HW131139   3.976   4.552   7.197 -0.5235  1.2470 -0.3792
 6501SOL    HW231140   3.924   4.494   7.067 -0.8729  1.6183  0.9715
 6502SOL     OW31141   0.400   3.717   7.367 -0.2224  0.0012 -0.0807
 6502SOL    HW131142   0.355   3.638   7.337 -2.5650  0.6984  1.6139
 6502SOL    HW231143   0.336   3.773   7.411  0.8498 -1.1431  2.9116
 6503SOL     OW31144   0.735   4.508   7.791 -0.0786 -0.4083 -0.0471
 6503SOL    HW131145   0.747   4.447   7.864  1.6396  0.7469  0.6449
 6503SOL    HW231146   0.813   4.563   7.802 -0.7730  0.5634  0.1183
 6504SOL     OW31147   4.031   0.967   0.070 -0.2414 -0.0193 -0.1599
 6504SOL    HW131148   4.046   0.984  17.717  1.1932  0.8775  0.2355
 6504SOL    HW231149   4.087   1.032   0.110 -0.5343  0.4680 -0.5357
 6505SOL     OW31150   1.786   3.270   8.964 -0.5538  0.1587  0.0461
 6505SOL    HW131151   1.711   3.211   8.952  1.4324 -2.5420  0.8636
 6505SOL    HW231152   1.840   3.245   8.889 -2.0280 -3.1282  0.0301
 6506SOL     OW31153   1.462   2.238   2.887  0.1095 -0.9322 -0.5312
 6506SOL    HW131154   1.470   2.173   2.818  0.0277 -1.0201 -0.4577
 6506SOL    HW231155   1.401   2.195   2.948  1.6017 -2.2144  0.0400
 6507SOL     OW31156   3.275   1.726   9.630  0.2463  0.0443  0.9221
 6507SOL    HW131157   3.246   1.813   9.604 -2.8301 -0.8820  1.1361
 6507SOL    HW231158   3.248   1.669   9.558  2.6915  1.5973 -1.2300
 6508SOL     OW31159   2.535   1.925   6.065  0.4204  0.0838  0.2133
 6508SOL    HW131160   2.474   1.852   6.079  0.1470  0.3161  0.2150
 6508SOL    HW231161   2.502   1.989   6.127 -0.4575 -1.1242  1.0030
 6509SOL     OW31162   2.252   0.473   2.465 -0.3963  0.5202 -0.4741
 6509SOL    HW131163   2.218   0.393   2.505  3.2648 -1.3658 -1.1700
 6509SOL    HW231164   2.182   0.506   2.408  0.7503  2.7467 -0.5976
 6510SOL     OW31165   3.169   2.071   6.054  0.5359  0.3590 -0.0240
 6510SOL    HW131166   3.112   2.000   6.084 -1.6737  0.4632 -3.9706
 6510SOL    HW231167   3.203   2.107   6.135 -0.0268  0.2744  0.2527
 6511SOL     OW31168   3.185   4.440   7.312 -0.0679  0.3204 -0.6357
 6511SOL    HW131169   3.268   4.486   7.319 -0.0686  0.4243 -1.3774
 6511SOL    HW231170   3.148   4.448   7.400  1.1988 -0.4674 -0.0288
 6512SOL     OW31171   3.054   3.439  16.256 -0.0897 -0.2204  0.3359
 6512SOL    HW131172   3.120   3.372  16.272 -0.7102 -1.0775 -0.6767
 6512SOL    HW231173   3.006   3.405  16.181 -1.0262  0.7030  0.5113
 6513SOL     OW31174   0.227   4.134   5.503 -0.2124 -0.3938  0.0692
 6513SOL    HW131175   0.163   4.153   5.435 -1.9063 -1.5028  1.3323
 6513SOL    HW231176   0.185   4.149   5.588  1.3722 -0.2490  0.8311
 6514SOL     OW31177   0.368   1.908   5.509 -0.7852 -0.1825 -0.4711
 6514SOL    HW131178   0.415   1.850   5.570  0.8573  0.3914 -1.2144
 6514SOL    HW231179   0.370   1.990   5.557  0.6438  0.6232 -1.9383
 6515SOL     OW31180   0.751   3.282   1.507 -0.1828  0.4636  0.6265
 6515SOL    HW131181   0.790   3.368   1.523 -1.9754  1.4873 -0.5780
 6515SOL    HW231182   0.664   3.308   1.478 -0.0331 -0.0708 -0.2987
 6516SOL     OW31183   4.712   4.134   8.624 -0.2439 -0.0380  0.4740
 6516SOL    HW131184   4.722   4.181   8.541 -2.0991 -0.4305  0.0360
 6516SOL    HW231185   0.002   4.053   8.580 -0.6876  0.3264 -0.4739
 6517SOL     OW31186   3.954   0.868   4.785  0.0768 -0.1732  0.0275
 6517SOL    HW131187   3.981   0.809   4.855  1.1522  0.8734  0.4956
 6517SOL    HW231188   3.964   0.816   4.705  0.3064  0.1363 -0.1502
 6518SOL     OW31189   3.938   1.002   4.473 -0.4437 -0.0179  0.1735
 6518SOL    HW131190   3.870   0.996   4.540 -0.0671 -1.2307  0.4405
 6518SOL    HW231191   3.982   0.918   4.483 -2.8988 -1.8444 -3.9890
 6519SOL     OW31192   1.050   2.175   8.243 -0.4685  0.2652  0.4935
 6519SOL    HW131193   1.092   2.129   8.316  0.3957 -0.6609 -0.5825
 6519SOL    HW231194   1.001   2.238   8.296 -2.1184 -0.3222 -0.3360
 6520SOL     OW31195   2.771   0.044   0.657  0.5590 -0.1016 -0.0829
 6520SOL    HW131196   2.788   0.135   0.631  0.0241  0.6132  2.0301
 6520SOL    HW231197   2.760   0.013   0.567 -0.5375  0.1898 -0.0449
 6521SOL     OW31198   1.381   0.099   1.432 -0.3634  0.8514 -0.0333
 6521SOL    HW131199   1.411   0.147   1.355 -1.9056  0.5215 -0.8312
 6521SOL    HW231200   1.292   0.135   1.428 -0.8815 -0.1721  2.4101
 6522SOL     OW31201   1.705   1.972   8.487 -0.5048  0.2010 -0.1758
 6522SOL    HW131202   1.675   1.914   8.557  1.0692 -2.0073 -1.2977
 6522SOL    HW231203   1.666   2.054   8.516 -0.8566 -0.3621  0.9338
 6523SOL     OW31204   0.444   2.328   7.899  0.3456  0.1294  0.0020
 6523SOL    HW131205   0.352   2.343   7.876  0.3595 -1.0006 -0.7899
 6523SOL    HW231206   0.444   2.301   7.991  2.2007  0.2156  0.0235
 6524SOL     OW31207   0.493   2.798   9.215 -0.1352  0.3718  0.6586
 6524SOL    HW131208   0.476   2.891   9.224 -0.4718  0.3454  0.3003
 6524SOL    HW231209   0.408   2.754   9.203 -0.6497  1.5183  0.1390
 6525SOL     OW31210   4.686   4.135   7.046 -0.4665  0.2748 -0.5016
 6525SOL    HW131211   0.009   4.085   7.103 -0.7127 -0.3106 -0.7629
 6525SOL    HW231212   4.723   4.115   6.960  1.0707  0.8093  0.0511
 6526SOL     OW31213   1.459   3.972   2.217 -0.1332  0.0907  0.5314
 6526SOL    HW131214   1.380   3.983   2.164  1.9207  3.4994 -1.8237
 6526SOL    HW231215   1.431   3.979   2.309  1.6194  1.6241  0.9510
 6527SOL     OW31216   3.668   2.656   7.333 -0.1439 -0.1206 -0.0183
 6527SOL    HW131217   3.600   2.606   7.378  1.2354 -0.1843  1.9997
 6527SOL    HW231218   3.718   2.678   7.411  0.0447 -1.2505  0.1645
 6528SOL     OW31219   4.723   1.025   4.472 -0.3364  0.6351 -0.1254
 6528SOL    HW131220   4.668   0.987   4.403  0.5400 -0.2994 -0.3166
 6528SOL    HW231221   0.061   1.042   4.413  1.5960 -0.1227  2.0539
 6529SOL     OW31222   0.963   1.805   4.651 -0.2466  0.0486 -0.0786
 6529SOL    HW131223   1.050   1.776   4.623 -0.5787  0.1896 -1.2789
 6529SOL    HW231224   0.990   1.873   4.712  1.2444 -0.6093 -0.0126
 6530SOL     OW31225   2.251   0.639   3.462 -0.4261 -0.4645 -0.1255
 6530SOL    HW131226   2.215   0.602   3.382  2.3735 -0.5364 -1.3595
 6530SOL    HW231227   2.217   0.728   3.468  1.0937  0.2586 -2.1309
 6531SOL     OW31228   0.856   2.351   2.564 -0.1793 -0.1066  0.0099
 6531SOL    HW131229   0.767   2.316   2.556 -0.8904  1.5616  0.4472
 6531SOL    HW231230   0.875   2.341   2.471  0.1538  0.5712  0.0043
 6532SOL     OW31231   3.744   4.544   6.982 -0.6785  0.0853 -0.4050
 6532SOL    HW131232   3.747   4.448   6.978 -2.1771  0.0037  0.4210
 6532SOL    HW231233   3.716   4.559   6.892 -1.2145 -1.1666 -0.4453
 6533SOL     OW31234   4.141   2.568  14.319 -0.0534  0.4072 -0.4103
 6533SOL    HW131235   4.205   2.637  14.335  0.0423  0.3250 -0.4321
 6533SOL    HW231236   4.062   2.621  14.308  0.5620  0.9824 -2.0728
 6534SOL     OW31237   4.472   0.730   7.214  0.3141  0.0496  0.2902
 6534SOL    HW131238   4.491   0.823   7.226 -0.0889  0.1975 -0.2160
 6534SOL    HW231239   4.377   0.730   7.202  0.3811  1.2567 -0.2468
 6535SOL     OW31240   3.778   0.339  10.256  0.2855  0.0223 -0.3839
 6535SOL    HW131241   3.698   0.331  10.205  0.3949  2.1823 -0.8968
 6535SOL    HW231242   3.845   0.374  10.197  0.0468  2.1040  0.5868
 6536SOL     OW31243   0.800   3.897  14.833  0.5814 -0.0404 -0.4944
 6536SOL    HW131244   0.769   3.807  14.839 -0.7335  0.5397  1.3822
 6536SOL    HW231245   0.726   3.958  14.837  1.8419  1.5273 -0.8558
 6537SOL     OW31246   0.426   2.561   7.615  0.6717 -0.5667  1.0480
 6537SOL    HW131247   0.342   2.516   7.626  1.5777 -1.9805  2.0715
 6537SOL    HW231248   0.453   2.545   7.524 -1.0257  3.0124 -0.0734
 6538SOL     OW31249   0.258   1.146  14.804  0.5683 -0.1992  0.4583
 6538SOL    HW131250   0.190   1.183  14.861  0.6111 -0.7358  0.8586
 6538SOL    HW231251   0.224   1.146  14.714  1.7108  2.5145  0.0394
 6539SOL     OW31252   0.553   4.633  12.843  0.0757 -0.5376 -0.5186
 6539SOL    HW131253   0.634   4.684  12.843 -0.7057  0.7060  2.4251
 6539SOL    HW231254   0.508   4.677  12.771 -1.3096  0.0071  0.6881
 6540SOL     OW31255   2.452   1.235   5.769 -0.0447 -0.3600 -0.2760
 6540SOL    HW131256   2.474   1.324   5.740 -0.8277  0.6777  2.2742
 6540SOL    HW231257   2.366   1.228   5.728 -0.7193  1.0636  0.8756
 6541SOL     OW31258   1.595   3.687  15.930  0.3665  0.2147 -0.2427
 6541SOL    HW131259   1.581   3.593  15.937 -0.0467  0.3639  0.9994
 6541SOL    HW231260   1.578   3.699  15.837 -1.8369 -0.2373  0.0889
 6542SOL     OW31261   2.225   0.825   0.874 -0.2638  0.1109 -0.1619
 6542SOL    HW131262   2.188   0.741   0.846  1.2869 -0.8071  0.5174
 6542SOL    HW231263   2.152   0.856   0.927 -0.5862  2.4488 -1.9999
 6543SOL     OW31264   4.692   3.332  12.881 -0.6361  0.0176 -0.7632
 6543SOL    HW131265   4.612   3.359  12.926 -0.1690  0.6853 -0.3526
 6543SOL    HW231266   4.663   3.357  12.793 -0.6088 -0.1880 -0.8331
 6544SOL     OW31267   0.258   4.409   3.837  0.5538 -0.5473 -0.4293
 6544SOL    HW131268   0.316   4.415   3.913 -1.4082 -0.4390  1.0918
 6544SOL    HW231269   0.172   4.398   3.880  0.6963 -2.9933 -0.7403
 6545SOL     OW31270   4.242   1.952   3.324 -0.4252  0.0666  0.1651
 6545SOL    HW131271   4.286   1.902   3.392 -0.6395 -0.3349  0.0116
 6545SOL    HW231272   4.187   1.882   3.290 -0.3290  1.6965 -3.3538
 6546SOL     OW31273   1.588   1.841  12.838  0.7932  0.5468 -0.1126
 6546SOL    HW131274   1.535   1.920  12.842  0.4605  0.2560  1.3553
 6546SOL    HW231275   1.674   1.865  12.872  0.3459  2.0129 -0.0164
 6547SOL     OW31276   2.372   3.698   4.183  0.1943 -0.0024  0.1313
 6547SOL    HW131277   2.423   3.726   4.107 -0.1856  2.1711  0.6668
 6547SOL    HW231278   2.331   3.781   4.208 -0.1947  0.6472 -2.7055
 6548SOL     OW31279   0.605   4.095   3.286 -0.2116  0.2421 -0.0091
 6548SOL    HW131280   0.654   4.013   3.280 -1.1837 -0.2815 -0.7835
 6548SOL    HW231281   0.679   4.148   3.317  0.0816  1.3785 -2.6713
 6549SOL     OW31282   1.555   4.524   0.881 -0.7065  0.3486 -0.0049
 6549SOL    HW131283   1.580   4.583   0.809  0.9965 -0.0160  0.2885
 6549SOL    HW231284   1.462   4.511   0.861 -0.9006  1.2666  0.2885
 6550SOL     OW31285   3.771   1.402   5.310  0.1586 -0.0878  0.2725
 6550SOL    HW131286   3.742   1.324   5.357 -0.3369  0.9189  1.6438
 6550SOL    HW231287   3.858   1.408   5.348 -0.2712 -1.4627  1.4751
 6551SOL     OW31288   2.259   0.927   5.049  0.5422  0.2735 -0.3067
 6551SOL    HW131289   2.180   0.873   5.047 -1.3449  2.9562  1.8832
 6551SOL    HW231290   2.318   0.861   5.012 -1.4349 -0.7456 -1.6776
 6552SOL     OW31291   4.523   2.775  17.501 -0.2381  0.2241 -0.2563
 6552SOL    HW131292   4.617   2.781  17.483 -0.0424 -1.4008  0.1814
 6552SOL    HW231293   4.521   2.707  17.569  0.6652 -0.0156 -0.4721
 6553SOL     OW31294   4.608   0.219  17.306  0.1717 -0.3038 -0.0905
 6553SOL    HW131295   4.524   0.191  17.342 -0.1764  0.0310 -0.6386
 6553SOL    HW231296   4.668   0.175  17.366  1.9870 -0.5593 -2.0517
 6554SOL     OW31297   1.062   4.280   6.109  0.1059 -0.1923  0.3452
 6554SOL    HW131298   1.153   4.255   6.096  0.0359 -1.0377  1.5813
 6554SOL    HW231299   1.046   4.251   6.198  0.7402 -0.6846  0.2993
 6555SOL     OW31300   3.531   4.299   1.848 -0.1774 -0.0053  0.3719
 6555SOL    HW131301   3.547   4.334   1.936 -1.3694  2.0083 -0.2242
 6555SOL    HW231302   3.618   4.286   1.812 -0.6938  0.4917 -1.0322
 6556SOL     OW31303   0.104   4.658   7.934  0.4201  0.2398  0.0731
 6556SOL    HW131304   0.094   4.563   7.930 -1.6192  0.4505  0.2227
 6556SOL    HW231305   0.013   4.686   7.934  0.4659  0.3874 -0.0844
 6557SOL     OW31306   0.109   3.510  11.188 -0.3416  0.2780 -0.1712
 6557SOL    HW131307   0.144   3.521  11.100 -1.3944 -1.2514 -0.7728
 6557SOL    HW231308   0.092   3.416  11.186 -3.2305  0.8191 -0.6971
 6558SOL     OW31309   1.560   1.679  10.273 -0.1052 -0.6388 -0.3499
 6558SOL    HW131310   1.613   1.754  10.247  0.5432 -1.6399 -1.9248
 6558SOL    HW231311   1.551   1.708  10.363  2.3662 -2.8414  0.5932
 6559SOL     OW31312   3.286   2.678  13.097 -0.1610  0.0354 -0.5293
 6559SOL    HW131313   3.234   2.643  13.025 -1.8378  0.4577  0.4807
 6559SOL    HW231314   3.353   2.716  13.040 -1.0103  4.0118  1.1044
 6560SOL     OW31315   4.128   0.932   7.734 -0.0203 -0.0891  0.1924
 6560SOL    HW131316   4.123   0.864   7.800  2.0447  1.0206  1.4919
 6560SOL    HW231317   4.219   0.921   7.707 -0.6716  1.0804 -2.4986
 6561SOL     OW31318   1.333   2.261   6.448  0.8591 -0.4350  0.1326
 6561SOL    HW131319   1.367   2.254   6.358  0.0413 -0.0250 -0.2024
 6561SOL    HW231320   1.399   2.315   6.491 -1.3285  1.1937  1.4413
 6562SOL     OW31321   2.913   0.247   0.889  0.4216  0.5214  0.5211
 6562SOL    HW131322   2.883   0.216   0.975 -2.6709 -0.3544 -0.8603
 6562SOL    HW231323   2.974   0.182   0.854  2.9057  3.3195 -0.2777
 6563SOL     OW31324   0.261   3.744   3.993 -0.3381  0.6291 -0.1750
 6563SOL    HW131325   0.277   3.783   3.907 -1.2354  0.1013 -0.5840
 6563SOL    HW231326   0.287   3.816   4.051  0.3651 -0.3045  0.6846
 6564SOL     OW31327   2.186   4.112   7.203  0.1292  0.2116 -0.1846
 6564SOL    HW131328   2.254   4.051   7.174  1.3376  0.4323  2.2389
 6564SOL    HW231329   2.208   4.112   7.296 -1.2120  2.0508  0.1341
 6565SOL     OW31330   4.193   0.008   6.341 -0.2227  0.2632  0.1673
 6565SOL    HW131331   4.199   4.690   6.420  3.2356  0.7926  0.2971
 6565SOL    HW231332   4.284   0.036   6.328 -0.6197  0.2442 -2.5896
 6566SOL     OW31333   1.955   0.090  16.292  0.0218  0.0792  0.9311
 6566SOL    HW131334   1.955   0.027  16.220 -2.0679  0.2209  0.8064
 6566SOL    HW231335   1.919   0.170  16.255  2.4025  0.5174 -0.4184
 6567SOL     OW31336   4.249   4.452   3.148 -0.1753 -0.1393 -0.2622
 6567SOL    HW131337   4.281   4.461   3.059 -0.6382  0.4348 -0.3712
 6567SOL    HW231338   4.161   4.490   3.147  0.9240  2.4376 -0.4650
 6568SOL     OW31339   1.597   2.559   8.700 -0.2319 -0.7524 -0.0009
 6568SOL    HW131340   1.619   2.642   8.658  1.7609 -0.5879  1.3552
 6568SOL    HW231341   1.669   2.508   8.662  0.7481  1.4065 -0.9856
 6569SOL     OW31342   4.287   1.663  17.269  0.5790 -0.0496 -0.3528
 6569SOL    HW131343   4.345   1.738  17.256  0.7001  0.0969  0.9805
 6569SOL    HW231344   4.218   1.692  17.210  1.5601  2.0689 -0.4532
 6570SOL     OW31345   3.365   3.741   1.508  0.4370  0.2529  0.3345
 6570SOL    HW131346   3.328   3.794   1.438  2.9507  2.3915  0.6072
 6570SOL    HW231347   3.397   3.660   1.470  0.6206  0.7334 -0.5399
 6571SOL     OW31348   4.512   4.132   7.264  0.1457 -0.1778  0.1807
 6571SOL    HW131349   4.451   4.205   7.258  1.6376  1.1366  1.0107
 6571SOL    HW231350   4.560   4.140   7.181  2.1238 -0.0015  1.3521
 6572SOL     OW31351   2.836   4.410   4.752  0.0334  0.6214 -0.0561
 6572SOL    HW131352   2.822   4.320   4.722 -0.7088  1.1766 -1.3508
 6572SOL    HW231353   2.861   4.450   4.668 -0.4886  3.8716  1.3241
 6573SOL     OW31354   0.184   1.218  17.279  0.3851 -0.0427 -0.0826
 6573SOL    HW131355   0.171   1.130  17.313 -1.7283  1.3673  2.7095
 6573SOL    HW231356   0.166   1.206  17.185 -1.0897 -1.4843  0.3866
 6574SOL     OW31357   0.746   0.264   4.585 -0.0162  0.0958 -0.5507
 6574SOL    HW131358   0.651   0.265   4.588 -0.0746  2.9426 -2.7147
 6574SOL    HW231359   0.774   0.293   4.498 -0.6255  2.1247 -0.0632
 6575SOL     OW31360   0.453   4.391   5.878 -0.4796 -0.3487  0.5356
 6575SOL    HW131361   0.473   4.464   5.821 -2.8951 -1.1837 -1.4039
 6575SOL    HW231362   0.492   4.419   5.960  1.5923  0.6449 -0.8156
 6576SOL     OW31363   1.325   1.709  17.337  0.1403  0.0500  0.0943
 6576SOL    HW131364   1.397   1.730  17.277  0.4039 -1.8504 -0.2603
 6576SOL    HW231365   1.344   1.617  17.358 -0.9045 -0.1000  0.3650
 6577SOL     OW31366   1.669   0.750  14.061  0.5473 -0.1432 -0.0102
 6577SOL    HW131367   1.583   0.740  14.102  0.7481 -2.3907 -0.1295
 6577SOL    HW231368   1.721   0.779  14.136  1.7406  2.4348 -1.8096
 6578SOL     OW31369   4.063   2.546   2.129 -0.1968 -0.4332 -0.2139
 6578SOL    HW131370   3.984   2.496   2.109 -0.1508 -1.2717  1.7227
 6578SOL    HW231371   4.100   2.548   2.041 -0.8632 -0.2578 -0.4924
 6579SOL     OW31372   0.331   0.523  13.272 -0.4783 -0.0737 -0.3169
 6579SOL    HW131373   0.370   0.570  13.199 -0.0270 -0.5874 -0.4087
 6579SOL    HW231374   0.320   0.434  13.237 -0.2919 -0.6011  0.9485
 6580SOL     OW31375   3.995   1.369   8.015 -0.0392 -0.4335 -0.0836
 6580SOL    HW131376   4.050   1.440   8.046  1.5766  0.2891 -4.6596
 6580SOL    HW231377   3.906   1.402   8.026 -0.7453 -2.5333  0.4721
 6581SOL     OW31378   4.039   0.707   4.976  0.3239 -0.1312  0.2816
 6581SOL    HW131379   4.125   0.667   4.995  1.2554  1.3842 -0.7595
 6581SOL    HW231380   3.988   0.661   5.043 -0.5247  1.3611  0.6446
 6582SOL     OW31381   3.726   2.369  14.906 -0.0616 -0.7522  0.1722
 6582SOL    HW131382   3.711   2.435  14.838 -1.0958 -0.5910  0.5662
 6582SOL    HW231383   3.635   2.342  14.914 -0.4902 -0.5279 -3.7641
 6583SOL     OW31384   0.643   2.265  17.347 -0.4661  0.0686  0.5007
 6583SOL    HW131385   0.664   2.280  17.255 -0.0956  1.9296  0.8747
 6583SOL    HW231386   0.565   2.320  17.352  0.4872  1.2562  2.2694
 6584SOL     OW31387   2.230   0.281   7.653 -0.1641 -0.2501 -0.5578
 6584SOL    HW131388   2.273   0.236   7.580 -0.2402 -0.8368 -0.2383
 6584SOL    HW231389   2.157   0.222   7.670  1.2763 -1.4865  1.3886
 6585SOL     OW31390   0.083   3.680   6.432 -0.2630  0.2184 -0.3685
 6585SOL    HW131391   0.060   3.674   6.339 -2.0733  0.4495  0.0572
 6585SOL    HW231392   0.115   3.767   6.455 -0.3114  0.6316 -1.8835
 6586SOL     OW31393   2.485   0.726   6.922  0.3086  0.6300 -0.5064
 6586SOL    HW131394   2.527   0.678   6.993  0.3127  0.1267 -0.8496
 6586SOL    HW231395   2.556   0.778   6.885 -0.0564  0.8181 -0.9487
 6587SOL     OW31396   2.416   0.079  10.979 -0.0078 -0.0827  0.3046
 6587SOL    HW131397   2.472   0.156  10.967  0.5676 -0.6964 -0.9027
 6587SOL    HW231398   2.360   0.115  11.049  1.1188  1.5879  0.3479
 6588SOL     OW31399   1.115   0.847   6.532 -0.2732  0.2598 -0.2045
 6588SOL    HW131400   1.151   0.913   6.473 -3.0328  1.6429 -0.3592
 6588SOL    HW231401   1.114   0.781   6.462  1.3875 -1.5571  1.4593
 6589SOL     OW31402   2.998   1.303   7.063 -0.2369  0.3208  0.2667
 6589SOL    HW131403   3.039   1.354   6.992 -0.5156  2.0414  1.3272
 6589SOL    HW231404   3.046   1.221   7.053 -0.1535  0.7441 -2.8019
 6590SOL     OW31405   1.212   3.272   5.653  0.6061 -0.4896  0.0229
 6590SOL    HW131406   1.263   3.274   5.734  0.7481  0.4003 -0.0906
 6590SOL    HW231407   1.174   3.360   5.654  1.9480  0.1066 -0.9842
 6591SOL     OW31408   1.651   0.549   2.417  0.0999 -0.0842 -0.1885
 6591SOL    HW131409   1.732   0.565   2.369 -0.2505  1.2236 -0.3344
 6591SOL    HW231410   1.606   0.632   2.401 -2.1225 -0.9645  1.4833
 6592SOL     OW31411   1.524   3.532   3.849 -0.4137 -0.0079  0.7160
 6592SOL    HW131412   1.580   3.475   3.902 -0.3248 -0.6631 -0.0881
 6592SOL    HW231413   1.443   3.554   3.895 -0.5815 -0.3559  0.5858
 6593SOL     OW31414   3.333   0.616   2.256 -0.1757 -0.3114 -0.0849
 6593SOL    HW131415   3.278   0.611   2.177 -1.0640 -1.2000  0.5831
 6593SOL    HW231416   3.422   0.621   2.223 -0.4067  1.4556 -0.4394
 6594SOL     OW31417   0.530   2.650   6.428 -0.2652 -0.2017 -0.1748
 6594SOL    HW131418   0.536   2.651   6.524  0.6985  2.0009 -0.2621
 6594SOL    HW231419   0.570   2.564   6.414 -0.1457  0.0488 -1.3406
 6595SOL     OW31420   3.287   3.772   2.834  0.3222 -0.4307 -0.5064
 6595SOL    HW131421   3.270   3.695   2.780 -2.9629 -0.5070  0.6842
 6595SOL    HW231422   3.370   3.808   2.800  0.8619 -0.2343  1.0322
 6596SOL     OW31423   3.805   2.765   5.810 -0.1921 -0.3235 -0.0191
 6596SOL    HW131424   3.896   2.782   5.784 -0.8532  2.2134 -0.7119
 6596SOL    HW231425   3.810   2.758   5.905  0.5954  1.2066  0.0462
 6597SOL     OW31426   2.351   0.050   4.221 -0.0568  0.0899  0.5117
 6597SOL    HW131427   2.355   0.002   4.304 -1.5846 -0.8138  0.0636
 6597SOL    HW231428   2.428   0.105   4.223  0.1336 -0.1136 -1.2556
 6598SOL     OW31429   1.092   3.670   9.087 -0.7363 -0.0195 -0.5890
 6598SOL    HW131430   1.178   3.711   9.082 -0.4793 -0.2327  2.5449
 6598SOL    HW231431   1.030   3.742   9.079  1.4214  1.8259 -0.7858
 6599SOL     OW31432   1.259   3.474   8.516 -0.2998  0.3250 -0.0315
 6599SOL    HW131433   1.176   3.521   8.521  0.0551  0.7559  1.8234
 6599SOL    HW231434   1.324   3.533   8.554  0.2281 -0.8349  0.8932
 6600SOL     OW31435   3.523   4.233   2.997 -0.1679 -0.4528 -0.5900
 6600SOL    HW131436   3.610   4.198   3.020  0.7293  1.6309 -0.8471
 6600SOL    HW231437   3.503   4.196   2.911 -1.0441  1.1747 -1.0890
 6601SOL     OW31438   4.082   3.641  11.616  0.1417 -0.4903 -0.2948
 6601SOL    HW131439   4.035   3.573  11.665 -0.7610  0.7274  0.5516
 6601SOL    HW231440   4.042   3.725  11.638 -0.4438 -0.8881  0.1897
 6602SOL     OW31441   4.426   2.158   0.089 -0.0685  0.3215  0.1436
 6602SOL    HW131442   4.496   2.149   0.153  0.4496  0.7232 -0.3614
 6602SOL    HW231443   4.398   2.067   0.088  1.5216 -0.1925  1.4821
 6603SOL     OW31444   4.121   0.147   1.429  0.6959 -0.2824  0.6216
 6603SOL    HW131445   4.135   0.180   1.517  1.5642  2.8398 -0.6845
 6603SOL    HW231446   4.157   0.059   1.442 -0.3573 -1.0612 -1.6010
 6604SOL     OW31447   1.840   3.256   2.707  0.7690  0.0275 -0.0739
 6604SOL    HW131448   1.826   3.163   2.723 -1.1440  0.3869  0.3542
 6604SOL    HW231449   1.785   3.286   2.779 -0.5644 -2.3328 -0.1048
 6605SOL     OW31450   2.725   2.911  16.775  0.1792 -0.0573 -0.2291
 6605SOL    HW131451   2.656   2.963  16.817  0.2255 -0.3138  0.1602
 6605SOL    HW231452   2.689   2.892  16.689  0.2292  1.6007 -0.6152
 6606SOL     OW31453   1.564   1.693   5.274  0.0142  0.8397  0.7460
 6606SOL    HW131454   1.518   1.713   5.355 -1.2247  2.5536 -0.3874
 6606SOL    HW231455   1.580   1.599   5.289 -2.4607  0.2811 -0.1123
 6607SOL     OW31456   4.624   2.641   4.372 -0.1445 -0.3637 -0.4996
 6607SOL    HW131457   4.668   2.573   4.423  0.9238 -0.1187 -1.0989
 6607SOL    HW231458   4.644   2.720   4.422  0.5847 -0.1268 -1.1738
 6608SOL     OW31459   3.548   2.218   5.432  0.6154  0.4758  0.0737
 6608SOL    HW131460   3.541   2.122   5.434 -1.4182  0.6167 -0.3511
 6608SOL    HW231461   3.553   2.237   5.339  0.4052 -0.3770 -0.1168
 6609SOL     OW31462   3.617   4.696   6.488 -0.2292 -0.1221 -0.3038
 6609SOL    HW131463   3.597   0.007   6.407 -1.2772  1.1975  0.7050
 6609SOL    HW231464   3.589   4.608   6.461  0.6404 -1.0984  1.9082
 6610SOL     OW31465   3.519   1.206   7.260 -0.0513 -0.4943  0.4053
 6610SOL    HW131466   3.582   1.135   7.274 -0.4383 -0.8874  0.1298
 6610SOL    HW231467   3.481   1.213   7.347 -1.3211 -1.2883 -0.0894
 6611SOL     OW31468   3.685   4.361   4.092 -0.1837 -0.0862  0.0024
 6611SOL    HW131469   3.687   4.327   4.003  1.7346  0.3126 -0.1128
 6611SOL    HW231470   3.771   4.404   4.093  0.0250 -0.4729 -1.1962
 6612SOL     OW31471   3.650   2.453   9.095  0.1638  0.6989  0.6405
 6612SOL    HW131472   3.661   2.505   9.174 -1.1517 -1.1559  2.0302
 6612SOL    HW231473   3.555   2.444   9.091  0.3327 -0.7424 -0.4629
 6613SOL     OW31474   0.174   1.653   5.496 -0.5471  0.1926  0.0428
 6613SOL    HW131475   0.157   1.736   5.540  0.3790 -0.1198  0.9848
 6613SOL    HW231476   0.250   1.633   5.550 -0.9177 -0.9817  0.1317
 6614SOL     OW31477   3.419   3.233   7.525 -0.1071 -0.6738 -0.0763
 6614SOL    HW131478   3.489   3.169   7.533  1.2040  0.9792  1.5079
 6614SOL    HW231479   3.357   3.181   7.577 -1.2322  2.7447  2.0406
 6615SOL     OW31480   1.686   2.360   0.922 -0.2118 -0.6658 -0.0073
 6615SOL    HW131481   1.725   2.285   0.966 -0.2092 -1.0291 -0.6328
 6615SOL    HW231482   1.599   2.331   0.894  0.4291 -1.9253 -0.6820
 6616SOL     OW31483   0.298   4.300   0.015  0.1588 -0.6051 -0.0143
 6616SOL    HW131484   0.240   4.279  17.682 -0.9860 -1.3803  1.1272
 6616SOL    HW231485   0.338   4.217   0.040 -0.6492 -0.3227  2.1648
 6617SOL     OW31486   2.741   0.529   8.671 -0.5309 -0.0037  0.1278
 6617SOL    HW131487   2.747   0.495   8.760 -0.7956  0.8266  0.4630
 6617SOL    HW231488   2.646   0.535   8.660 -0.6717 -2.2662  0.2123
 6618SOL     OW31489   2.393   4.353   3.450  0.3885  0.4556  0.2379
 6618SOL    HW131490   2.411   4.441   3.483 -3.0401  0.8653  1.0142
 6618SOL    HW231491   2.351   4.371   3.367 -1.2625  1.0373  1.2100
 6619SOL     OW31492   3.138   2.737  12.196  0.3371 -0.5500 -1.1086
 6619SOL    HW131493   3.076   2.665  12.185 -1.8558  1.1678  0.1400
 6619SOL    HW231494   3.199   2.714  12.126  0.1833 -0.9869 -1.0994
 6620SOL     OW31495   1.856   0.772   8.994 -0.8120 -0.0167 -0.6222
 6620SOL    HW131496   1.768   0.805   8.976 -0.6976  1.2987  1.1922
 6620SOL    HW231497   1.914   0.848   8.997  1.7788 -2.0055  0.5427
 6621SOL     OW31498   0.885   2.613   3.638  0.0297  0.3210  0.0168
 6621SOL    HW131499   0.879   2.610   3.733 -0.5713 -0.5233 -0.0554
 6621SOL    HW231500   0.966   2.664   3.627  1.4087 -1.6821  0.8741
 6622SOL     OW31501   0.808   1.732   6.639 -0.0222 -0.2143  0.1764
 6622SOL    HW131502   0.804   1.822   6.606 -0.9566  0.0449  0.9957
 6622SOL    HW231503   0.872   1.741   6.710  0.7891  2.4708 -0.9009
 6623SOL     OW31504   3.143   2.314   2.818 -0.0053  0.2423  0.4140
 6623SOL    HW131505   3.184   2.361   2.745  0.3489 -1.4783 -0.5101
 6623SOL    HW231506   3.217   2.280   2.868  0.0691  1.5430  1.1840
 6624SOL     OW31507   3.244   3.214   5.128  0.2211  1.0161  0.6346
 6624SOL    HW131508   3.173   3.227   5.066  0.2902 -1.7951 -0.0166
 6624SOL    HW231509   3.218   3.263   5.207  0.0060  1.5619  0.2228
 6625SOL     OW31510   0.432   0.097  14.605 -0.2483  0.1792  0.2287
 6625SOL    HW131511   0.429   0.159  14.532  1.2681  1.8858  1.6186
 6625SOL    HW231512   0.389   0.018  14.572 -0.9825  0.6473  0.0656
 6626SOL     OW31513   3.590   1.689  12.504 -0.0749 -0.4189 -0.0707
 6626SOL    HW131514   3.617   1.712  12.593 -0.8231  0.3219 -0.0448
 6626SOL    HW231515   3.641   1.751  12.451  1.9560 -1.5850  0.5008
 6627SOL     OW31516   3.381   4.056   1.719  0.1454  0.2448 -0.3012
 6627SOL    HW131517   3.418   3.980   1.764  3.6843  0.3171 -3.1686
 6627SOL    HW231518   3.395   4.135   1.772  1.7598 -1.3941  1.7092
 6628SOL     OW31519   1.816   2.406   9.627  0.6483 -0.3619  0.0144
 6628SOL    HW131520   1.883   2.401   9.695 -0.6821  0.3078  1.3830
 6628SOL    HW231521   1.735   2.431   9.672  0.1947 -0.6057 -0.6723
 6629SOL     OW31522   0.470   1.644  16.214 -0.0633  0.2557  0.7333
 6629SOL    HW131523   0.489   1.585  16.141 -0.5113  2.7317 -1.3738
 6629SOL    HW231524   0.376   1.630  16.224  0.1905 -1.0887  1.2354
 6630SOL     OW31525   0.000   1.959  16.648 -0.1347  0.0882 -0.7088
 6630SOL    HW131526   0.081   1.923  16.686 -1.2394 -1.4385  0.1873
 6630SOL    HW231527   4.687   1.877  16.651 -1.5487  0.7768 -4.8011
 6631SOL     OW31528   1.572   0.860  15.522 -0.4316  0.5106 -0.1385
 6631SOL    HW131529   1.636   0.879  15.453 -1.2501  1.6983 -0.5680
 6631SOL    HW231530   1.546   0.947  15.552  0.2362  1.0071 -0.9773
 6632SOL     OW31531   1.685   3.884  11.955 -0.1517  0.4567 -1.0355
 6632SOL    HW131532   1.770   3.924  11.971  0.0187 -0.3376  0.0325
 6632SOL    HW231533   1.719   3.794  11.950  0.8350  0.7013  1.2664
 6633SOL     OW31534   4.285   2.282  12.906 -0.2274 -0.3948  0.2201
 6633SOL    HW131535   4.326   2.200  12.879 -0.8020 -0.0587 -1.6270
 6633SOL    HW231536   4.285   2.330  12.823 -0.9226  0.7284  0.8649
 6634SOL     OW31537   2.868   2.284   1.357  0.5034  0.3001  0.4483
 6634SOL    HW131538   2.852   2.347   1.426 -1.4411 -3.4889  3.4301
 6634SOL    HW231539   2.784   2.279   1.312  0.5262 -0.5905  0.5113
 6635SOL     OW31540   1.978   0.818   8.497  0.1887 -0.3042  0.2643
 6635SOL    HW131541   1.904   0.879   8.497  0.3174 -0.1373 -3.4660
 6635SOL    HW231542   1.962   0.779   8.583 -0.8760 -0.6603 -0.0956
 6636SOL     OW31543   3.181   2.403   1.869  0.1198  0.4322  0.4310
 6636SOL    HW131544   3.231   2.322   1.875  1.2749  1.0296 -1.3006
 6636SOL    HW231545   3.204   2.444   1.786  0.0485 -0.9721 -0.2756
 6637SOL     OW31546   3.662   3.887  13.879 -0.0236 -0.6228  0.2341
 6637SOL    HW131547   3.582   3.934  13.900 -0.3680 -0.1759 -2.0732
 6637SOL    HW231548   3.631   3.823  13.815 -1.5829 -0.0164  0.3998
 6638SOL     OW31549   4.071   3.277   1.116 -0.2095 -0.2859  0.3371
 6638SOL    HW131550   4.056   3.269   1.210  0.3734  3.6152  0.7458
 6638SOL    HW231551   3.984   3.273   1.076  0.6895  2.7652 -1.9853
 6639SOL     OW31552   0.679   3.288   5.856  0.0669  0.5435 -0.4462
 6639SOL    HW131553   0.751   3.243   5.900  0.1807  0.2999 -0.8718
 6639SOL    HW231554   0.611   3.220   5.859  0.2488  0.3444 -0.7267
 6640SOL     OW31555   2.969   3.759   5.350  0.0937  0.1640  0.4795
 6640SOL    HW131556   3.017   3.695   5.298 -0.1480  1.2827 -1.1223
 6640SOL    HW231557   2.897   3.780   5.290 -0.7145  1.0045  1.7318
 6641SOL     OW31558   2.984   2.944   8.592  0.0128 -0.3645  0.0145
 6641SOL    HW131559   2.999   3.023   8.541  0.0344  0.3548  1.1265
 6641SOL    HW231560   2.999   2.979   8.680 -1.9209 -2.0527  1.0173
 6642SOL     OW31561   0.589   2.819   5.826  0.1832  0.9061  0.1077
 6642SOL    HW131562   0.521   2.803   5.760  0.7159  1.0612 -0.4764
 6642SOL    HW231563   0.542   2.810   5.909 -1.1085 -1.2166 -0.8470
 6643SOL     OW31564   2.072   4.218  12.356 -0.3156  0.5552 -0.2772
 6643SOL    HW131565   2.017   4.140  12.349  0.0126  0.4691 -1.8691
 6643SOL    HW231566   2.046   4.239  12.446 -1.4250  0.0321 -0.4800
 6644SOL     OW31567   2.517   1.709   8.582  0.4375 -0.2498 -0.5966
 6644SOL    HW131568   2.441   1.680   8.531  0.1264  0.1481 -0.3559
 6644SOL    HW231569   2.534   1.638   8.643 -0.5267 -1.0924 -1.2904
 6645SOL     OW31570   1.032   3.598   6.074 -0.2994 -0.2737  0.0207
 6645SOL    HW131571   1.098   3.653   6.032  0.6410 -0.3137  1.4362
 6645SOL    HW231572   1.078   3.516   6.056 -1.5002 -0.8107 -0.5958
 6646SOL     OW31573   3.304   2.603   7.632  0.2733  0.1002  0.0426
 6646SOL    HW131574   3.285   2.574   7.722 -0.5194 -0.7298 -0.3957
 6646SOL    HW231575   3.244   2.676   7.619  0.2204 -0.2820 -1.7975
 6647SOL     OW31576   1.569   0.559  12.700 -0.7542 -0.8301 -0.2222
 6647SOL    HW131577   1.474   0.550  12.694 -1.1300  1.3027  2.4057
 6647SOL    HW231578   1.587   0.616  12.625 -1.8524 -1.4989 -0.9853
 6648SOL     OW31579   1.922   4.169  16.000 -0.3975 -0.4188  0.3893
 6648SOL    HW131580   1.920   4.099  16.066  2.1952 -0.2972  0.5949
 6648SOL    HW231581   2.012   4.196  16.015 -0.2120 -1.1092  0.5161
 6649SOL     OW31582   2.062   1.395   5.334  0.6395  0.4298  0.7297
 6649SOL    HW131583   2.023   1.327   5.389  0.3679  1.0370  1.2749
 6649SOL    HW231584   2.076   1.469   5.392  1.7523 -0.4148  1.5468
 6650SOL     OW31585   2.027   3.003   6.030  0.3410  0.8311  0.3479
 6650SOL    HW131586   2.044   3.097   6.035 -0.8219  1.2783 -4.1444
 6650SOL    HW231587   1.966   3.004   5.957  3.3574  1.5609 -2.1639
 6651SOL     OW31588   0.908   1.548   8.867  0.3711 -0.5559 -0.4971
 6651SOL    HW131589   0.819   1.513   8.860  0.7888 -1.4627 -1.4727
 6651SOL    HW231590   0.957   1.475   8.906  0.2285 -0.1617  0.3975
 6652SOL     OW31591   2.471   2.884  12.273  0.4945  0.5013 -0.7387
 6652SOL    HW131592   2.424   2.810  12.235 -2.6672  2.0927 -0.0163
 6652SOL    HW231593   2.560   2.882  12.240 -0.1020 -1.3740 -2.2199
 6653SOL     OW31594   3.244   3.404   4.595 -0.2787 -0.1866 -0.2126
 6653SOL    HW131595   3.226   3.452   4.514  0.8850  1.3015  0.4059
 6653SOL    HW231596   3.330   3.437   4.620 -0.8276 -0.8039  2.4939
 6654SOL     OW31597   1.755   2.351   6.146  0.2239  0.2295 -0.4752
 6654SOL    HW131598   1.816   2.279   6.159 -0.1832 -0.4069 -1.9564
 6654SOL    HW231599   1.771   2.414   6.215 -1.8947 -1.9071  1.9599
 6655SOL     OW31600   4.479   4.244   5.255  0.0235 -0.0265 -0.0690
 6655SOL    HW131601   4.433   4.164   5.230  0.8166 -0.3359 -0.5475
 6655SOL    HW231602   4.483   4.287   5.170  1.6551  0.8966  0.4688
 6656SOL     OW31603   0.783   2.789   2.355  0.0330  0.2779 -0.1508
 6656SOL    HW131604   0.761   2.864   2.300 -1.2258  1.1129  1.4826
 6656SOL    HW231605   0.721   2.721   2.328  0.9651 -0.2339 -0.9811
 6657SOL     OW31606   2.623   3.493   6.240 -0.6217 -0.1734  0.1145
 6657SOL    HW131607   2.713   3.470   6.264 -0.9431 -0.4119  1.0984
 6657SOL    HW231608   2.617   3.496   6.145  0.0444  2.1934  0.1456
 6658SOL     OW31609   4.409   4.289  10.952 -0.3130  0.5167  0.2065
 6658SOL    HW131610   4.383   4.322  10.866 -1.6110  1.7162  1.0736
 6658SOL    HW231611   4.417   4.195  10.933  0.6571  1.3385 -3.3745
 6659SOL     OW31612   0.541   0.475   5.447  0.4101  0.6731 -0.2979
 6659SOL    HW131613   0.496   0.521   5.377  0.8625  1.3172 -0.1577
 6659SOL    HW231614   0.549   0.547   5.509 -0.1982  0.7296 -0.2823
 6660SOL     OW31615   4.544   1.109   7.957 -0.3418  0.1401  0.1910
 6660SOL    HW131616   4.592   1.027   7.973 -1.3039 -0.5970 -0.6905
 6660SOL    HW231617   4.549   1.155   8.041 -0.5995 -0.6677  0.6591
 6661SOL     OW31618   0.388   0.537  10.719 -0.4349  0.0958  0.2699
 6661SOL    HW131619   0.440   0.608  10.755  0.2256  0.7846 -2.0129
 6661SOL    HW231620   0.320   0.522  10.786  0.4129  0.5307  1.2141
 6662SOL     OW31621   1.211   4.431   4.037  0.1765  0.4890 -0.2253
 6662SOL    HW131622   1.122   4.442   4.071 -0.3691 -2.3738 -0.7101
 6662SOL    HW231623   1.259   4.509   4.062  0.6690  0.4753 -1.1340
 6663SOL     OW31624   3.892   1.091   2.265 -0.3684  0.2208  0.2163
 6663SOL    HW131625   3.879   1.008   2.220  2.1301 -0.3171  0.5002
 6663SOL    HW231626   3.807   1.094   2.308  0.5469 -3.5631  2.2467
 6664SOL     OW31627   4.170   2.001  17.513  0.1386 -0.2331 -0.3209
 6664SOL    HW131628   4.153   2.094  17.530 -0.8788 -0.4708 -0.0412
 6664SOL    HW231629   4.241   2.005  17.449  1.5333  2.0870  1.3925
 6665SOL     OW31630   1.856   1.218  12.433  0.0493  0.5823  0.5523
 6665SOL    HW131631   1.776   1.205  12.484  1.8471  0.3155  3.2719
 6665SOL    HW231632   1.909   1.150  12.474 -0.2389  0.6448  1.0358
 6666SOL     OW31633   1.312   3.723   7.994  0.3660  0.2322 -0.6407
 6666SOL    HW131634   1.289   3.675   8.073 -0.0152 -1.4120 -1.7569
 6666SOL    HW231635   1.405   3.705   7.983  0.6403  0.9981  0.4271
 6667SOL     OW31636   4.726   1.659  16.598  0.2925  0.5224  0.5555
 6667SOL    HW131637   0.078   1.621  16.589 -0.4839 -1.2167  0.3644
 6667SOL    HW231638   4.687   1.617  16.521  0.9401  0.5443  0.2187
 6668SOL     OW31639   3.840   0.483   0.488 -0.3219  0.2528  0.4767
 6668SOL    HW131640   3.905   0.439   0.543 -0.8582  1.5361  2.1083
 6668SOL    HW231641   3.786   0.411   0.454 -3.5863  3.5872 -1.4600
 6669SOL     OW31642   2.274   4.259  15.858  0.2265  0.0176 -0.2921
 6669SOL    HW131643   2.236   4.277  15.772 -1.0810  0.7966  0.4546
 6669SOL    HW231644   2.227   4.317  15.919  0.9765  0.0100  0.2886
 6670SOL     OW31645   3.002   3.058  16.145  0.4027  0.2233  0.3427
 6670SOL    HW131646   2.915   3.064  16.106  0.7480 -1.3190 -0.6807
 6670SOL    HW231647   2.977   3.083  16.234 -1.2670  0.7178 -0.2606
 6671SOL     OW31648   4.532   0.881  14.108 -0.6462 -0.0861  0.0644
 6671SOL    HW131649   4.601   0.936  14.147  1.5572 -1.1714 -2.3351
 6671SOL    HW231650   4.551   0.890  14.015  1.1742  0.2467  0.4760
 6672SOL     OW31651   1.010   0.931  13.751  0.1858 -0.4031 -0.1401
 6672SOL    HW131652   1.035   0.850  13.705 -1.4539  0.0513 -1.8150
 6672SOL    HW231653   0.915   0.929  13.762  0.1817  3.3882  0.3757
 6673SOL     OW31654   0.433   4.338   2.601 -0.1099  0.1921 -0.1362
 6673SOL    HW131655   0.436   4.322   2.695 -1.2029 -0.7036 -0.2420
 6673SOL    HW231656   0.390   4.258   2.571  0.3909 -0.0300 -0.2719
 6674SOL     OW31657   2.413   1.011   1.230  0.1225  0.0114 -0.1296
 6674SOL    HW131658   2.451   1.099   1.238  1.0517 -0.4215  0.1774
 6674SOL    HW231659   2.429   0.964   1.311 -0.5816  1.5983  0.9447
 6675SOL     OW31660   3.662   3.574   7.148  0.7408  0.0699 -0.3447
 6675SOL    HW131661   3.609   3.500   7.119  1.5940 -0.5080 -0.4027
 6675SOL    HW231662   3.676   3.626   7.069  1.0850  0.4134 -0.0601
 6676SOL     OW31663   0.079   0.671  16.284 -0.3216  0.1925 -0.2007
 6676SOL    HW131664   0.155   0.649  16.230 -0.2058  1.9276 -0.7420
 6676SOL    HW231665   0.117   0.688  16.370 -1.5793 -2.2360  0.8467
 6677SOL     OW31666   1.374   3.612   1.768  0.1522  0.5590 -0.6893
 6677SOL    HW131667   1.423   3.694   1.759  0.3488  0.2792 -2.0919
 6677SOL    HW231668   1.348   3.627   1.859  0.2438  1.8572 -0.8676
 6678SOL     OW31669   2.377   3.550  12.084 -0.6010  0.1113  0.3131
 6678SOL    HW131670   2.289   3.516  12.074  0.1062 -2.2978  2.0131
 6678SOL    HW231671   2.381   3.537  12.179 -3.8216  0.9852  0.5478
 6679SOL     OW31672   0.226   2.926   6.866 -0.3665 -0.0521 -0.3793
 6679SOL    HW131673   0.147   2.950   6.915  0.0871  0.9603 -0.1261
 6679SOL    HW231674   0.214   2.964   6.779 -1.7383  0.7384  0.1595
 6680SOL     OW31675   4.382   3.927   2.701  0.1349 -0.1854 -0.5088
 6680SOL    HW131676   4.369   3.836   2.729  0.3345 -0.1963 -0.4566
 6680SOL    HW231677   4.477   3.921   2.707  0.2069  0.7190 -0.8368
 6681SOL     OW31678   1.676   3.010   8.311 -0.2596 -0.3057  0.1398
 6681SOL    HW131679   1.743   2.985   8.249 -1.0822  1.1155 -1.3382
 6681SOL    HW231680   1.623   3.068   8.255  0.0161  1.2033  1.4505
 6682SOL     OW31681   1.738   1.942   2.571  0.2148 -0.6607 -0.0594
 6682SOL    HW131682   1.812   1.985   2.613  1.3624 -1.0381 -1.6799
 6682SOL    HW231683   1.664   1.993   2.603  0.5340  0.2877 -0.8418
 6683SOL     OW31684   3.944   0.011   1.645 -0.2243  0.4992  0.0639
 6683SOL    HW131685   3.904   0.035   1.729  0.0981 -2.7020  1.1027
 6683SOL    HW231686   4.036   0.004   1.672  0.4144  0.9315 -1.9653
 6684SOL     OW31687   4.225   0.253  10.255 -0.2468  0.6800  0.0341
 6684SOL    HW131688   4.252   0.161  10.266 -0.0475  0.7888  0.4468
 6684SOL    HW231689   4.170   0.265  10.332 -2.5391 -2.1036 -1.1325
 6685SOL     OW31690   4.160   1.626  17.545  0.5672  0.2633  0.9814
 6685SOL    HW131691   4.202   1.622  17.459 -0.1854  1.2216  0.5685
 6685SOL    HW231692   4.222   1.692  17.574  1.1869 -1.0498  2.5802
 6686SOL     OW31693   1.481   0.468   3.130  0.0105 -0.5123  0.0054
 6686SOL    HW131694   1.519   0.555   3.143  0.8794 -0.9370  0.3302
 6686SOL    HW231695   1.410   0.468   3.066 -1.6047 -1.0284  1.8144
 6687SOL     OW31696   1.266   0.890   2.300  0.4273 -0.7298 -0.0980
 6687SOL    HW131697   1.174   0.899   2.275  1.0541  1.5151 -1.6291
 6687SOL    HW231698   1.290   0.981   2.316 -2.8784  0.4148 -1.5446
 6688SOL     OW31699   4.604   0.130  13.984 -0.1267  0.4902 -0.3980
 6688SOL    HW131700   4.658   0.130  13.904  0.9246  0.9525  0.3156
 6688SOL    HW231701   4.544   0.203  13.975  1.4302  1.6848 -1.1351
 6689SOL     OW31702   2.207   4.587  10.951 -0.1956 -0.4835 -0.3835
 6689SOL    HW131703   2.267   4.513  10.951  1.3105  0.7331  1.7703
 6689SOL    HW231704   2.266   4.663  10.949  1.5726 -1.8645 -0.6954
 6690SOL     OW31705   4.005   1.886  16.637 -0.1801 -0.1789  0.1726
 6690SOL    HW131706   4.044   1.876  16.724 -0.2485 -2.5528 -0.0741
 6690SOL    HW231707   3.987   1.980  16.636 -0.1686 -0.1611  1.8367
 6691SOL     OW31708   4.237   2.366  12.615  0.5771  0.1198  0.2786
 6691SOL    HW131709   4.258   2.454  12.583  0.3267  0.6481  1.6007
 6691SOL    HW231710   4.277   2.304  12.553 -0.3622  0.3018 -0.5198
 6692SOL     OW31711   0.255   3.792   1.748  0.9910  0.6574  0.5424
 6692SOL    HW131712   0.174   3.741   1.746  0.2253  1.9546 -1.5215
 6692SOL    HW231713   0.299   3.756   1.670 -2.3676 -1.6048 -0.3256
 6693SOL     OW31714   0.193   1.015   3.835 -0.2743 -0.5491  0.1212
 6693SOL    HW131715   0.100   0.996   3.852  0.2068 -0.6583  2.5543
 6693SOL    HW231716   0.190   1.063   3.752  0.9803 -3.0014 -1.3584
 6694SOL     OW31717   0.178   0.089   7.738 -0.1162  0.0638 -0.0404
 6694SOL    HW131718   0.141   0.055   7.819  1.3693  0.1513  0.6742
 6694SOL    HW231719   0.098   0.117   7.694 -0.9279  0.2262  1.5416
 6695SOL     OW31720   1.009   1.088  17.158  0.1773 -0.2690 -0.3829
 6695SOL    HW131721   1.038   1.121  17.073 -1.3889  1.3605 -0.2823
 6695SOL    HW231722   0.917   1.113  17.153  0.1345  0.4177  3.3091
 6696SOL     OW31723   3.100   2.971   8.884  0.1128  0.4843 -0.2812
 6696SOL    HW131724   3.044   2.982   8.961  2.8817  1.7677  1.5180
 6696SOL    HW231725   3.092   3.057   8.843  1.2127  0.4120 -0.6409
 6697SOL     OW31726   1.114   3.478   7.390  0.7679  0.0768  0.4499
 6697SOL    HW131727   1.055   3.425   7.336 -0.8773  1.1997  1.1742
 6697SOL    HW231728   1.052   3.506   7.457  0.6690 -0.6045  0.6471
 6698SOL     OW31729   4.557   3.007   5.490  0.8165  0.5033 -0.0042
 6698SOL    HW131730   4.569   3.100   5.504 -3.0457  0.9275  0.4053
 6698SOL    HW231731   4.625   2.984   5.554  0.9501 -1.6765 -0.9332
 6699SOL     OW31732   3.264   0.800  14.895  0.2783  0.0337 -0.4419
 6699SOL    HW131733   3.315   0.868  14.851 -1.7788  3.0975  1.8770
 6699SOL    HW231734   3.332   0.746  14.935 -1.0751 -1.2646  0.1164
 6700SOL     OW31735   1.448   2.064   1.549  0.0653  0.5867 -0.0502
 6700SOL    HW131736   1.468   2.065   1.642 -3.3156  2.0151  0.6504
 6700SOL    HW231737   1.461   1.969   1.540 -0.3322  0.5367 -0.1390
 6701SOL     OW31738   2.461   1.377   2.728 -0.3993 -0.8886 -0.0757
 6701SOL    HW131739   2.552   1.382   2.757 -0.9788  0.0357  1.5822
 6701SOL    HW231740   2.431   1.462   2.762 -0.5521 -1.6287  1.6155
 6702SOL     OW31741   4.447   4.170  14.391 -0.5191  0.0102 -0.0474
 6702SOL    HW131742   4.356   4.192  14.372 -0.4705  0.0586 -0.2302
 6702SOL    HW231743   4.483   4.138  14.308  0.0876  0.0778  0.1837
 6703SOL     OW31744   3.409   4.132  14.428  0.1722 -0.1495  0.4626
 6703SOL    HW131745   3.372   4.208  14.474 -0.5024  1.2144 -2.3329
 6703SOL    HW231746   3.374   4.146  14.340  1.4561 -0.4119 -0.0840
 6704SOL     OW31747   1.390   1.102   7.743  0.3553 -0.2651  0.4371
 6704SOL    HW131748   1.457   1.168   7.727  0.8862 -0.7909  0.4989
 6704SOL    HW231749   1.435   1.024   7.711  0.5055 -1.6215  4.0150
 6705SOL     OW31750   1.504   0.356  17.181  0.2167  0.0535 -0.0785
 6705SOL    HW131751   1.559   0.413  17.127 -0.2703 -0.1835 -0.8214
 6705SOL    HW231752   1.492   0.273  17.135  0.0875 -0.4451  0.8421
 6706SOL     OW31753   0.602   1.057   2.613 -0.6570 -0.4573  0.7397
 6706SOL    HW131754   0.557   1.015   2.687 -0.9395  0.1555  0.9121
 6706SOL    HW231755   0.634   0.985   2.558 -1.4944  0.5309 -1.0582
 6707SOL     OW31756   0.379   3.482   3.610 -0.3262  0.2983  1.0933
 6707SOL    HW131757   0.304   3.537   3.587  0.2316  1.5337  2.2172
 6707SOL    HW231758   0.356   3.465   3.702 -2.2427  0.1979  0.5925
 6708SOL     OW31759   2.975   0.108   8.707  0.0952 -0.0624  0.3270
 6708SOL    HW131760   2.974   0.182   8.647 -1.3133  1.1589  1.8665
 6708SOL    HW231761   2.969   0.152   8.792 -0.4523 -1.5119  1.0473
 6709SOL     OW31762   2.010   4.459   6.164  0.0118 -0.4067  0.3855
 6709SOL    HW131763   1.995   4.538   6.215  1.1552  0.2152 -0.2421
 6709SOL    HW231764   1.979   4.492   6.080 -1.7377 -2.0242  0.3899
 6710SOL     OW31765   3.437   3.778   1.767  0.1629  0.4111 -0.1487
 6710SOL    HW131766   3.362   3.723   1.791 -0.3732  0.3476 -1.9584
 6710SOL    HW231767   3.429   3.770   1.672 -2.0965 -1.7516  0.2175
 6711SOL     OW31768   2.464   2.166   4.672  0.1470 -0.3913  0.0950
 6711SOL    HW131769   2.369   2.176   4.675  0.2827  1.1059 -0.8280
 6711SOL    HW231770   2.492   2.205   4.755  1.2760 -1.6629  0.3025
 6712SOL     OW31771   3.538   1.553   8.242  0.0061  0.2797  0.3062
 6712SOL    HW131772   3.581   1.636   8.259  0.0708  0.7855 -2.3451
 6712SOL    HW231773   3.547   1.502   8.322  2.5651 -3.8570 -2.6066
 6713SOL     OW31774   1.189   2.886   2.086  0.2993  0.1895  0.3757
 6713SOL    HW131775   1.143   2.944   2.026 -0.1013 -1.0363 -0.5066
 6713SOL    HW231776   1.268   2.858   2.040 -0.5287 -2.8067  0.7628
 6714SOL     OW31777   4.718   2.111  17.211  0.1654  0.0780  0.3118
 6714SOL    HW131778   0.039   2.036  17.190 -0.0958  0.0310 -0.2350
 6714SOL    HW231779   0.049   2.178  17.229 -1.8929  2.2811 -0.2252
 6715SOL     OW31780   2.522   2.921   5.010 -0.0250  0.4552  0.1732
 6715SOL    HW131781   2.486   3.006   5.037 -0.5291  0.4339 -0.4137
 6715SOL    HW231782   2.462   2.882   4.946  1.3453  1.6366 -1.8467
 6716SOL     OW31783   2.085   2.707   3.258 -0.4713  0.1375 -0.1031
 6716SOL    HW131784   2.132   2.784   3.226  0.3143  0.7611  2.5831
 6716SOL    HW231785   2.115   2.711   3.349 -0.1835  1.3624 -0.2512
 6717SOL     OW31786   3.958   1.072   3.479 -0.6316  0.4580 -0.2877
 6717SOL    HW131787   4.031   1.099   3.424  0.3424 -2.4900 -0.4411
 6717SOL    HW231788   3.945   0.979   3.460  1.2752 -0.0576  1.0156
 6718SOL     OW31789   2.300   1.588   5.024  0.0107  0.2999 -0.2434
 6718SOL    HW131790   2.277   1.680   5.035 -1.3369 -0.0825  0.0806
 6718SOL    HW231791   2.336   1.580   4.935 -1.2455 -0.8260 -0.6517
 6719SOL     OW31792   1.324   2.015   6.621  0.0055 -0.3350  0.2040
 6719SOL    HW131793   1.349   2.106   6.638 -0.8832 -0.0200 -0.1959
 6719SOL    HW231794   1.325   2.018   6.525 -0.9112 -0.5469  0.1872
 6720SOL     OW31795   2.074   4.700  10.451  0.0970 -0.4149 -0.4857
 6720SOL    HW131796   2.148   0.024  10.447  0.9907 -1.4804  0.0922
 6720SOL    HW231797   2.107   4.623  10.405  1.3046  0.2567 -0.7231
 6721SOL     OW31798   0.437   3.818  14.162  0.2804  0.4076 -0.2946
 6721SOL    HW131799   0.478   3.904  14.155  2.7555 -0.5976  1.4845
 6721SOL    HW231800   0.395   3.816  14.077  0.7629  0.8244 -0.5412
 6722SOL     OW31801   2.800   0.009   5.725  0.6872 -0.7233 -0.0748
 6722SOL    HW131802   2.761   0.024   5.811 -1.6653 -2.1939 -0.8575
 6722SOL    HW231803   2.889   0.042   5.738  0.7679 -0.5333 -1.0833
 6723SOL     OW31804   4.190   4.123  17.143 -0.3871 -0.4311 -0.1638
 6723SOL    HW131805   4.228   4.210  17.144  1.0525 -1.0785  0.5704
 6723SOL    HW231806   4.184   4.105  17.049  0.6258 -1.0450 -0.1077
 6724SOL     OW31807   0.290   1.367   6.079  0.2515 -0.4786  0.2053
 6724SOL    HW131808   0.306   1.444   6.133  0.9374 -0.4693 -0.0091
 6724SOL    HW231809   0.293   1.303   6.150  1.0302 -0.7819 -0.1036
 6725SOL     OW31810   0.199   2.300  13.926  0.4101 -0.2618  0.5415
 6725SOL    HW131811   0.135   2.231  13.946  0.2747 -0.4278 -0.4604
 6725SOL    HW231812   0.132   2.367  13.931  0.5555 -0.0140 -0.8379
 6726SOL     OW31813   4.675   2.991   6.575  0.2158 -0.3487  0.5435
 6726SOL    HW131814   4.629   3.013   6.495 -1.3319 -1.0601  1.2394
 6726SOL    HW231815   4.609   3.026   6.634 -2.6092 -4.0495 -0.4104
 6727SOL     OW31816   1.464   0.300   6.084 -0.0067 -0.5441 -0.3056
 6727SOL    HW131817   1.547   0.331   6.047 -0.9305  2.5590  0.1699
 6727SOL    HW231818   1.436   0.235   6.019 -0.1718  0.7775 -1.5830
 6728SOL     OW31819   1.958   2.340   1.289  0.2108  0.7968  0.1656
 6728SOL    HW131820   1.976   2.254   1.326  0.4493  1.1097  0.7889
 6728SOL    HW231821   2.023   2.336   1.219  0.9263 -0.6885  0.9192
 6729SOL     OW31822   3.824   4.181  13.423 -0.2214  0.7778  0.7438
 6729SOL    HW131823   3.836   4.104  13.479  0.0998  1.4833  1.6453
 6729SOL    HW231824   3.885   4.171  13.349 -1.6869 -0.6135 -0.2721
 6730SOL     OW31825   4.044   1.047   8.532  0.9147 -0.0105 -0.2935
 6730SOL    HW131826   4.000   1.045   8.447 -3.5580  1.8971  1.9670
 6730SOL    HW231827   4.092   1.129   8.520  2.5607 -1.0387 -0.7170
 6731SOL     OW31828   0.043   0.565   5.796 -0.2241  0.1394  0.2083
 6731SOL    HW131829   0.041   0.516   5.713 -2.1423 -0.4676  0.6298
 6731SOL    HW231830   0.138   0.581   5.798 -0.0132 -1.3009  2.1983
 6732SOL     OW31831   2.034   3.889  11.412  0.3461  0.3133 -0.2104
 6732SOL    HW131832   1.953   3.885  11.464  0.2342 -1.2105 -0.4816
 6732SOL    HW231833   2.049   3.796  11.395  1.8307  0.5963 -0.3859
 6733SOL     OW31834   1.083   3.730  13.045  0.3930  0.3208  0.8353
 6733SOL    HW131835   1.173   3.762  13.049  0.6308 -0.1970 -0.3528
 6733SOL    HW231836   1.098   3.661  12.980 -0.7283  0.1471  0.7578
 6734SOL     OW31837   1.905   2.652  14.386 -0.4154  0.3292 -0.4675
 6734SOL    HW131838   1.822   2.664  14.431  0.1930  1.1612  0.4271
 6734SOL    HW231839   1.943   2.568  14.414 -0.7457  0.8299  1.4633
 6735SOL     OW31840   2.569   1.244   8.351  0.0227 -0.6601 -0.0948
 6735SOL    HW131841   2.664   1.241   8.363  0.0025  0.8154  0.3855
 6735SOL    HW231842   2.534   1.158   8.328  0.5324 -0.7495 -0.5325
 6736SOL     OW31843   3.641   2.712   2.207 -0.2737 -0.1037 -0.3107
 6736SOL    HW131844   3.578   2.658   2.254  1.0807 -0.2701  1.2952
 6736SOL    HW231845   3.647   2.791   2.261  0.3883 -0.9704  0.8772
 6737SOL     OW31846   3.699   0.572   6.325 -0.3566 -0.1434  0.2130
 6737SOL    HW131847   3.704   0.621   6.243  0.4668  1.4287  1.1999
 6737SOL    HW231848   3.749   0.635   6.376 -0.1396 -0.9098  0.9545
 6738SOL     OW31849   1.907   0.962   9.561  0.2821  0.1521  0.0973
 6738SOL    HW131850   1.849   0.894   9.596  2.9858 -1.8242  0.7289
 6738SOL    HW231851   1.850   1.038   9.553 -2.5460 -1.8341  1.4172
 6739SOL     OW31852   0.572   1.075   3.466  0.5764  0.1183  0.0868
 6739SOL    HW131853   0.659   1.110   3.445  0.9114 -0.0620  1.1396
 6739SOL    HW231854   0.510   1.126   3.414 -0.9875 -1.5460  0.3557
 6740SOL     OW31855   2.024   2.141   7.000 -0.2566  0.7103  0.3212
 6740SOL    HW131856   1.989   2.219   7.043  0.5364  0.9214  0.5920
 6740SOL    HW231857   2.118   2.155   7.007 -0.1278  0.0879 -0.1856
 6741SOL     OW31858   0.549   0.048  17.532 -0.3144 -0.1827 -0.2430
 6741SOL    HW131859   0.533   0.137  17.500 -0.4631 -0.9758 -2.3865
 6741SOL    HW231860   0.613   0.066  17.601 -0.1557  0.5822 -0.5894
 6742SOL     OW31861   3.253   0.238   2.286  0.1595 -0.3867 -0.1731
 6742SOL    HW131862   3.257   0.249   2.191 -2.2471 -1.2124 -0.3856
 6742SOL    HW231863   3.282   0.147   2.282  0.1764 -0.3086 -1.9339
 6743SOL     OW31864   2.956   1.222   4.566  0.0306 -0.4885 -0.4073
 6743SOL    HW131865   2.988   1.177   4.644 -0.4065  1.9829  1.1787
 6743SOL    HW231866   2.921   1.300   4.608  0.9212  0.8801 -2.2232
 6744SOL     OW31867   1.836   2.674   5.499  0.3208  0.4661 -0.8730
 6744SOL    HW131868   1.768   2.650   5.437 -0.1170 -0.2018 -0.1365
 6744SOL    HW231869   1.778   2.732   5.549 -0.1952 -1.6439  0.9803
 6745SOL     OW31870   1.683   2.812   9.462  0.7071  0.0275 -0.1717
 6745SOL    HW131871   1.728   2.836   9.543  1.0396 -1.5223  0.1005
 6745SOL    HW231872   1.724   2.878   9.406 -0.4200 -0.8208 -1.9926
 6746SOL     OW31873   2.499   3.037   0.653  0.0171 -0.2149  0.6050
 6746SOL    HW131874   2.457   3.015   0.736 -2.3611  0.5206 -0.4198
 6746SOL    HW231875   2.476   2.956   0.608 -3.6019  1.3841 -0.4600
 6747SOL     OW31876   3.494   0.675   5.554 -0.2646 -0.0520  0.0475
 6747SOL    HW131877   3.524   0.689   5.643  0.9840  3.6666 -0.9526
 6747SOL    HW231878   3.546   0.736   5.502 -1.4182 -1.1311 -2.3712
 6748SOL     OW31879   3.585   2.072   8.711 -0.3343 -0.0380  0.4312
 6748SOL    HW131880   3.532   2.150   8.722 -1.5237 -0.8584  0.4555
 6748SOL    HW231881   3.627   2.069   8.798  0.8920 -0.0807 -0.1603
 6749SOL     OW31882   2.873   3.624   6.590  0.0518  0.9454  0.2738
 6749SOL    HW131883   2.928   3.700   6.573  2.0761 -0.3483  1.0685
 6749SOL    HW231884   2.916   3.588   6.667  1.7660 -0.4522 -1.3196
 6750SOL     OW31885   3.374   1.857  12.773 -0.5418 -0.3433 -0.2877
 6750SOL    HW131886   3.333   1.785  12.821  3.0973 -1.5868  0.9247
 6750SOL    HW231887   3.420   1.897  12.847 -0.2643 -3.8095  1.4244
 6751SOL     OW31888   1.525   1.916   9.625 -0.3693 -0.7077 -0.0679
 6751SOL    HW131889   1.483   1.997   9.599  1.1649 -0.3832 -1.5688
 6751SOL    HW231890   1.620   1.920   9.608 -0.1033 -2.4427  0.9456
 6752SOL     OW31891   2.677   4.545   2.619 -0.2506  0.4522 -0.0896
 6752SOL    HW131892   2.766   4.509   2.614 -0.3605  0.4605 -2.1453
 6752SOL    HW231893   2.699   4.635   2.594  0.2627  0.7092  1.2598
 6753SOL     OW31894   2.365   4.326   4.616 -0.3517 -0.4379 -0.3011
 6753SOL    HW131895   2.273   4.351   4.608 -0.3048 -0.0118  0.4464
 6753SOL    HW231896   2.404   4.401   4.571  0.7844 -2.1186 -2.0753
 6754SOL     OW31897   3.501   2.821  14.026  0.0944  0.1581 -0.1233
 6754SOL    HW131898   3.411   2.833  14.055 -0.0816  0.7421 -0.9193
 6754SOL    HW231899   3.492   2.896  13.968 -1.1443  1.0617  1.2454
 6755SOL     OW31900   0.703   3.518   5.017 -0.0461  0.0498  0.0512
 6755SOL    HW131901   0.784   3.558   4.986 -0.2593 -0.0515 -0.6307
 6755SOL    HW231902   0.705   3.547   5.108 -0.1745  1.5817 -0.4203
 6756SOL     OW31903   0.690   2.719   5.525  0.5502  0.5596  0.4377
 6756SOL    HW131904   0.726   2.756   5.444 -0.8276 -0.4543 -0.6475
 6756SOL    HW231905   0.616   2.780   5.526  1.3209  1.5465 -1.8807
 6757SOL     OW31906   1.136   0.073   6.659  0.7669 -0.0975 -0.3089
 6757SOL    HW131907   1.069   0.108   6.600  2.0609  1.1488 -1.0119
 6757SOL    HW231908   1.200   0.138   6.632  0.4226  0.2817 -0.2105
 6758SOL     OW31909   1.184   3.054   7.539 -0.1462  0.0108 -0.2111
 6758SOL    HW131910   1.271   3.071   7.502  0.4232  1.4127  1.7643
 6758SOL    HW231911   1.176   2.965   7.504 -1.7472  0.1603 -0.1973
 6759SOL     OW31912   1.734   2.479   2.354 -0.2598 -0.0533 -0.6198
 6759SOL    HW131913   1.769   2.503   2.268  1.2631  2.6484  0.7613
 6759SOL    HW231914   1.801   2.503   2.417 -0.8921 -0.9110  0.3643
 6760SOL     OW31915   1.725   0.355   9.642 -0.0875  0.2185  0.6314
 6760SOL    HW131916   1.648   0.313   9.605 -0.0872  0.9100 -0.1407
 6760SOL    HW231917   1.676   0.400   9.710 -0.6390  2.8623 -1.5290
 6761SOL     OW31918   1.747   0.910  16.026 -0.5023  0.2557  0.6299
 6761SOL    HW131919   1.730   0.868  15.942  1.7185  2.2664 -0.8406
 6761SOL    HW231920   1.663   0.900  16.069 -0.8535  1.6937  0.2885
 6762SOL     OW31921   2.994   2.053   9.724 -0.6132 -0.1814 -0.0194
 6762SOL    HW131922   2.921   2.072   9.665 -1.0492 -1.3860  0.1266
 6762SOL    HW231923   2.975   1.962   9.748  1.8031 -0.8780 -0.6761
 6763SOL     OW31924   1.963   4.232  12.599  0.4263 -0.2036 -0.6658
 6763SOL    HW131925   1.881   4.184  12.609 -0.0504  0.4447 -1.4909
 6763SOL    HW231926   1.935   4.313  12.642 -2.0923  0.1286 -2.9579
 6764SOL     OW31927   0.880   2.902   6.564 -0.5771 -0.7186 -0.1952
 6764SOL    HW131928   0.909   2.854   6.642 -2.4404 -0.3253  0.7315
 6764SOL    HW231929   0.964   2.941   6.541 -0.6168 -0.8116 -0.4968
 6765SOL     OW31930   0.783   3.181   3.651 -0.1250 -0.2143  0.5530
 6765SOL    HW131931   0.872   3.160   3.624 -0.7777 -1.0943 -0.9080
 6765SOL    HW231932   0.769   3.124   3.727 -0.0447 -0.6233  0.2597
 6766SOL     OW31933   3.650   1.245  10.738 -0.0704 -0.2857 -0.0635
 6766SOL    HW131934   3.702   1.208  10.809 -1.5821 -1.2483  0.5483
 6766SOL    HW231935   3.600   1.168  10.714  0.0640 -0.0525 -1.0706
 6767SOL     OW31936   3.749   1.373   7.561  0.1280 -0.3470 -0.2316
 6767SOL    HW131937   3.688   1.437   7.523 -0.6909 -1.2857 -0.5043
 6767SOL    HW231938   3.691   1.309   7.602 -0.7271  0.4555 -0.1993
 6768SOL     OW31939   1.063   4.190   6.643  0.2402  0.1706 -0.5717
 6768SOL    HW131940   1.147   4.145   6.645  1.5080  2.5266 -1.7540
 6768SOL    HW231941   1.083   4.265   6.699  2.6290  0.8876 -2.4147
 6769SOL     OW31942   2.448   2.769  12.581 -0.1742 -0.0143  0.0660
 6769SOL    HW131943   2.482   2.742  12.496 -2.6257 -0.6272 -0.7109
 6769SOL    HW231944   2.353   2.765  12.575 -0.1529  1.7173 -1.5424
 6770SOL     OW31945   2.368   0.309  15.759  0.4770 -0.2046  0.2099
 6770SOL    HW131946   2.446   0.286  15.810  0.9489  1.5223  0.2894
 6770SOL    HW231947   2.343   0.386  15.811 -1.1183  0.5298 -1.6311
 6771SOL     OW31948   1.764   4.518   6.373 -0.5489 -0.2203  0.4550
 6771SOL    HW131949   1.859   4.523   6.380 -0.4699 -0.8945 -0.1816
 6771SOL    HW231950   1.747   4.454   6.442  0.5777  1.4055  2.2772
 6772SOL     OW31951   1.956   2.249   8.330  0.2434  0.5329 -0.3209
 6772SOL    HW131952   2.031   2.196   8.356  0.0244  0.3582 -0.0489
 6772SOL    HW231953   1.963   2.311   8.403  1.1325 -0.3613  0.3436
 6773SOL     OW31954   3.907   2.044   3.578 -0.2285 -0.0451  0.2015
 6773SOL    HW131955   3.916   2.139   3.586  2.7587 -0.1622 -1.9110
 6773SOL    HW231956   3.856   2.039   3.497 -0.8248  0.1650  0.5643
 6774SOL     OW31957   4.142   4.657   2.849  0.3360 -0.3239 -0.2222
 6774SOL    HW131958   4.154   4.701   2.765 -2.3659  1.6850  0.4230
 6774SOL    HW231959   4.063   4.606   2.828 -0.8045  1.1057  0.5609
 6775SOL     OW31960   0.104   0.041  14.742  0.5546  0.0115  0.4487
 6775SOL    HW131961   0.102   4.699  14.799 -0.3268  1.7711  2.8334
 6775SOL    HW231962   0.157   0.008  14.670  0.7550 -1.3362  1.2063
 6776SOL     OW31963   0.114   2.516   3.072 -0.5587  0.9942 -0.5501
 6776SOL    HW131964   0.165   2.592   3.098  0.7714  0.5190 -1.7543
 6776SOL    HW231965   0.166   2.450   3.118 -0.8216  0.0226 -1.6608
 6777SOL     OW31966   2.668   1.401  16.157 -0.3815  0.2753  0.1090
 6777SOL    HW131967   2.730   1.396  16.231  1.6697 -0.2529 -1.6445
 6777SOL    HW231968   2.587   1.361  16.188  0.4242  0.1339  2.0396
 6778SOL     OW31969   1.327   0.870   7.495  0.1663  0.2922  0.2399
 6778SOL    HW131970   1.299   0.944   7.440  1.5798  0.2173 -0.5847
 6778SOL    HW231971   1.255   0.865   7.558 -1.1212 -0.6736 -1.2981
 6779SOL     OW31972   2.424   2.971  15.372 -0.7336  0.8015  0.1660
 6779SOL    HW131973   2.489   2.980  15.302 -1.0948 -0.6035 -0.3618
 6779SOL    HW231974   2.420   2.876  15.386  1.3445  0.8217  0.9187
 6780SOL     OW31975   3.795   1.898   6.357  0.7034 -0.2390 -0.2952
 6780SOL    HW131976   3.851   1.822   6.345  2.0186  0.2516  2.6011
 6780SOL    HW231977   3.816   1.918   6.449  1.3705  1.4644 -0.8231
 6781SOL     OW31978   3.815   4.416  16.891 -1.2142  0.6474 -0.3381
 6781SOL    HW131979   3.798   4.339  16.838 -1.2058 -1.0568  2.1370
 6781SOL    HW231980   3.788   4.493  16.840  0.4246  1.1419 -0.4612
 6782SOL     OW31981   1.396   3.091   2.346 -0.2025 -0.5912  0.1329
 6782SOL    HW131982   1.351   3.006   2.342 -0.1046 -0.6516  0.3503
 6782SOL    HW231983   1.339   3.131   2.412  0.1285 -0.8906  0.5946
 6783SOL     OW31984   3.112   0.741   1.163  0.3652  0.0218 -0.1443
 6783SOL    HW131985   3.066   0.716   1.244  0.5561  1.6686  0.4830
 6783SOL    HW231986   3.076   0.689   1.092  1.1587 -1.0957  0.2760
 6784SOL     OW31987   2.726   3.923  10.127 -0.1372 -0.2713  0.2433
 6784SOL    HW131988   2.654   3.866  10.156 -0.3245  0.6726  1.6600
 6784SOL    HW231989   2.751   3.966  10.209  0.9121  2.6387 -1.6030
 6785SOL     OW31990   3.571   1.681  14.882  0.2533 -0.0465  0.2884
 6785SOL    HW131991   3.567   1.642  14.970 -1.8516 -2.0290 -0.7070
 6785SOL    HW231992   3.662   1.707  14.870 -0.0354  1.4124  1.2577
 6786SOL     OW31993   0.990   1.012   0.427 -0.6016 -0.0728  0.4599
 6786SOL    HW131994   1.024   0.947   0.489  0.8375 -0.1593 -0.4411
 6786SOL    HW231995   1.053   0.999   0.356  1.2212 -0.9360  2.2354
 6787SOL     OW31996   4.478   3.824   0.064 -0.9886 -0.7127  0.1615
 6787SOL    HW131997   4.405   3.763   0.061  0.0298 -1.8958 -0.7678
 6787SOL    HW231998   4.500   3.818   0.157  4.2045 -2.3388 -1.1330
 6788SOL     OW31999   0.121   0.384   5.575  0.3685 -0.2262 -0.3276
 6788SOL    HW132000   0.064   0.312   5.603  1.4901 -1.2003 -0.5163
 6788SOL    HW232001   0.205   0.337   5.576  0.0110 -0.8809 -1.0287
 6789SOL     OW32002   1.420   1.387   3.892 -0.0266  0.3881  0.6053
 6789SOL    HW132003   1.467   1.407   3.810  0.6033 -1.5182  0.5026
 6789SOL    HW232004   1.495   1.380   3.951  0.9622  0.5069 -0.6176
 6790SOL     OW32005   1.696   0.052   2.298  0.1068 -0.3879  0.4117
 6790SOL    HW132006   1.699   4.724   2.369 -0.1506 -1.8369 -0.8637
 6790SOL    HW232007   1.788   0.081   2.296 -0.0661  0.1291 -0.1148
 6791SOL     OW32008   0.372   0.488   5.856  0.6022  0.4347  0.6424
 6791SOL    HW132009   0.383   0.393   5.846 -2.3655  0.0626  0.6361
 6791SOL    HW232010   0.404   0.508   5.944  0.9199 -1.1887  0.8962
 6792SOL     OW32011   0.666   2.024   5.453  0.0240  0.1350  0.1367
 6792SOL    HW132012   0.586   2.076   5.465  0.3484  0.9927 -1.4114
 6792SOL    HW232013   0.630   1.950   5.403  2.1486 -2.6603  2.7559
 6793SOL     OW32014   2.887   0.727   7.016  0.3475  0.4254 -0.2068
 6793SOL    HW132015   2.920   0.788   6.950 -1.1072  1.2610 -0.1593
 6793SOL    HW232016   2.916   0.644   6.979 -0.7283  0.4113 -1.0068
 6794SOL     OW32017   1.045   4.675  13.211  0.7036 -0.3020 -0.0251
 6794SOL    HW132018   1.101   4.647  13.138  0.3483 -0.8154 -0.0964
 6794SOL    HW232019   1.005   0.022  13.181 -0.6771 -1.1476 -0.4983
 6795SOL     OW32020   2.388   1.042   5.519  0.2403 -0.2209  0.7566
 6795SOL    HW132021   2.331   1.051   5.442  1.2750 -0.0591  0.0176
 6795SOL    HW232022   2.472   1.028   5.476 -0.0586 -0.0360  0.1077
 6796SOL     OW32023   1.272   1.577   6.924 -0.0235 -0.3165 -0.6353
 6796SOL    HW132024   1.290   1.645   6.859 -0.7672 -0.7311 -1.2783
 6796SOL    HW232025   1.279   1.498   6.870  2.6708 -0.1700 -0.4786
 6797SOL     OW32026   4.601   2.929  15.641  0.1294  0.0649  0.4580
 6797SOL    HW132027   4.637   2.845  15.613  0.4764  0.3164  0.1470
 6797SOL    HW232028   4.527   2.951  15.585 -0.0610  0.8986  1.0414
 6798SOL     OW32029   3.068   0.375   4.286  0.4716  0.2363  0.3969
 6798SOL    HW132030   3.104   0.423   4.211  0.5497 -0.7810 -0.2131
 6798SOL    HW232031   3.036   0.294   4.247 -1.4289  1.3481 -0.3540
 6799SOL     OW32032   3.382   0.267   1.768 -0.4755  0.4414 -0.3422
 6799SOL    HW132033   3.397   0.173   1.772  0.6070  0.6257  0.0156
 6799SOL    HW232034   3.446   0.288   1.699  0.8853  1.9646  1.3719
 6800SOL     OW32035   0.893   3.610   6.326  0.0218  0.1973  0.5845
 6800SOL    HW132036   0.911   3.614   6.232  1.2900 -0.4823  0.8015
 6800SOL    HW232037   0.978   3.574   6.350 -0.3637 -1.9799 -1.3205
 6801SOL     OW32038   1.117   4.422   2.161  0.1175 -0.2878 -0.3701
 6801SOL    HW132039   1.178   4.493   2.178  1.0405 -1.2745  0.4280
 6801SOL    HW232040   1.129   4.364   2.236  0.1845 -1.4993 -1.3124
 6802SOL     OW32041   3.256   4.225   2.077  0.0667 -0.4509  0.0885
 6802SOL    HW132042   3.237   4.201   2.167  0.7250 -0.9403  0.1014
 6802SOL    HW232043   3.347   4.252   2.090 -0.0655  1.3328 -2.5617
 6803SOL     OW32044   4.111   0.188   6.950  0.2638 -0.4322 -0.3787
 6803SOL    HW132045   4.061   0.246   7.008  0.3237  0.1703 -0.9336
 6803SOL    HW232046   4.119   0.108   7.003 -1.8211 -0.4427 -0.0632
 6804SOL     OW32047   3.082   0.251   1.174  0.7356  0.1247  0.1049
 6804SOL    HW132048   3.024   0.292   1.238  0.7523  0.4297 -0.0708
 6804SOL    HW232049   3.151   0.316   1.158  1.1148 -0.6694 -1.4399
 6805SOL     OW32050   4.170   1.298   5.800 -0.1671  0.8885  0.1044
 6805SOL    HW132051   4.220   1.328   5.724  1.0842 -0.4743  0.3933
 6805SOL    HW232052   4.182   1.374   5.857  0.9133  0.7676  0.0354
 6806SOL     OW32053   1.200   4.681   2.919 -0.3854  0.4913 -0.3799
 6806SOL    HW132054   1.292   4.704   2.931 -0.2597 -0.2033 -0.0305
 6806SOL    HW232055   1.182   4.713   2.830 -2.7802 -2.5994 -1.0209
 6807SOL     OW32056   3.831   0.782   9.810  0.0595 -0.0723 -0.5649
 6807SOL    HW132057   3.813   0.706   9.865 -0.7837  0.3670 -0.2296
 6807SOL    HW232058   3.840   0.852   9.875  1.1813  1.6116 -2.5294
 6808SOL     OW32059   4.022   2.638   7.026 -0.0766 -0.1958  0.4633
 6808SOL    HW132060   4.062   2.686   6.953 -0.1368  0.3770  0.8089
 6808SOL    HW232061   4.034   2.692   7.104 -1.4315  0.7384  0.0301
 6809SOL     OW32062   3.450   3.825   9.749  0.5055 -0.3342  0.3022
 6809SOL    HW132063   3.359   3.823   9.779  1.0968 -2.6639  1.9042
 6809SOL    HW232064   3.486   3.753   9.801 -0.0323  0.5038  1.8274
 6810SOL     OW32065   0.261   2.575   6.391 -0.5136  0.2691 -0.9435
 6810SOL    HW132066   0.352   2.595   6.414 -0.4530  0.2412 -1.1583
 6810SOL    HW232067   0.248   2.642   6.324  0.4786  1.2937 -0.1105
 6811SOL     OW32068   2.629   3.720   1.930 -0.3342 -0.0023  0.8262
 6811SOL    HW132069   2.540   3.723   1.963 -0.1902  0.3131  1.1891
 6811SOL    HW232070   2.662   3.671   2.005  0.7088  1.9306  1.6379
 6812SOL     OW32071   2.703   2.579   6.377 -0.0869 -0.0610  0.0725
 6812SOL    HW132072   2.725   2.617   6.292 -1.9355  1.7356  0.4084
 6812SOL    HW232073   2.702   2.484   6.363 -0.1615 -0.0421 -0.0475
 6813SOL     OW32074   0.062   0.440   4.120 -0.6880 -0.4984  0.4414
 6813SOL    HW132075   0.049   0.438   4.025  0.4209 -0.1727  0.2883
 6813SOL    HW232076   0.156   0.421   4.110 -0.8762 -1.2923  0.1368
 6814SOL     OW32077   3.306   4.639   1.989  0.4355 -0.2865 -0.3063
 6814SOL    HW132078   3.269   4.553   1.965  0.2535 -0.2924 -0.0055
 6814SOL    HW232079   3.245   4.678   2.052  2.0647  0.1730  0.9602
 6815SOL     OW32080   4.729   3.181   3.333 -0.1247 -0.2783 -0.1065
 6815SOL    HW132081   4.699   3.211   3.247  1.7650 -1.7920 -1.2827
 6815SOL    HW232082   0.052   3.111   3.306 -0.9395 -0.0312 -2.4859
 6816SOL     OW32083   2.329   3.388   5.365  0.5043  0.0902 -0.2432
 6816SOL    HW132084   2.312   3.399   5.459 -1.6982  0.8979 -0.7215
 6816SOL    HW232085   2.340   3.293   5.371 -1.2162 -0.0773  0.2802
 6817SOL     OW32086   0.735   2.404  17.621  0.2644 -0.3742  0.7750
 6817SOL    HW132087   0.674   2.332  17.604 -2.4792  1.9870  0.5587
 6817SOL    HW232088   0.786   2.367  17.692  2.0366 -1.9347 -1.3416
 6818SOL     OW32089   1.357   3.071   7.340 -0.5259 -0.3915  0.6297
 6818SOL    HW132090   1.370   3.007   7.271 -0.2679 -0.4264  0.7109
 6818SOL    HW232091   1.302   3.135   7.296  1.2827  0.4467 -0.4092
 6819SOL     OW32092   0.624   2.932   2.170  0.1561 -0.5981  0.1154
 6819SOL    HW132093   0.540   2.966   2.202 -1.1268 -1.9856 -1.7521
 6819SOL    HW232094   0.588   2.885   2.094 -1.2233 -1.1232  1.0909
 6820SOL     OW32095   0.261   2.331   3.222  0.2840 -0.1926  0.1910
 6820SOL    HW132096   0.299   2.362   3.304  2.7090 -1.8849 -0.2773
 6820SOL    HW232097   0.320   2.264   3.186 -0.7671 -0.8139 -0.3792
 6821SOL     OW32098   1.458   4.307   2.273 -0.8127 -0.0482 -0.4421
 6821SOL    HW132099   1.446   4.333   2.182 -0.0653  0.7348 -0.3191
 6821SOL    HW232100   1.553   4.291   2.272 -1.2208 -2.4850  0.6726
 6822SOL     OW32101   2.348   4.380  12.071 -0.0711  0.0963  0.1346
 6822SOL    HW132102   2.389   4.373  11.985 -0.4289  1.5905 -0.1630
 6822SOL    HW232103   2.418   4.348  12.129  0.3081  0.8999  0.1259
 6823SOL     OW32104   1.994   1.762   4.608 -0.0755 -0.3635  0.1421
 6823SOL    HW132105   2.014   1.855   4.618  3.2752 -1.0087 -0.4265
 6823SOL    HW232106   1.930   1.751   4.678 -1.4738 -6.0548 -2.0150
 6824SOL     OW32107   2.222   4.675   1.692  0.5408 -0.1423  0.4335
 6824SOL    HW132108   2.142   4.680   1.746 -0.6432  0.1959 -1.3524
 6824SOL    HW232109   2.294   4.666   1.754 -0.8285  2.0035  2.3505
 6825SOL     OW32110   4.590   0.904   5.630 -0.0244  0.6544 -0.3003
 6825SOL    HW132111   4.615   0.983   5.677 -0.0965 -0.5772  1.7762
 6825SOL    HW232112   4.540   0.862   5.700  0.9314  0.2794  0.1513
 6826SOL     OW32113   0.711   1.928   6.139  0.4339 -0.0727  0.2206
 6826SOL    HW132114   0.738   1.840   6.166 -1.8687 -0.0129  2.8064
 6826SOL    HW232115   0.722   1.909   6.046  0.1383 -0.1098  0.1913
 6827SOL     OW32116   0.260   3.225   8.612  0.3013  0.4945  0.6478
 6827SOL    HW132117   0.171   3.261   8.610  0.3179  0.5198  0.2296
 6827SOL    HW232118   0.307   3.309   8.604 -0.1073  0.7789  1.2372
 6828SOL     OW32119   4.434   3.339   2.783  0.2445 -0.2431 -0.0640
 6828SOL    HW132120   4.350   3.297   2.801  0.4799  0.0427  1.6259
 6828SOL    HW232121   4.469   3.288   2.709  0.3414 -0.3089  0.0279
 6829SOL     OW32122   4.115   2.073   7.307  0.2164 -0.0149  0.0846
 6829SOL    HW132123   4.039   2.116   7.344 -0.2668  0.1105 -1.0421
 6829SOL    HW232124   4.183   2.083   7.373  0.4748  1.0647 -0.3488
 6830SOL     OW32125   1.288   0.574  17.217 -0.0284  0.5830 -0.6510
 6830SOL    HW132126   1.264   0.656  17.260  0.0184 -0.4598  1.3221
 6830SOL    HW232127   1.378   0.559  17.243  0.4025 -1.6075 -3.3622
 6831SOL     OW32128   4.084   2.382   5.253  0.0584 -0.2004  0.1270
 6831SOL    HW132129   4.040   2.374   5.337 -0.8977  0.5499 -0.2889
 6831SOL    HW232130   4.055   2.470   5.228 -1.8746 -0.7855  0.2970
 6832SOL     OW32131   1.038   4.048   8.866 -0.0733 -0.2210 -0.0666
 6832SOL    HW132132   1.123   4.075   8.833 -0.6167 -0.6306 -1.7708
 6832SOL    HW232133   0.985   4.126   8.846 -0.5487 -0.3915  0.5313
 6833SOL     OW32134   2.395   3.878  16.071 -0.2942  0.2179  0.0372
 6833SOL    HW132135   2.484   3.909  16.058  0.0061  0.3664  2.3830
 6833SOL    HW232136   2.376   3.837  15.987  2.5213 -1.7663  0.3942
 6834SOL     OW32137   0.926   1.154   6.416  0.8121 -0.6010 -0.0756
 6834SOL    HW132138   1.006   1.111   6.384 -0.2092 -1.5708 -1.3394
 6834SOL    HW232139   0.927   1.247   6.395 -1.5063 -1.0835 -2.3308
 6835SOL     OW32140   2.751   2.591   8.265  0.4027  0.0013  0.1494
 6835SOL    HW132141   2.694   2.519   8.242 -0.1759 -0.1250  1.9271
 6835SOL    HW232142   2.839   2.559   8.287  0.5679 -0.3524 -1.0848
 6836SOL     OW32143   2.013   3.568   6.462  0.6312 -0.7312  0.2942
 6836SOL    HW132144   1.928   3.552   6.504 -0.4391 -0.2867 -1.6885
 6836SOL    HW232145   1.987   3.611   6.380 -1.6030  1.1244  1.9688
 6837SOL     OW32146   3.347   1.263   7.784  0.1179 -0.6728  0.0376
 6837SOL    HW132147   3.431   1.243   7.744 -0.4930  1.3499 -2.2071
 6837SOL    HW232148   3.379   1.266   7.874 -1.9789  0.0836  0.7661
 6838SOL     OW32149   1.977   3.585   4.237  0.0661  0.2532 -0.1736
 6838SOL    HW132150   1.910   3.641   4.197  0.6177  0.1188 -1.2891
 6838SOL    HW232151   2.047   3.592   4.173 -0.2871  2.9131 -0.2623
 6839SOL     OW32152   1.789   3.013   8.708  0.3113 -0.2278 -0.0287
 6839SOL    HW132153   1.696   3.015   8.729  0.0931  2.0213 -1.1972
 6839SOL    HW232154   1.778   2.946   8.639  2.1305 -0.5574 -0.0052
 6840SOL     OW32155   3.335   1.646   5.184  0.4559 -0.0824  0.2054
 6840SOL    HW132156   3.248   1.616   5.212  0.3402  0.9116  0.8983
 6840SOL    HW232157   3.380   1.622   5.265 -0.0619 -1.5742  0.0505
 6841SOL     OW32158   0.906   3.814   5.355 -0.0995 -0.1605  0.2812
 6841SOL    HW132159   0.838   3.866   5.398  1.1397  3.0599 -1.6475
 6841SOL    HW232160   0.962   3.797   5.431 -1.1190  0.0723  1.0831
 6842SOL     OW32161   1.752   0.116  15.884  0.2515  0.2309 -0.2173
 6842SOL    HW132162   1.831   0.115  15.830  0.7981  0.1279  0.5718
 6842SOL    HW232163   1.691   0.158  15.824  1.6503  1.4535 -0.8082
 6843SOL     OW32164   0.649   1.062   5.383 -0.1613 -0.4467 -0.3165
 6843SOL    HW132165   0.686   1.143   5.417 -0.3049 -0.9414  0.9888
 6843SOL    HW232166   0.606   1.040   5.465 -2.3187 -0.0731 -1.3235
 6844SOL     OW32167   2.837   0.854   7.298 -0.1760 -0.4782 -0.2911
 6844SOL    HW132168   2.832   0.813   7.212 -1.4627  1.0820 -0.9640
 6844SOL    HW232169   2.912   0.912   7.284 -0.3405 -0.2967 -0.4275
 6845SOL     OW32170   4.311   1.074   5.854  0.4311 -0.1695  0.4924
 6845SOL    HW132171   4.302   1.020   5.776  1.7695 -0.1090  0.2939
 6845SOL    HW232172   4.270   1.156   5.826  0.0789 -0.1176  1.1616
 6846SOL     OW32173   0.774   1.198   3.348  0.4035  0.4390  0.4653
 6846SOL    HW132174   0.815   1.278   3.379 -1.1527  1.1808  0.6179
 6846SOL    HW232175   0.812   1.191   3.261 -0.4248 -3.6951  0.3998
 6847SOL     OW32176   4.135   3.371   4.325  0.2302 -0.9438  0.4368
 6847SOL    HW132177   4.205   3.348   4.263  1.3054 -0.4122  1.4719
 6847SOL    HW232178   4.131   3.289   4.374  3.8892 -0.0479  2.1805
 6848SOL     OW32179   4.693   4.013   6.512 -0.7720 -0.5106 -0.3308
 6848SOL    HW132180   0.040   3.969   6.531 -1.4169 -1.3180  0.5578
 6848SOL    HW232181   4.715   4.044   6.424  0.7089  3.0028  1.2933
 6849SOL     OW32182   3.326   4.573   5.354 -0.2130 -0.0348 -0.2565
 6849SOL    HW132183   3.339   4.493   5.303 -0.1446 -0.6388  0.7085
 6849SOL    HW232184   3.247   4.614   5.320 -0.6622 -0.0892  0.7208
 6850SOL     OW32185   1.641   1.600   2.443  0.3407  0.1268 -0.5792
 6850SOL    HW132186   1.725   1.639   2.420 -0.4862  0.3906 -3.1455
 6850SOL    HW232187   1.653   1.545   2.520  1.2481  1.3179  0.1253
 6851SOL     OW32188   1.422   2.473   5.504  0.5433 -0.3893 -0.4016
 6851SOL    HW132189   1.453   2.433   5.585  0.4951 -0.6747 -0.5247
 6851SOL    HW232190   1.360   2.537   5.539  2.1280  0.3691  1.0445
 6852SOL     OW32191   2.742   3.662   8.977 -0.2451 -0.2680 -0.1460
 6852SOL    HW132192   2.783   3.608   9.045 -1.0413  0.8828  1.2541
 6852SOL    HW232193   2.808   3.656   8.908  0.6317 -0.6926  0.7341
 6853SOL     OW32194   1.061   2.845   9.170  0.0073 -0.0238 -0.4094
 6853SOL    HW132195   1.052   2.811   9.259 -1.0976  2.5063  0.4612
 6853SOL    HW232196   1.019   2.774   9.121 -1.4775  0.1230  0.6551
 6854SOL     OW32197   1.786   3.520  11.577  0.2173  0.0759 -0.0137
 6854SOL    HW132198   1.874   3.550  11.602  0.3120  0.3846 -0.7074
 6854SOL    HW232199   1.763   3.568  11.497 -0.0218 -0.5909 -0.3380
 6855SOL     OW32200   4.641   2.095   4.712  0.3978 -1.1144 -0.9424
 6855SOL    HW132201   4.547   2.078   4.703  0.0359  2.7255 -4.2819
 6855SOL    HW232202   4.679   2.013   4.743  0.7147 -0.3692  0.5833
 6856SOL     OW32203   2.989   3.733   9.998 -0.0301 -0.5800  0.0783
 6856SOL    HW132204   2.933   3.806   9.974  0.9990 -0.0378 -0.6813
 6856SOL    HW232205   2.930   3.670  10.039 -0.1499 -0.8667 -0.5353
 6857SOL     OW32206   0.416   0.604  13.536 -0.1904 -0.5740 -0.0402
 6857SOL    HW132207   0.334   0.655  13.535  0.1218 -0.0488  1.6985
 6857SOL    HW232208   0.405   0.566  13.449 -0.1412  0.1108 -0.3414
 6858SOL     OW32209   0.290   3.315   5.557 -0.3609  0.0841 -0.6420
 6858SOL    HW132210   0.239   3.381   5.511  0.7146  1.3809  0.0376
 6858SOL    HW232211   0.286   3.350   5.646  1.4458 -2.5121  0.4506
 6859SOL     OW32212   1.873   3.062   9.917  0.3868 -0.1240 -0.0385
 6859SOL    HW132213   1.957   3.108   9.912  0.3667 -0.0108  0.6836
 6859SOL    HW232214   1.821   3.080   9.839 -0.6109 -1.3657  0.3357
 6860SOL     OW32215   0.442   0.638  15.332 -0.1911  0.4028  0.4656
 6860SOL    HW132216   0.379   0.568  15.313  1.4756 -1.3259  1.3453
 6860SOL    HW232217   0.390   0.682  15.400  0.5725  0.7196  0.8457
 6861SOL     OW32218   2.805   0.890   0.174 -0.0538 -0.0827  0.1040
 6861SOL    HW132219   2.793   0.795   0.174 -1.1821  0.0485 -0.5349
 6861SOL    HW232220   2.826   0.910   0.082 -1.5318 -1.9484 -0.6476
 6862SOL     OW32221   4.658   3.946  10.081  0.5669 -0.4159 -0.2356
 6862SOL    HW132222   4.671   3.943  10.176 -0.9419 -2.5681 -0.1105
 6862SOL    HW232223   4.639   3.859  10.048 -1.0900  0.2828 -1.1165
 6863SOL     OW32224   2.755   4.582  13.345  0.7189 -0.0110  0.2637
 6863SOL    HW132225   2.780   4.502  13.300 -0.4133 -0.0458 -0.3196
 6863SOL    HW232226   2.818   4.577  13.417  0.7533  0.4206  0.2588
 6864SOL     OW32227   3.438   0.460   7.336  0.2333 -0.1873 -0.1158
 6864SOL    HW132228   3.519   0.471   7.286 -0.5455 -0.0573 -1.3316
 6864SOL    HW232229   3.387   0.404   7.277 -0.4034  2.2387 -1.8437
 6865SOL     OW32230   3.167   1.483   7.205  0.5601  0.5566 -0.2108
 6865SOL    HW132231   3.194   1.411   7.149 -0.5962  0.9521 -1.2869
 6865SOL    HW232232   3.091   1.530   7.171  0.3290  0.7244  0.5350
 6866SOL     OW32233   1.328   3.549   8.872 -0.3605  0.3729 -0.1721
 6866SOL    HW132234   1.367   3.465   8.850 -0.6672 -0.0778  0.9939
 6866SOL    HW232235   1.257   3.523   8.931  2.1958  2.3273  3.7791
 6867SOL     OW32236   3.369   2.939   8.086  0.1178 -0.1650 -0.3417
 6867SOL    HW132237   3.433   2.986   8.032  0.0708  0.0866 -0.1770
 6867SOL    HW232238   3.435   2.897   8.141  1.5989  0.8043 -1.3973
 6868SOL     OW32239   1.272   0.132  10.787 -0.5803 -0.1760 -0.0800
 6868SOL    HW132240   1.190   0.165  10.822 -1.1663 -3.1911  1.4103
 6868SOL    HW232241   1.323   0.142  10.867 -0.6523 -1.5144  0.1330
 6869SOL     OW32242   4.674   1.692   9.726 -0.4132 -0.1486 -0.1495
 6869SOL    HW132243   0.023   1.673   9.685 -0.2344 -1.4215  0.8178
 6869SOL    HW232244   4.694   1.735   9.809  0.7208 -0.9231 -0.0356
 6870SOL     OW32245   2.459   2.957  16.779 -0.3387  0.1950 -0.6725
 6870SOL    HW132246   2.438   2.870  16.811 -0.9529  1.0458  1.2090
 6870SOL    HW232247   2.441   2.941  16.686  1.2906 -0.8525 -0.8081
 6871SOL     OW32248   0.917   2.493   8.059 -0.9766  0.2622 -0.4123
 6871SOL    HW132249   0.834   2.537   8.044 -1.2694 -0.3085 -0.4889
 6871SOL    HW232250   0.902   2.440   8.137 -2.0832 -1.0363 -1.4837
 6872SOL     OW32251   3.423   3.775   5.121  0.4928 -0.0506 -0.0885
 6872SOL    HW132252   3.499   3.810   5.074  0.2647  0.9517  0.2841
 6872SOL    HW232253   3.406   3.695   5.073  1.7809 -1.3062  1.5662
 6873SOL     OW32254   2.962   4.632  13.549 -0.6822 -0.2528  0.0118
 6873SOL    HW132255   3.049   4.597  13.532 -1.1965 -1.4861 -0.1322
 6873SOL    HW232256   2.980   4.707  13.605 -3.1941  0.7451 -0.5222
 6874SOL     OW32257   2.404   4.002   5.071  0.0733  0.1400  0.2224
 6874SOL    HW132258   2.320   4.042   5.091  0.5402  0.4424  1.5791
 6874SOL    HW232259   2.451   4.073   5.027 -2.3034  0.0371 -2.4540
 6875SOL     OW32260   3.185   4.530   9.889 -0.2094 -0.3095  0.6059
 6875SOL    HW132261   3.188   4.448   9.839  0.4726  0.6746 -0.9653
 6875SOL    HW232262   3.267   4.529   9.939  1.6073 -2.7152 -2.3925
 6876SOL     OW32263   3.546   0.954   0.896  0.2887 -0.0433 -0.3160
 6876SOL    HW132264   3.528   1.004   0.816 -1.3793  0.4073  0.3407
 6876SOL    HW232265   3.503   0.870   0.880 -0.6458  0.5131 -0.7341
 6877SOL     OW32266   3.020   4.181   5.134  0.6109  0.0235 -0.1409
 6877SOL    HW132267   2.942   4.207   5.181  0.8131 -0.6596  0.5663
 6877SOL    HW232268   3.083   4.149   5.198  0.8040  1.3780  0.3532
 6878SOL     OW32269   4.519   4.144   4.777 -0.1005 -0.0446 -0.5474
 6878SOL    HW132270   4.450   4.175   4.718 -0.7268 -2.5170 -1.1574
 6878SOL    HW232271   4.496   4.051   4.788 -0.6736  0.0610 -0.8328
 6879SOL     OW32272   0.741   3.213   7.489  0.0059 -0.1872 -0.3581
 6879SOL    HW132273   0.754   3.308   7.497 -3.3362  0.4766 -2.8956
 6879SOL    HW232274   0.816   3.173   7.533  0.9351  2.5179  0.5461
 6880SOL     OW32275   1.422   1.293  15.961 -0.1396  0.1118 -0.2403
 6880SOL    HW132276   1.507   1.276  15.922  0.7051  2.0910  0.7226
 6880SOL    HW232277   1.378   1.348  15.895  0.9113  0.7133 -0.4354
 6881SOL     OW32278   1.956   2.460   9.379 -0.1647  0.0028  0.0693
 6881SOL    HW132279   1.981   2.372   9.351  0.4777  0.5052 -0.9224
 6881SOL    HW232280   1.912   2.434   9.460 -1.1464 -1.5946 -0.9635
 6882SOL     OW32281   0.224   4.733   2.265 -0.2040  0.4321  0.1475
 6882SOL    HW132282   0.221   4.663   2.331  2.4946  0.9793  0.8313
 6882SOL    HW232283   0.293   0.048   2.308  2.2058 -1.3550 -1.6757
 6883SOL     OW32284   2.638   1.009   4.085  0.2224 -0.1573 -0.2664
 6883SOL    HW132285   2.602   0.961   4.160  0.3743  0.5377  0.2436
 6883SOL    HW232286   2.592   0.957   4.018 -0.2531  2.0511 -1.6457
 6884SOL     OW32287   0.641   1.690   0.134 -0.3210  0.5315  0.4533
 6884SOL    HW132288   0.603   1.660   0.217 -1.1094 -0.9573 -0.4502
 6884SOL    HW232289   0.566   1.685   0.076 -0.7629  1.2254  0.9626
 6885SOL     OW32290   3.405   1.435   6.096 -0.2098  0.2033 -0.2255
 6885SOL    HW132291   3.427   1.448   6.188 -0.6023 -0.5701 -0.0252
 6885SOL    HW232292   3.417   1.526   6.067 -2.1447  0.1600 -1.1595
 6886SOL     OW32293   2.592   1.724   5.155 -0.2760 -0.9841  0.2801
 6886SOL    HW132294   2.532   1.799   5.159  3.6082  2.1892 -1.1213
 6886SOL    HW232295   2.580   1.694   5.065 -3.5825 -0.3147  0.5017
 6887SOL     OW32296   2.332   3.519   5.914  0.6937  0.3807  0.1774
 6887SOL    HW132297   2.421   3.485   5.921  0.3475 -0.1631  2.0494
 6887SOL    HW232298   2.318   3.570   5.995  1.4131  0.4364  0.2686
 6888SOL     OW32299   0.698   3.900   5.086  0.6425  0.0628 -0.6048
 6888SOL    HW132300   0.794   3.893   5.079  0.9269  2.1506  1.1524
 6888SOL    HW232301   0.678   3.907   5.180  0.0790  0.1856 -0.7408
 6889SOL     OW32302   2.574   2.222   4.960  0.1739  0.6031 -0.6245
 6889SOL    HW132303   2.601   2.307   4.996  0.5766 -0.9736  2.7610
 6889SOL    HW232304   2.654   2.175   4.979 -0.4298 -0.7189 -1.3517
 6890SOL     OW32305   4.572   3.120   4.083 -0.3055 -0.3802 -0.2029
 6890SOL    HW132306   4.544   3.207   4.054  1.1322 -0.8077 -2.7952
 6890SOL    HW232307   4.650   3.099   4.032  0.1344  0.7045  0.0332
 6891SOL     OW32308   3.140   0.778   8.799  0.3787  0.2866  0.1676
 6891SOL    HW132309   3.170   0.796   8.888 -0.0466  1.6299  0.0460
 6891SOL    HW232310   3.065   0.722   8.816  0.8458 -0.2587  0.4066
 6892SOL     OW32311   4.198   1.002   5.298  0.4394 -0.2959 -0.1562
 6892SOL    HW132312   4.255   1.019   5.373 -0.3609  0.9153  0.1580
 6892SOL    HW232313   4.240   1.059   5.235  0.6546  0.5476  0.7522
 6893SOL     OW32314   2.752   1.088   4.412 -0.4877  0.0822  0.0555
 6893SOL    HW132315   2.802   1.128   4.483  1.7056  1.1601 -2.0852
 6893SOL    HW232316   2.813   1.097   4.339 -0.0303 -1.0398  0.3017
 6894SOL     OW32317   4.488   0.759   2.059  0.1916 -0.4455 -0.2684
 6894SOL    HW132318   4.488   0.850   2.031  3.7257 -0.0758  0.9192
 6894SOL    HW232319   4.509   0.717   1.976 -0.2445 -0.7841 -0.2103
 6895SOL     OW32320   0.912   1.881   0.366 -0.4988 -0.2060  0.4260
 6895SOL    HW132321   0.985   1.889   0.428 -0.6924 -1.6734  0.8469
 6895SOL    HW232322   0.956   1.925   0.293 -0.6250 -2.7304 -1.1791
 6896SOL     OW32323   2.773   0.695  11.359  0.2914 -0.4910 -0.4258
 6896SOL    HW132324   2.799   0.646  11.281  1.3844 -0.6158  0.0130
 6896SOL    HW232325   2.810   0.646  11.433  0.3773 -2.1398 -1.5654
 6897SOL     OW32326   1.910   0.704   6.708  0.1882  0.3834 -0.1097
 6897SOL    HW132327   1.867   0.725   6.625 -0.4976  1.0354  0.4189
 6897SOL    HW232328   1.985   0.763   6.700  0.7690 -0.1969  0.9655
 6898SOL     OW32329   1.353   2.600   8.825 -0.0047 -0.0531  0.0461
 6898SOL    HW132330   1.447   2.602   8.804  0.1722 -1.9675  0.6595
 6898SOL    HW232331   1.323   2.658   8.755  1.1692  0.1206 -0.3326
 6899SOL     OW32332   4.343   2.707   4.849 -0.8966 -0.1008 -0.1299
 6899SOL    HW132333   4.250   2.725   4.866 -0.7792 -1.4019  1.8575
 6899SOL    HW232334   4.375   2.730   4.936 -0.2260  0.3414 -0.4910
 6900SOL     OW32335   3.408   3.931  12.612 -0.0324  0.4408 -0.1924
 6900SOL    HW132336   3.430   4.024  12.605  0.9295  0.0705 -2.0091
 6900SOL    HW232337   3.322   3.936  12.654 -0.0775  1.1188 -0.3642
 6901SOL     OW32338   0.470   4.422  14.241  0.5147 -0.2545 -0.1801
 6901SOL    HW132339   0.561   4.426  14.210  0.2803 -1.5397 -1.0240
 6901SOL    HW232340   0.436   4.384  14.160  0.5272 -2.1314  0.6963
 6902SOL     OW32341   0.005   4.682  11.934  0.5896  0.0868 -0.1322
 6902SOL    HW132342   4.658   4.655  11.975  0.6337  0.7201  0.3906
 6902SOL    HW232343   0.048   4.597  11.931  0.4417  0.0082 -0.0139
 6903SOL     OW32344   3.435   2.706  14.485  0.1737  0.4562  0.3551
 6903SOL    HW132345   3.448   2.800  14.468  0.4587  0.4650  0.6219
 6903SOL    HW232346   3.395   2.676  14.404 -1.4423 -0.1776  1.3961
 6904SOL     OW32347   1.289   1.611   4.037  0.4106  0.1992  0.0896
 6904SOL    HW132348   1.342   1.690   4.029  1.2092 -0.2409  1.0828
 6904SOL    HW232349   1.347   1.540   4.010  0.4830  0.0238  0.7149
 6905SOL     OW32350   3.110   3.181  13.324 -0.0731  0.4577  0.1233
 6905SOL    HW132351   3.083   3.097  13.360 -0.3416  1.4573  2.2945
 6905SOL    HW232352   3.180   3.210  13.383  1.0116 -1.3794 -0.2773
 6906SOL     OW32353   0.826   1.710   6.218 -0.1921 -0.3074 -0.0503
 6906SOL    HW132354   0.843   1.645   6.286 -0.8541  0.2515  0.6500
 6906SOL    HW232355   0.915   1.741   6.199 -1.2857  0.9502 -2.9914
 6907SOL     OW32356   3.278   3.297   1.992  0.5049 -0.5067  0.4384
 6907SOL    HW132357   3.202   3.239   1.989 -0.1632  0.4506 -0.9800
 6907SOL    HW232358   3.336   3.242   2.045 -1.1403 -0.9184  1.7835
 6908SOL     OW32359   3.962   1.443   1.721 -0.1799  0.4432  0.4838
 6908SOL    HW132360   3.905   1.519   1.735 -0.0512  0.8886 -1.4244
 6908SOL    HW232361   4.038   1.488   1.683 -1.3099  1.6765 -0.3187
 6909SOL     OW32362   0.987   1.586  10.936 -0.2449 -0.1290 -0.3559
 6909SOL    HW132363   1.077   1.569  10.962 -0.7000 -1.4111  0.3606
 6909SOL    HW232364   0.952   1.621  11.018  1.9980  0.2239  0.4504
 6910SOL     OW32365   0.219   2.656   3.486 -0.3476  0.2385 -0.2996
 6910SOL    HW132366   0.258   2.580   3.442  0.3544 -0.2141  1.0681
 6910SOL    HW232367   0.126   2.633   3.482 -1.1984  3.4147  1.5572
 6911SOL     OW32368   3.061   3.466   1.310  0.4764 -0.0793  0.5120
 6911SOL    HW132369   3.046   3.404   1.381  0.2917  0.7483  1.1972
 6911SOL    HW232370   3.023   3.552   1.332 -1.9630 -1.0443  0.0308
 6912SOL     OW32371   2.928   1.184   3.501  0.1010  0.1878  0.6069
 6912SOL    HW132372   2.985   1.253   3.535  0.2252  0.5558 -0.3541
 6912SOL    HW232373   2.882   1.156   3.579  1.4952  2.6747  2.3237
 6913SOL     OW32374   3.774   3.057  13.049 -0.0614 -0.0377 -0.2254
 6913SOL    HW132375   3.844   3.112  13.085 -0.1951 -0.7335  1.0774
 6913SOL    HW232376   3.832   2.997  13.001  0.7048  0.5064  0.0085
 6914SOL     OW32377   4.675   0.535   2.475 -0.2096  0.3924  0.6282
 6914SOL    HW132378   4.606   0.595   2.504 -0.1549  0.1917  1.1766
 6914SOL    HW232379   4.654   0.467   2.539 -2.0658 -0.7166 -1.1545
 6915SOL     OW32380   2.972   4.574  10.089  0.8691 -0.2781  0.1085
 6915SOL    HW132381   3.025   4.550  10.014 -1.4629  2.9131 -2.6016
 6915SOL    HW232382   3.014   4.656  10.115  3.1342 -1.1178 -0.9007
 6916SOL     OW32383   3.604   3.338  11.906  0.1656 -0.3689 -0.6140
 6916SOL    HW132384   3.618   3.248  11.876  1.0639  0.0188 -1.3504
 6916SOL    HW232385   3.598   3.385  11.823 -1.4749 -0.9135 -0.8104
 6917SOL     OW32386   3.633   0.401   3.710  0.1068  0.1964  0.1594
 6917SOL    HW132387   3.558   0.393   3.769 -1.1530 -1.7393 -1.6842
 6917SOL    HW232388   3.644   0.309   3.685 -1.0999  0.6656 -2.1167
 6918SOL     OW32389   3.513   3.064  13.011  0.4954  0.4018 -0.5141
 6918SOL    HW132390   3.605   3.048  13.033  0.7605 -0.6036 -2.3038
 6918SOL    HW232391   3.514   3.159  13.008  0.3680  0.5058  3.1849
 6919SOL     OW32392   3.192   1.218  16.779 -0.9798 -0.0182 -0.0700
 6919SOL    HW132393   3.219   1.166  16.702 -1.9422 -0.3138 -0.2104
 6919SOL    HW232394   3.248   1.293  16.758  1.4238 -0.7406  3.8768
 6920SOL     OW32395   0.678   1.905   9.646 -0.5047  0.2505  0.2327
 6920SOL    HW132396   0.631   1.976   9.689 -1.7980  0.6060 -1.7765
 6920SOL    HW232397   0.688   1.843   9.719  1.4517 -0.1601 -0.3863
 6921SOL     OW32398   3.419   3.427   1.779 -0.2892 -0.0453 -0.1479
 6921SOL    HW132399   3.507   3.424   1.816 -0.4788 -0.9783  0.2241
 6921SOL    HW232400   3.386   3.362   1.841  0.6604 -1.0167 -0.6721
 6922SOL     OW32401   2.827   1.296   3.993 -0.1310 -0.1014  0.6844
 6922SOL    HW132402   2.805   1.385   4.024  0.1374  0.8754 -1.9310
 6922SOL    HW232403   2.844   1.255   4.078 -0.5896  0.3474  1.0026
 6923SOL     OW32404   4.711   4.678   5.100 -0.0098  0.4322 -0.0301
 6923SOL    HW132405   4.699   4.639   5.014 -1.7282 -0.0968  0.4459
 6923SOL    HW232406   0.028   4.613   5.147  0.8787  0.5136 -0.8976
 6924SOL     OW32407   2.864   2.799   1.433  0.5293 -0.6737  0.1915
 6924SOL    HW132408   2.794   2.858   1.462  1.3519  1.2966 -1.8675
 6924SOL    HW232409   2.805   2.758   1.370 -0.1121 -1.9605  1.6198
 6925SOL     OW32410   1.982   2.810  12.193 -0.5652 -0.0071 -0.0682
 6925SOL    HW132411   2.030   2.759  12.127  0.6412  0.0504  0.7601
 6925SOL    HW232412   1.895   2.806  12.153 -0.7423 -0.7414  0.3863
 6926SOL     OW32413   3.298   2.657   3.651 -0.7186  0.6077  0.2627
 6926SOL    HW132414   3.211   2.631   3.680 -0.6446 -1.2914 -1.1762
 6926SOL    HW232415   3.330   2.578   3.607  1.1170  1.1806  0.5752
 6927SOL     OW32416   4.234   4.608   6.583 -0.5482  0.3622  0.7323
 6927SOL    HW132417   4.295   4.631   6.653 -1.8345  2.1596  1.2679
 6927SOL    HW232418   4.188   4.545   6.638 -1.6126  2.3472  2.1120
 6928SOL     OW32419   2.444   3.463  16.039  0.1654  0.7403 -0.2612
 6928SOL    HW132420   2.534   3.435  16.022 -0.1579 -0.6971  0.4022
 6928SOL    HW232421   2.451   3.552  16.005  0.9439  0.6767 -0.2712
 6929SOL     OW32422   0.031   3.382  15.088 -0.1314 -0.0811  0.5952
 6929SOL    HW132423   0.012   3.474  15.069  1.9243  0.1589 -0.3243
 6929SOL    HW232424   4.694   3.332  15.049 -0.2586  0.7260 -0.1909
 6930SOL     OW32425   0.837   0.267   8.020 -0.4095  0.6979 -0.1140
 6930SOL    HW132426   0.914   0.266   8.076 -0.3914 -1.0101 -0.1663
 6930SOL    HW232427   0.774   0.222   8.076  2.0563 -0.7225  1.5402
 6931SOL     OW32428   0.302   0.797   7.429  0.0291 -0.4231 -0.0660
 6931SOL    HW132429   0.357   0.863   7.472 -0.5873  0.3732 -0.4935
 6931SOL    HW232430   0.291   0.735   7.502  1.2723 -0.7893 -0.2019
 6932SOL     OW32431   1.141   2.303   1.960 -0.5055  0.3495  0.2082
 6932SOL    HW132432   1.213   2.326   1.901 -0.1221 -0.3343  0.4104
 6932SOL    HW232433   1.117   2.395   1.970 -0.3715  0.3008  1.0146
 6933SOL     OW32434   1.696   1.451  12.408  0.2675  0.1046 -0.4139
 6933SOL    HW132435   1.762   1.383  12.419 -0.8246 -0.8256  0.3263
 6933SOL    HW232436   1.731   1.496  12.331 -0.8934 -0.4591 -1.2648
 6934SOL     OW32437   1.561   3.198   8.170  0.6555 -0.3097 -0.2373
 6934SOL    HW132438   1.631   3.215   8.107  0.7680 -0.0051 -0.0277
 6934SOL    HW232439   1.548   3.278   8.220  0.6338  2.1656 -4.1329
 6935SOL     OW32440   3.257   4.582  11.174 -0.9014 -0.0514  0.5807
 6935SOL    HW132441   3.234   4.633  11.252 -1.0551  2.0548 -0.8570
 6935SOL    HW232442   3.350   4.561  11.186 -0.3527  1.9057 -0.2755
 6936SOL     OW32443   3.821   1.043   6.435 -0.1022 -0.0220  0.1884
 6936SOL    HW132444   3.844   1.103   6.506  0.2246  1.0863 -0.8661
 6936SOL    HW232445   3.852   1.095   6.361 -0.0942  0.0927  0.2723
 6937SOL     OW32446   2.336   4.686   2.643  0.1637 -0.5023  0.1834
 6937SOL    HW132447   2.283   4.692   2.723  1.4342  2.0495  0.8109
 6937SOL    HW232448   2.277   4.735   2.586  0.5367 -0.8401 -0.4945
 6938SOL     OW32449   1.713   2.545  12.055 -0.1339  0.0734 -0.7427
 6938SOL    HW132450   1.706   2.492  12.134 -0.2842 -0.3742 -1.0544
 6938SOL    HW232451   1.738   2.631  12.088 -1.7902  1.1212 -2.2503
 6939SOL     OW32452   0.156   2.153   5.509  0.5541  0.1188 -0.4475
 6939SOL    HW132453   0.145   2.103   5.590  1.3373 -0.2823 -0.5845
 6939SOL    HW232454   0.097   2.101   5.454 -0.0684  1.9237 -1.4856
 6940SOL     OW32455   1.468   1.751   5.528 -0.1851 -0.4606 -0.3441
 6940SOL    HW132456   1.511   1.805   5.594 -0.2618 -0.9479  0.1079
 6940SOL    HW232457   1.375   1.760   5.547  0.4381 -1.5279  3.2929
 6941SOL     OW32458   2.342   3.740   1.986 -0.5375  0.0312 -0.6142
 6941SOL    HW132459   2.349   3.806   1.917  1.0858 -0.8571 -1.3015
 6941SOL    HW232460   2.302   3.662   1.947  0.2118 -1.5498  1.7373
 6942SOL     OW32461   1.997   4.418  14.894  0.5859 -0.3782  0.1142
 6942SOL    HW132462   2.084   4.381  14.905 -0.7483 -2.8115  2.5760
 6942SOL    HW232463   1.949   4.339  14.869 -1.0784  0.1555  1.5945
 6943SOL     OW32464   2.037   4.603  11.519 -1.2503 -0.5507  0.4923
 6943SOL    HW132465   1.995   4.527  11.479 -0.3121 -0.1092 -1.3176
 6943SOL    HW232466   1.974   4.623  11.589 -0.2083  1.6454  0.8054
 6944SOL     OW32467   2.843   0.402   7.498  0.6555 -0.0014 -0.6511
 6944SOL    HW132468   2.780   0.450   7.444 -0.5199  0.6221  1.2877
 6944SOL    HW232469   2.776   0.368   7.557 -0.2496  1.5057 -0.8042
 6945SOL     OW32470   2.551   1.168   6.327  0.0028  0.3697  0.0567
 6945SOL    HW132471   2.579   1.123   6.248 -0.0550 -0.6646  0.6156
 6945SOL    HW232472   2.580   1.256   6.301  2.0011 -1.0299 -2.3970
 6946SOL     OW32473   2.106   2.955   9.634 -0.3852 -0.1924  0.1236
 6946SOL    HW132474   2.179   2.901   9.606 -0.4534  0.2185 -0.8550
 6946SOL    HW232475   2.025   2.910   9.608  0.1965 -1.5373  0.6674
 6947SOL     OW32476   0.428   3.493  14.849 -0.4741  0.3976 -0.5865
 6947SOL    HW132477   0.380   3.473  14.769 -1.9668 -0.1326  0.4306
 6947SOL    HW232478   0.376   3.444  14.913  1.2080 -0.4771  0.1096
 6948SOL     OW32479   2.092   4.315   8.934 -0.7469 -0.4582  0.7647
 6948SOL    HW132480   2.146   4.292   9.010 -0.8314 -0.3007  0.8730
 6948SOL    HW232481   2.142   4.269   8.866 -1.8469  1.3791 -1.2680
 6949SOL     OW32482   3.696   0.073   5.062 -0.5937  0.1623 -0.0769
 6949SOL    HW132483   3.764   0.007   5.054 -0.1509  0.3973  1.7013
 6949SOL    HW232484   3.623   0.017   5.088 -1.9960  2.0808  0.0952
 6950SOL     OW32485   3.448   2.749   3.898 -0.1226  0.0957  0.2527
 6950SOL    HW132486   3.423   2.725   3.809  3.3249 -1.2906 -0.3184
 6950SOL    HW232487   3.382   2.702   3.949  0.2519 -0.0573  0.5972
 6951SOL     OW32488   3.612   2.823   1.759 -0.3832 -1.0617  0.1137
 6951SOL    HW132489   3.671   2.886   1.719  0.1652 -0.8779  1.1965
 6951SOL    HW232490   3.659   2.744   1.732  0.5272 -0.4812  0.0053
 6952SOL     OW32491   2.843   3.747   1.155 -0.2147 -0.1775 -0.4818
 6952SOL    HW132492   2.887   3.787   1.230 -0.2125 -0.4963 -0.3125
 6952SOL    HW232493   2.890   3.771   1.075  1.7360 -0.5601  0.5391
 6953SOL     OW32494   1.091   2.303   2.946  0.0317  0.1489 -0.3198
 6953SOL    HW132495   1.013   2.356   2.964 -0.4918 -0.9329  0.5547
 6953SOL    HW232496   1.086   2.289   2.852  2.5132  0.4776 -0.4953
 6954SOL     OW32497   0.700   3.478   7.205 -0.2971 -0.4376  0.0449
 6954SOL    HW132498   0.695   3.449   7.296  1.1609 -1.8428 -0.3004
 6954SOL    HW232499   0.789   3.448   7.183 -1.1178 -0.1636 -3.6946
 6955SOL     OW32500   2.412   2.669   0.030  0.1328  0.1212  0.4239
 6955SOL    HW132501   2.420   2.589  17.717  1.9175  0.1891  0.6057
 6955SOL    HW232502   2.370   2.729  17.708 -0.3126  0.2308  0.8289
 6956SOL     OW32503   4.194   0.150   5.914  0.2369 -0.0796  0.1178
 6956SOL    HW132504   4.178   0.238   5.947  2.2085  0.1061  0.5677
 6956SOL    HW232505   4.227   0.116   5.997 -1.6513 -1.5841  0.2701
 6957SOL     OW32506   3.146   0.480  14.530 -0.5066 -0.9287 -0.3587
 6957SOL    HW132507   3.178   0.566  14.557  0.2986 -1.1824 -0.4936
 6957SOL    HW232508   3.100   0.459  14.611  0.2539  1.4778  0.7056
 6958SOL     OW32509   4.584   3.832  13.787  0.1800  0.2072  0.1655
 6958SOL    HW132510   4.571   3.799  13.876 -2.8300  0.5485 -0.1504
 6958SOL    HW232511   4.594   3.923  13.813 -2.5848 -0.0554  2.2246
 6959SOL     OW32512   0.587   3.021   7.190 -0.4814 -0.2736  0.1378
 6959SOL    HW132513   0.539   3.010   7.272 -1.0441 -2.2933 -0.4740
 6959SOL    HW232514   0.536   2.964   7.132  0.3648 -0.5266 -0.3771
 6960SOL     OW32515   2.239   1.563   4.129 -0.1845  0.1074  0.1635
 6960SOL    HW132516   2.223   1.477   4.090  3.1345 -1.0778  1.4467
 6960SOL    HW232517   2.223   1.544   4.221  1.7745 -1.1748  0.2370
 6961SOL     OW32518   1.914   2.717   0.788 -0.5014  0.4004  0.4469
 6961SOL    HW132519   1.872   2.667   0.718  1.1504 -1.7329  0.9857
 6961SOL    HW232520   1.881   2.673   0.866  1.7388 -0.9969  0.6158
 6962SOL     OW32521   3.607   0.657   1.454  0.3587 -0.0803  0.0906
 6962SOL    HW132522   3.638   0.621   1.370 -2.6830  1.0815 -1.5115
 6962SOL    HW232523   3.567   0.575   1.481 -0.6103 -0.0618 -1.2742
 6963SOL     OW32524   1.793   1.442   2.692  0.3002 -0.5793 -0.5917
 6963SOL    HW132525   1.880   1.441   2.652  0.3917  0.2059 -0.4045
 6963SOL    HW232526   1.802   1.515   2.753  0.3032  0.9923 -2.4843
 6964SOL     OW32527   2.745   1.180   2.888 -0.1152  0.7364 -0.2183
 6964SOL    HW132528   2.828   1.201   2.930  0.4772 -0.8773 -0.5980
 6964SOL    HW232529   2.698   1.263   2.891  0.1257  0.9007 -1.1015
 6965SOL     OW32530   0.627   1.469   8.119  0.5288 -0.3195 -0.0489
 6965SOL    HW132531   0.692   1.420   8.170  0.7564  0.2005  0.1535
 6965SOL    HW232532   0.625   1.419   8.037  1.7227 -2.0693  0.9936
 6966SOL     OW32533   1.837   3.772   9.975 -0.1331  0.2695  0.4407
 6966SOL    HW132534   1.753   3.730   9.957  0.2306 -0.2234 -0.0900
 6966SOL    HW232535   1.888   3.740   9.901  0.9583 -0.4034  1.4939
 6967SOL     OW32536   3.828   2.322  13.041  0.4868 -0.2855 -0.1760
 6967SOL    HW132537   3.770   2.250  13.065  1.0551 -1.0784 -1.2134
 6967SOL    HW232538   3.878   2.293  12.965 -0.1445  1.4716 -1.2808
 6968SOL     OW32539   1.047   3.546   2.802  0.2399  0.6155 -0.4330
 6968SOL    HW132540   1.057   3.487   2.876 -0.0350 -0.4160 -1.2183
 6968SOL    HW232541   1.020   3.623   2.852 -0.3301  0.0244  0.1584
 6969SOL     OW32542   3.785   1.651   4.539 -0.4440 -0.3887  0.1503
 6969SOL    HW132543   3.860   1.688   4.494 -0.3162 -0.5681  0.2136
 6969SOL    HW232544   3.755   1.735   4.573 -2.0246 -1.3127  1.0557
 6970SOL     OW32545   3.891   4.058   4.901  0.2837  0.3713 -0.5531
 6970SOL    HW132546   3.859   4.134   4.951  0.3918  0.3178 -0.4027
 6970SOL    HW232547   3.813   4.005   4.918  1.1941 -0.7652  0.0973
 6971SOL     OW32548   2.176   1.260  13.557 -0.0084  0.3194 -0.2330
 6971SOL    HW132549   2.199   1.352  13.567 -2.4054  1.1256 -2.2095
 6971SOL    HW232550   2.260   1.215  13.547 -0.6739 -1.6652  2.9368
 6972SOL     OW32551   3.167   0.697   6.301 -0.0469  0.2017 -0.0541
 6972SOL    HW132552   3.189   0.784   6.267  1.4854 -0.5250 -0.9639
 6972SOL    HW232553   3.239   0.671   6.358  0.3546 -0.3477 -0.7987
 6973SOL     OW32554   3.568   0.989   6.147  0.5074 -0.8288  0.2140
 6973SOL    HW132555   3.651   1.008   6.104 -0.7185  2.2028 -0.8028
 6973SOL    HW232556   3.499   1.039   6.104  1.3762  0.5877  0.4882
 6974SOL     OW32557   3.982   1.152   6.854  0.3181  0.5755  0.3119
 6974SOL    HW132558   3.944   1.066   6.835 -0.4879  1.1366 -0.6611
 6974SOL    HW232559   4.070   1.145   6.891  1.4527  2.5119 -2.0108
 6975SOL     OW32560   4.420   0.501   2.759  0.3650  0.3505 -0.1019
 6975SOL    HW132561   4.503   0.456   2.776 -0.4397 -1.1808 -0.2975
 6975SOL    HW232562   4.453   0.574   2.706  2.1884  0.3892  1.0834
 6976SOL     OW32563   0.002   3.948   5.264  0.7100 -0.7044 -0.2491
 6976SOL    HW132564   4.709   4.029   5.308 -1.5591 -1.9615  0.6093
 6976SOL    HW232565   4.688   3.945   5.183 -1.0036  1.5145  0.7237
 6977SOL     OW32566   4.102   3.929  16.088  0.4872  0.0620 -0.2385
 6977SOL    HW132567   4.123   4.018  16.115  1.4902 -1.2506  3.2662
 6977SOL    HW232568   4.127   3.876  16.163  1.4257  1.6278  0.5364
 6978SOL     OW32569   4.724   1.084  11.610  0.6258 -0.1517 -0.0110
 6978SOL    HW132570   0.071   1.058  11.570  0.9644  1.9693 -0.6900
 6978SOL    HW232571   4.678   1.001  11.623 -0.1340  0.3308  0.4156
 6979SOL     OW32572   0.569   3.873   1.787  0.6464 -0.2466 -0.1101
 6979SOL    HW132573   0.659   3.879   1.755  0.7238  1.6020  0.4307
 6979SOL    HW232574   0.557   3.950   1.843 -0.2873 -0.8638  0.5253
 6980SOL     OW32575   3.263   3.375   3.570 -0.1372  0.0583 -0.1940
 6980SOL    HW132576   3.288   3.295   3.524  0.2968  0.7350 -1.1377
 6980SOL    HW232577   3.246   3.340   3.657  0.0242  0.9971  0.2141
 6981SOL     OW32578   0.896   3.383   3.946 -0.0440 -0.1108  0.1038
 6981SOL    HW132579   0.959   3.432   3.998 -0.7484 -1.2850  2.0421
 6981SOL    HW232580   0.922   3.295   3.972  0.9264  0.6684  1.7372
 6982SOL     OW32581   4.622   2.887  13.186 -0.0210  0.0261 -0.4851
 6982SOL    HW132582   4.699   2.943  13.197 -0.3246  0.2043  0.7795
 6982SOL    HW232583   4.605   2.895  13.092  0.8986  1.5802 -0.5075
 6983SOL     OW32584   2.438   0.154   1.746  0.1809  0.3214  0.0480
 6983SOL    HW132585   2.391   0.087   1.796 -0.5793  1.6018  1.0600
 6983SOL    HW232586   2.524   0.146   1.786 -0.4981 -2.6567  0.8980
 6984SOL     OW32587   0.351   2.313  14.853 -0.1525  0.0000 -0.4426
 6984SOL    HW132588   0.264   2.352  14.859 -0.1916 -0.3628  1.3145
 6984SOL    HW232589   0.335   2.223  14.878 -1.5506  0.3131 -0.2299
 6985SOL     OW32590   0.169   1.183   4.960 -0.4127  0.4673  0.3568
 6985SOL    HW132591   0.119   1.123   5.016  0.5015  0.0735  0.7469
 6985SOL    HW232592   0.169   1.131   4.880  0.8624 -1.2738  1.4837
 6986SOL     OW32593   3.643   1.636   5.284 -0.3316  0.2770 -0.0712
 6986SOL    HW132594   3.646   1.656   5.191 -0.7599 -0.3693 -0.2251
 6986SOL    HW232595   3.676   1.546   5.279 -0.8720 -0.0467  2.0806
 6987SOL     OW32596   0.182   4.555   8.352  0.2517 -0.3937  0.7386
 6987SOL    HW132597   0.090   4.581   8.359  0.0267 -0.7327 -1.1263
 6987SOL    HW232598   0.227   4.637   8.333  3.1870 -1.5990  2.5619
 6988SOL     OW32599   3.326   3.629   7.359 -0.1248  0.1483 -0.1162
 6988SOL    HW132600   3.232   3.643   7.367 -0.3623 -0.2788 -2.1682
 6988SOL    HW232601   3.354   3.713   7.396  0.2547 -0.3622  0.7400
 6989SOL     OW32602   2.497   1.438   4.817  0.2320  0.8278  0.3364
 6989SOL    HW132603   2.478   1.349   4.790 -0.6591  0.7865  1.0754
 6989SOL    HW232604   2.585   1.438   4.854  0.4388  1.0735 -0.1541
 6990SOL     OW32605   4.393   3.690   2.804  0.0468 -0.4787  0.1221
 6990SOL    HW132606   4.361   3.696   2.894 -1.1744 -0.2778 -0.3214
 6990SOL    HW232607   4.481   3.723   2.821  0.1247 -0.3003 -0.6644
 6991SOL     OW32608   1.610   1.077  12.923 -0.0803  0.0534 -0.3038
 6991SOL    HW132609   1.600   1.148  12.860 -0.3564  1.0003  0.8087
 6991SOL    HW232610   1.592   1.009  12.859 -0.8116 -0.3478  0.3295
 6992SOL     OW32611   2.579   1.195  15.241  0.5556 -0.1456 -0.2246
 6992SOL    HW132612   2.648   1.170  15.303  3.4144 -0.7508 -3.6786
 6992SOL    HW232613   2.509   1.227  15.298  1.7824  1.2928  0.4822
 6993SOL     OW32614   4.689   2.770   4.998  0.0593 -0.4010  0.6752
 6993SOL    HW132615   4.689   2.755   5.092 -0.8460 -0.5404  0.6538
 6993SOL    HW232616   4.705   2.681   4.968  2.2551  0.1106  0.3375
 6994SOL     OW32617   3.613   1.189  11.489 -0.6675  0.2989 -0.4175
 6994SOL    HW132618   3.625   1.145  11.405 -2.3613  0.1413 -0.5630
 6994SOL    HW232619   3.579   1.268  11.447  0.0898  1.0948  0.4679
 6995SOL     OW32620   0.055   4.474   3.283 -0.1040  0.2171 -0.8082
 6995SOL    HW132621   0.046   4.569   3.281  0.6220  0.2677 -1.9094
 6995SOL    HW232622   0.083   4.461   3.192 -1.1853  3.4818 -1.5853
 6996SOL     OW32623   1.982   1.873   7.013  0.1036 -0.3437  0.0035
 6996SOL    HW132624   1.894   1.892   7.045  0.6657  0.9374  0.7827
 6996SOL    HW232625   2.012   1.962   6.998 -3.3058  0.6813 -0.6954
 6997SOL     OW32626   4.637   1.301   3.837 -0.6056 -0.4013  0.0988
 6997SOL    HW132627   4.633   1.300   3.933  1.0663  1.5408  0.1689
 6997SOL    HW232628   4.730   1.320   3.833 -0.6918 -0.4667 -2.0665
 6998SOL     OW32629   4.627   4.343   6.373 -0.2342 -0.2599  0.1469
 6998SOL    HW132630   4.721   4.329   6.366 -0.4712 -1.6824 -0.2612
 6998SOL    HW232631   4.611   4.380   6.460 -1.1338  0.9303 -0.5328
 6999SOL     OW32632   0.164   2.408   8.555 -0.1818  0.3328 -0.4559
 6999SOL    HW132633   0.077   2.445   8.543 -0.0686  1.1348  1.0993
 6999SOL    HW232634   0.151   2.353   8.632 -2.5654  0.0138 -1.1062
 7000SOL     OW32635   0.356   0.583   0.939 -0.4613 -0.2195 -0.5301
 7000SOL    HW132636   0.272   0.562   0.899 -1.1171 -3.7133  2.6571
 7000SOL    HW232637   0.341   0.546   1.026  0.4805 -2.6878 -1.3950
 7001SOL     OW32638   3.906   3.556  17.210 -0.7035  0.7847 -0.0730
 7001SOL    HW132639   3.976   3.588  17.266 -0.5338  0.1853  0.0624
 7001SOL    HW232640   3.850   3.633  17.203  0.2271  1.3644 -1.2062
 7002SOL     OW32641   2.388   0.172   4.601  0.2313  0.1720  0.3293
 7002SOL    HW132642   2.358   0.257   4.570 -0.3087  0.2884  1.1638
 7002SOL    HW232643   2.343   0.159   4.685 -0.4264 -0.8672 -0.1850
 7003SOL     OW32644   3.673   3.013   8.159 -0.1140 -0.0645 -0.3313
 7003SOL    HW132645   3.760   2.977   8.141 -0.6490 -0.3837 -2.2486
 7003SOL    HW232646   3.638   3.031   8.072 -1.1496 -1.0192 -0.1166
 7004SOL     OW32647   1.507   3.504   9.557  0.0835  0.8584 -1.0140
 7004SOL    HW132648   1.555   3.584   9.576  1.1860  0.3145 -1.5139
 7004SOL    HW232649   1.474   3.486   9.646  1.6963  0.6943 -0.4479
 7005SOL     OW32650   0.847   3.866  11.610 -0.3294 -0.0020 -0.3726
 7005SOL    HW132651   0.846   3.961  11.611 -1.9342  0.0345 -3.8485
 7005SOL    HW232652   0.852   3.838  11.701  0.5938  0.7127 -0.2082
 7006SOL     OW32653   2.981   2.094  16.916 -0.4241  0.0562  0.2773
 7006SOL    HW132654   2.958   2.104  17.008  2.4662 -2.0769  1.2549
 7006SOL    HW232655   3.040   2.019  16.924 -2.7188 -1.5267  2.3556
 7007SOL     OW32656   2.498   2.566   6.050 -0.3469 -0.3475 -0.2540
 7007SOL    HW132657   2.566   2.499   6.057  1.5027  1.7343  1.9852
 7007SOL    HW232658   2.464   2.546   5.963 -0.1328 -1.7079 -0.0285
 7008SOL     OW32659   2.243   3.084  13.144 -0.6230  0.0171  0.5291
 7008SOL    HW132660   2.167   3.142  13.142  0.0942  0.8792 -1.1873
 7008SOL    HW232661   2.314   3.138  13.109  0.8848 -2.4028 -0.1487
 7009SOL     OW32662   3.201   1.289   5.170  0.1941 -0.1861  0.0122
 7009SOL    HW132663   3.142   1.335   5.230  1.4435  0.1287  0.9792
 7009SOL    HW232664   3.279   1.267   5.220  0.0872 -0.7839 -0.0823
 7010SOL     OW32665   2.216   0.204   6.110 -0.2999  0.3147 -0.3098
 7010SOL    HW132666   2.137   0.236   6.153 -0.0364  0.0958  0.3392
 7010SOL    HW232667   2.228   0.277   6.049  1.2559 -0.4732 -0.9375
 7011SOL     OW32668   3.333   3.373   3.049 -0.3265 -0.4528 -0.6433
 7011SOL    HW132669   3.244   3.409   3.054 -0.0438 -0.1766  2.4682
 7011SOL    HW232670   3.317   3.288   3.008 -0.0567 -0.7920 -0.0451
 7012SOL     OW32671   2.605   4.625   5.582 -0.0554 -0.0202  0.1900
 7012SOL    HW132672   2.677   4.657   5.636 -0.3449  0.3547  0.3553
 7012SOL    HW232673   2.566   4.570   5.650  0.0636  0.6422  0.7993
 7013SOL     OW32674   4.083   1.974   6.516 -0.0595 -0.1059 -0.6953
 7013SOL    HW132675   4.087   1.890   6.471  0.1318 -0.9903  0.9881
 7013SOL    HW232676   4.175   1.993   6.533  0.4102  0.9163 -4.3778
 7014SOL     OW32677   2.477   1.775   4.457 -0.1050  0.7293 -0.6558
 7014SOL    HW132678   2.530   1.698   4.479 -1.1824  0.2934  0.4001
 7014SOL    HW232679   2.544   1.842   4.450  2.1006 -1.5358 -1.3324
 7015SOL     OW32680   3.593   1.398   8.465 -0.0469 -0.9926  0.1766
 7015SOL    HW132681   3.590   1.408   8.560 -1.6379  0.8426 -0.0610
 7015SOL    HW232682   3.625   1.310   8.445 -1.8451 -1.5301 -0.3397
 7016SOL     OW32683   3.832   3.907   8.177  0.1600 -0.0101  0.5601
 7016SOL    HW132684   3.796   3.973   8.236  0.0630 -0.0239  0.5152
 7016SOL    HW232685   3.760   3.898   8.114 -0.7643  1.9749  1.3408
 7017SOL     OW32686   0.478   0.480   5.017 -0.0029  0.2371  0.2547
 7017SOL    HW132687   0.391   0.446   5.039  0.1754 -0.1189  0.4110
 7017SOL    HW232688   0.479   0.455   4.925 -2.1348  2.2300 -0.3318
 7018SOL     OW32689   3.200   3.933   6.364  0.2670 -0.4324 -0.8201
 7018SOL    HW132690   3.188   3.855   6.309  2.9622 -0.3933 -1.4606
 7018SOL    HW232691   3.116   3.967   6.393 -0.7156 -0.5003 -3.5174
 7019SOL     OW32692   4.007   2.261   9.911 -0.1239 -0.1977 -0.2358
 7019SOL    HW132693   3.972   2.328   9.852  1.4403 -0.7105 -1.7619
 7019SOL    HW232694   3.929   2.261   9.967 -0.4759 -0.5403 -0.7255
 7020SOL     OW32695   4.676   0.742   5.219 -0.3273  0.3482 -0.3703
 7020SOL    HW132696   0.008   0.790   5.171 -1.6808  1.7522 -0.8816
 7020SOL    HW232697   4.715   0.740   5.306 -1.8167  0.9018  0.3225
 7021SOL     OW32698   3.777   3.131   4.966 -0.2436 -0.3833 -0.0602
 7021SOL    HW132699   3.756   3.197   4.900 -3.0628 -2.0155 -0.7672
 7021SOL    HW232700   3.707   3.072   4.941  2.1079 -2.5346 -1.4701
 7022SOL     OW32701   1.275   4.683   6.348 -0.4420  0.2853 -0.0955
 7022SOL    HW132702   1.369   4.673   6.330 -0.1605  3.1471 -0.2338
 7022SOL    HW232703   1.256   0.033   6.307 -0.6583  1.6522  2.9049
 7023SOL     OW32704   0.425   3.722   6.662  0.0867  0.6760  0.7956
 7023SOL    HW132705   0.346   3.670   6.676 -0.0344  0.3899 -0.9442
 7023SOL    HW232706   0.462   3.735   6.750  0.4666  2.2758  0.4145
 7024SOL     OW32707   0.174   2.364   7.897 -0.2244 -0.0417  0.2672
 7024SOL    HW132708   0.163   2.270   7.913 -4.4997  0.2755 -0.8092
 7024SOL    HW232709   0.096   2.405   7.934 -1.2548 -1.6834 -0.0778
 7025SOL     OW32710   4.194   3.153   5.840  0.0546  0.2818  0.2143
 7025SOL    HW132711   4.176   3.151   5.746 -3.5111 -0.5111  0.9176
 7025SOL    HW232712   4.275   3.204   5.831 -0.3337  1.3205  2.4387
 7026SOL     OW32713   2.621   0.453  11.550  0.1801  0.0281  0.5371
 7026SOL    HW132714   2.594   0.488  11.635 -0.6624  2.9739 -0.9536
 7026SOL    HW232715   2.711   0.485  11.544  0.1042  0.2890  0.7823
 7027SOL     OW32716   4.046   1.784   4.044 -0.2561 -0.4709 -0.1243
 7027SOL    HW132717   3.990   1.727   3.992  1.2781 -1.2763 -0.9051
 7027SOL    HW232718   4.103   1.724   4.092  0.1049 -1.5521 -1.9216
 7028SOL     OW32719   3.585   4.344   1.064  0.3537 -0.0585 -0.4698
 7028SOL    HW132720   3.572   4.437   1.084  1.0524 -0.4973  1.9927
 7028SOL    HW232721   3.678   4.352   1.042  0.2927 -0.7029 -0.9668
 7029SOL     OW32722   1.448   0.370   5.346 -0.3760  0.1810  0.1320
 7029SOL    HW132723   1.535   0.403   5.366  0.3711 -1.1960 -0.8275
 7029SOL    HW232724   1.390   0.431   5.392  0.6261  0.4236  1.0683
 7030SOL     OW32725   1.360   2.656   9.297  0.1502  0.2084 -0.3295
 7030SOL    HW132726   1.312   2.605   9.231  2.4625 -1.3794 -0.7928
 7030SOL    HW232727   1.353   2.591   9.367 -1.1285 -0.3512 -0.9675
 7031SOL     OW32728   3.979   2.932   2.423  0.2348 -0.8977  0.3191
 7031SOL    HW132729   4.020   2.886   2.349 -0.5944 -0.0953 -0.6311
 7031SOL    HW232730   4.031   3.012   2.417 -1.8477  0.4140 -0.0624
 7032SOL     OW32731   2.249   2.509  10.052 -0.3950 -0.1563 -0.2685
 7032SOL    HW132732   2.307   2.433  10.045  0.3495  0.2962  0.9517
 7032SOL    HW232733   2.266   2.552   9.968  2.3479 -1.0977 -0.2255
 7033SOL     OW32734   3.416   1.994  12.530  0.0035  0.1046  0.1162
 7033SOL    HW132735   3.512   2.002  12.523  0.2764 -0.4379  3.3780
 7033SOL    HW232736   3.403   1.944  12.610  1.5084 -3.3173 -1.7506
 7034SOL     OW32737   2.528   0.263   6.628 -0.2137 -0.2106 -0.0518
 7034SOL    HW132738   2.482   0.344   6.651 -0.6688 -0.1309 -1.2257
 7034SOL    HW232739   2.590   0.301   6.567  1.2432  2.4967  3.1099
 7035SOL     OW32740   0.029   3.160   4.493  0.1805 -0.0735 -0.3768
 7035SOL    HW132741   0.068   3.190   4.410 -1.0111 -1.0908 -1.3101
 7035SOL    HW232742   0.100   3.185   4.552  0.2414 -3.5764  1.0481
 7036SOL     OW32743   3.265   2.812   1.225  0.0085  0.3227  0.1817
 7036SOL    HW132744   3.351   2.770   1.228 -0.4948 -0.7334 -0.0092
 7036SOL    HW232745   3.287   2.905   1.226  1.5404 -0.0445  0.7868
 7037SOL     OW32746   1.853   0.397   6.731 -0.3463 -0.1145  0.3325
 7037SOL    HW132747   1.946   0.398   6.752  0.3367 -0.2657 -2.7460
 7037SOL    HW232748   1.847   0.481   6.685 -0.4255  0.0132  0.5716
 7038SOL     OW32749   4.243   0.275   1.657 -0.1392 -0.2653 -0.2388
 7038SOL    HW132750   4.259   0.275   1.752 -1.0753  0.2714 -0.0833
 7038SOL    HW232751   4.328   0.242   1.630 -0.4795  0.5131 -2.2264
 7039SOL     OW32752   0.462   1.293   7.825  0.1405  0.1491  0.1080
 7039SOL    HW132753   0.544   1.336   7.802 -1.2644  3.0221  0.4127
 7039SOL    HW232754   0.411   1.320   7.748  2.4408 -1.3840 -1.9407
 7040SOL     OW32755   3.963   1.400   8.544  0.4745  0.0781 -0.7491
 7040SOL    HW132756   4.023   1.475   8.536 -0.3047  0.7828  0.0967
 7040SOL    HW232757   3.885   1.436   8.585  0.6515 -1.7185  1.1180
 7041SOL     OW32758   1.710   2.198  10.272 -0.2369 -0.4084 -0.4621
 7041SOL    HW132759   1.701   2.123  10.213 -1.4871 -1.5933  1.2318
 7041SOL    HW232760   1.760   2.154  10.340  1.0781 -0.4534 -1.4686
 7042SOL     OW32761   4.393   4.528   5.390  0.0651  0.1497 -0.1489
 7042SOL    HW132762   4.390   4.439   5.355 -2.1732  0.0769  0.2273
 7042SOL    HW232763   4.454   4.517   5.462 -1.3822 -1.1166  0.8787
 7043SOL     OW32764   4.647   3.472   2.874  0.4873 -0.1049 -0.2949
 7043SOL    HW132765   4.673   3.522   2.796 -0.1648 -3.2010 -2.4723
 7043SOL    HW232766   4.564   3.431   2.852 -0.3111  0.7289  1.1942
 7044SOL     OW32767   4.120   2.177   4.561  0.0206  0.0600  0.1844
 7044SOL    HW132768   4.097   2.174   4.654  1.9814  2.2541  0.7353
 7044SOL    HW232769   4.169   2.259   4.563 -1.7665  1.1473 -0.8771
 7045SOL     OW32770   4.256   0.522   4.994  0.1461  0.8289  0.0439
 7045SOL    HW132771   4.328   0.527   5.057 -1.1969 -1.2551  1.7525
 7045SOL    HW232772   4.305   0.523   4.912  2.2831 -0.0889  1.2943
 7046SOL     OW32773   0.353   1.868  12.901 -0.1766 -0.5059 -0.4714
 7046SOL    HW132774   0.280   1.929  12.902 -0.3653 -0.7682  1.1119
 7046SOL    HW232775   0.395   1.884  12.816 -2.6658 -0.3509 -1.6630
 7047SOL     OW32776   3.287   1.814   6.236 -0.0521 -0.5907  0.1396
 7047SOL    HW132777   3.317   1.771   6.156  0.6195 -0.2965  0.2358
 7047SOL    HW232778   3.369   1.854   6.264 -1.6219  1.3900  1.8694
 7048SOL     OW32779   3.339   0.425   3.604  0.1219  0.1952 -0.0699
 7048SOL    HW132780   3.330   0.520   3.616  0.2252  0.4115 -1.6158
 7048SOL    HW232781   3.347   0.396   3.694  1.1134  1.2481  0.1892
 7049SOL     OW32782   2.977   0.356   9.367 -0.1734  0.6974  0.4565
 7049SOL    HW132783   2.959   0.263   9.375  0.1039  0.6364  0.3772
 7049SOL    HW232784   3.057   0.371   9.316 -1.2152  0.8019 -1.1260
 7050SOL     OW32785   0.693   3.809   8.394  0.0775  0.2605 -0.0917
 7050SOL    HW132786   0.774   3.783   8.350  2.1885  1.0405  3.3135
 7050SOL    HW232787   0.635   3.837   8.324  0.1843  2.9091  0.8811
 7051SOL     OW32788   0.280   0.889   1.252 -0.2778 -0.1833 -0.0523
 7051SOL    HW132789   0.218   0.822   1.279 -2.1947  2.1982  1.3550
 7051SOL    HW232790   0.240   0.969   1.284  1.7938  0.6995  0.3407
 7052SOL     OW32791   3.658   4.447   2.304 -0.5439 -0.0041 -0.4673
 7052SOL    HW132792   3.646   4.371   2.361  1.4815  0.3162  0.4045
 7052SOL    HW232793   3.639   4.527   2.352  0.5839  0.6592 -1.0997
 7053SOL     OW32794   2.019   1.262   9.930  0.1228  0.1236 -0.1681
 7053SOL    HW132795   1.925   1.277   9.940 -0.1399 -1.0427 -0.9342
 7053SOL    HW232796   2.053   1.289  10.016 -0.4107  2.3228 -0.6382
 7054SOL     OW32797   0.647   2.863   9.811 -0.2575 -0.4293 -0.0790
 7054SOL    HW132798   0.556   2.867   9.843 -0.0510 -1.2526  0.6165
 7054SOL    HW232799   0.695   2.933   9.856 -1.6678  0.9963 -0.7902
 7055SOL     OW32800   2.635   1.960   0.646 -0.5268  0.3630  0.1101
 7055SOL    HW132801   2.650   2.018   0.572  0.8404  1.5196  1.2864
 7055SOL    HW232802   2.724   1.952   0.680 -0.1262  1.8065 -0.5871
 7056SOL     OW32803   0.471   2.541  14.716 -0.8298 -0.6886  0.4530
 7056SOL    HW132804   0.459   2.589  14.634 -0.3262 -0.8010  0.3143
 7056SOL    HW232805   0.410   2.468  14.708 -1.0219 -0.6826  1.7929
 7057SOL     OW32806   3.554   2.454   3.072  0.2473 -0.3202 -0.5808
 7057SOL    HW132807   3.547   2.510   2.995 -1.2757 -1.6113 -1.3618
 7057SOL    HW232808   3.529   2.520   3.137 -1.1874 -2.0906  0.6766
 7058SOL     OW32809   4.673   4.122   9.887  0.2336 -0.4612 -0.3852
 7058SOL    HW132810   4.686   4.062   9.960  2.5822 -1.3594 -1.5167
 7058SOL    HW232811   4.611   4.182   9.926 -0.1144 -0.1693 -1.4011
 7059SOL     OW32812   1.314   1.170   3.031 -0.1934  0.3655 -0.4105
 7059SOL    HW132813   1.255   1.125   2.970  2.7361 -1.3841 -2.0116
 7059SOL    HW232814   1.352   1.093   3.073 -2.6168 -0.3857  0.3934
 7060SOL     OW32815   1.323   0.750   7.950 -0.1070  0.5352  0.6296
 7060SOL    HW132816   1.417   0.762   7.938  0.1165 -1.8524  0.0036
 7060SOL    HW232817   1.308   0.754   8.044 -0.6865  0.9877  0.5182
 7061SOL     OW32818   3.785   1.557  15.239  0.0062  0.3576  0.7283
 7061SOL    HW132819   3.797   1.652  15.236 -0.3865  0.3019 -1.9987
 7061SOL    HW232820   3.719   1.545  15.171  0.1780  0.4839  0.5379
 7062SOL     OW32821   0.236   1.675   0.574  0.2689  0.0327  0.4436
 7062SOL    HW132822   0.157   1.705   0.619 -1.2455 -1.9977 -0.8562
 7062SOL    HW232823   0.301   1.663   0.643 -0.2177 -0.4591  0.8254
 7063SOL     OW32824   3.487   0.824  16.052 -0.0632  0.6023  0.1581
 7063SOL    HW132825   3.456   0.913  16.066  1.2847  0.7797  1.9999
 7063SOL    HW232826   3.457   0.782  16.133  2.5873 -0.4730  0.5626
 7064SOL     OW32827   1.165   0.036   2.350  0.1848 -0.4661  0.2888
 7064SOL    HW132828   1.149   0.048   2.256 -1.0932 -0.5598  0.4955
 7064SOL    HW232829   1.227   4.699   2.358  3.7218  2.4351 -0.8756
 7065SOL     OW32830   2.930   1.808   3.029 -0.0564  0.5512  0.3340
 7065SOL    HW132831   2.946   1.713   3.030 -0.4093  0.4920 -0.4612
 7065SOL    HW232832   2.909   1.826   2.938 -0.8277  0.4982  0.5069
 7066SOL     OW32833   4.509   0.036  14.902 -0.2609 -1.0045 -0.2777
 7066SOL    HW132834   4.418   0.068  14.905  0.8181  1.8473  2.7509
 7066SOL    HW232835   4.534   0.064  14.815  1.2446  2.4281  1.2575
 7067SOL     OW32836   0.956   4.655   0.603  0.2503 -0.8043  0.0546
 7067SOL    HW132837   0.884   4.666   0.542  2.6347  0.6156 -2.5243
 7067SOL    HW232838   1.037   4.640   0.554  1.3402  0.5379  1.3888
 7068SOL     OW32839   3.725   2.505  11.923 -0.1702  0.0999  0.5258
 7068SOL    HW132840   3.674   2.451  11.983 -0.1552  1.0684  1.4188
 7068SOL    HW232841   3.787   2.448  11.878 -0.7644 -0.5590  0.5453
 7069SOL     OW32842   2.594   3.387   5.237  0.2817 -0.2889  0.1290
 7069SOL    HW132843   2.567   3.451   5.171  1.1797  0.2391  0.2716
 7069SOL    HW232844   2.518   3.373   5.294 -1.4613  1.6587 -1.7229
 7070SOL     OW32845   0.222   2.252   7.426 -0.0528  0.5487 -0.0454
 7070SOL    HW132846   0.212   2.303   7.346 -0.7087 -0.4536 -0.6053
 7070SOL    HW232847   0.189   2.315   7.490  1.7238 -0.6507  2.0485
 7071SOL     OW32848   2.846   3.482  11.643 -0.4393  0.1997  0.0292
 7071SOL    HW132849   2.805   3.398  11.666  1.0092 -0.9711 -1.6884
 7071SOL    HW232850   2.770   3.538  11.629 -0.9457  0.1603  2.7258
 7072SOL     OW32851   0.191   1.487   7.792  0.2754  0.9648 -0.4343
 7072SOL    HW132852   0.154   1.563   7.747 -1.9718 -0.0708 -0.3240
 7072SOL    HW232853   0.269   1.530   7.828  0.8787  0.4114 -1.0922
 7073SOL     OW32854   3.944   0.529   4.326  0.1435 -0.2529  0.4536
 7073SOL    HW132855   3.854   0.552   4.305  0.0185  0.7380  2.0230
 7073SOL    HW232856   3.915   0.457   4.383  0.6638 -1.8807 -1.3397
 7074SOL     OW32857   0.753   3.430   6.491  0.4042 -0.1367 -0.2017
 7074SOL    HW132858   0.788   3.514   6.462  1.2278 -0.8615 -1.3096
 7074SOL    HW232859   0.662   3.434   6.464  0.7999  1.9154 -1.1501
 7075SOL     OW32860   4.541   1.264  10.393  0.4239 -0.5270  0.2184
 7075SOL    HW132861   4.570   1.329  10.457 -2.1142 -0.5731  1.4133
 7075SOL    HW232862   4.559   1.322  10.320 -1.3158 -1.0568 -0.6169
 7076SOL     OW32863   4.256   1.687  16.417 -0.7681  0.1766  0.4278
 7076SOL    HW132864   4.350   1.704  16.418 -0.2758 -2.6275  1.2042
 7076SOL    HW232865   4.247   1.642  16.501 -2.2255 -3.4507 -1.6753
 7077SOL     OW32866   2.668   0.717   2.856  0.3641  0.4720  0.3256
 7077SOL    HW132867   2.731   0.776   2.897 -1.3266  1.5349  1.4028
 7077SOL    HW232868   2.726   0.642   2.845  1.4240  1.5086 -1.2050
 7078SOL     OW32869   3.458   4.136   5.179 -0.1505 -0.7405 -0.4429
 7078SOL    HW132870   3.471   4.093   5.094  0.3797 -0.5875 -0.4396
 7078SOL    HW232871   3.545   4.124   5.217 -0.6387  0.0844  0.9203
 7079SOL     OW32872   3.710   4.407   6.462  0.5478  0.4227 -0.0337
 7079SOL    HW132873   3.717   4.352   6.384  1.8184 -0.1749  0.5065
 7079SOL    HW232874   3.654   4.351   6.515 -0.5908  1.6077  0.0239
 7080SOL     OW32875   0.778   3.133   0.612  0.2085  0.0864  0.3844
 7080SOL    HW132876   0.835   3.210   0.611  2.2323 -1.4474 -3.1547
 7080SOL    HW232877   0.835   3.061   0.640 -0.7104  0.0204  2.0618
 7081SOL     OW32878   1.819   2.687   9.875 -0.2095  0.4671 -0.2299
 7081SOL    HW132879   1.750   2.747   9.848 -0.8147 -1.3216 -2.6411
 7081SOL    HW232880   1.771   2.605   9.891  2.1783 -0.7866  0.5056
 7082SOL     OW32881   4.157   2.835  14.453 -0.2562  0.0886 -0.2085
 7082SOL    HW132882   4.239   2.838  14.503 -0.5424  0.6632  0.2245
 7082SOL    HW232883   4.198   2.845  14.367 -0.7246  0.2121 -0.4190
 7083SOL     OW32884   3.853   1.235   6.638 -0.3822 -0.7428 -0.0671
 7083SOL    HW132885   3.899   1.200   6.715  0.1008 -1.8332 -0.8379
 7083SOL    HW232886   3.838   1.325   6.667 -1.6918 -1.8152  2.5806
 7084SOL     OW32887   1.896   0.979   0.769  0.6350  0.0447  0.4258
 7084SOL    HW132888   1.896   0.903   0.711 -0.8790  0.7421 -0.4814
 7084SOL    HW232889   1.911   0.938   0.854 -1.2030 -0.7868  0.3350
 7085SOL     OW32890   0.555   4.466  13.863  0.0833  0.2421 -0.1547
 7085SOL    HW132891   0.569   4.550  13.907  0.7570 -0.8941  1.7898
 7085SOL    HW232892   0.529   4.493  13.775 -2.3927 -1.4970  0.0392
 7086SOL     OW32893   1.994   0.921   7.904 -0.7516 -0.3282  0.5965
 7086SOL    HW132894   2.012   0.854   7.837 -1.5649 -0.9815  1.0299
 7086SOL    HW232895   1.978   0.996   7.847  0.5674 -0.0443  0.6107
 7087SOL     OW32896   0.512   4.204   5.164 -0.2071  0.2971 -0.4156
 7087SOL    HW132897   0.604   4.224   5.146 -0.2509  3.1996  2.5730
 7087SOL    HW232898   0.521   4.134   5.228  1.7890  0.0852 -0.9227
 7088SOL     OW32899   1.911   3.288   8.311 -0.1141 -0.5738  0.1624
 7088SOL    HW132900   1.909   3.203   8.267  3.4630 -0.6653  0.1649
 7088SOL    HW232901   1.927   3.338   8.231  0.9968 -1.0997  0.0581
 7089SOL     OW32902   0.396   2.151   3.055  0.0377 -0.0748  0.5996
 7089SOL    HW132903   0.391   2.100   2.974  0.0383 -0.7950  1.0533
 7089SOL    HW232904   0.420   2.225   2.999 -1.5864 -1.4752 -1.9784
 7090SOL     OW32905   1.247   4.502   5.861 -0.0918 -0.1146  0.0235
 7090SOL    HW132906   1.171   4.490   5.917  0.7442 -0.5169  1.0518
 7090SOL    HW232907   1.284   4.414   5.855  0.4894  0.2255 -1.5290
 7091SOL     OW32908   0.704   2.507  10.741  0.1587 -0.3879 -0.2443
 7091SOL    HW132909   0.670   2.440  10.799  1.7783 -1.2998 -0.3777
 7091SOL    HW232910   0.620   2.536  10.704 -0.0346 -1.2072 -0.4362
 7092SOL     OW32911   2.915   4.077  16.801  0.0183  0.5124 -0.6629
 7092SOL    HW132912   2.874   4.004  16.755  0.0679  0.0628  0.0078
 7092SOL    HW232913   2.908   4.155  16.746  2.5528 -0.6956 -2.6462
 7093SOL     OW32914   1.547   3.404   4.681 -0.4770  0.7991 -0.1331
 7093SOL    HW132915   1.581   3.477   4.631 -3.1747  0.6971 -2.1446
 7093SOL    HW232916   1.600   3.342   4.631 -2.1042  1.0171 -2.1330
 7094SOL     OW32917   1.143   3.866   3.368  0.1971  0.0013 -0.3405
 7094SOL    HW132918   1.160   3.824   3.284  1.5203 -1.6615  0.7541
 7094SOL    HW232919   1.201   3.817   3.426  1.5394  0.5404 -1.2212
 7095SOL     OW32920   2.003   0.971  13.095  0.2465  0.7941  0.0492
 7095SOL    HW132921   2.032   1.024  13.169  0.9543 -0.9982  1.0526
 7095SOL    HW232922   2.012   0.881  13.129  1.1048  0.7146 -0.4012
 7096SOL     OW32923   3.962   2.939   4.569 -0.2050 -0.2705 -0.6329
 7096SOL    HW132924   3.983   2.911   4.480  2.0865  1.7104 -0.7222
 7096SOL    HW232925   4.052   2.939   4.601 -0.9179 -1.9481  1.4166
 7097SOL     OW32926   0.609   2.189   6.658  0.4733 -0.1257  0.8563
 7097SOL    HW132927   0.553   2.163   6.585  1.2262  1.9072 -0.4580
 7097SOL    HW232928   0.694   2.169   6.618  0.9584  0.0430  1.8021
 7098SOL     OW32929   2.454   0.642   2.579  0.5626 -0.0505 -0.2420
 7098SOL    HW132930   2.396   0.578   2.619 -1.7360  1.2399 -1.5092
 7098SOL    HW232931   2.537   0.594   2.578 -0.1116 -1.1831 -0.4580
 7099SOL     OW32932   3.208   2.594   6.118 -0.1717 -0.2879  0.0552
 7099SOL    HW132933   3.216   2.572   6.025  0.8948 -1.9961  0.5307
 7099SOL    HW232934   3.224   2.513   6.166 -0.4951 -0.2329  0.2545
 7100SOL     OW32935   3.494   3.355   7.812 -0.2021 -0.4401 -0.0309
 7100SOL    HW132936   3.496   3.372   7.718  1.0135 -0.6686 -0.0505
 7100SOL    HW232937   3.407   3.391   7.832 -0.4688 -1.3327  0.4129
 7101SOL     OW32938   3.896   3.377  14.808  0.4300  0.2640 -0.1017
 7101SOL    HW132939   3.959   3.313  14.776 -1.5306 -2.2646  1.0611
 7101SOL    HW232940   3.868   3.410  14.722  2.2381 -2.6252 -1.8041
 7102SOL     OW32941   2.969   1.957   6.844 -0.0401 -0.2542 -0.0166
 7102SOL    HW132942   2.983   2.015   6.769 -0.9467  0.1279  0.1141
 7102SOL    HW232943   2.950   2.019   6.915 -0.6315  0.1358 -0.5215
 7103SOL     OW32944   3.507   3.306   0.783  0.1650 -0.1985  0.2122
 7103SOL    HW132945   3.572   3.358   0.829 -1.3261 -1.2479  3.5261
 7103SOL    HW232946   3.524   3.336   0.694 -1.6939  1.2226  0.3321
 7104SOL     OW32947   1.062   0.009  12.017 -0.1082  0.0515 -0.2039
 7104SOL    HW132948   0.993   0.073  12.033  1.2008  1.6896 -1.1143
 7104SOL    HW232949   1.099   4.728  12.104  1.1618  1.6945 -0.4256
 7105SOL     OW32950   3.111   0.081   6.704  0.1307 -0.6398  0.3577
 7105SOL    HW132951   3.101   4.723   6.686  0.4500 -0.4157 -0.9598
 7105SOL    HW232952   3.038   0.125   6.662  0.4271 -0.0818  0.4236
 7106SOL     OW32953   0.993   3.107  14.848 -0.3377  0.0158  0.2457
 7106SOL    HW132954   1.071   3.123  14.795  0.0714 -0.3453  0.7428
 7106SOL    HW232955   0.936   3.069  14.782 -1.0761  0.9198  0.3607
 7107SOL     OW32956   2.746   3.282   7.456  0.1485 -0.1139 -0.3528
 7107SOL    HW132957   2.769   3.334   7.533  1.0747 -1.6597  0.4118
 7107SOL    HW232958   2.691   3.214   7.494 -0.2975  0.5911  0.2637
 7108SOL     OW32959   3.954   2.521   2.390  0.3155  0.6088 -0.2231
 7108SOL    HW132960   4.002   2.538   2.309 -0.6310  1.0058 -0.6987
 7108SOL    HW232961   3.863   2.513   2.363  0.3720  1.3844 -0.6660
 7109SOL     OW32962   1.599   3.647   9.849 -0.2275 -0.3237  0.4374
 7109SOL    HW132963   1.526   3.644   9.911  0.1798 -1.3659  0.8591
 7109SOL    HW232964   1.564   3.692   9.773 -1.0226 -0.5217  0.6891
 7110SOL     OW32965   2.886   1.145   0.708 -0.4813  0.1965  0.2046
 7110SOL    HW132966   2.826   1.076   0.736 -0.5332  0.0203 -0.3443
 7110SOL    HW232967   2.903   1.113   0.620 -2.8669 -1.7906  0.4722
 7111SOL     OW32968   2.132   0.066   6.678  0.3853  0.2030  0.2085
 7111SOL    HW132969   2.186   4.735   6.721  0.9146  0.4244 -0.1194
 7111SOL    HW232970   2.192   0.104   6.615  1.6817 -1.6278  0.3371
 7112SOL     OW32971   1.662   2.288   4.174  0.8457 -0.0431 -0.3101
 7112SOL    HW132972   1.607   2.342   4.231 -0.1818 -1.2761 -0.1420
 7112SOL    HW232973   1.738   2.275   4.231  0.8116  0.4979 -0.1418
 7113SOL     OW32974   1.562   1.998   9.001  0.0716 -0.2815 -0.1617
 7113SOL    HW132975   1.525   2.010   9.088  1.7040  0.1941  0.4819
 7113SOL    HW232976   1.540   2.081   8.960  1.1567 -0.4188 -1.0238
 7114SOL     OW32977   1.892   1.564   7.893  0.0899 -0.1422 -0.1974
 7114SOL    HW132978   1.950   1.488   7.901  0.0524 -0.3566 -2.0807
 7114SOL    HW232979   1.923   1.603   7.812  0.8397 -0.9361 -0.2906
 7115SOL     OW32980   1.994   2.440   4.352  0.0633  0.4697  0.5823
 7115SOL    HW132981   1.909   2.449   4.393  0.2540 -1.4153  1.3730
 7115SOL    HW232982   1.984   2.491   4.271 -0.9330 -2.4161 -1.1209
 7116SOL     OW32983   1.862   1.220   5.505 -0.1861 -0.6180 -0.1843
 7116SOL    HW132984   1.890   1.163   5.576 -1.9138 -1.5947 -0.2880
 7116SOL    HW232985   1.768   1.212   5.521 -0.3253 -1.0025 -1.1707
 7117SOL     OW32986   0.564   3.230   6.951 -0.5533  0.1401 -0.0674
 7117SOL    HW132987   0.608   3.315   6.955 -0.4128  0.0341  0.5563
 7117SOL    HW232988   0.608   3.187   7.024  3.0752  3.1514 -0.4777
 7118SOL     OW32989   2.336   4.051   3.140 -0.0551 -0.3029 -0.3209
 7118SOL    HW132990   2.252   4.088   3.168  1.3204 -0.7371  4.4008
 7118SOL    HW232991   2.363   4.020   3.227  1.5904  3.3245  0.4220
 7119SOL     OW32992   2.019   2.783   2.653 -0.4642 -0.1292 -1.0598
 7119SOL    HW132993   1.977   2.867   2.671  0.8835  0.0036  1.3794
 7119SOL    HW232994   2.052   2.779   2.742 -0.2547  1.1388 -1.0761
 7120SOL     OW32995   3.916   2.676   1.387 -0.2600 -0.1845 -0.0841
 7120SOL    HW132996   3.975   2.602   1.402  1.2425  1.1218  0.5885
 7120SOL    HW232997   3.983   2.744   1.376 -0.8621 -0.2013 -3.6473
 7121SOL     OW32998   4.134   0.677   5.552 -0.0007 -0.4916 -0.3897
 7121SOL    HW132999   4.092   0.594   5.576  1.1192 -0.1981  2.6599
 7121SOL    HW233000   4.133   0.679   5.456 -1.2559  0.5906 -0.3518
 7122SOL     OW33001   3.932   2.209  15.025 -0.1901  0.2064  0.0107
 7122SOL    HW133002   3.872   2.281  15.002 -2.3199 -0.9326  2.0015
 7122SOL    HW233003   3.869   2.146  15.061 -0.2561 -0.0340 -0.5240
 7123SOL     OW33004   1.670   1.970   3.956 -0.4614  0.2594  0.1436
 7123SOL    HW133005   1.763   1.959   3.975 -0.1843  0.7810 -0.9061
 7123SOL    HW233006   1.678   2.029   3.881 -0.1217 -0.7375 -0.6002
 7124SOL     OW33007   3.161   1.144   9.115  0.0547 -0.4579  0.2829
 7124SOL    HW133008   3.092   1.120   9.178 -0.8565 -1.5675 -1.1521
 7124SOL    HW233009   3.222   1.075   9.142  0.6368 -0.2470 -0.5083
 7125SOL     OW33010   2.615   4.244   8.029  0.0825 -0.0224  0.2995
 7125SOL    HW133011   2.703   4.276   8.045 -0.7994  2.0054  1.1306
 7125SOL    HW233012   2.598   4.172   8.089  0.1699 -0.0017  0.3488
 7126SOL     OW33013   1.633   2.477   9.833 -0.8356  0.8969 -0.3392
 7126SOL    HW133014   1.554   2.521   9.862 -1.2811  0.4321 -0.8590
 7126SOL    HW233015   1.639   2.393   9.878  0.6369  1.2899  0.2212
 7127SOL     OW33016   0.389   3.951  13.145  0.9432 -0.0379 -0.5883
 7127SOL    HW133017   0.448   3.936  13.072 -1.9544 -1.6344 -2.6145
 7127SOL    HW233018   0.346   4.028  13.107 -1.4059 -1.1630 -0.1949
 7128SOL     OW33019   4.018   3.846   7.583 -0.0632  0.3296  0.0231
 7128SOL    HW133020   4.033   3.795   7.503  1.0149  1.8631 -0.7468
 7128SOL    HW233021   3.924   3.830   7.597 -0.2469  1.4065  0.0096
 7129SOL     OW33022   1.853   1.715   2.669  0.0143  0.1335  0.3130
 7129SOL    HW133023   1.919   1.703   2.601  0.4972  1.2395  0.5865
 7129SOL    HW233024   1.805   1.791   2.635  1.1518  0.9089  0.4395
 7130SOL     OW33025   3.590   0.738   7.472  0.1051 -0.3700 -0.2333
 7130SOL    HW133026   3.514   0.701   7.516  1.9561 -2.3938  1.2931
 7130SOL    HW233027   3.609   0.672   7.405 -1.1379 -1.3228  0.3644
 7131SOL     OW33028   0.153   0.891   7.085  0.8487  0.3559  0.9300
 7131SOL    HW133029   0.245   0.882   7.059  0.3742 -0.0287 -0.6622
 7131SOL    HW233030   0.102   0.851   7.014  1.2849 -0.8045  1.2667
 7132SOL     OW33031   2.053   2.457   8.813  0.1973 -0.0117  0.1604
 7132SOL    HW133032   2.007   2.392   8.865  2.2466  0.5791  2.7304
 7132SOL    HW233033   2.059   2.528   8.878 -1.6114  1.1198 -0.9061
 7133SOL     OW33034   1.963   1.666   8.123 -0.1532  0.0276  0.6100
 7133SOL    HW133035   1.982   1.578   8.155 -1.8854 -0.8690 -0.8102
 7133SOL    HW233036   1.924   1.639   8.040  0.9169  2.4053 -0.6858
 7134SOL     OW33037   3.563   2.701   8.842 -0.3128  0.4100 -0.0260
 7134SOL    HW133038   3.576   2.780   8.893  0.4851 -0.8066  1.6589
 7134SOL    HW233039   3.621   2.641   8.890 -1.1277 -0.8701 -0.6332
 7135SOL     OW33040   2.892   3.799   4.919 -0.3846 -0.9313  0.0022
 7135SOL    HW133041   2.810   3.766   4.881  0.0027 -2.3574  0.3921
 7135SOL    HW233042   2.930   3.720   4.958 -1.4858 -0.8098  1.3093
 7136SOL     OW33043   0.156   0.444   9.541  0.2542 -0.0007 -0.2584
 7136SOL    HW133044   0.067   0.479   9.547  0.5940  1.0808 -1.6763
 7136SOL    HW233045   0.152   0.388   9.464  1.1907  0.4318 -0.6216
 7137SOL     OW33046   2.917   2.374   4.800 -0.4375  0.2672 -0.4192
 7137SOL    HW133047   2.879   2.352   4.715  2.8777 -1.6418 -1.4259
 7137SOL    HW233048   2.864   2.452   4.819  0.4968  1.3480 -2.2853
 7138SOL     OW33049   0.854   2.863  16.834  0.0062 -0.3247  0.9447
 7138SOL    HW133050   0.840   2.776  16.796 -0.9104  0.3968 -0.3774
 7138SOL    HW233051   0.824   2.917  16.761 -0.2144 -0.1354  1.1759
 7139SOL     OW33052   1.699   0.995   5.888 -0.0289  0.0974  0.2530
 7139SOL    HW133053   1.718   0.950   5.805  0.5859  2.5149 -0.9363
 7139SOL    HW233054   1.772   1.058   5.893 -0.1492  0.4796 -2.6606
 7140SOL     OW33055   0.207   3.244  14.413 -0.0298 -0.1013  0.4703
 7140SOL    HW133056   0.284   3.254  14.357  0.7454  1.2509  1.7820
 7140SOL    HW233057   0.232   3.165  14.461 -0.7631  0.1257  1.2243
 7141SOL     OW33058   1.579   3.354   6.687 -0.0671 -0.1538 -0.5039
 7141SOL    HW133059   1.622   3.309   6.759  2.3710  1.2545 -1.0760
 7141SOL    HW233060   1.502   3.382   6.737  0.1482 -0.0343 -0.2443
 7142SOL     OW33061   0.365   4.149   3.410 -0.6857  0.1127  0.4357
 7142SOL    HW133062   0.448   4.134   3.366 -0.1543  1.3270  1.0565
 7142SOL    HW233063   0.374   4.069   3.463  2.8292 -0.7921 -1.5152
 7143SOL     OW33064   2.944   2.582   7.676 -0.8278 -0.3663  0.2350
 7143SOL    HW133065   2.993   2.663   7.663  0.3522 -0.7999  1.9283
 7143SOL    HW233066   2.867   2.618   7.720 -1.0396 -1.4251  0.7290
 7144SOL     OW33067   1.015   2.611   8.789  0.2431 -0.4169 -0.2058
 7144SOL    HW133068   1.041   2.545   8.724 -2.5081 -0.7516 -0.9596
 7144SOL    HW233069   0.948   2.655   8.737 -1.6379 -2.9842  0.0448
 7145SOL     OW33070   3.478   3.727   6.233  0.2137 -0.2281  0.1420
 7145SOL    HW133071   3.473   3.743   6.328  1.6262 -0.7345  0.3049
 7145SOL    HW233072   3.512   3.638   6.228  0.9715  0.0152  0.9421
 7146SOL     OW33073   0.419   0.402  13.790  0.4121  0.6890  0.0757
 7146SOL    HW133074   0.476   0.478  13.783  0.0233  0.8989 -0.7376
 7146SOL    HW233075   0.331   0.442  13.791 -0.1567 -0.5661 -0.0472
 7147SOL     OW33076   1.605   1.646   7.686 -0.2699 -0.4618 -0.2658
 7147SOL    HW133077   1.649   1.712   7.740 -0.9216  0.2064 -0.5378
 7147SOL    HW233078   1.599   1.573   7.747  0.1290  0.5965  1.0496
 7148SOL     OW33079   3.937   1.832   3.346 -0.0574  0.1498 -0.0504
 7148SOL    HW133080   3.932   1.785   3.429 -1.4290 -1.0776 -0.8224
 7148SOL    HW233081   3.848   1.866   3.333  0.5959  1.0056 -2.3731
 7149SOL     OW33082   0.565   4.039   3.839  0.2115 -0.1161  0.8159
 7149SOL    HW133083   0.559   4.074   3.928  0.9602  2.9982 -0.3678
 7149SOL    HW233084   0.580   3.946   3.856 -0.0601 -0.4365 -0.7324
 7150SOL     OW33085   0.597   3.521   6.077  0.4931 -0.0890  0.7849
 7150SOL    HW133086   0.542   3.512   6.000  1.0475 -1.2028  0.5144
 7150SOL    HW233087   0.639   3.606   6.067 -1.7910  0.8955 -0.2546
 7151SOL     OW33088   3.683   1.780   8.781  0.4718  0.4379 -0.8854
 7151SOL    HW133089   3.588   1.766   8.783  0.6328 -0.7262 -1.4651
 7151SOL    HW233090   3.697   1.870   8.809 -1.3066  0.0744  1.1628
 7152SOL     OW33091   0.615   0.486   6.826  0.2280  0.3134  0.5195
 7152SOL    HW133092   0.521   0.469   6.837 -0.3956  1.9980 -2.2392
 7152SOL    HW233093   0.651   0.520   6.908 -1.9187  0.8756  1.2164
 7153SOL     OW33094   2.748   3.828  16.122 -0.4948  0.2146  0.5170
 7153SOL    HW133095   2.743   3.838  16.217  0.3116 -1.1508  0.6960
 7153SOL    HW233096   2.721   3.913  16.088  0.4129 -0.0077 -0.7482
 7154SOL     OW33097   4.220   1.104   2.205 -0.1137  0.0948  0.4284
 7154SOL    HW133098   4.144   1.081   2.259 -0.3378 -1.8956 -0.7004
 7154SOL    HW233099   4.265   1.020   2.210  1.1851  0.8458  1.0712
 7155SOL     OW33100   0.501   3.932   6.056 -0.2747 -0.0220  0.2630
 7155SOL    HW133101   0.414   3.938   6.096 -0.4987  1.5169 -0.4622
 7155SOL    HW233102   0.481   3.907   5.966  0.2187 -0.5917  0.3073
 7156SOL     OW33103   2.983   4.076   5.795 -0.0987 -0.2118 -0.0787
 7156SOL    HW133104   2.986   4.074   5.700  1.3569  0.7236 -0.0455
 7156SOL    HW233105   2.925   4.152   5.798 -0.4631 -0.5088  0.6616
 7157SOL     OW33106   3.014   1.605   8.830 -0.6295 -0.6410  0.2729
 7157SOL    HW133107   3.059   1.622   8.913 -0.1537  3.4950 -0.8358
 7157SOL    HW233108   3.086   1.555   8.789 -1.1062  1.7427 -3.5211
 7158SOL     OW33109   1.604   3.609  14.139  0.4804 -0.1506 -0.1709
 7158SOL    HW133110   1.509   3.595  14.135  0.1799  1.8552  0.0334
 7158SOL    HW233111   1.636   3.599  14.049  1.1785  1.4016 -0.0884
 7159SOL     OW33112   3.954   3.420   9.253 -0.0601 -0.3134  0.2918
 7159SOL    HW133113   4.004   3.367   9.191 -0.4980 -0.1834 -0.1706
 7159SOL    HW233114   3.958   3.506   9.211  2.2440  0.4507  1.9972
 7160SOL     OW33115   1.606   0.934  11.252 -0.5177 -0.2295 -0.1080
 7160SOL    HW133116   1.606   0.936  11.348  0.1657  0.1796 -0.1172
 7160SOL    HW233117   1.544   1.007  11.241 -1.2342 -0.9711 -1.0050
 7161SOL     OW33118   1.192   1.589   9.138 -1.0187 -0.0979 -0.3661
 7161SOL    HW133119   1.134   1.521   9.104 -2.0654  0.4754  0.2775
 7161SOL    HW233120   1.181   1.575   9.232  0.9974  1.7822  0.1646
 7162SOL     OW33121   3.324   3.504   5.013  0.1706 -0.2453  0.1345
 7162SOL    HW133122   3.414   3.472   5.024  0.0188  0.1227  2.5347
 7162SOL    HW233123   3.280   3.420   5.024 -0.1449 -0.1246 -0.2683
 7163SOL     OW33124   4.448   1.410  17.136  0.4628  0.2032  0.1560
 7163SOL    HW133125   4.425   1.319  17.115  0.3201  0.9201 -2.7561
 7163SOL    HW233126   4.386   1.467  17.090 -0.1792  0.7850  1.7484
 7164SOL     OW33127   4.219   1.099   9.579 -0.0658 -0.1211  0.0847
 7164SOL    HW133128   4.296   1.139   9.621  1.4114 -1.1752 -1.6132
 7164SOL    HW233129   4.170   1.177   9.554 -1.4353 -0.6067  1.2430
 7165SOL     OW33130   3.609   1.454   8.997 -0.0910 -0.0802  0.0562
 7165SOL    HW133131   3.523   1.430   9.031  0.8263 -1.3698  1.4684
 7165SOL    HW233132   3.624   1.382   8.935 -1.4810  0.6326 -1.1031
 7166SOL     OW33133   2.473   4.427   4.343 -0.6949  0.6839  0.4267
 7166SOL    HW133134   2.519   4.511   4.352  0.8071  0.0356 -0.9986
 7166SOL    HW233135   2.391   4.456   4.304  0.3495  1.1897 -1.4253
 7167SOL     OW33136   3.291   2.020   4.572 -0.2748  0.5022  0.3848
 7167SOL    HW133137   3.238   1.960   4.624 -1.6259 -0.2685 -1.8555
 7167SOL    HW233138   3.337   1.952   4.523 -0.5535  0.1349  0.6422
 7168SOL     OW33139   2.804   1.566   3.215 -0.5534  0.1588  0.1213
 7168SOL    HW133140   2.889   1.546   3.254  0.9148  3.2214 -1.4339
 7168SOL    HW233141   2.753   1.615   3.280  1.0016  0.6795  0.9356
 7169SOL     OW33142   2.021   2.954   8.907  0.1655  0.6821  0.3915
 7169SOL    HW133143   1.950   2.891   8.919  0.5713 -0.3407 -2.6373
 7169SOL    HW233144   1.978   3.024   8.859 -0.5129 -1.3047 -1.9161
 7170SOL     OW33145   1.402   1.108  14.560 -0.0444  0.3132  0.2586
 7170SOL    HW133146   1.379   1.037  14.620  0.2856  0.5372  0.6518
 7170SOL    HW233147   1.468   1.057  14.512  0.4932  0.4841  0.8171
 7171SOL     OW33148   4.407   1.495   5.039  0.4700  0.2914 -0.0961
 7171SOL    HW133149   4.328   1.548   5.045  0.0569 -0.5255  1.7049
 7171SOL    HW233150   4.423   1.469   5.129  0.2413  0.3735 -0.0326
 7172SOL     OW33151   0.354   0.664   5.306  0.0191 -0.4974 -0.2188
 7172SOL    HW133152   0.264   0.632   5.301 -0.5642  1.1520 -0.3127
 7172SOL    HW233153   0.350   0.738   5.366 -0.8784 -0.0153 -0.8850
 7173SOL     OW33154   1.037   1.573  13.445 -0.2832 -0.1860 -0.0023
 7173SOL    HW133155   1.054   1.481  13.423  1.4532 -0.1268  1.1367
 7173SOL    HW233156   1.062   1.571  13.537  0.8804  2.2728 -0.2818
 7174SOL     OW33157   0.887   0.013   5.526  0.3272 -0.3156 -0.2202
 7174SOL    HW133158   0.924   4.684   5.466  0.1584 -0.7038  0.0894
 7174SOL    HW233159   0.962   0.072   5.530 -0.1484  0.2374  0.5334
 7175SOL     OW33160   3.598   0.204   2.540 -0.1576  0.2033 -0.3028
 7175SOL    HW133161   3.514   0.233   2.575  0.0836 -2.0460  2.1724
 7175SOL    HW233162   3.660   0.266   2.577 -0.7704  0.1940  0.7440
 7176SOL     OW33163   1.645   1.376   4.550  0.1512  0.3392 -0.5119
 7176SOL    HW133164   1.618   1.327   4.472  1.5428 -1.8526  0.3858
 7176SOL    HW233165   1.707   1.439   4.514 -2.9545  2.3638 -2.2292
 7177SOL     OW33166   4.349   3.635  10.280  0.0750 -0.3389 -0.1388
 7177SOL    HW133167   4.412   3.660  10.213 -0.4718  1.7410  0.1424
 7177SOL    HW233168   4.286   3.707  10.276 -0.5327 -0.7975  1.0343
 7178SOL     OW33169   4.207   2.958  17.042  0.1133 -0.4562 -0.1695
 7178SOL    HW133170   4.275   2.976  16.976  0.8252 -1.0144  0.4179
 7178SOL    HW233171   4.203   2.863  17.036 -1.1477 -0.3276 -1.2995
 7179SOL     OW33172   4.303   1.731   6.960 -0.6695 -0.1345  0.0182
 7179SOL    HW133173   4.225   1.685   6.992 -1.0777 -0.5016 -1.5032
 7179SOL    HW233174   4.299   1.806   7.020  2.1979  1.2029 -1.4717
 7180SOL     OW33175   1.341   2.493   3.449 -0.5231  0.2216  0.1609
 7180SOL    HW133176   1.313   2.561   3.510  0.8156 -0.7469  1.8297
 7180SOL    HW233177   1.377   2.553   3.383  1.1958 -0.7869  0.1736
 7181SOL     OW33178   1.445   2.524   7.035  0.3438 -0.0610  0.1307
 7181SOL    HW133179   1.378   2.456   7.036 -0.2785  0.5753  2.1658
 7181SOL    HW233180   1.445   2.536   6.940  2.5057 -0.5140  0.0876
 7182SOL     OW33181   1.738   0.815   3.219  0.0789 -0.3460  0.9218
 7182SOL    HW133182   1.715   0.903   3.189  1.9555  0.5525  2.1562
 7182SOL    HW233183   1.725   0.775   3.133  0.4977  0.7259  0.3588
 7183SOL     OW33184   4.629   3.913  15.033  0.3712 -0.2433 -0.9025
 7183SOL    HW133185   4.538   3.934  15.057  0.5651 -0.3805 -0.0601
 7183SOL    HW233186   4.626   3.940  14.941 -1.2212  1.0142 -0.4992
 7184SOL     OW33187   1.278   2.149   1.359  0.4169 -0.6862 -0.3268
 7184SOL    HW133188   1.336   2.100   1.417 -1.5809 -0.5732  1.7053
 7184SOL    HW233189   1.311   2.239   1.366  2.7782 -1.5403 -0.5437
 7185SOL     OW33190   1.900   1.174  15.996  0.1848  0.7499  0.7558
 7185SOL    HW133191   1.881   1.093  16.044  1.9424 -1.3681 -2.1292
 7185SOL    HW233192   1.916   1.239  16.064  1.9018  1.5063 -0.3822
 7186SOL     OW33193   2.937   4.043   6.341  0.0642  0.2974 -0.0886
 7186SOL    HW133194   2.936   4.014   6.251  0.6779 -1.1605  0.3818
 7186SOL    HW233195   2.873   4.113   6.328 -1.5589 -0.7892  2.0629
 7187SOL     OW33196   4.260   4.314   2.728 -0.3910  0.2862  0.2949
 7187SOL    HW133197   4.187   4.254   2.722 -1.2572  1.4823 -1.0730
 7187SOL    HW233198   4.329   4.275   2.674 -1.8260 -1.1424 -0.4853
 7188SOL     OW33199   0.120   2.015   5.750 -0.2599  0.1094  0.1583
 7188SOL    HW133200   0.154   1.926   5.756 -1.0709 -0.0684  1.9998
 7188SOL    HW233201   0.119   2.029   5.845  2.0804 -3.2924  0.7146
 7189SOL     OW33202   3.956   1.360   2.213  0.6566 -0.9790  0.5760
 7189SOL    HW133203   3.871   1.405   2.205  0.5508 -1.1843  0.5472
 7189SOL    HW233204   3.922   1.271   2.208  0.8390 -1.0703  0.9655
 7190SOL     OW33205   1.181   2.881   0.433  0.0975  0.3746 -0.8145
 7190SOL    HW133206   1.181   2.789   0.457  0.6051  0.3444 -0.9281
 7190SOL    HW233207   1.161   2.917   0.519 -0.4321 -2.2358  0.1533
 7191SOL     OW33208   1.943   1.989   5.492  0.4191  0.0573  0.7921
 7191SOL    HW133209   1.958   1.984   5.397 -1.4540 -0.7463  0.5331
 7191SOL    HW233210   1.893   2.070   5.503 -1.9357 -1.2547 -0.0968
 7192SOL     OW33211   2.399   3.058   1.732  0.2743  0.0406 -0.2247
 7192SOL    HW133212   2.381   3.093   1.645 -0.1337  1.1225  0.3033
 7192SOL    HW233213   2.375   3.134   1.784 -2.3824 -1.8709  1.3413
 7193SOL     OW33214   4.189   4.369   2.061  0.1752 -0.3984 -0.7443
 7193SOL    HW133215   4.191   4.461   2.037 -0.5874 -0.6135 -1.6504
 7193SOL    HW233216   4.158   4.385   2.150 -1.9334  2.3621 -1.9679
 7194SOL     OW33217   0.490   0.155  12.110 -0.0391  0.4140  0.7091
 7194SOL    HW133218   0.403   0.123  12.132 -0.4394  0.8195 -0.2915
 7194SOL    HW233219   0.521   0.191  12.194 -0.7166 -1.5056  1.7848
 7195SOL     OW33220   2.363   2.915   8.274  0.4423  0.2025  0.8017
 7195SOL    HW133221   2.445   2.916   8.224  1.7407  0.0173  2.8900
 7195SOL    HW233222   2.344   3.009   8.274 -1.3933 -0.1769  1.5431
 7196SOL     OW33223   2.405   2.739   6.253 -0.4000 -0.1883 -0.0748
 7196SOL    HW133224   2.336   2.763   6.192  0.0421 -1.0828 -0.9241
 7196SOL    HW233225   2.449   2.663   6.214  0.5139  0.3652 -0.1485
 7197SOL     OW33226   0.832   4.247   2.367  0.2470 -0.0912 -0.3153
 7197SOL    HW133227   0.774   4.266   2.294  0.5845 -0.2527 -0.6223
 7197SOL    HW233228   0.905   4.307   2.353 -1.4671  1.8423 -0.9113
 7198SOL     OW33229   4.627   1.303   6.205  0.5315  0.2399 -0.4254
 7198SOL    HW133230   4.665   1.390   6.221  1.0506 -0.0377 -0.1581
 7198SOL    HW233231   4.693   1.243   6.240 -2.9724 -2.0053  2.1912
 7199SOL     OW33232   0.457   0.157   6.818 -0.0154  1.0152  0.2441
 7199SOL    HW133233   0.458   0.252   6.810 -3.9312  1.0219 -0.1240
 7199SOL    HW233234   0.548   0.136   6.798 -0.3032  0.1102 -0.1450
 7200SOL     OW33235   3.650   0.397   7.624 -0.5753  0.2837  0.3874
 7200SOL    HW133236   3.723   0.457   7.608  0.3225 -1.5729 -2.4437
 7200SOL    HW233237   3.589   0.420   7.554  0.7508  1.1047 -0.4975
 7201SOL     OW33238   2.914   1.017  16.344 -0.4343 -0.1913 -0.1012
 7201SOL    HW133239   2.826   0.980  16.347 -0.2616 -0.7752 -1.9340
 7201SOL    HW233240   2.959   0.953  16.288 -0.7812  0.5721 -1.2463
 7202SOL     OW33241   0.749   1.438   9.914  0.2609 -0.1720  0.1223
 7202SOL    HW133242   0.718   1.349   9.930  2.7320 -0.9756  0.4194
 7202SOL    HW233243   0.775   1.468  10.001 -0.1285 -2.4050  1.0181
 7203SOL     OW33244   1.954   4.084   8.576  0.4495  0.2125  0.9566
 7203SOL    HW133245   1.939   3.997   8.613  1.0258 -0.8011 -1.1764
 7203SOL    HW233246   1.898   4.136   8.634  1.0625  1.6344  0.2775
 7204SOL     OW33247   3.727   1.503   2.210  0.0850 -0.3429  0.2450
 7204SOL    HW133248   3.647   1.454   2.192  0.9345 -1.7877  0.3795
 7204SOL    HW233249   3.706   1.537   2.296 -0.0418 -2.0968  0.9063
 7205SOL     OW33250   1.705   0.585  16.152  0.5160  0.1257  0.5802
 7205SOL    HW133251   1.763   0.607  16.080 -1.4684 -1.2718 -1.4741
 7205SOL    HW233252   1.619   0.570  16.111  0.5425  2.2371 -0.2362
 7206SOL     OW33253   4.392   1.372   3.721 -0.1730  0.0032 -0.4791
 7206SOL    HW133254   4.473   1.337   3.760 -2.2402 -2.9321  1.1614
 7206SOL    HW233255   4.432   1.443   3.670  0.4220  0.2751  0.3617
 7207SOL     OW33256   2.099   2.534   5.479  0.3697 -0.3496 -0.0051
 7207SOL    HW133257   2.012   2.571   5.489  0.5102 -0.1350  0.4106
 7207SOL    HW233258   2.105   2.478   5.556  0.9256  0.5818  0.6210
 7208SOL     OW33259   0.362   4.277   7.715 -0.0339 -0.2426 -0.5185
 7208SOL    HW133260   0.402   4.213   7.655  0.8750 -0.6009  0.4833
 7208SOL    HW233261   0.406   4.249   7.795 -1.8785 -1.7456 -0.0171
 7209SOL     OW33262   2.541   1.035   1.739  0.3158 -0.0746  0.4734
 7209SOL    HW133263   2.604   1.041   1.667 -0.4284  0.3666 -0.1434
 7209SOL    HW233264   2.535   1.125   1.771  0.5886  0.2442 -0.3681
 7210SOL     OW33265   2.405   1.467  13.051  0.0415 -0.6985 -0.9278
 7210SOL    HW133266   2.412   1.396  13.115  0.4153  0.0531 -0.1376
 7210SOL    HW233267   2.359   1.419  12.982  0.6564 -0.6905 -1.3396
 7211SOL     OW33268   0.539   4.727  13.927 -0.1111 -0.0973  0.6685
 7211SOL    HW133269   0.602   0.050  13.969 -0.8795 -1.0912  3.2196
 7211SOL    HW233270   0.524   0.044  13.848  1.3829 -0.9859 -0.2015
 7212SOL     OW33271   0.990   4.129   4.303 -0.4627 -0.2706  0.3156
 7212SOL    HW133272   0.957   4.049   4.262  0.6194 -0.0398 -0.9870
 7212SOL    HW233273   1.070   4.144   4.254 -0.3255  0.6838  0.8156
 7213SOL     OW33274   4.557   1.143  15.197 -0.2875  0.2506  0.2025
 7213SOL    HW133275   4.626   1.206  15.218  1.8905 -2.0656 -0.0060
 7213SOL    HW233276   4.597   1.064  15.235  1.0442  0.1477 -1.4593
 7214SOL     OW33277   1.721   4.389   2.143 -0.5949  0.1989  0.4087
 7214SOL    HW133278   1.811   4.362   2.125 -0.1194  1.2422  1.2569
 7214SOL    HW233279   1.721   4.371   2.237 -1.4535 -0.5240  0.2740
 7215SOL     OW33280   1.345   3.843   4.598 -0.3074  0.0028  0.3998
 7215SOL    HW133281   1.319   3.919   4.650 -1.0420  0.7781 -1.0949
 7215SOL    HW233282   1.326   3.881   4.512  0.3820 -1.6362 -0.4622
 7216SOL     OW33283   4.092   3.388  11.370  0.0870 -0.0608 -0.1615
 7216SOL    HW133284   4.139   3.331  11.310 -0.2191 -0.5054  0.0230
 7216SOL    HW233285   4.117   3.363  11.458 -1.9896  0.0493  0.4572
 7217SOL     OW33286   4.564   1.328  17.688 -0.4561 -0.1790 -0.2735
 7217SOL    HW133287   4.585   1.279  17.609  2.0632 -2.9501  2.1437
 7217SOL    HW233288   4.480   1.286  17.706 -0.9496  1.3503  0.9536
 7218SOL     OW33289   4.258   3.171   3.840  0.0442 -0.2638  0.4510
 7218SOL    HW133290   4.275   3.174   3.746  1.1891  3.5560  0.8075
 7218SOL    HW233291   4.258   3.077   3.861  0.0468  0.0382  1.7924
 7219SOL     OW33292   2.258   2.818   3.592  0.1888 -0.7116 -0.0630
 7219SOL    HW133293   2.219   2.731   3.594  0.4553 -0.8267  0.2180
 7219SOL    HW233294   2.245   2.844   3.501 -0.0434  0.5451  0.3305
 7220SOL     OW33295   0.738   2.202  10.072  0.0144 -0.1515  0.3988
 7220SOL    HW133296   0.691   2.275  10.033 -0.0871  0.5190  1.7791
 7220SOL    HW233297   0.774   2.242  10.152  1.4218  1.9184 -1.2775
 7221SOL     OW33298   0.000   4.088   0.028  0.8485 -0.3252  0.2575
 7221SOL    HW133299   0.059   4.122  17.701  0.3524  1.6341  0.8201
 7221SOL    HW233300   4.687   4.028  17.711 -1.0442  1.6262 -0.2142
 7222SOL     OW33301   3.043   0.102   5.774 -0.0435 -0.1753  0.6689
 7222SOL    HW133302   3.110   0.036   5.793  0.2815  0.0886  0.4385
 7222SOL    HW233303   3.090   0.177   5.738  0.5762 -0.7524  0.2707
 7223SOL     OW33304   4.608   2.008  12.993  0.0008  0.3089 -0.7494
 7223SOL    HW133305   4.599   1.958  12.912 -3.2527  0.1599 -0.2911
 7223SOL    HW233306   4.576   1.944  13.056  1.6660 -0.0564 -0.2533
 7224SOL     OW33307   4.272   1.639  16.699 -0.4286 -0.4217  0.0126
 7224SOL    HW133308   4.360   1.667  16.723 -1.0559  2.3851 -0.9661
 7224SOL    HW233309   4.217   1.699  16.750  0.5209  0.3369  0.1329
 7225SOL     OW33310   4.713   0.321   3.570  0.5551 -0.6983 -0.1267
 7225SOL    HW133311   0.040   0.269   3.519  3.2449  1.0134  1.4284
 7225SOL    HW233312   4.641   0.327   3.507  0.7363  2.5025 -0.0180
 7226SOL     OW33313   3.151   2.249  12.756  0.5452  0.7394  0.0797
 7226SOL    HW133314   3.232   2.223  12.802  0.9208 -0.2208 -1.1268
 7226SOL    HW233315   3.111   2.162  12.746  1.5658  0.3398 -0.5635
 7227SOL     OW33316   2.945   2.535   1.820  0.0801  0.1873  0.6310
 7227SOL    HW133317   2.896   2.524   1.901 -0.7337 -0.7625  0.0088
 7227SOL    HW233318   3.022   2.486   1.849  0.7764 -0.1087 -1.7086
 7228SOL     OW33319   3.112   0.241  14.383  0.2753  0.0142 -0.0818
 7228SOL    HW133320   3.113   0.184  14.460  0.2845  0.8154  0.5167
 7228SOL    HW233321   3.172   0.307  14.419 -0.1858 -0.4551  1.5269
 7229SOL     OW33322   0.480   1.105   6.880  0.1003 -0.4617  0.3350
 7229SOL    HW133323   0.550   1.059   6.833  1.3206  1.8652 -0.1359
 7229SOL    HW233324   0.539   1.155   6.936  0.3172 -0.2148 -0.1129
 7230SOL     OW33325   1.604   1.796   4.701 -0.4226 -0.2538 -0.6436
 7230SOL    HW133326   1.679   1.737   4.710 -0.6137 -0.0715  1.9274
 7230SOL    HW233327   1.534   1.737   4.674  0.5640 -1.0120 -1.5421
 7231SOL     OW33328   2.585   2.427   0.942  0.0900  0.3938  1.0437
 7231SOL    HW133329   2.569   2.337   0.911 -2.4252  1.1163  0.2280
 7231SOL    HW233330   2.497   2.455   0.917  0.3235  1.6919  1.6817
 7232SOL     OW33331   1.111   2.406   3.798 -0.2903  0.5385  0.0962
 7232SOL    HW133332   1.047   2.358   3.746  1.8089 -0.4522 -1.5678
 7232SOL    HW233333   1.172   2.337   3.823  0.5268  0.5234 -1.8954
 7233SOL     OW33334   0.268   0.905   5.851  0.2350  0.2083 -0.1739
 7233SOL    HW133335   0.305   0.847   5.785 -0.3455 -0.2391 -0.1101
 7233SOL    HW233336   0.233   0.974   5.795 -0.7328 -0.4718 -0.4249
 7234SOL     OW33337   3.512   2.576   4.470  0.1584  0.5023  0.1250
 7234SOL    HW133338   3.592   2.533   4.501  0.4417  1.1293  0.2655
 7234SOL    HW233339   3.536   2.664   4.496  1.2686 -0.3581  2.0114
 7235SOL     OW33340   0.515   0.842   0.114 -0.0502 -0.5022 -0.1586
 7235SOL    HW133341   0.445   0.810   0.058  1.6604 -2.2622 -1.2908
 7235SOL    HW233342   0.493   0.931   0.142 -0.6031 -0.5987 -0.2925
 7236SOL     OW33343   2.126   1.401   1.451  0.4734 -0.0928 -0.1733
 7236SOL    HW133344   2.186   1.390   1.377  1.7869  1.8530  0.5893
 7236SOL    HW233345   2.117   1.496   1.446  0.2749 -0.1934 -1.7230
 7237SOL     OW33346   4.517   1.946   6.253 -0.6835 -0.2769 -0.5834
 7237SOL    HW133347   4.521   2.040   6.232  1.1623  0.1770  1.7087
 7237SOL    HW233348   4.609   1.921   6.264 -0.8680 -0.5711  0.2986
 7238SOL     OW33349   3.916   2.139   2.465 -0.5376 -0.4079  0.2038
 7238SOL    HW133350   3.953   2.188   2.538  0.6301 -0.2784 -0.4688
 7238SOL    HW233351   3.829   2.123   2.500  0.4121 -1.4628  2.0832
 7239SOL     OW33352   0.083   0.125   7.238  0.1451  0.1234 -0.6234
 7239SOL    HW133353   0.108   0.216   7.220 -0.8693  0.3462 -0.9419
 7239SOL    HW233354   0.054   0.131   7.329  0.8101 -2.2062 -0.2543
 7240SOL     OW33355   1.110   0.160   3.102 -0.4783  0.2377  0.1254
 7240SOL    HW133356   1.099   0.076   3.058 -0.9472  2.4469 -3.9778
 7240SOL    HW233357   1.161   0.211   3.038 -0.3296  1.2878  1.0993
 7241SOL     OW33358   3.599   1.313   1.753  0.5158  0.0591  0.3643
 7241SOL    HW133359   3.605   1.220   1.776  0.3316 -0.4699 -1.7191
 7241SOL    HW233360   3.659   1.302   1.678  0.8316 -0.7212  0.7278
 7242SOL     OW33361   0.712   4.454  14.788  0.2409 -0.0713 -0.2382
 7242SOL    HW133362   0.718   4.542  14.750  2.3996  0.5632  1.5100
 7242SOL    HW233363   0.717   4.391  14.716 -0.0148 -0.6193  0.2239
 7243SOL     OW33364   0.160   1.628   2.155  0.1303  0.6617 -0.2447
 7243SOL    HW133365   0.252   1.652   2.166  0.4328 -1.1525  1.1897
 7243SOL    HW233366   0.162   1.548   2.207  0.5001  0.1249 -1.0876
 7244SOL     OW33367   4.601   2.269  15.474 -0.0789 -0.4033  0.1873
 7244SOL    HW133368   4.678   2.233  15.429  0.7136  1.0235  0.3861
 7244SOL    HW233369   4.560   2.304  15.395  0.5838  1.5923  0.7427
 7245SOL     OW33370   3.812   1.018   6.009  0.1086  0.6978 -0.1051
 7245SOL    HW133371   3.860   1.099   6.024 -1.9686  2.1306 -1.1259
 7245SOL    HW233372   3.886   0.966   5.980  0.5122  1.5695 -0.6549
 7246SOL     OW33373   2.000   0.440   5.818  0.1933 -0.2522  1.0909
 7246SOL    HW133374   2.086   0.431   5.859 -0.4503 -1.0006  2.2863
 7246SOL    HW233375   2.016   0.496   5.743 -0.6228 -0.1197  1.0173
 7247SOL     OW33376   2.619   4.522   2.914 -0.4093 -0.3282 -0.1867
 7247SOL    HW133377   2.630   4.585   2.843  0.5379  2.4997  2.5224
 7247SOL    HW233378   2.675   4.553   2.984  0.0315 -0.2795 -0.5590
 7248SOL     OW33379   4.537   2.756   1.665  0.7442  0.1478  0.4609
 7248SOL    HW133380   4.611   2.782   1.721  0.1786  1.3593  0.6493
 7248SOL    HW233381   4.462   2.793   1.711  1.3778 -1.5274  2.8075
 7249SOL     OW33382   2.629   2.364   1.212  0.0845  0.2053  0.2711
 7249SOL    HW133383   2.593   2.276   1.195 -3.6369  1.7756  0.1244
 7249SOL    HW233384   2.617   2.399   1.124 -1.8338  0.7633  0.7753
 7250SOL     OW33385   4.406   4.720   4.865  0.6738 -0.3620  0.0905
 7250SOL    HW133386   4.371   4.726   4.953  0.1812  0.8247 -0.1827
 7250SOL    HW233387   4.500   4.718   4.885  0.8458 -0.2677 -0.7066
 7251SOL     OW33388   1.532   2.127   5.249  0.4449 -0.1998 -0.6266
 7251SOL    HW133389   1.609   2.071   5.258  0.3534 -0.1722  0.2914
 7251SOL    HW233390   1.498   2.124   5.338  0.7338  0.9401 -0.4691
 7252SOL     OW33391   4.410   1.850   4.405  0.3388  0.3822 -0.3249
 7252SOL    HW133392   4.423   1.898   4.487  0.8601  1.4060 -1.0113
 7252SOL    HW233393   4.341   1.790   4.433  0.9266  1.6424  3.7768
 7253SOL     OW33394   2.192   3.702   5.049  0.2159 -0.0513 -0.3743
 7253SOL    HW133395   2.280   3.664   5.045  0.6995  1.2882 -2.6352
 7253SOL    HW233396   2.150   3.637   5.105  1.3988  1.3027  2.0515
 7254SOL     OW33397   2.117   4.041   2.618  0.1630  0.0076 -0.5706
 7254SOL    HW133398   2.101   4.134   2.599 -0.2406 -0.0503 -0.5111
 7254SOL    HW233399   2.050   4.002   2.562  0.5505 -2.7963  0.9043
 7255SOL     OW33400   0.163   4.494   8.889  0.0082  0.1230 -0.0806
 7255SOL    HW133401   0.091   4.458   8.837 -1.1361 -1.6314  2.6813
 7255SOL    HW233402   0.217   4.421   8.921  0.0368 -0.4077 -1.3264
 7256SOL     OW33403   2.705   1.579   9.786 -0.5687  0.3309  0.5861
 7256SOL    HW133404   2.640   1.510   9.798 -0.2656  0.1528  1.2168
 7256SOL    HW233405   2.757   1.578   9.866  1.1291  2.2113 -0.4831
 7257SOL     OW33406   2.794   2.716   3.771 -0.1481 -0.4708  0.4989
 7257SOL    HW133407   2.821   2.752   3.855  0.5165  0.9772 -0.3377
 7257SOL    HW233408   2.752   2.794   3.735  0.2762  0.1354  1.3124
 7258SOL     OW33409   3.484   0.358   3.034  0.3349 -0.1298 -0.1704
 7258SOL    HW133410   3.445   0.422   3.093  0.9337  0.5213 -0.4750
 7258SOL    HW233411   3.569   0.392   3.004 -0.5231  1.4382 -0.8260
 7259SOL     OW33412   1.251   3.608   6.892 -0.2445 -0.0579 -0.3024
 7259SOL    HW133413   1.251   3.704   6.893 -0.6325 -0.0503 -0.7525
 7259SOL    HW233414   1.181   3.587   6.953  1.1739  0.7078  1.5793
 7260SOL     OW33415   1.986   4.628  16.090 -0.5542  0.2330 -0.5972
 7260SOL    HW133416   1.978   4.545  16.137 -0.7455  0.3448 -0.4314
 7260SOL    HW233417   1.922   4.635  16.019  1.8156 -2.8207 -3.0302
 7261SOL     OW33418   3.512   4.055   5.478 -0.2632 -0.1839  0.3843
 7261SOL    HW133419   3.497   3.975   5.428  1.2345 -1.2323  1.5963
 7261SOL    HW233420   3.434   4.064   5.532  0.7776 -1.3271  2.0828
 7262SOL     OW33421   1.984   2.405   9.823  0.4744 -0.4247 -0.1275
 7262SOL    HW133422   1.995   2.334   9.886 -2.1324 -0.2954  0.4513
 7262SOL    HW233423   2.008   2.486   9.869 -0.7188  0.5185 -1.1851
 7263SOL     OW33424   0.045   0.133  16.826 -0.4321 -0.0235  0.0390
 7263SOL    HW133425   4.724   0.127  16.904  1.0887 -0.6523  1.1050
 7263SOL    HW233426   0.057   0.226  16.812 -0.1392  0.0144  0.5236
 7264SOL     OW33427   4.616   0.990   5.956 -0.4896 -0.4553  0.1916
 7264SOL    HW133428   4.639   1.032   5.874  1.0792 -0.0060  0.8668
 7264SOL    HW233429   4.524   1.017   5.961  0.1635  1.7874 -0.1151
 7265SOL     OW33430   1.325   2.910   9.193  0.4958 -0.2535  0.1722
 7265SOL    HW133431   1.233   2.907   9.165  0.8298 -1.5489 -0.8118
 7265SOL    HW233432   1.339   2.841   9.257 -0.5392  0.1440  0.8318
 7266SOL     OW33433   2.150   1.960   2.740 -0.2052  0.0891  0.2428
 7266SOL    HW133434   2.087   1.941   2.810 -0.8571  1.2310 -0.0225
 7266SOL    HW233435   2.109   2.022   2.680  1.8679 -0.1398 -1.3946
 7267SOL     OW33436   3.760   2.408   5.742 -0.1911  0.1166  0.2112
 7267SOL    HW133437   3.750   2.318   5.771  0.8197  0.1339  0.6182
 7267SOL    HW233438   3.668   2.434   5.743 -0.2906 -0.1969 -1.2736
 7268SOL     OW33439   0.620   3.317   0.029  0.2761 -0.3775 -0.2429
 7268SOL    HW133440   0.642   3.224   0.032  0.1758 -0.3893  0.1251
 7268SOL    HW233441   0.692   3.354  17.717  1.0475 -2.6228 -0.7649
 7269SOL     OW33442   3.497   4.382   9.498 -0.2547  0.1747 -0.3730
 7269SOL    HW133443   3.439   4.421   9.563 -1.3439  0.0357 -1.2661
 7269SOL    HW233444   3.436   4.320   9.458  1.9312 -1.9750 -0.3646
 7270SOL     OW33445   0.146   3.764   2.812  0.3220  0.1821  0.2732
 7270SOL    HW133446   0.207   3.837   2.806  1.0529 -0.2809  2.1669
 7270SOL    HW233447   0.186   3.709   2.879  1.4679 -1.8642 -2.0686
 7271SOL     OW33448   4.667   0.989  17.212  0.0099 -0.1835 -0.1608
 7271SOL    HW133449   4.619   0.975  17.130 -0.5279 -0.4330  0.1966
 7271SOL    HW233450   4.598   0.969  17.276  0.8897  1.7910  1.4133
 7272SOL     OW33451   1.388   3.412   2.077  0.3012 -0.2821  0.2383
 7272SOL    HW133452   1.461   3.399   2.137  2.2673  1.3339 -1.7886
 7272SOL    HW233453   1.432   3.414   1.992 -0.4147 -0.2870 -0.1320
 7273SOL     OW33454   3.824   2.667   3.411 -0.5066  0.7020  0.3125
 7273SOL    HW133455   3.861   2.703   3.492  2.9912  0.7786 -1.3200
 7273SOL    HW233456   3.862   2.731   3.351  1.1599 -0.5159  0.0872
 7274SOL     OW33457   4.337   0.094   3.840 -0.1734 -0.5436  0.2847
 7274SOL    HW133458   4.409   0.040   3.870 -1.6696 -1.6434  1.8951
 7274SOL    HW233459   4.368   0.178   3.875 -1.4290 -0.2938  0.8313
 7275SOL     OW33460   4.501   1.632   3.675 -0.5066  0.0046  0.0062
 7275SOL    HW133461   4.584   1.612   3.719  0.4716  0.7684 -1.4964
 7275SOL    HW233462   4.510   1.712   3.623  1.1837  0.1386  0.4896
 7276SOL     OW33463   4.239   1.643   4.567  0.4660 -0.0683  0.0210
 7276SOL    HW133464   4.223   1.549   4.574  1.9433 -0.4266 -1.3859
 7276SOL    HW233465   4.160   1.671   4.519  0.9447 -0.9496 -1.2976
 7277SOL     OW33466   3.069   1.643  15.410  0.2513 -0.2282 -0.0871
 7277SOL    HW133467   3.096   1.706  15.478  1.2774 -0.5299 -0.2117
 7277SOL    HW233468   3.150   1.592  15.406 -0.3025 -1.5086  5.0179
 7278SOL     OW33469   1.521   4.054   2.792 -0.0224 -0.4815 -0.3085
 7278SOL    HW133470   1.461   3.981   2.776 -1.4382  0.7304 -0.5459
 7278SOL    HW233471   1.451   4.118   2.804 -0.6244 -1.4634  1.3797
 7279SOL     OW33472   0.266   1.350   8.863 -0.3896 -0.3468 -0.4195
 7279SOL    HW133473   0.215   1.276   8.832  0.7563 -1.0761 -0.5591
 7279SOL    HW233474   0.340   1.343   8.803  0.0186  1.2661 -0.1082
 7280SOL     OW33475   2.129   2.511   7.391 -0.3546 -0.2788 -0.1361
 7280SOL    HW133476   2.148   2.602   7.367  1.5966 -0.4530  0.7822
 7280SOL    HW233477   2.034   2.506   7.383 -0.2456  1.0515 -2.4919
 7281SOL     OW33478   4.507   1.420   6.922 -0.0616  0.1916  0.2386
 7281SOL    HW133479   4.450   1.427   6.999 -0.6167  3.9897 -0.5213
 7281SOL    HW233480   4.515   1.511   6.894  1.6534 -0.3281 -0.9236
 7282SOL     OW33481   0.469   3.244   6.629  0.1901 -0.1152 -0.7571
 7282SOL    HW133482   0.539   3.180   6.633 -0.5588 -0.6952  2.9853
 7282SOL    HW233483   0.465   3.252   6.724 -0.6733  0.5224 -0.8421
 7283SOL     OW33484   3.012   1.391   2.616 -0.1178 -0.6666 -0.1743
 7283SOL    HW133485   3.077   1.370   2.683 -0.4390  0.9515  0.6503
 7283SOL    HW233486   2.962   1.463   2.656  0.3289 -0.3398 -0.2074
 7284SOL     OW33487   0.713   1.431   4.835  0.2855 -1.1073  0.3840
 7284SOL    HW133488   0.770   1.469   4.902 -2.1313  0.2237  1.6891
 7284SOL    HW233489   0.712   1.515   4.788  1.1001 -0.9011  0.7369
 7285SOL     OW33490   4.716   2.520   4.934  0.0788  0.7535 -0.0065
 7285SOL    HW133491   4.710   2.446   4.994 -2.1211  0.4219 -0.6128
 7285SOL    HW233492   0.004   2.478   4.851  0.6965  0.8892  0.1024
 7286SOL     OW33493   2.802   0.081   4.023  0.3465  0.8130  0.2050
 7286SOL    HW133494   2.779   0.074   3.930 -1.0975  0.9595  0.5486
 7286SOL    HW233495   2.890   0.119   4.014  1.2822 -1.1411  1.0775
 7287SOL     OW33496   1.780   3.386   9.854 -0.0265  0.0697  0.4902
 7287SOL    HW133497   1.736   3.470   9.840 -2.0459 -0.7418  1.9094
 7287SOL    HW233498   1.757   3.331   9.779 -0.4927 -0.5198  1.0583
 7288SOL     OW33499   0.119   0.277  15.511 -0.0033  0.3240  0.5796
 7288SOL    HW133500   0.183   0.240  15.451  0.0622 -1.5511  1.8122
 7288SOL    HW233501   0.133   0.223  15.589 -0.5904  0.0278  0.4822
 7289SOL     OW33502   4.513   4.606   8.581 -0.0233  0.1513  0.1103
 7289SOL    HW133503   4.478   4.519   8.598  2.7554 -1.1384 -0.6567
 7289SOL    HW233504   4.569   4.580   8.507 -3.0728  1.6862 -2.7244
 7290SOL     OW33505   1.202   2.593   6.478 -0.1500  0.0241 -0.2869
 7290SOL    HW133506   1.135   2.558   6.537  0.4306  1.8441  1.4451
 7290SOL    HW233507   1.218   2.678   6.519  0.4423  0.3788 -1.2481
 7291SOL     OW33508   3.017   3.773   8.473  1.1584  0.1128 -0.3856
 7291SOL    HW133509   3.053   3.773   8.562 -3.3053  0.5612  1.4216
 7291SOL    HW233510   2.986   3.683   8.468  1.0487  0.1919 -1.0717
 7292SOL     OW33511   2.289   2.134   3.336 -0.6785 -0.2157  0.0045
 7292SOL    HW133512   2.340   2.073   3.282  0.7423  0.9902 -0.0039
 7292SOL    HW233513   2.226   2.164   3.270  1.3356 -1.4901 -2.4854
 7293SOL     OW33514   2.269   0.843   2.469 -0.4789  0.1197  0.7323
 7293SOL    HW133515   2.348   0.794   2.491 -0.4504 -0.2969 -0.3071
 7293SOL    HW233516   2.291   0.928   2.509  1.9671  0.5508 -1.5600
 7294SOL     OW33517   3.833   4.685   1.416  0.0095  0.0436  0.0982
 7294SOL    HW133518   3.884   4.716   1.491  1.4571  1.6842 -1.5608
 7294SOL    HW233519   3.908   4.640   1.376  1.1524 -0.3326  2.6688
 7295SOL     OW33520   1.496   3.045   8.743 -0.0249  0.2749  0.3451
 7295SOL    HW133521   1.438   2.982   8.785 -1.1957  1.5964  0.7384
 7295SOL    HW233522   1.471   3.042   8.650 -1.2961 -0.3130  0.7058
 7296SOL     OW33523   4.023   4.289   4.061 -0.1961 -0.2474  1.0279
 7296SOL    HW133524   4.115   4.307   4.079  0.1166 -1.2287  0.3889
 7296SOL    HW233525   3.988   4.366   4.107  0.1812  0.8370 -0.5055
 7297SOL     OW33526   1.956   1.725   8.983  0.4442 -0.1282 -0.4214
 7297SOL    HW133527   2.023   1.657   8.988  1.2521  0.5387 -2.0668
 7297SOL    HW233528   1.880   1.681   8.945  1.9605 -1.3260 -2.0429
 7298SOL     OW33529   3.899   0.225   2.188 -0.0819  0.1219 -0.3500
 7298SOL    HW133530   3.895   0.244   2.282 -1.0052  0.7529 -0.5228
 7298SOL    HW233531   3.918   0.131   2.184 -0.3230  0.0516  0.1262
 7299SOL     OW33532   1.927   4.568  15.684  0.2449 -0.4281 -0.1993
 7299SOL    HW133533   2.017   4.536  15.694 -0.3184 -0.9865  3.0288
 7299SOL    HW233534   1.884   4.502  15.739 -1.7232 -0.9213 -2.3530
 7300SOL     OW33535   0.353   2.979   2.250  0.1450  0.3023  0.3322
 7300SOL    HW133536   0.332   2.888   2.225 -0.7096  0.8939 -1.1570
 7300SOL    HW233537   0.262   3.004   2.268  0.4832  2.0779 -0.4694
 7301SOL     OW33538   4.294   1.458  13.539 -0.2337  0.0254  0.1390
 7301SOL    HW133539   4.291   1.453  13.635 -2.0123  1.6282  0.1503
 7301SOL    HW233540   4.209   1.498  13.526 -0.6447 -0.9174 -0.0930
 7302SOL     OW33541   3.308   2.159   7.720 -0.0303  0.8789  0.3745
 7302SOL    HW133542   3.233   2.213   7.696 -1.5027 -1.0189  0.6592
 7302SOL    HW233543   3.258   2.082   7.690 -1.2982  2.8719 -2.6569
 7303SOL     OW33544   2.210   4.066   9.042  0.1200 -0.6191  0.1202
 7303SOL    HW133545   2.161   4.005   8.987 -0.3002 -0.0932 -0.0873
 7303SOL    HW233546   2.174   4.057   9.130 -0.3650 -0.2995 -0.0446
 7304SOL     OW33547   3.785   3.045   6.109  0.0881  0.5449  0.1022
 7304SOL    HW133548   3.708   3.053   6.166 -0.1518 -1.9248  0.1556
 7304SOL    HW233549   3.858   3.092   6.148  1.1405 -1.2995  0.3480
 7305SOL     OW33550   3.588   2.168   5.143 -0.8474  0.4467  0.7641
 7305SOL    HW133551   3.623   2.257   5.146 -0.2824  0.1989  1.6501
 7305SOL    HW233552   3.535   2.175   5.063 -0.8319 -3.3994  0.3983
 7306SOL     OW33553   1.288   0.793   0.266 -0.3666 -0.0042  0.0697
 7306SOL    HW133554   1.223   0.748   0.320 -2.3232 -0.2860 -2.5099
 7306SOL    HW233555   1.230   0.849   0.215  2.9773  0.8150 -2.7811
 7307SOL     OW33556   2.767   2.974   7.019 -0.1259 -0.1993 -0.4549
 7307SOL    HW133557   2.727   3.001   7.102 -0.2172  2.2021 -1.2630
 7307SOL    HW233558   2.790   2.882   7.027 -3.4349 -1.0482 -0.8030
 7308SOL     OW33559   3.417   1.857   7.198 -0.2810 -0.4685 -0.0232
 7308SOL    HW133560   3.475   1.781   7.195  1.6598  0.8529  3.7533
 7308SOL    HW233561   3.433   1.886   7.288  1.4979 -0.2631 -0.4032
 7309SOL     OW33562   2.341   3.214   7.520  0.1100  0.4453  0.6941
 7309SOL    HW133563   2.349   3.133   7.569 -1.0154 -1.2453 -1.8821
 7309SOL    HW233564   2.411   3.265   7.560  0.5171  0.2923  0.1860
 7310SOL     OW33565   0.484   0.925  11.024 -0.1053  0.0076  0.0544
 7310SOL    HW133566   0.511   0.856  10.962 -1.0790 -0.3732  0.0659
 7310SOL    HW233567   0.572   0.964  11.030 -0.6233  1.0712  0.7007
 7311SOL     OW33568   2.011   3.603  17.317 -0.7653 -0.1833 -0.3257
 7311SOL    HW133569   1.995   3.687  17.274 -1.4564  1.3805  3.0044
 7311SOL    HW233570   1.929   3.598  17.366 -1.0650  3.2921 -0.4457
 7312SOL     OW33571   4.109   1.743   6.118 -0.4383 -0.3951 -0.0745
 7312SOL    HW133572   4.141   1.821   6.163  0.4315 -0.7059 -0.1566
 7312SOL    HW233573   4.067   1.785   6.044  0.2161  2.5555  1.2536
 7313SOL     OW33574   4.549   0.613  13.458  0.3153  0.4022 -0.0902
 7313SOL    HW133575   4.491   0.610  13.382  0.9299 -0.7890 -0.5197
 7313SOL    HW233576   4.632   0.594  13.414 -1.1071 -1.0335 -2.1394
 7314SOL     OW33577   1.097   1.925   6.455  0.2295 -0.0652 -0.3791
 7314SOL    HW133578   1.035   1.991   6.487  1.3493  1.2269 -0.8739
 7314SOL    HW233579   1.115   1.973   6.374 -2.8440  0.1908 -0.8811
 7315SOL     OW33580   1.646   0.341   3.303  0.2733 -0.1702 -0.2012
 7315SOL    HW133581   1.604   0.254   3.309  0.2361 -0.2302 -1.4555
 7315SOL    HW233582   1.591   0.367   3.229  2.8877  0.6120 -1.8505
 7316SOL     OW33583   2.657   1.850   7.585  0.3093  0.4407 -0.2120
 7316SOL    HW133584   2.711   1.842   7.506  0.5777 -0.7773  0.0944
 7316SOL    HW233585   2.704   1.786   7.637 -1.2357 -0.6073 -0.1278
 7317SOL     OW33586   2.883   0.592   4.064  0.6443 -0.3052 -0.4031
 7317SOL    HW133587   2.890   0.517   4.005  0.6307  0.4853 -1.4042
 7317SOL    HW233588   2.796   0.622   4.038  0.8786 -1.8230 -2.9579
 7318SOL     OW33589   4.035   4.344   5.848 -0.1106 -0.7337  0.2766
 7318SOL    HW133590   4.012   4.361   5.756 -1.0546  0.5346  0.7419
 7318SOL    HW233591   3.949   4.337   5.890 -0.1086 -1.0725  0.2226
 7319SOL     OW33592   0.219   1.808   8.068 -0.1410  0.4987  0.0470
 7319SOL    HW133593   0.153   1.832   8.133 -0.1751 -2.0598  0.9788
 7319SOL    HW233594   0.299   1.823   8.119  1.3282 -0.1862 -2.0490
 7320SOL     OW33595   2.477   4.275   4.874  0.4409  0.3404  0.6901
 7320SOL    HW133596   2.389   4.288   4.909 -0.7155 -0.3019 -2.0016
 7320SOL    HW233597   2.448   4.246   4.788  1.7650  2.2838 -0.3874
 7321SOL     OW33598   2.765   3.289   1.910  0.4233  0.4232  0.3586
 7321SOL    HW133599   2.817   3.267   1.832  0.3982 -0.6024  0.6225
 7321SOL    HW233600   2.819   3.349   1.961  0.1314 -0.8653  2.1639
 7322SOL     OW33601   0.650   3.938  13.942 -0.3538  0.2053  0.2175
 7322SOL    HW133602   0.554   3.936  13.933 -0.3503  0.3487  0.1438
 7322SOL    HW233603   0.664   4.032  13.950 -2.1363  0.2931  2.4748
 7323SOL     OW33604   3.203   3.516   6.253  0.3388 -0.0639 -0.5127
 7323SOL    HW133605   3.154   3.597   6.242 -0.4750 -0.5339 -0.2946
 7323SOL    HW233606   3.131   3.455   6.238 -0.6437  0.5889  1.5189
 7324SOL     OW33607   4.570   1.454  10.585 -0.0286  0.1214 -0.3026
 7324SOL    HW133608   4.542   1.545  10.595 -0.7042  0.2099 -2.8267
 7324SOL    HW233609   4.501   1.418  10.640 -0.5662  0.1112 -0.9760
 7325SOL     OW33610   4.524   2.388   4.047 -0.5154  0.3904 -0.9896
 7325SOL    HW133611   4.499   2.311   3.995 -0.1643 -1.6194  1.8149
 7325SOL    HW233612   4.617   2.392   4.026 -0.1998 -0.2425  0.2997
 7326SOL     OW33613   3.814   4.296  11.303  0.4074 -0.5277  0.1888
 7326SOL    HW133614   3.841   4.225  11.246 -1.6176  0.9157 -2.5902
 7326SOL    HW233615   3.816   4.374  11.247 -0.7809  1.2539  2.5979
 7327SOL     OW33616   2.309   0.186   7.379 -0.2439 -0.0404 -0.5191
 7327SOL    HW133617   2.395   0.175   7.337  0.2742  1.4214  0.1721
 7327SOL    HW233618   2.298   0.274   7.342  1.0686 -0.0792 -1.0075
 7328SOL     OW33619   0.466   3.715  11.094 -0.2460  0.2792 -0.3850
 7328SOL    HW133620   0.397   3.731  11.159  0.0051 -0.2224  0.0113
 7328SOL    HW233621   0.421   3.640  11.056  1.6271  0.7528 -3.5481
 7329SOL     OW33622   2.192   1.962   7.523  0.7237 -0.0036  0.0977
 7329SOL    HW133623   2.185   1.920   7.608  1.4415  0.1589  0.2352
 7329SOL    HW233624   2.273   1.919   7.499  1.5569  0.5647  1.8890
 7330SOL     OW33625   2.886   3.730  10.416  0.5523 -0.0762 -0.0340
 7330SOL    HW133626   2.960   3.790  10.412 -1.2094  2.0508 -0.4459
 7330SOL    HW233627   2.933   3.657  10.458 -0.7517 -1.3776 -0.8278
 7331SOL     OW33628   3.928   2.086  15.863 -0.9101 -0.2945 -0.2582
 7331SOL    HW133629   3.961   2.082  15.953 -2.2964  2.4555  0.3943
 7331SOL    HW233630   3.853   2.140  15.891 -0.3616  0.7713 -0.8240
 7332SOL     OW33631   3.237   2.851  12.409  0.0215 -0.6647  0.7599
 7332SOL    HW133632   3.284   2.926  12.374 -0.5212 -0.0146  1.4104
 7332SOL    HW233633   3.223   2.796  12.333 -0.3870 -1.5159  1.4507
 7333SOL     OW33634   0.106   4.330  12.389  0.5119  0.6913 -0.1156
 7333SOL    HW133635   0.146   4.294  12.309  1.5031  0.7442  0.3566
 7333SOL    HW233636   0.073   4.259  12.443 -0.3112  0.4776 -0.8931
 7334SOL     OW33637   2.949   0.583  17.349 -0.3341  0.1404 -0.0225
 7334SOL    HW133638   2.877   0.628  17.304  1.5721  2.1927 -1.0499
 7334SOL    HW233639   2.963   0.641  17.424 -3.2343 -1.1921  1.5310
 7335SOL     OW33640   4.640   2.972  16.722  0.0114 -0.1320 -0.7162
 7335SOL    HW133641   4.567   2.993  16.780  0.8734 -1.0767  0.7139
 7335SOL    HW233642   4.650   3.056  16.677  3.9878 -0.3904 -0.2769
 7336SOL     OW33643   1.193   1.146  13.798  0.3690  0.1263  0.4618
 7336SOL    HW133644   1.238   1.169  13.717  1.3374 -2.3736  0.2679
 7336SOL    HW233645   1.127   1.089  13.759 -0.1428  2.1331 -1.5763
 7337SOL     OW33646   3.714   3.451   3.304  0.2840  0.0023 -0.4770
 7337SOL    HW133647   3.772   3.375   3.304 -1.6506 -1.4830  0.3674
 7337SOL    HW233648   3.717   3.485   3.215  1.1125 -1.8467 -1.1515
 7338SOL     OW33649   0.324   1.326   5.613 -0.2112 -0.3948  0.6159
 7338SOL    HW133650   0.398   1.353   5.559  0.2155  0.3501  1.5936
 7338SOL    HW233651   0.323   1.397   5.677 -0.2858  0.5470 -0.4453
 7339SOL     OW33652   3.215   3.782   3.438 -0.4114 -0.1247  0.2698
 7339SOL    HW133653   3.166   3.743   3.510 -0.5820 -0.0284  0.2071
 7339SOL    HW233654   3.145   3.795   3.374 -0.7928  0.1721  0.7466
 7340SOL     OW33655   4.328   0.683  10.662  0.2226  0.7638 -0.1322
 7340SOL    HW133656   4.331   0.711  10.570  0.4186 -0.0300 -0.3692
 7340SOL    HW233657   4.415   0.695  10.700  0.7032 -1.4090 -0.5150
 7341SOL     OW33658   4.063   1.291  15.788  0.2628  0.0406  0.3091
 7341SOL    HW133659   3.998   1.349  15.829  0.3152  0.3283 -0.0105
 7341SOL    HW233660   4.134   1.325  15.843  0.5433 -0.0675  0.0063
 7342SOL     OW33661   4.126   3.976  11.253  0.0339  0.3430 -0.3414
 7342SOL    HW133662   4.088   3.891  11.275 -0.5552  0.0797 -2.3707
 7342SOL    HW233663   4.057   4.025  11.209  0.9357  2.1337  0.2428
 7343SOL     OW33664   0.365   0.426   6.842 -0.3236  0.1118  0.2701
 7343SOL    HW133665   0.325   0.373   6.773 -1.0394  0.0973  0.6958
 7343SOL    HW233666   0.292   0.479   6.874  2.1489  3.3191  0.6067
 7344SOL     OW33667   3.423   1.935   1.916 -0.1253 -0.3968  0.3481
 7344SOL    HW133668   3.429   1.943   2.011 -0.5452 -3.5496  0.6597
 7344SOL    HW233669   3.509   1.966   1.889 -0.0296 -0.0994  1.0072
 7345SOL     OW33670   2.675   0.083  13.212 -0.0891  0.2821 -0.2556
 7345SOL    HW133671   2.727   0.015  13.255 -1.7400 -0.2897  0.8729
 7345SOL    HW233672   2.723   0.098  13.131  1.5985  1.9506  1.0697
 7346SOL     OW33673   4.360   4.054   2.094  0.0328 -0.4272 -0.3184
 7346SOL    HW133674   4.266   4.064   2.077 -0.5957 -4.0758  1.1251
 7346SOL    HW233675   4.369   4.121   2.161  0.3918 -0.9612  0.1593
 7347SOL     OW33676   3.106   0.365  11.343 -0.8348 -0.2927 -0.1383
 7347SOL    HW133677   3.109   0.460  11.333  1.2339 -0.2085  1.0644
 7347SOL    HW233678   3.088   0.325  11.258 -1.2227 -0.7041  0.1390
 7348SOL     OW33679   4.026   1.249  13.513 -0.3355 -0.4150  0.2191
 7348SOL    HW133680   4.058   1.216  13.597 -0.1114 -1.5039 -0.2949
 7348SOL    HW233681   3.952   1.191  13.492  0.1353 -0.3438 -1.5877
 7349SOL     OW33682   2.455   0.470   5.111 -0.2078  0.2793  0.7956
 7349SOL    HW133683   2.365   0.482   5.080 -0.1162 -1.2177 -0.0323
 7349SOL    HW233684   2.448   0.435   5.200  1.2547 -1.2548  0.3057
 7350SOL     OW33685   3.973   4.459   3.374 -0.0089  0.6492  0.1254
 7350SOL    HW133686   4.022   4.395   3.427 -0.3942 -0.6228 -1.0652
 7350SOL    HW233687   4.040   4.494   3.315  0.0160 -1.5377 -1.1420
 7351SOL     OW33688   4.126   1.735   2.355 -0.7680 -0.5262 -1.1337
 7351SOL    HW133689   4.193   1.666   2.351 -0.9051 -0.7323  0.2251
 7351SOL    HW233690   4.181   1.807   2.385 -2.5185 -0.9984  3.1566
 7352SOL     OW33691   3.067   1.238   4.305 -0.3654 -0.4835 -0.2100
 7352SOL    HW133692   3.031   1.235   4.394  1.6517  1.8522  0.6942
 7352SOL    HW233693   3.003   1.187   4.256  0.0149 -1.2349  0.0703
 7353SOL     OW33694   3.660   1.668  15.817  0.0005 -0.1842  0.5415
 7353SOL    HW133695   3.709   1.590  15.844 -1.9150 -1.4180  0.5415
 7353SOL    HW233696   3.726   1.716  15.767 -1.6359  0.9092 -0.5972
 7354SOL     OW33697   1.632   3.423  13.308 -0.1153 -0.2976  0.1915
 7354SOL    HW133698   1.592   3.510  13.309 -0.8494 -0.6000 -1.6376
 7354SOL    HW233699   1.654   3.426  13.215 -0.3953  3.4547  0.2519
 7355SOL     OW33700   3.769   1.194   4.927  0.5735  0.2990  0.6525
 7355SOL    HW133701   3.694   1.171   4.981 -0.8960  1.1383 -1.0374
 7355SOL    HW233702   3.767   1.289   4.916  1.5543  0.2969  0.3830
 7356SOL     OW33703   0.141   3.851   7.896 -0.1434 -0.1141  0.1090
 7356SOL    HW133704   0.059   3.809   7.871 -0.2194 -0.2390  0.5712
 7356SOL    HW233705   0.197   3.774   7.907  0.9765  0.7864  0.6882
 7357SOL     OW33706   3.167   4.698  17.449  0.1527 -0.3557 -0.0932
 7357SOL    HW133707   3.256   4.726  17.428  0.3145 -0.5863  0.2826
 7357SOL    HW233708   3.181   4.645  17.528 -1.8621 -0.8386 -0.0441
 7358SOL     OW33709   1.399   1.122   4.016  0.5515 -0.1517  0.4150
 7358SOL    HW133710   1.444   1.062   4.075 -0.0223 -0.1187  0.8847
 7358SOL    HW233711   1.420   1.206   4.055  1.9935 -0.5195  0.4248
 7359SOL     OW33712   2.055   3.340   3.113 -0.4458  0.2405 -1.1616
 7359SOL    HW133713   2.015   3.262   3.152  0.3394 -0.0496 -0.9434
 7359SOL    HW233714   2.077   3.304   3.028 -0.8897 -0.0173 -1.1662
 7360SOL     OW33715   2.879   0.582   2.835 -0.1872 -0.3438 -0.2702
 7360SOL    HW133716   2.912   0.640   2.767  2.3334  1.1870  2.2496
 7360SOL    HW233717   2.957   0.576   2.890  1.3147  2.3696 -2.1230
 7361SOL     OW33718   2.001   4.511   3.173  0.4360  0.3221 -0.0871
 7361SOL    HW133719   1.984   4.605   3.185 -0.1761  0.2437 -0.3109
 7361SOL    HW233720   2.001   4.487   3.265  0.5094  0.7195  0.0160
 7362SOL     OW33721   4.648   1.430   8.010  0.0732 -0.3221  0.2249
 7362SOL    HW133722   4.566   1.475   7.991  0.9574  1.5406  0.8496
 7362SOL    HW233723   4.690   1.493   8.069  0.6152  0.6868 -1.2543
 7363SOL     OW33724   0.852   3.935   7.202 -0.4382  0.0895 -0.1699
 7363SOL    HW133725   0.814   4.004   7.147  0.9492  1.9158  1.1390
 7363SOL    HW233726   0.781   3.901   7.256 -0.2463 -0.8205 -0.4888
 7364SOL     OW33727   1.604   0.487  15.753 -0.0557  0.1959  0.0453
 7364SOL    HW133728   1.537   0.492  15.684 -0.9002  0.5292  0.8779
 7364SOL    HW233729   1.582   0.399  15.781  2.5866 -1.3703 -2.8075
 7365SOL     OW33730   3.726   0.083   4.336 -0.5803  0.2974  0.3671
 7365SOL    HW133731   3.791   0.108   4.271 -1.4265  1.4413 -0.0392
 7365SOL    HW233732   3.782   0.027   4.390  1.1589  0.0089 -1.7245
 7366SOL     OW33733   2.406   4.693   8.742 -0.0064 -0.0729 -0.0956
 7366SOL    HW133734   2.428   4.674   8.833  0.0440 -1.6337 -0.4343
 7366SOL    HW233735   2.477   4.644   8.700  0.0135  1.6321 -2.0620
 7367SOL     OW33736   3.853   4.524  11.141 -0.4086 -0.0860  0.0612
 7367SOL    HW133737   3.907   4.586  11.190 -0.5532  1.1207 -1.2786
 7367SOL    HW233738   3.923   4.467  11.110  0.1891  0.3793  0.5638
 7368SOL     OW33739   4.545   3.496   5.347  0.2249 -0.6928 -0.0407
 7368SOL    HW133740   4.552   3.591   5.351 -0.2993 -0.6774  0.5621
 7368SOL    HW233741   4.485   3.484   5.273  2.1287 -2.5640 -1.2781
 7369SOL     OW33742   1.995   4.481   4.239 -0.2177 -0.2916  0.2408
 7369SOL    HW133743   1.907   4.515   4.258  0.9345  0.6830  3.6769
 7369SOL    HW233744   1.966   4.410   4.181  0.8638  0.2024 -0.8967
 7370SOL     OW33745   2.275   1.273   0.031 -0.0361  0.3599 -0.1002
 7370SOL    HW133746   2.318   1.200  17.725  1.2194  0.5252  0.8000
 7370SOL    HW233747   2.303   1.267   0.123  1.8660  0.5351 -0.6633
 7371SOL     OW33748   0.102   4.534  15.510  0.2725  0.1731  0.1004
 7371SOL    HW133749   0.127   4.442  15.497 -3.0979 -1.1229  2.9675
 7371SOL    HW233750   0.007   4.528  15.507  0.4027 -2.5556  1.6909
 7372SOL     OW33751   0.852   4.729  16.073 -0.0328  0.0209  0.0742
 7372SOL    HW133752   0.771   4.679  16.078 -0.7975  1.2482 -0.0772
 7372SOL    HW233753   0.825   0.079  16.040 -1.2691 -0.6016 -0.5177
 7373SOL     OW33754   0.444   0.078   5.261 -0.1230  0.3116  0.0995
 7373SOL    HW133755   0.396   0.128   5.195 -1.3010  0.1105  0.7910
 7373SOL    HW233756   0.478   0.004   5.210  0.3593  0.3534  0.3664
 7374SOL     OW33757   1.148   0.268   2.000  0.4160  0.4177 -0.2929
 7374SOL    HW133758   1.236   0.295   1.976  1.1475 -1.2569  0.5408
 7374SOL    HW233759   1.116   0.229   1.919  0.1835 -0.4761  0.2226
 7375SOL     OW33760   2.728   2.245   3.725 -0.0683 -0.1791 -0.4617
 7375SOL    HW133761   2.708   2.325   3.677  1.1463  2.1502  2.9802
 7375SOL    HW233762   2.690   2.178   3.667 -0.9767  1.5952 -1.9157
 7376SOL     OW33763   4.373   1.152   6.273  0.2617 -0.6911 -0.0856
 7376SOL    HW133764   4.333   1.207   6.340 -0.4051 -1.4024  0.1132
 7376SOL    HW233765   4.441   1.207   6.234 -0.4187 -0.2609 -0.6656
 7377SOL     OW33766   1.732   3.333  10.984 -0.5295 -0.2883  0.5587
 7377SOL    HW133767   1.770   3.388  10.914  1.8680 -0.3910  1.7822
 7377SOL    HW233768   1.664   3.396  11.008  1.7969  1.6095  2.1490
 7378SOL     OW33769   3.613   4.510   4.938  0.0386  0.0373  0.2771
 7378SOL    HW133770   3.574   4.448   4.876  0.5544 -0.9347  0.9172
 7378SOL    HW233771   3.552   4.582   4.924  1.2467  0.5984 -2.1816
 7379SOL     OW33772   3.513   2.377  12.837  0.0856 -0.1472 -0.1061
 7379SOL    HW133773   3.523   2.346  12.747  1.2400  2.2311 -0.7716
 7379SOL    HW233774   3.513   2.472  12.825  2.4253  0.0275  1.2258
 7380SOL     OW33775   1.055   2.851   5.626  0.1811 -0.1321 -0.0239
 7380SOL    HW133776   1.099   2.933   5.651  0.1490 -0.1221 -0.0001
 7380SOL    HW233777   0.988   2.858   5.694  2.3349  3.2075  1.7523
 7381SOL     OW33778   2.620   2.666  14.398 -0.8846  0.2277  0.1173
 7381SOL    HW133779   2.593   2.721  14.325  2.0970  1.9260  0.3142
 7381SOL    HW233780   2.651   2.730  14.462 -1.1002  1.7978 -1.3605
 7382SOL     OW33781   2.595   0.433   4.393  0.4162 -0.3212 -0.5584
 7382SOL    HW133782   2.631   0.455   4.479  1.1417 -0.1952 -0.9020
 7382SOL    HW233783   2.658   0.364   4.373  0.5767 -0.3356 -0.0155
 7383SOL     OW33784   1.053   1.501   8.576 -0.2196  0.0550  0.4608
 7383SOL    HW133785   1.018   1.421   8.617  2.2754 -0.1283  2.2714
 7383SOL    HW233786   0.993   1.569   8.607 -0.9788  0.9738 -3.0519
 7384SOL     OW33787   0.991   1.366   6.961 -0.6352  0.0023  0.3180
 7384SOL    HW133788   0.912   1.410   6.930 -0.8853 -0.6206  0.0712
 7384SOL    HW233789   0.967   1.341   7.050 -0.5498 -1.9624 -0.2228
 7385SOL     OW33790   3.045   0.858  15.732  0.1357 -0.1622  0.2202
 7385SOL    HW133791   3.094   0.804  15.671 -3.0302 -1.1517 -1.4424
 7385SOL    HW233792   2.962   0.844  15.686  0.5987 -0.0098 -0.6488
 7386SOL     OW33793   4.083   4.100   1.655  0.4540 -0.5747 -0.4080
 7386SOL    HW133794   3.989   4.112   1.643  0.7434  0.5853 -1.4876
 7386SOL    HW233795   4.078   4.020   1.707  1.4322 -0.4236 -0.0780
 7387SOL     OW33796   4.380   3.771   3.056 -0.1435  0.0281 -0.0658
 7387SOL    HW133797   4.468   3.796   3.083 -0.7206  2.3886 -0.4068
 7387SOL    HW233798   4.339   3.857   3.054  0.2239  0.1342 -2.5616
 7388SOL     OW33799   0.290   3.890   0.005  0.5243  0.6264  0.1375
 7388SOL    HW133800   0.213   3.914  17.694  1.0432  2.3200  0.1679
 7388SOL    HW233801   0.344   3.862  17.671 -2.9947  1.7099 -2.8275
 7389SOL     OW33802   1.394   1.933   2.252 -0.3512  0.2013  0.1651
 7389SOL    HW133803   1.485   1.952   2.229 -0.3205  0.8507  0.8223
 7389SOL    HW233804   1.348   1.989   2.190  2.0479  0.4272 -1.4021
 7390SOL     OW33805   4.110   0.282   4.939 -0.3193 -0.0996  0.3189
 7390SOL    HW133806   4.035   0.327   4.899  0.5281  1.2583  0.2512
 7390SOL    HW233807   4.164   0.354   4.973  1.7875 -1.7413  0.3885
 7391SOL     OW33808   1.095   4.248   4.808 -0.4799  0.5243  0.0523
 7391SOL    HW133809   1.074   4.157   4.825  1.8578 -0.3788 -1.8832
 7391SOL    HW233810   1.058   4.249   4.720 -2.4066 -2.1864  0.8606
 7392SOL     OW33811   1.244   3.358  15.054  0.5270 -0.1021 -0.1294
 7392SOL    HW133812   1.335   3.387  15.055  0.6327 -0.4185 -0.5798
 7392SOL    HW233813   1.210   3.424  14.994  1.5382  1.2578  0.7826
 7393SOL     OW33814   2.336   3.327   9.775  0.0261 -0.2407  0.5757
 7393SOL    HW133815   2.398   3.397   9.794 -1.5677  0.8531  1.7187
 7393SOL    HW233816   2.262   3.372   9.734 -0.0172 -1.3278 -0.5683
 7394SOL     OW33817   1.697   0.672   8.450 -0.0548 -0.2022  0.5750
 7394SOL    HW133818   1.651   0.637   8.374  1.2714  1.0261 -0.7919
 7394SOL    HW233819   1.789   0.658   8.428 -0.2250  0.8547 -0.8260
 7395SOL     OW33820   4.263   4.541   8.028 -0.7574  0.2488 -0.2329
 7395SOL    HW133821   4.250   4.589   8.110 -1.2525 -1.7147  0.8348
 7395SOL    HW233822   4.175   4.557   7.992 -1.4538 -1.0703  0.8973
 7396SOL     OW33823   4.562   2.997  15.319 -0.5317  0.3148 -0.2154
 7396SOL    HW133824   4.489   2.971  15.375 -1.5859  1.6239 -0.9732
 7396SOL    HW233825   4.550   3.091  15.332  0.2747  0.1122  2.1234
 7397SOL     OW33826   1.730   1.972  14.996 -0.2173  0.2665  0.0025
 7397SOL    HW133827   1.728   2.065  14.974 -1.5174  0.1710 -0.2938
 7397SOL    HW233828   1.717   1.981  15.090  0.1198  2.6549 -0.1689
 7398SOL     OW33829   0.841   1.998   3.418  0.7168 -0.0128 -0.2731
 7398SOL    HW133830   0.865   2.016   3.327 -1.5887 -1.2020 -1.1204
 7398SOL    HW233831   0.804   2.083   3.440  0.1248 -0.6528  1.1754
 7399SOL     OW33832   1.599   3.315   4.271 -0.5009 -0.2673  0.5103
 7399SOL    HW133833   1.526   3.282   4.324 -0.1574 -1.7801  0.0280
 7399SOL    HW233834   1.575   3.407   4.262 -0.1717 -0.5043 -2.8292
 7400SOL     OW33835   2.615   2.015   4.483  0.1620  0.1280  0.2478
 7400SOL    HW133836   2.562   2.048   4.556  0.6766  1.0355  0.2080
 7400SOL    HW233837   2.659   2.095   4.455 -0.2147  0.9455  1.9485
 7401SOL     OW33838   4.373   4.717  15.149 -0.6312 -0.1568  0.3775
 7401SOL    HW133839   4.376   4.657  15.074  1.3371 -1.5226  1.5741
 7401SOL    HW233840   4.437   4.678  15.208  0.4176 -1.9199 -1.9454
 7402SOL     OW33841   4.649   3.628   0.946 -0.3084  0.0291 -0.1602
 7402SOL    HW133842   0.003   3.649   0.920 -0.4555  0.3340 -0.4131
 7402SOL    HW233843   4.628   3.558   0.884 -0.4104  1.3379 -1.6144
 7403SOL     OW33844   0.817   1.975   8.298 -0.2177  0.0338  0.2304
 7403SOL    HW133845   0.848   1.885   8.303 -1.5958 -0.5464 -1.6884
 7403SOL    HW233846   0.846   2.018   8.378  0.7754 -0.0176 -0.1090
 7404SOL     OW33847   0.127   1.897   4.863 -0.1899  0.3264  0.5014
 7404SOL    HW133848   0.115   1.941   4.947  0.2864 -2.1890  1.8823
 7404SOL    HW233849   0.048   1.844   4.853 -1.6203  2.3801  0.9617
 7405SOL     OW33850   1.507   3.933   5.071 -0.4969 -0.3554  0.6931
 7405SOL    HW133851   1.459   3.895   5.145  1.2985 -0.9664  1.5399
 7405SOL    HW233852   1.498   3.874   4.996 -0.8338 -0.6978  1.0047
 7406SOL     OW33853   0.387   3.029   9.293 -0.0334 -0.3219  0.0612
 7406SOL    HW133854   0.385   3.011   9.387 -0.7225  0.3647  0.1700
 7406SOL    HW233855   0.298   3.063   9.287  0.2264  0.6431  1.5437
 7407SOL     OW33856   1.287   1.177   9.294  0.2338 -0.3507 -0.3375
 7407SOL    HW133857   1.323   1.144   9.211  0.5712  0.0907 -0.3638
 7407SOL    HW233858   1.362   1.167   9.353 -0.6394 -0.6683  0.7100
 7408SOL     OW33859   3.879   4.726   1.922 -0.4263  0.4361 -0.3596
 7408SOL    HW133860   3.829   0.071   1.907 -0.3241  0.4049 -0.8795
 7408SOL    HW233861   3.808   4.679   1.966 -0.0330 -0.8815 -1.1483
 7409SOL     OW33862   2.552   1.712   9.602  0.3607 -0.1208 -0.2580
 7409SOL    HW133863   2.482   1.668   9.555 -0.7754 -0.1586  1.4939
 7409SOL    HW233864   2.590   1.652   9.666 -2.2250 -1.1065  0.3359
 7410SOL     OW33865   4.068   4.665   2.332 -0.2740 -0.4993 -0.5410
 7410SOL    HW133866   4.024   4.583   2.307 -1.1436  0.2057 -1.3250
 7410SOL    HW233867   4.108   4.686   2.248  0.6169 -2.0742 -0.5127
 7411SOL     OW33868   1.367   2.432   1.495  0.8024  0.1471  0.2549
 7411SOL    HW133869   1.351   2.503   1.432  2.2419 -0.4496 -0.7869
 7411SOL    HW233870   1.454   2.444   1.533  1.1159  0.5465 -0.5764
 7412SOL     OW33871   1.005   2.337  14.006  0.0506 -0.9364  0.9739
 7412SOL    HW133872   1.026   2.282  13.931  0.2655  2.3869 -1.4184
 7412SOL    HW233873   0.924   2.385  13.986  0.3283 -1.1348 -0.6157
 7413SOL     OW33874   4.725   2.558  17.060 -0.0694  0.0054 -0.3381
 7413SOL    HW133875   4.647   2.613  17.049 -1.1541 -1.3437  0.5198
 7413SOL    HW233876   0.061   2.620  17.052 -0.0626 -0.1096 -1.1421
 7414SOL     OW33877   3.277   1.155   4.641  0.2069  0.1752 -0.1884
 7414SOL    HW133878   3.223   1.131   4.716  0.3069 -1.6955 -0.7264
 7414SOL    HW233879   3.296   1.071   4.600 -2.7126 -0.6489  0.1374
 7415SOL     OW33880   3.091   1.158   3.270 -0.5713  0.4998  0.3924
 7415SOL    HW133881   3.032   1.174   3.343  0.7777 -1.8349  2.0178
 7415SOL    HW233882   3.135   1.087   3.318 -3.2077 -1.0116  0.5717
 7416SOL     OW33883   3.009   0.323   8.546 -0.1915 -0.2087  0.5555
 7416SOL    HW133884   2.948   0.390   8.516  0.1400 -0.1296  0.0458
 7416SOL    HW233885   3.084   0.383   8.555  1.3543 -1.9266 -0.7548
 7417SOL     OW33886   4.011   3.143   7.368 -0.7861  0.0238 -0.2968
 7417SOL    HW133887   3.938   3.123   7.309 -0.4560  1.0195 -1.0536
 7417SOL    HW233888   3.964   3.127   7.449 -0.8223 -0.4256 -0.4083
 7418SOL     OW33889   1.515   3.670  13.380  0.1153 -0.6160 -0.1056
 7418SOL    HW133890   1.586   3.717  13.425 -0.6766 -0.0186  0.5299
 7418SOL    HW233891   1.452   3.742  13.381  0.8529  0.0555 -1.6530
 7419SOL     OW33892   4.227   1.657   2.045  0.0980 -0.4750  0.0266
 7419SOL    HW133893   4.159   1.690   2.104  0.2379  1.7259 -1.0270
 7419SOL    HW233894   4.194   1.570   2.024  1.3807 -0.6132 -1.3575
 7420SOL     OW33895   2.304   0.217   6.502 -0.9062 -0.1481 -0.2204
 7420SOL    HW133896   2.387   0.218   6.548  0.7132 -0.3466 -3.1674
 7420SOL    HW233897   2.335   0.212   6.411 -0.8459 -4.4095  0.0048
 7421SOL     OW33898   2.878   3.656   1.824  0.6331  0.3959  0.2302
 7421SOL    HW133899   2.933   3.688   1.896  1.6808  0.3218 -0.5404
 7421SOL    HW233900   2.794   3.679   1.864  1.0282 -0.8149  1.7541
 7422SOL     OW33901   1.071   2.386   1.570  0.2711 -0.6625  0.1096
 7422SOL    HW133902   1.142   2.337   1.527 -0.0871 -2.9988  2.1707
 7422SOL    HW233903   1.112   2.407   1.654 -0.1132 -1.1690  0.4255
 7423SOL     OW33904   3.344   1.637   3.738 -0.8199  0.0324  0.2638
 7423SOL    HW133905   3.418   1.578   3.751  1.0168  2.0432 -1.0748
 7423SOL    HW233906   3.321   1.667   3.826 -0.9770  0.4389  0.0804
 7424SOL     OW33907   1.799   1.720   4.193 -0.4144  0.2423 -0.4847
 7424SOL    HW133908   1.789   1.671   4.112  1.5513 -0.0354 -0.5473
 7424SOL    HW233909   1.730   1.787   4.196  0.7616  1.4046  0.7619
 7425SOL     OW33910   2.294   2.858   9.197  0.4935  0.1512  0.2640
 7425SOL    HW133911   2.264   2.769   9.180  2.6357 -0.4434 -0.3655
 7425SOL    HW233912   2.203   2.889   9.190 -0.4606 -2.5692  0.5803
 7426SOL     OW33913   0.575   4.120   7.275  0.0321 -0.1229  0.4405
 7426SOL    HW133914   0.550   4.041   7.227  0.1115  0.6671 -0.9153
 7426SOL    HW233915   0.627   4.165   7.208 -1.2514  0.2561 -0.2938
 7427SOL     OW33916   1.572   2.122  15.630 -0.1558  0.3607  0.5880
 7427SOL    HW133917   1.644   2.171  15.670  0.2631  0.3758 -0.1857
 7427SOL    HW233918   1.557   2.169  15.548 -1.2962  0.1503  0.6703
 7428SOL     OW33919   1.262   0.720  13.457  0.5026 -0.2572  0.2129
 7428SOL    HW133920   1.281   0.635  13.498  0.3362 -0.1488  0.5141
 7428SOL    HW233921   1.265   0.708  13.362  0.9652 -0.0485  0.2022
 7429SOL     OW33922   3.932   1.547   3.271  0.5409  0.6854 -0.0108
 7429SOL    HW133923   3.913   1.631   3.228 -1.0335  0.0668 -0.5172
 7429SOL    HW233924   3.886   1.558   3.355  1.2212  0.2589  0.4170
 7430SOL     OW33925   3.642   0.908   7.721 -0.4029 -0.6498  0.2330
 7430SOL    HW133926   3.617   0.817   7.706  1.3785 -1.2402  0.8512
 7430SOL    HW233927   3.732   0.898   7.690  0.8655  1.9561  3.0557
 7431SOL     OW33928   3.233   2.325  11.372 -0.5996 -0.6951  0.0246
 7431SOL    HW133929   3.220   2.420  11.374 -0.9253 -0.7592  0.7332
 7431SOL    HW233930   3.276   2.304  11.454 -0.3193 -1.6550 -0.3663
 7432SOL     OW33931   4.544   3.593   7.354 -0.3296 -0.2235 -0.4690
 7432SOL    HW133932   4.460   3.573   7.395  0.2993 -0.4411  0.7178
 7432SOL    HW233933   4.535   3.549   7.269 -0.2011 -2.4650  0.6843
 7433SOL     OW33934   2.127   2.398   8.013 -1.1437 -0.1410 -0.2865
 7433SOL    HW133935   2.191   2.327   8.014  0.5218  1.4311  1.6289
 7433SOL    HW233936   2.050   2.342   8.002 -0.4764 -1.1516  0.2432
 7434SOL     OW33937   1.658   0.543   5.311 -0.1158 -0.1395 -0.2899
 7434SOL    HW133938   1.705   0.485   5.250  2.1146  0.5249  0.8020
 7434SOL    HW233939   1.589   0.579   5.255 -0.6671  0.9215  1.0943
 7435SOL     OW33940   4.241   3.763   5.663  0.3476  0.0201  0.3381
 7435SOL    HW133941   4.298   3.839   5.652  1.6753 -0.9976  0.1416
 7435SOL    HW233942   4.211   3.776   5.753 -1.9493  0.3360 -0.4912
 7436SOL     OW33943   3.183   1.136  14.919 -0.4602  0.0990 -0.4481
 7436SOL    HW133944   3.172   1.123  14.825 -0.5562  0.5594 -0.4988
 7436SOL    HW233945   3.092   1.157  14.939  0.1914  1.1491  1.4435
 7437SOL     OW33946   1.350   2.327   7.327  0.1876 -0.3002  0.0443
 7437SOL    HW133947   1.350   2.391   7.398  2.8641  0.0433 -0.2608
 7437SOL    HW233948   1.428   2.272   7.339  0.6414 -0.0556 -1.6944
 7438SOL     OW33949   2.822   3.215   2.844 -0.0025  0.4511  0.2825
 7438SOL    HW133950   2.811   3.160   2.922  1.7349 -1.3415 -0.7380
 7438SOL    HW233951   2.781   3.164   2.774 -0.5641 -1.6714  2.1754
 7439SOL     OW33952   0.586   0.860   4.372 -0.9872  0.6587  0.2879
 7439SOL    HW133953   0.491   0.871   4.368 -1.0877  0.2128  1.6892
 7439SOL    HW233954   0.607   0.918   4.445 -0.3768 -0.3527  0.9161
 7440SOL     OW33955   2.095   3.354  17.316 -0.0597  0.3798  0.4412
 7440SOL    HW133956   2.072   3.446  17.332 -0.1145  0.1428  1.7620
 7440SOL    HW233957   2.178   3.358  17.364 -0.7130 -0.7104  1.6327
 7441SOL     OW33958   1.591   2.758   1.130  0.8083  0.1349 -0.1589
 7441SOL    HW133959   1.617   2.680   1.081  0.2519  0.3702 -0.8426
 7441SOL    HW233960   1.498   2.768   1.110  0.7988  0.9892  0.3442
 7442SOL     OW33961   2.101   0.172  15.377  1.1951  0.0713 -0.3376
 7442SOL    HW133962   2.068   0.083  15.384 -0.8321  0.8167 -0.5364
 7442SOL    HW233963   2.162   0.170  15.451  0.7163 -1.0439  0.0233
 7443SOL     OW33964   0.719   3.667   3.271  0.1746 -0.5492 -0.0386
 7443SOL    HW133965   0.629   3.695   3.253  0.5152  1.2139  1.0446
 7443SOL    HW233966   0.709   3.636   3.360 -0.1335 -2.1181 -0.6221
 7444SOL     OW33967   1.102   3.943   4.799 -0.0922 -0.3224 -0.2893
 7444SOL    HW133968   1.043   3.935   4.874 -0.0489 -3.3383 -0.5816
 7444SOL    HW233969   1.134   3.854   4.788  0.5825 -0.4281  2.6532
 7445SOL     OW33970   3.111   2.367   8.922 -0.5999 -0.4618  0.1882
 7445SOL    HW133971   3.103   2.391   8.829 -1.9545 -0.9069  0.2002
 7445SOL    HW233972   3.041   2.420   8.960  1.1504  1.7187  0.4086
 7446SOL     OW33973   0.561   4.119   4.094  0.4287 -0.5416 -0.0753
 7446SOL    HW133974   0.623   4.176   4.139 -1.2874  2.5204 -1.6115
 7446SOL    HW233975   0.556   4.064   4.172  0.7718 -1.2585 -0.5586
 7447SOL     OW33976   2.854   4.316   8.091  1.1436  0.1909  0.4572
 7447SOL    HW133977   2.837   4.408   8.113  0.6129  0.1473  0.2301
 7447SOL    HW233978   2.868   4.287   8.182  2.0213 -1.2222 -0.1330
 7448SOL     OW33979   3.257   3.675   4.427  0.0405  0.6717  0.6876
 7448SOL    HW133980   3.242   3.703   4.337 -0.9725  1.6297  1.1551
 7448SOL    HW233981   3.341   3.717   4.440 -0.9947  2.3017  2.0266
 7449SOL     OW33982   4.201   2.904   8.499  0.0053  0.9667  0.3894
 7449SOL    HW133983   4.117   2.884   8.540 -0.6217  1.3168 -0.7091
 7449SOL    HW233984   4.208   2.999   8.497  1.9809  0.8354  0.6664
 7450SOL     OW33985   1.547   1.424   5.304  0.2643 -0.3079 -0.3513
 7450SOL    HW133986   1.457   1.411   5.275  0.3521 -0.6989 -0.4544
 7450SOL    HW233987   1.587   1.337   5.295 -1.9207 -1.6791  3.3452
 7451SOL     OW33988   0.131   2.803  13.358  0.1683  0.0178 -0.9577
 7451SOL    HW133989   0.132   2.874  13.295 -0.1660 -0.4353 -1.4765
 7451SOL    HW233990   0.137   2.864  13.432  4.1348 -1.3998 -0.0975
 7452SOL     OW33991   2.967   2.308  11.622  0.1636  0.1985  0.7212
 7452SOL    HW133992   2.908   2.260  11.563  1.8151 -1.7298  0.6568
 7452SOL    HW233993   3.030   2.342  11.559 -0.6603  0.4550  0.0280
 7453SOL     OW33994   0.087   0.765   7.692  0.0333  0.1973  1.0890
 7453SOL    HW133995   0.108   0.693   7.632  2.5607  1.8862 -0.0493
 7453SOL    HW233996   0.162   0.758   7.751  0.7653  2.7522  0.4514
 7454SOL     OW33997   1.307   2.446   0.012 -0.1368  0.4247  0.2368
 7454SOL    HW133998   1.389   2.465   0.058  0.3767 -0.2289 -0.3910
 7454SOL    HW233999   1.347   2.389  17.685 -0.0640 -1.8815  2.2085
 7455SOL     OW34000   2.846   3.544   9.199  0.0360  0.0913 -0.2592
 7455SOL    HW134001   2.885   3.518   9.282 -1.9644  1.7945  1.2213
 7455SOL    HW234002   2.793   3.610   9.245  0.9506  0.7233 -0.1234
 7456SOL     OW34003   3.739   0.465   5.539  0.1063  0.1486  0.1011
 7456SOL    HW134004   3.733   0.551   5.497  1.7006  0.2686  0.1079
 7456SOL    HW234005   3.787   0.418   5.471  2.7560  1.4839  1.0349
 7457SOL     OW34006   0.244   3.022   1.743  0.2801  0.0146  0.4062
 7457SOL    HW134007   0.307   3.073   1.693 -0.2958 -0.2261 -0.5659
 7457SOL    HW234008   0.274   3.055   1.828 -0.5149  2.5507 -0.2986
 7458SOL     OW34009   3.891   0.241  15.354 -0.1444 -0.4816 -0.3803
 7458SOL    HW134010   3.834   0.289  15.415 -0.1045 -1.6316  0.5484
 7458SOL    HW234011   3.825   0.182  15.318 -3.7567  2.8151  0.7857
 7459SOL     OW34012   0.670   0.465   4.098 -0.6689 -0.0656 -0.1865
 7459SOL    HW134013   0.708   0.446   4.012 -0.0192 -0.4388  0.1864
 7459SOL    HW234014   0.643   0.556   4.089  1.2703  0.3822 -1.4070
 7460SOL     OW34015   3.947   0.875   6.783 -0.0762 -0.4345 -0.4146
 7460SOL    HW134016   4.007   0.844   6.851  0.5833 -2.1021 -1.7491
 7460SOL    HW234017   3.995   0.858   6.702 -0.8161 -1.1656 -0.7091
 7461SOL     OW34018   0.787   3.084   9.920  0.2438 -0.5819 -0.3525
 7461SOL    HW134019   0.801   3.055  10.010  0.9631  0.8700  0.0201
 7461SOL    HW234020   0.878   3.085   9.888  0.1289 -1.8450 -0.6881
 7462SOL     OW34021   1.115   2.020   4.014  0.5865 -0.5805  0.1765
 7462SOL    HW134022   1.202   2.008   4.051  0.2239  0.9893  1.5428
 7462SOL    HW234023   1.078   2.082   4.077  2.7921 -0.9415  1.8361
 7463SOL     OW34024   4.147   4.694   2.070 -0.3837 -0.0989 -0.1390
 7463SOL    HW134025   4.234   4.697   2.031 -0.1657 -1.4224  0.2597
 7463SOL    HW234026   4.091   4.703   1.993  3.7458 -0.9877 -3.2165
 7464SOL     OW34027   2.290   2.269   8.834  0.1885 -0.4743  0.0087
 7464SOL    HW134028   2.209   2.320   8.829 -0.1857 -1.0325  0.3761
 7464SOL    HW234029   2.256   2.180   8.844 -0.5863 -0.0428  1.1907
 7465SOL     OW34030   4.325   2.873   1.507  0.2017 -0.0411  0.3203
 7465SOL    HW134031   4.375   2.950   1.533 -0.7774  0.0158  2.0965
 7465SOL    HW234032   4.380   2.796   1.515 -1.9963 -1.6875 -0.5195
 7466SOL     OW34033   4.715   3.436   6.717  0.6918  0.0564  0.4765
 7466SOL    HW134034   4.636   3.484   6.741  0.1573 -1.9832  2.8221
 7466SOL    HW234035   4.687   3.345   6.709  0.3198  0.3379 -1.3828
 7467SOL     OW34036   0.002   3.107   0.426 -0.0547  0.0146 -0.8153
 7467SOL    HW134037   0.046   3.151   0.353  3.0617 -0.0840  0.9878
 7467SOL    HW234038   0.064   3.111   0.499  0.6019 -0.0239 -1.3709
 7468SOL     OW34039   4.422   4.022   6.445 -0.1559 -0.3269  0.8558
 7468SOL    HW134040   4.399   4.115   6.442 -0.0230 -0.3025  0.6024
 7468SOL    HW234041   4.509   4.017   6.485  0.1847 -0.3239  0.1325
 7469SOL     OW34042   0.374   3.359   9.371 -0.0324  0.2255  0.3020
 7469SOL    HW134043   0.309   3.419   9.406 -1.9025 -1.0732 -0.9707
 7469SOL    HW234044   0.321   3.336   9.295 -3.9916 -0.0179  3.1730
 7470SOL     OW34045   1.732   2.463  10.168  0.1424 -0.7125 -0.3645
 7470SOL    HW134046   1.824   2.446  10.150 -0.0107 -0.5668 -1.2722
 7470SOL    HW234047   1.703   2.373  10.184 -1.9176 -0.7427 -4.2645
 7471SOL     OW34048   3.309   4.603  15.392 -0.5241  0.0230  0.7216
 7471SOL    HW134049   3.302   4.691  15.355 -0.3551 -0.0763  0.4520
 7471SOL    HW234050   3.249   4.548  15.341 -1.3485  0.3853  1.2984
 7472SOL     OW34051   0.631   0.537  17.593  0.1740 -0.8621 -0.2807
 7472SOL    HW134052   0.615   0.506  17.683  0.2718  1.9061  0.7049
 7472SOL    HW234053   0.551   0.587  17.574  1.2700  1.7089  1.8560
 7473SOL     OW34054   4.377   0.007   1.937 -0.0088  0.1697 -0.0224
 7473SOL    HW134055   4.405   0.088   1.979  1.7091  0.5787 -1.9521
 7473SOL    HW234056   4.452   4.685   1.950 -0.3647 -0.4451 -0.6584
 7474SOL     OW34057   4.137   3.152   5.559 -0.6140  0.1558  0.5610
 7474SOL    HW134058   4.162   3.155   5.467 -1.5835 -0.2368  0.2947
 7474SOL    HW234059   4.166   3.062   5.577  1.3942  1.0579  1.8510
 7475SOL     OW34060   2.646   1.436   6.161 -0.3051 -0.7272 -0.1738
 7475SOL    HW134061   2.740   1.450   6.165 -0.3889 -0.7721  2.1898
 7475SOL    HW234062   2.625   1.474   6.246  0.2015 -1.2798  0.1964
 7476SOL     OW34063   3.288   4.689   5.836  0.1502  0.2407  0.0244
 7476SOL    HW134064   3.368   4.669   5.788  0.8353  3.2591 -0.0732
 7476SOL    HW234065   3.323   0.000   5.913  0.3169  0.0988  0.0346
 7477SOL     OW34066   2.058   3.978  16.155  0.2996  0.1756 -0.1734
 7477SOL    HW134067   2.005   3.908  16.117 -2.1978  2.8332 -1.5265
 7477SOL    HW234068   2.008   4.000  16.234  2.2058 -0.1684  1.1296
 7478SOL     OW34069   2.009   2.618  12.418 -0.5536  0.1837 -0.1246
 7478SOL    HW134070   1.918   2.593  12.432 -0.1228 -0.1752  2.0128
 7478SOL    HW234071   1.998   2.655  12.330 -0.1176 -1.3378 -0.8045
 7479SOL     OW34072   0.868   1.277   3.072 -0.0613  0.4362 -0.4825
 7479SOL    HW134073   0.775   1.292   3.083  0.4171  0.4333  3.5571
 7479SOL    HW234074   0.878   1.325   2.990  1.0891  1.3425  0.1850
 7480SOL     OW34075   3.518   0.915   1.262  0.0377  0.7717 -0.6829
 7480SOL    HW134076   3.556   0.964   1.335 -0.7669 -0.0644  0.3029
 7480SOL    HW234077   3.582   0.930   1.193 -1.0833 -0.2905 -1.9438
 7481SOL     OW34078   4.429   4.464  16.602  0.3648 -0.0573  0.1459
 7481SOL    HW134079   4.373   4.535  16.569 -0.0064  0.4006  1.8019
 7481SOL    HW234080   4.406   4.459  16.694  0.0089  1.6453  0.1540
 7482SOL     OW34081   3.543   1.994   6.349  0.3780 -0.3424 -0.0424
 7482SOL    HW134082   3.582   2.081   6.356 -1.9637  0.6323  0.6948
 7482SOL    HW234083   3.627   1.947   6.347 -0.9431 -2.7625  1.5857
 7483SOL     OW34084   1.515   0.147   6.832 -0.1777  0.0256  0.2043
 7483SOL    HW134085   1.578   0.080   6.805 -0.1873  0.3437 -0.6072
 7483SOL    HW234086   1.516   0.209   6.759 -0.2422 -1.1310 -0.7791
 7484SOL     OW34087   4.637   0.926   3.850  0.2073  0.2206 -0.3936
 7484SOL    HW134088   4.613   0.842   3.889  2.5893  0.4171  1.4699
 7484SOL    HW234089   4.569   0.980   3.891  0.6288  0.7069 -0.3420
 7485SOL     OW34090   0.030   1.347   2.545 -0.6009  0.1271  0.2925
 7485SOL    HW134091   4.710   1.408   2.594 -0.2093 -0.5914  1.6193
 7485SOL    HW234092   0.089   1.338   2.620  0.5262  2.7252 -0.2760
 7486SOL     OW34093   3.459   2.707  14.743  0.3498  0.1335 -1.0022
 7486SOL    HW134094   3.553   2.691  14.753  0.4299  1.3730  0.2172
 7486SOL    HW234095   3.452   2.667  14.656 -0.4491  1.4600 -1.5425
 7487SOL     OW34096   2.237   1.866   7.137  0.3296 -0.2950  0.7958
 7487SOL    HW134097   2.191   1.932   7.189 -1.5989 -1.4921  0.6014
 7487SOL    HW234098   2.160   1.839   7.085 -0.0897 -1.0924  1.8429
 7488SOL     OW34099   0.213   3.426   5.991 -0.1116  0.2450 -0.6314
 7488SOL    HW134100   0.289   3.475   5.958  0.8673  0.0678  1.3988
 7488SOL    HW234101   0.140   3.480   5.962 -1.2809  0.7531  3.3912
 7489SOL     OW34102   3.909   1.253   5.941  0.2646 -0.1033  0.3257
 7489SOL    HW134103   3.904   1.338   5.984 -1.3146  0.5019 -1.0369
 7489SOL    HW234104   3.991   1.265   5.892  0.8478 -1.2940  0.9969
 7490SOL     OW34105   0.481   1.842  10.148  0.2268  0.4633  0.5256
 7490SOL    HW134106   0.554   1.793  10.184 -0.3486 -0.1474  0.8632
 7490SOL    HW234107   0.534   1.914  10.113  0.7787  1.1604  2.7949
 7491SOL     OW34108   2.132   0.318   3.020  0.2907 -0.3475  0.3065
 7491SOL    HW134109   2.076   0.384   3.059  0.4296  0.5810 -1.0668
 7491SOL    HW234110   2.123   0.246   3.082 -1.3639 -0.3057  0.1332
 7492SOL     OW34111   2.191   3.924  13.844 -0.2660  0.3466 -0.5127
 7492SOL    HW134112   2.131   3.985  13.888 -0.2259 -2.3488  3.2572
 7492SOL    HW234113   2.266   3.918  13.902  0.6877 -0.0512 -1.7935
 7493SOL     OW34114   3.194   0.931   6.123 -0.4250  0.2907  0.0822
 7493SOL    HW134115   3.208   0.917   6.029  0.2882  1.7098 -0.0164
 7493SOL    HW234116   3.228   1.020   6.130  1.8881 -0.3765 -2.2753
 7494SOL     OW34117   0.009   0.311  14.818  0.1863  0.2267 -0.2790
 7494SOL    HW134118   0.030   0.219  14.835  0.5277  0.6369  1.4922
 7494SOL    HW234119   4.694   0.301  14.737  1.6720 -1.5613 -0.9978
 7495SOL     OW34120   3.768   0.503   8.644 -0.1849 -1.0806 -0.6602
 7495SOL    HW134121   3.673   0.500   8.631 -0.6662  1.3968  2.3483
 7495SOL    HW234122   3.774   0.514   8.739 -1.5383  0.5121 -0.7543
 7496SOL     OW34123   4.730   2.172   6.589  0.4626  0.7393  0.1255
 7496SOL    HW134124   0.050   2.250   6.594 -1.3875  2.0185  0.6365
 7496SOL    HW234125   0.055   2.098   6.596  1.0510  1.2425  0.3531
 7497SOL     OW34126   1.859   0.617   2.228 -0.0440 -0.3854  0.1402
 7497SOL    HW134127   1.821   0.633   2.142 -0.2037 -1.3939  0.0205
 7497SOL    HW234128   1.908   0.698   2.239  2.0644 -1.4510 -1.4609
 7498SOL     OW34129   2.922   1.252  10.154  0.1483  0.6337  0.4021
 7498SOL    HW134130   3.009   1.288  10.172  0.9791 -2.0510  1.7714
 7498SOL    HW234131   2.949   1.161  10.140  1.9490  1.2785 -0.3116
 7499SOL     OW34132   4.349   1.198   0.010  1.1261  0.6530 -0.1635
 7499SOL    HW134133   4.287   1.269   0.026  0.6032  0.2962 -0.6306
 7499SOL    HW234134   4.342   1.148   0.091 -0.3604  1.3176  0.1128
 7500SOL     OW34135   3.951   3.810   5.072 -0.5354 -0.3452  0.5962
 7500SOL    HW134136   3.984   3.900   5.073  0.3948 -0.6988  1.8009
 7500SOL    HW234137   4.030   3.760   5.056 -0.2259  0.0435  0.9141
 7501SOL     OW34138   1.061   1.766   3.143 -0.6073 -0.2674  0.5277
 7501SOL    HW134139   1.092   1.678   3.162 -1.7478 -0.9474 -0.6837
 7501SOL    HW234140   0.967   1.753   3.159 -1.2417  1.3997 -1.7642
 7502SOL     OW34141   3.641   1.590  13.284 -0.0490 -0.3486 -0.1665
 7502SOL    HW134142   3.593   1.618  13.362 -0.8931 -0.9828 -0.4570
 7502SOL    HW234143   3.565   1.559  13.233 -2.9182  4.7484  1.0304
 7503SOL     OW34144   1.958   2.593  13.024 -1.0547 -0.6620 -0.4612
 7503SOL    HW134145   2.026   2.529  13.002 -2.5922 -1.3039 -3.2697
 7503SOL    HW234146   1.908   2.536  13.083 -1.9792  0.7982  0.1525
 7504SOL     OW34147   1.952   1.467   3.925 -0.3442 -0.2313  0.0110
 7504SOL    HW134148   2.037   1.508   3.943 -1.5980  1.3615  2.2446
 7504SOL    HW234149   1.935   1.422   4.007  1.7505 -0.2787  0.4232
 7505SOL     OW34150   4.523   1.577   2.489  0.0167  0.3782 -0.2620
 7505SOL    HW134151   4.519   1.584   2.393 -2.0726  1.2620 -0.1183
 7505SOL    HW234152   4.431   1.549   2.493  0.3123 -0.5497 -0.1557
 7506SOL     OW34153   4.704   0.260   7.011  0.5525  0.3750 -0.0304
 7506SOL    HW134154   4.721   0.231   7.100  1.5322 -1.0890 -0.6919
 7506SOL    HW234155   0.055   0.241   6.974  0.8952 -0.6330  1.2987
 7507SOL     OW34156   3.491   1.733   2.198 -0.4300 -0.4458  0.0479
 7507SOL    HW134157   3.433   1.680   2.253 -2.5340  0.1661 -1.6221
 7507SOL    HW234158   3.486   1.695   2.111  0.6827  0.0230 -0.2166
 7508SOL     OW34159   3.022   1.052   5.176  0.7530 -0.2676 -0.4594
 7508SOL    HW134160   3.037   1.007   5.259  0.4454 -0.8960 -0.7475
 7508SOL    HW234161   2.965   1.124   5.202  3.9518  2.0756  0.0641
 7509SOL     OW34162   1.980   1.613   6.921 -0.0034 -0.0776  0.0265
 7509SOL    HW134163   1.983   1.686   6.983 -1.4731 -1.4601  1.7402
 7509SOL    HW234164   1.885   1.610   6.912 -0.1557  1.3764  1.1008
 7510SOL     OW34165   0.222   1.678   4.277 -0.6585  0.5155  0.0409
 7510SOL    HW134166   0.172   1.598   4.295  0.2853 -0.1564 -0.3195
 7510SOL    HW234167   0.275   1.648   4.204  1.0199  1.0217  1.0453
 7511SOL     OW34168   3.408   0.392   4.526  0.1930  0.5291 -0.0180
 7511SOL    HW134169   3.470   0.322   4.545 -0.1031  0.8123  2.0073
 7511SOL    HW234170   3.457   0.474   4.535  0.5104  0.4914 -1.3490
 7512SOL     OW34171   3.284   2.418   2.614  0.1728  0.8817 -0.0256
 7512SOL    HW134172   3.263   2.362   2.540  3.3682 -0.5553  0.1430
 7512SOL    HW234173   3.277   2.505   2.576  0.2785  0.9321  0.0707
 7513SOL     OW34174   2.316   2.520   7.796  0.0977  0.6421  0.6478
 7513SOL    HW134175   2.264   2.582   7.745 -0.1774  1.1488  1.5435
 7513SOL    HW234176   2.247   2.470   7.841  0.2208  0.4636  0.6388
 7514SOL     OW34177   3.882   1.649  16.077  0.8214  1.1776  0.3537
 7514SOL    HW134178   3.832   1.711  16.130 -2.3736  0.7985 -2.2355
 7514SOL    HW234179   3.976   1.666  16.092  1.4232 -0.4089 -1.6485
 7515SOL     OW34180   0.101   2.987  11.042  0.0298 -0.3835 -0.4023
 7515SOL    HW134181   0.182   3.002  11.091 -0.7837 -0.5117  1.0128
 7515SOL    HW234182   0.134   2.994  10.953 -0.0784 -1.2569 -0.5073
 7516SOL     OW34183   2.182   0.227   1.771  0.3831 -0.0012  0.3875
 7516SOL    HW134184   2.252   0.177   1.728  1.8295  0.0007  2.6838
 7516SOL    HW234185   2.232   0.307   1.786 -0.5139  0.6165  0.0595
 7517SOL     OW34186   4.315   2.187   6.837 -0.1110 -0.6996  0.0004
 7517SOL    HW134187   4.233   2.191   6.887  1.5052 -0.6576  2.6405
 7517SOL    HW234188   4.379   2.158   6.902 -0.0689 -1.9567 -0.6094
 7518SOL     OW34189   0.259   0.885  10.631  0.1581  0.1537 -0.2155
 7518SOL    HW134190   0.212   0.953  10.583 -0.2016 -0.4578 -0.7357
 7518SOL    HW234191   0.207   0.807  10.610  1.6614 -0.2790 -2.3329
 7519SOL     OW34192   3.575   4.683   2.457  1.1903 -0.5213 -0.5648
 7519SOL    HW134193   3.601   0.037   2.480 -0.1348 -0.5997  1.2124
 7519SOL    HW234194   3.541   4.645   2.538 -0.9546  3.1556  0.2238
 7520SOL     OW34195   3.575   2.224   4.463 -0.0876  0.4588  0.1723
 7520SOL    HW134196   3.602   2.171   4.537  0.5505  1.1162  0.4112
 7520SOL    HW234197   3.662   2.253   4.434 -0.9181  1.7796 -1.0370
 7521SOL     OW34198   2.006   4.358  11.365  0.5060 -0.2661 -0.4598
 7521SOL    HW134199   2.083   4.387  11.315  0.2480 -0.2555 -0.8584
 7521SOL    HW234200   2.023   4.274  11.406 -3.1181 -0.4569  0.6399
 7522SOL     OW34201   3.144   1.777  15.034  0.6169 -0.2188 -0.0481
 7522SOL    HW134202   3.075   1.757  15.097  1.3940  1.7446  1.4497
 7522SOL    HW234203   3.221   1.736  15.074  0.8422  1.0343  0.8076
 7523SOL     OW34204   1.426   2.734   7.408 -0.1449 -0.2077 -0.0363
 7523SOL    HW134205   1.472   2.781   7.338 -0.7570 -0.8954 -0.9000
 7523SOL    HW234206   1.500   2.734   7.468  0.5916 -0.4732 -0.9481
 7524SOL     OW34207   3.676   3.803  14.465 -0.3661 -0.3112 -0.3161
 7524SOL    HW134208   3.737   3.748  14.513  1.2299  1.8340  0.1102
 7524SOL    HW234209   3.645   3.858  14.537 -1.3439 -0.1235 -0.8682
 7525SOL     OW34210   4.193   2.224   2.354 -0.4839  0.2565  0.5543
 7525SOL    HW134211   4.207   2.202   2.262 -0.1568 -0.9885  0.9086
 7525SOL    HW234212   4.103   2.194   2.369 -0.1071 -1.4340 -0.5897
 7526SOL     OW34213   4.521   3.061   8.907 -0.2574  0.4571 -0.1115
 7526SOL    HW134214   4.478   3.028   8.986 -1.7657  1.2639 -0.5849
 7526SOL    HW234215   4.566   3.137   8.943  1.0287 -0.5394  0.3638
 7527SOL     OW34216   4.625   0.392   4.858  0.0825  0.6291  0.0894
 7527SOL    HW134217   4.581   0.425   4.936  0.6554  0.3339  0.5403
 7527SOL    HW234218   4.707   0.442   4.858  1.3455 -1.4264 -2.2031
 7528SOL     OW34219   3.754   3.759   7.359  0.3701 -0.1115  0.5680
 7528SOL    HW134220   3.735   3.681   7.307  1.1722 -0.8873  1.4511
 7528SOL    HW234221   3.819   3.811   7.312 -0.0858 -1.2877 -1.3462
 7529SOL     OW34222   2.202   3.531   4.024  0.0471  0.5488 -0.4488
 7529SOL    HW134223   2.252   3.575   4.093 -0.9386 -1.2016  1.3712
 7529SOL    HW234224   2.255   3.457   3.996 -0.9266 -0.5628  0.6664
 7530SOL     OW34225   4.613   1.237   7.168  0.1538  0.4096 -0.1163
 7530SOL    HW134226   4.661   1.241   7.251  0.0688 -3.3737  0.1126
 7530SOL    HW234227   4.652   1.301   7.109 -1.9926  0.1712 -1.7744
 7531SOL     OW34228   4.468   0.956   6.427  0.2640 -0.1101  0.5686
 7531SOL    HW134229   4.473   0.874   6.378  0.3129  2.4423 -3.6716
 7531SOL    HW234230   4.447   1.020   6.359  0.3313  0.0419  0.6906
 7532SOL     OW34231   3.930   1.385  10.291 -0.1656  0.1474  0.9982
 7532SOL    HW134232   3.978   1.417  10.367  2.4415  0.2424 -0.6877
 7532SOL    HW234233   3.909   1.297  10.322  1.2467 -0.9640 -1.1935
 7533SOL     OW34234   0.040   1.647   3.636  0.2372  0.3045  0.0505
 7533SOL    HW134235   4.728   1.692   3.566 -2.8541 -0.5589  1.6187
 7533SOL    HW234236   0.132   1.666   3.618  0.4341  0.0429  0.7613
 7534SOL     OW34237   1.621   0.052  12.484 -0.6588 -0.5613  0.5800
 7534SOL    HW134238   1.697   0.040  12.541 -0.8386  1.0335  1.1634
 7534SOL    HW234239   1.576   0.120  12.534  0.8342  1.4239 -0.7646
 7535SOL     OW34240   0.006   3.687   1.798 -0.1335  0.5507  0.7148
 7535SOL    HW134241   4.699   3.733   1.871 -1.2099  1.4362 -0.4670
 7535SOL    HW234242   0.011   3.598   1.832  3.1832 -0.1657 -1.6739
 7536SOL     OW34243   1.626   1.345   1.819  0.1553  0.0216  0.2506
 7536SOL    HW134244   1.597   1.274   1.762 -1.3296  0.8356 -0.0086
 7536SOL    HW234245   1.637   1.307   1.906  1.8450 -0.7485 -0.2977
 7537SOL     OW34246   3.871   3.661   0.904 -0.3624  0.2095 -0.2437
 7537SOL    HW134247   3.862   3.724   0.831  0.9881  3.1894  2.1740
 7537SOL    HW234248   3.821   3.703   0.974 -0.0881  1.0460 -0.5389
 7538SOL     OW34249   2.291   1.709   9.466  0.3392  0.8834 -0.8881
 7538SOL    HW134250   2.209   1.731   9.510  1.2978  0.5057  1.0833
 7538SOL    HW234251   2.298   1.615   9.483  0.0962  0.8365 -1.0418
 7539SOL     OW34252   2.891   4.168  15.569  0.6348  0.1702  0.1420
 7539SOL    HW134253   2.948   4.243  15.584  0.4090  0.9943 -2.9470
 7539SOL    HW234254   2.850   4.193  15.486 -0.1247 -0.4496  0.3370
 7540SOL     OW34255   1.313   0.510   1.427 -0.1777  0.3775  0.3582
 7540SOL    HW134256   1.237   0.474   1.381  1.2550  0.1475 -1.8560
 7540SOL    HW234257   1.383   0.454   1.392  0.8104  1.5676  0.4052
 7541SOL     OW34258   1.983   2.362  11.352 -0.0550  0.1933  0.9386
 7541SOL    HW134259   1.915   2.397  11.409  0.6690  0.8801  1.3740
 7541SOL    HW234260   1.953   2.271  11.351  0.3364  0.0521  2.1524
 7542SOL     OW34261   0.969   0.216  13.188 -0.6345  0.2957  0.3790
 7542SOL    HW134262   0.958   0.282  13.119 -0.4391  1.1956  1.2027
 7542SOL    HW234263   0.883   0.208  13.229 -0.8589  0.0123 -0.1473
 7543SOL     OW34264   0.152   0.151   8.361  0.0578 -0.4126 -0.2842
 7543SOL    HW134265   0.114   0.130   8.446 -0.1671  0.2652 -0.2194
 7543SOL    HW234266   0.073   0.181   8.315  1.3398  2.2155 -0.7617
 7544SOL     OW34267   3.221   0.709  14.627 -0.6716 -0.3167  0.4970
 7544SOL    HW134268   3.262   0.726  14.712 -2.7044 -0.6750  1.5411
 7544SOL    HW234269   3.147   0.770  14.627 -1.9853 -1.9307 -0.2247
 7545SOL     OW34270   1.554   3.138   5.659 -0.1207  0.6656 -0.0909
 7545SOL    HW134271   1.531   3.189   5.737 -0.2625  0.0138  0.2947
 7545SOL    HW234272   1.644   3.165   5.641 -0.2172 -0.5333 -2.3084
 7546SOL     OW34273   3.155   1.373   5.922 -0.0551  0.5718  0.1735
 7546SOL    HW134274   3.133   1.463   5.948  1.0340  0.8594  0.0766
 7546SOL    HW234275   3.235   1.363   5.973 -0.2621  0.1147  0.4031
 7547SOL     OW34276   4.124   2.268  11.691  0.3286  0.1745  0.3342
 7547SOL    HW134277   4.196   2.252  11.630  1.6170  0.9515  1.6731
 7547SOL    HW234278   4.113   2.175  11.707  2.2245  0.1407  1.4106
 7548SOL     OW34279   3.955   4.312   2.695  0.2770 -0.0683 -0.1589
 7548SOL    HW134280   3.942   4.397   2.736 -1.1284 -0.6338  0.5801
 7548SOL    HW234281   3.945   4.323   2.600 -0.5743 -2.3062 -0.3239
 7549SOL     OW34282   0.573   2.512   0.692 -0.6145  0.4922 -0.1744
 7549SOL    HW134283   0.600   2.502   0.783 -0.8416  0.3603 -0.1233
 7549SOL    HW234284   0.607   2.601   0.678  1.7142 -0.3526  0.1419
 7550SOL     OW34285   0.974   2.853   3.270 -0.5143  0.4413 -0.6409
 7550SOL    HW134286   0.904   2.788   3.267 -0.5687  0.4254  1.1416
 7550SOL    HW234287   0.933   2.932   3.234 -0.4197  0.3739 -0.9018
 7551SOL     OW34288   3.978   2.046   8.606  0.6257  0.2547  0.0632
 7551SOL    HW134289   3.934   2.087   8.531  0.2926 -1.0378 -0.4448
 7551SOL    HW234290   3.996   2.124   8.658 -0.4657  1.4827 -1.3802
 7552SOL     OW34291   4.000   2.516   4.683 -0.6269  0.4867  0.6711
 7552SOL    HW134292   4.058   2.495   4.609 -1.6217 -1.2098  0.3719
 7552SOL    HW234293   4.047   2.597   4.703  2.0458 -1.0241  0.6098
 7553SOL     OW34294   0.451   3.733   5.264  0.2120 -0.4424 -0.4792
 7553SOL    HW134295   0.530   3.680   5.271  0.3662 -0.3073 -1.1816
 7553SOL    HW234296   0.457   3.801   5.331  1.5039 -1.8476  0.8176
 7554SOL     OW34297   1.151   0.724   2.799 -0.5939  0.7096  0.0482
 7554SOL    HW134298   1.078   0.667   2.777  1.9296 -2.8961  0.9832
 7554SOL    HW234299   1.175   0.762   2.715  1.1979  1.0932  0.7344
 7555SOL     OW34300   2.842   1.787   4.668 -0.4460  0.6372 -0.2978
 7555SOL    HW134301   2.834   1.873   4.708  1.7884  0.9971 -0.6464
 7555SOL    HW234302   2.761   1.749   4.703 -0.6733  0.7799 -0.6691
 7556SOL     OW34303   1.742   1.228   0.311 -0.0292  0.2115  0.0740
 7556SOL    HW134304   1.811   1.264   0.256  1.3302 -0.7347  1.1650
 7556SOL    HW234305   1.777   1.192   0.392 -1.1994 -0.4542  0.2846
 7557SOL     OW34306   4.633   1.753   2.877  0.3038 -0.2633  0.8047
 7557SOL    HW134307   4.593   1.759   2.790  2.5709 -2.7555 -0.4012
 7557SOL    HW234308   4.584   1.813   2.933 -0.4060  0.4157 -0.5381
 7558SOL     OW34309   2.999   1.320   1.040  0.0823  0.5709  0.5961
 7558SOL    HW134310   3.060   1.318   1.114  1.8941  0.3575 -0.8876
 7558SOL    HW234311   3.015   1.239   0.991  0.5759  1.1126 -0.1547
 7559SOL     OW34312   3.711   1.246  13.394 -0.0075 -0.5342  0.3168
 7559SOL    HW134313   3.697   1.172  13.453  0.9106 -2.1485 -1.4867
 7559SOL    HW234314   3.720   1.315  13.459 -0.4749  0.5178 -0.7316
 7560SOL     OW34315   2.879   0.337   3.547  0.1109  0.2785 -0.0170
 7560SOL    HW134316   2.903   0.429   3.538 -1.3054  0.7056  0.5602
 7560SOL    HW234317   2.844   0.325   3.459  0.0627  2.3763 -0.2715
 7561SOL     OW34318   2.030   0.725  11.184  0.3943 -0.0784  0.2709
 7561SOL    HW134319   2.049   0.734  11.278 -3.9497 -1.8177  1.3495
 7561SOL    HW234320   2.050   0.633  11.170 -4.3505 -1.0751 -0.0781
 7562SOL     OW34321   4.555   1.260   8.212  0.2697 -0.4938 -1.0219
 7562SOL    HW134322   4.588   1.317   8.142 -0.2688 -1.0569 -1.7303
 7562SOL    HW234323   4.583   1.302   8.293 -2.4591 -0.4303 -0.0932
 7563SOL     OW34324   3.102   0.422   9.081  0.5214 -0.7181  0.1743
 7563SOL    HW134325   3.023   0.454   9.123  1.9243  0.9072  1.5807
 7563SOL    HW234326   3.113   0.334   9.116  1.0567 -0.6423  0.2018
 7564SOL     OW34327   0.497   2.175  10.757 -0.2692 -0.4844  0.3409
 7564SOL    HW134328   0.558   2.131  10.698 -0.0991  0.1343  0.0588
 7564SOL    HW234329   0.562   2.208  10.821 -1.2913  0.2838  0.9828
 7565SOL     OW34330   2.242   3.933  15.317 -0.0117  0.0536  0.4595
 7565SOL    HW134331   2.295   3.935  15.397  0.4357 -1.7854  0.1926
 7565SOL    HW234332   2.264   3.849  15.278 -1.2361  0.1352 -0.3949
 7566SOL     OW34333   1.976   1.215  10.990  0.0907 -0.6318  0.1856
 7566SOL    HW134334   1.954   1.140  10.935 -0.2016 -1.0638  0.8934
 7566SOL    HW234335   1.897   1.215  11.044 -0.1444  1.0091 -0.1647
 7567SOL     OW34336   2.678   0.098   8.437  0.6116 -0.7534 -0.1480
 7567SOL    HW134337   2.709   0.125   8.351 -0.3910  1.4521  0.1847
 7567SOL    HW234338   2.727   0.149   8.501 -0.3365  1.3899 -1.1237
 7568SOL     OW34339   1.627   4.329   4.574 -0.0868  0.2469  0.1358
 7568SOL    HW134340   1.685   4.285   4.512  1.3124  0.0153  1.6160
 7568SOL    HW234341   1.541   4.305   4.540  0.6633 -0.9057 -0.9523
 7569SOL     OW34342   2.674   2.483  12.979 -0.1711 -0.5086 -0.0243
 7569SOL    HW134343   2.641   2.540  12.910  1.1089 -0.1206 -0.3200
 7569SOL    HW234344   2.768   2.487  12.964  0.1277 -1.7503  1.5259
 7570SOL     OW34345   1.144   3.674   4.875 -0.3102 -0.1066  0.2167
 7570SOL    HW134346   1.165   3.586   4.906 -0.3471 -0.5498 -0.9926
 7570SOL    HW234347   1.057   3.683   4.913 -1.1106  0.3060 -1.7391
 7571SOL     OW34348   4.372   2.963   1.981  0.0613  0.0101  0.6068
 7571SOL    HW134349   4.368   2.869   1.963 -0.3113 -0.1390  1.5117
 7571SOL    HW234350   4.280   2.984   1.995  0.3324  1.9352 -0.3980
 7572SOL     OW34351   3.219   2.512   3.033  0.2444 -0.3190  0.2086
 7572SOL    HW134352   3.288   2.537   2.971 -0.9118 -0.1127 -0.9822
 7572SOL    HW234353   3.253   2.424   3.053  0.3595 -0.5835 -1.1162
 7573SOL     OW34354   3.531   0.617   6.752  0.2220 -0.4062 -0.6265
 7573SOL    HW134355   3.620   0.609   6.719  1.0817  1.9196  1.0840
 7573SOL    HW234356   3.540   0.710   6.774  1.0602 -0.8876  1.0215
 7574SOL     OW34357   2.090   0.928   2.836  0.3246 -0.0308 -1.1245
 7574SOL    HW134358   2.000   0.893   2.835 -0.4283  1.9120 -0.5257
 7574SOL    HW234359   2.139   0.865   2.783  0.8364 -1.1227  0.6350
 7575SOL     OW34360   0.967   4.344   5.770  0.4062 -0.5956 -0.2045
 7575SOL    HW134361   0.929   4.297   5.845  2.6169 -2.6604 -0.3652
 7575SOL    HW234362   0.928   4.431   5.781  0.2352 -0.9741  2.3962
 7576SOL     OW34363   2.483   3.366  14.183 -0.1047  0.0315 -0.3446
 7576SOL    HW134364   2.445   3.369  14.096 -3.8056  1.3967  1.3227
 7576SOL    HW234365   2.529   3.449  14.175 -1.4504  0.6319 -1.8253
 7577SOL     OW34366   4.264   1.289   2.755 -0.1642  0.0204  0.7275
 7577SOL    HW134367   4.244   1.379   2.779  0.6140  0.1380  0.9300
 7577SOL    HW234368   4.345   1.276   2.804 -1.0789  1.6767  2.6987
 7578SOL     OW34369   4.226   1.666   0.191 -0.2614  0.4961  0.0851
 7578SOL    HW134370   4.207   1.636   0.280 -1.6018  1.1374  0.0103
 7578SOL    HW234371   4.300   1.610   0.164 -0.2947 -0.2207  1.5070
 7579SOL     OW34372   2.301   4.213   2.335 -0.5009 -0.3092  0.1354
 7579SOL    HW134373   2.248   4.288   2.309  0.0706 -0.7482 -2.2644
 7579SOL    HW234374   2.239   4.165   2.390 -0.6300 -0.4117 -0.0998
 7580SOL     OW34375   1.795   0.979   2.663  0.0202  0.0350  0.0199
 7580SOL    HW134376   1.846   1.046   2.617 -0.2521  1.7032  2.1589
 7580SOL    HW234377   1.763   1.042   2.728 -0.7019  0.7796 -1.0574
 7581SOL     OW34378   1.228   4.417   7.280  0.1535 -0.0260 -0.1425
 7581SOL    HW134379   1.207   4.499   7.236  0.1991 -0.0699 -0.2447
 7581SOL    HW234380   1.138   4.387   7.290  0.1152  0.5107  1.1726
 7582SOL     OW34381   2.056   4.181   7.858  0.3288  0.7301  0.4333
 7582SOL    HW134382   2.143   4.192   7.819 -0.6021  1.2787 -1.4856
 7582SOL    HW234383   2.029   4.090   7.846  0.7562  0.7678 -0.8262
 7583SOL     OW34384   4.343   2.062   4.246 -0.5172 -0.3637 -0.1816
 7583SOL    HW134385   4.309   2.012   4.173  1.1146 -2.1673  0.3120
 7583SOL    HW234386   4.381   1.991   4.298  0.7003  1.2561  1.1585
 7584SOL     OW34387   3.893   2.983   7.980  0.5198 -0.0571 -0.0620
 7584SOL    HW134388   3.911   3.072   7.951 -0.1969  0.7515  2.0068
 7584SOL    HW234389   3.985   2.960   7.995  1.0714  0.9129 -1.9439
 7585SOL     OW34390   4.626   2.061   6.019  0.3084 -0.5527  0.9239
 7585SOL    HW134391   4.588   2.130   6.073  0.0767 -1.9804  2.5478
 7585SOL    HW234392   4.549   2.018   5.981  0.7883  1.0408 -1.8717
 7586SOL     OW34393   4.517   3.027  14.537 -0.3508 -0.2065 -0.3944
 7586SOL    HW134394   4.466   3.093  14.489 -1.1717  0.0323  0.8273
 7586SOL    HW234395   4.604   3.066  14.525 -0.2673 -0.4661 -0.6283
 7587SOL     OW34396   0.568   4.145   5.790  0.0565  0.0668 -0.2068
 7587SOL    HW134397   0.583   4.162   5.697 -0.1011 -1.3367 -0.4821
 7587SOL    HW234398   0.512   4.221   5.810  1.3572  1.0320 -0.2077
 7588SOL     OW34399   2.364   1.951   2.428 -0.0892  0.3717  0.4649
 7588SOL    HW134400   2.424   1.991   2.491 -1.0232  1.1048  0.8905
 7588SOL    HW234401   2.384   1.857   2.433 -0.7359  0.2249  0.3467
 7589SOL     OW34402   2.236   2.085  14.672  0.8809 -0.3701  0.1070
 7589SOL    HW134403   2.161   2.026  14.677 -0.0367  0.6865 -0.8984
 7589SOL    HW234404   2.246   2.110  14.764  0.1475  1.7530 -0.3820
 7590SOL     OW34405   2.641   0.668   4.017  0.0801  0.1680 -0.4452
 7590SOL    HW134406   2.585   0.685   3.941 -0.1352 -1.5863 -0.6719
 7590SOL    HW234407   2.579   0.619   4.071 -0.2377  1.7118  0.5884
 7591SOL     OW34408   0.340   0.783  15.533  0.3820  0.1231  0.4448
 7591SOL    HW134409   0.291   0.766  15.614  2.3182  0.4021  1.6763
 7591SOL    HW234410   0.420   0.819  15.572  0.7851 -1.7838  1.3892
 7592SOL     OW34411   2.406   2.892   7.930 -0.1816 -0.0596 -0.0796
 7592SOL    HW134412   2.363   2.812   7.960  1.8476 -1.3053 -0.5243
 7592SOL    HW234413   2.461   2.911   8.006 -0.5622  0.9028 -0.0447
 7593SOL     OW34414   4.525   3.661  13.047  0.0306  0.0199  0.0228
 7593SOL    HW134415   4.489   3.574  13.062 -1.0919  0.7509  1.4662
 7593SOL    HW234416   4.458   3.719  13.083 -3.0234 -2.5877 -1.5099
 7594SOL     OW34417   0.922   4.441   8.243 -0.2554 -0.6097 -0.9723
 7594SOL    HW134418   0.983   4.396   8.300 -0.6852  1.3397  1.0457
 7594SOL    HW234419   0.897   4.521   8.290  0.1370 -0.8709 -0.3120
 7595SOL     OW34420   1.808   1.635   4.756 -0.4422 -0.5132  0.1242
 7595SOL    HW134421   1.798   1.540   4.762 -1.5814 -0.4266 -0.3997
 7595SOL    HW234422   1.889   1.636   4.807 -1.0919 -2.6971  1.2317
 7596SOL     OW34423   0.931   4.472   4.832 -0.5946 -0.0826 -0.4740
 7596SOL    HW134424   0.981   4.390   4.831 -0.3535  0.0113  3.1974
 7596SOL    HW234425   0.980   4.523   4.896 -0.4394 -0.4605 -0.2885
 7597SOL     OW34426   1.709   3.572   6.120 -0.1817 -0.2788  0.1204
 7597SOL    HW134427   1.632   3.518   6.106 -0.5377  0.6845 -1.5588
 7597SOL    HW234428   1.770   3.510   6.078 -0.2856  0.0930 -0.5738
 7598SOL     OW34429   2.518   1.200   5.154  0.0889  0.3098  0.3693
 7598SOL    HW134430   2.428   1.183   5.182 -0.4218  1.9485 -0.2666
 7598SOL    HW234431   2.552   1.111   5.140  1.2926  0.5170  1.9992
 7599SOL     OW34432   0.196   2.033  15.245  0.7059  0.2826  0.4580
 7599SOL    HW134433   0.272   2.061  15.195  1.7782 -0.7681  1.4822
 7599SOL    HW234434   0.134   2.094  15.206  0.4702 -0.3207 -0.1050
 7600SOL     OW34435   0.311   1.448   4.634  0.1950 -0.0933  0.1082
 7600SOL    HW134436   0.347   1.456   4.545 -2.2575 -0.6127 -0.9245
 7600SOL    HW234437   0.254   1.524   4.646 -1.3798 -1.4592  1.2761
 7601SOL     OW34438   3.185   2.709  14.711  0.0400  0.1523  0.2674
 7601SOL    HW134439   3.279   2.722  14.720  0.3368 -0.8019 -1.4345
 7601SOL    HW234440   3.179   2.657  14.631 -1.6735  2.8865 -1.3535
 7602SOL     OW34441   3.155   3.591   5.567 -0.0961 -0.1603 -0.2113
 7602SOL    HW134442   3.148   3.682   5.597 -0.5817  0.3145 -1.7591
 7602SOL    HW234443   3.251   3.584   5.563 -0.0425  0.1865  0.5254
 7603SOL     OW34444   2.202   0.567  17.573  0.5619  0.1408 -1.4036
 7603SOL    HW134445   2.182   0.565  17.480 -0.1540  0.8526 -1.2685
 7603SOL    HW234446   2.213   0.475  17.596 -1.4690 -0.1430 -1.5268
 7604SOL     OW34447   0.315   3.221   7.064  0.0926 -1.0184 -0.0937
 7604SOL    HW134448   0.284   3.312   7.072 -1.5357 -1.7272  1.7967
 7604SOL    HW234449   0.394   3.229   7.011 -0.4715  0.2543 -0.7353
 7605SOL     OW34450   2.824   0.912  17.630 -0.1006 -0.3830 -0.1212
 7605SOL    HW134451   2.858   0.937  17.544 -0.6090  1.2633  0.1667
 7605SOL    HW234452   2.733   0.883  17.618  0.1824 -1.0288 -0.6706
 7606SOL     OW34453   3.902   4.512   0.159  0.3691  0.7919  0.2277
 7606SOL    HW134454   3.909   4.525   0.064  1.6709  0.8058  0.3265
 7606SOL    HW234455   3.902   4.416   0.160  1.3662  0.8065  1.8179
 7607SOL     OW34456   2.905   3.909   1.469 -0.7419 -0.2894  0.3122
 7607SOL    HW134457   2.911   3.814   1.463 -2.2134 -0.2780 -1.2841
 7607SOL    HW234458   2.988   3.921   1.516 -1.2450 -0.7035  1.3004
 7608SOL     OW34459   1.570   2.285   3.432  0.5377 -0.4622 -0.1511
 7608SOL    HW134460   1.581   2.299   3.526  0.8662  1.7334 -0.5006
 7608SOL    HW234461   1.490   2.337   3.429  1.0122  0.4428  2.9552
 7609SOL     OW34462   2.321   1.474   9.609  0.1780  0.0194 -0.6833
 7609SOL    HW134463   2.331   1.379   9.598 -1.5785 -0.5011  2.2513
 7609SOL    HW234464   2.258   1.467   9.681  1.5758 -1.3739  0.4123
 7610SOL     OW34465   3.295   3.765  14.748 -0.9530 -0.8739  0.4955
 7610SOL    HW134466   3.243   3.768  14.829  0.9493 -1.3089  1.7414
 7610SOL    HW234467   3.381   3.740  14.782  0.7738  1.8347 -1.9021
 7611SOL     OW34468   1.679   0.105   5.863 -0.0491 -0.0017  0.6621
 7611SOL    HW134469   1.690   0.061   5.947  0.0471  1.9328  1.6655
 7611SOL    HW234470   1.715   0.049   5.795 -0.9995 -1.2989  1.2395
 7612SOL     OW34471   0.756   1.688   2.200  0.1041  0.6931  0.6207
 7612SOL    HW134472   0.747   1.759   2.264  1.5212  1.3862  0.0534
 7612SOL    HW234473   0.679   1.696   2.143  1.2308 -3.3997 -1.4144
 7613SOL     OW34474   4.323   4.533  14.297 -0.4114  0.1083  0.3742
 7613SOL    HW134475   4.368   4.470  14.241 -2.0118 -1.2414  0.6081
 7613SOL    HW234476   4.386   4.605  14.293 -1.8680  1.3895  0.6909
 7614SOL     OW34477   3.510   4.561   6.083 -0.2470 -0.0349  0.6967
 7614SOL    HW134478   3.510   4.640   6.029  0.6955 -1.6199 -1.6142
 7614SOL    HW234479   3.536   4.503   6.012 -0.0164  0.3653  0.4532
 7615SOL     OW34480   0.802   1.654  11.161 -0.0400  0.0576 -0.1281
 7615SOL    HW134481   0.840   1.724  11.108 -1.1481  1.3538  0.8037
 7615SOL    HW234482   0.809   1.694  11.248  0.7639 -3.0720  1.2205
 7616SOL     OW34483   2.354   3.394   9.252  0.4650 -0.4546 -0.0498
 7616SOL    HW134484   2.272   3.401   9.300  1.6811  0.1550  1.9248
 7616SOL    HW234485   2.333   3.425   9.163  0.3955  0.7182  0.3720
 7617SOL     OW34486   3.774   3.015   5.216 -0.7093  0.2440 -0.4658
 7617SOL    HW134487   3.802   3.058   5.135 -0.7447  0.5473 -0.3166
 7617SOL    HW234488   3.690   3.059   5.232  0.4356  2.7434 -1.5026
 7618SOL     OW34489   1.164   2.503  14.142  0.0881 -0.3637 -0.1081
 7618SOL    HW134490   1.133   2.577  14.089 -1.6179  0.1792  1.6322
 7618SOL    HW234491   1.092   2.447  14.112 -1.3581  2.4646 -1.9010
 7619SOL     OW34492   0.626   4.480   3.311  0.0178 -0.3880 -0.1977
 7619SOL    HW134493   0.673   4.398   3.324  0.5960 -0.1333 -0.6728
 7619SOL    HW234494   0.564   4.471   3.384 -0.7348  0.7773 -0.6843
 7620SOL     OW34495   3.103   4.345  15.576 -0.1170  0.1893  0.1559
 7620SOL    HW134496   3.113   4.401  15.499 -0.5841  0.7866  0.5321
 7620SOL    HW234497   3.147   4.398  15.643 -0.9256 -0.6346  1.3370
 7621SOL     OW34498   2.422   3.229   4.000  0.1634 -0.7631  0.2917
 7621SOL    HW134499   2.443   3.264   4.087  0.7503 -0.9223  0.2152
 7621SOL    HW234500   2.396   3.308   3.953  0.9134  0.6223  2.1742
 7622SOL     OW34501   2.768   1.431   0.948 -0.4797  0.2400  0.0398
 7622SOL    HW134502   2.857   1.399   0.964 -0.3831  1.1679  1.3699
 7622SOL    HW234503   2.723   1.351   0.922  1.4273 -0.7628 -0.1507
 7623SOL     OW34504   1.558   3.087   3.241 -0.3150  0.0051 -0.3418
 7623SOL    HW134505   1.508   3.068   3.321  1.6349  1.6740  1.2910
 7623SOL    HW234506   1.550   3.006   3.192 -1.0583  0.4238 -0.9195
 7624SOL     OW34507   3.265   2.646  16.604 -0.3835  0.0259 -0.1723
 7624SOL    HW134508   3.256   2.733  16.643 -0.0982  0.7461 -1.7349
 7624SOL    HW234509   3.357   2.635  16.627 -0.1163  0.1277 -1.2109
 7625SOL     OW34510   4.055   2.676   5.427 -0.2464 -0.8702  0.8019
 7625SOL    HW134511   3.983   2.654   5.486 -2.5171  2.4329 -0.8040
 7625SOL    HW234512   4.032   2.768   5.418  0.2624 -0.9883 -1.5476
 7626SOL     OW34513   3.886   4.551   2.793 -0.0986 -0.0319  0.0311
 7626SOL    HW134514   3.846   4.637   2.782  0.5064  0.5168  2.0956
 7626SOL    HW234515   3.838   4.511   2.866  0.1099 -0.4421 -0.0533
 7627SOL     OW34516   4.038   0.113   5.157 -0.3401 -0.0460 -0.2858
 7627SOL    HW134517   4.014   0.177   5.089 -0.6679 -0.2672 -0.3820
 7627SOL    HW234518   4.130   0.134   5.167 -0.5244  0.1859  0.9200
 7628SOL     OW34519   2.889   3.898   6.063  0.3630 -0.1212 -0.3833
 7628SOL    HW134520   2.882   3.924   5.971  1.0624  1.5965  0.0645
 7628SOL    HW234521   2.816   3.837   6.076 -0.5412  1.1671  0.6309
 7629SOL     OW34522   0.835   2.917   5.766 -0.2518  0.4845  0.4810
 7629SOL    HW134523   0.813   2.910   5.859 -2.4337 -1.9002 -0.1971
 7629SOL    HW234524   0.745   2.925   5.734 -0.5312 -1.0514  0.8579
 7630SOL     OW34525   2.818   3.125   8.049 -0.0000 -0.9387  0.2562
 7630SOL    HW134526   2.863   3.071   8.114  1.2558  1.3408  1.2456
 7630SOL    HW234527   2.839   3.213   8.080 -1.4602  0.6807 -3.3081
 7631SOL     OW34528   4.359   2.973   8.085  0.5122 -0.5426  0.5340
 7631SOL    HW134529   4.290   2.934   8.139 -0.6037  0.7686  0.0632
 7631SOL    HW234530   4.324   2.994   7.998  2.5899 -2.1576 -0.7015
 7632SOL     OW34531   2.407   3.383   6.350 -0.1828 -0.1414  0.1107
 7632SOL    HW134532   2.361   3.467   6.355  1.0662  0.5156  0.7197
 7632SOL    HW234533   2.479   3.409   6.292  0.1726 -0.2775  0.4863
 7633SOL     OW34534   3.117   4.440  15.300  0.1644  0.3109 -0.2646
 7633SOL    HW134535   3.158   4.394  15.226  0.5071 -1.3446  0.9468
 7633SOL    HW234536   3.041   4.491  15.272 -0.4705 -0.2769  0.3856
 7634SOL     OW34537   2.973   3.869   6.626  0.7755  0.1856 -0.0706
 7634SOL    HW134538   3.042   3.910   6.679  2.7866  0.1908 -2.7102
 7634SOL    HW234539   2.920   3.947   6.609  0.3096 -0.0122  0.4808
 7635SOL     OW34540   0.029   3.643  15.041  0.0623  0.0468  0.0454
 7635SOL    HW134541   0.121   3.646  15.014 -0.2800  1.8016 -0.9496
 7635SOL    HW234542   0.007   3.736  15.044 -0.3730 -0.0484 -0.1654
 7636SOL     OW34543   3.705   1.624   4.178  0.0562  0.1857  0.1622
 7636SOL    HW134544   3.650   1.583   4.244 -1.5698 -0.0146 -1.3202
 7636SOL    HW234545   3.719   1.714   4.206  0.5887 -0.4357  1.8590
 7637SOL     OW34546   3.959   3.134   2.062 -0.6098  0.0192 -0.0254
 7637SOL    HW134547   4.033   3.195   2.062 -1.6433  1.2884 -1.3562
 7637SOL    HW234548   3.943   3.132   2.156 -0.0054  1.2885  0.1115
 7638SOL     OW34549   4.413   0.317  16.392 -0.1401  0.9019  0.3033
 7638SOL    HW134550   4.485   0.335  16.332  1.6763 -0.3867  2.1325
 7638SOL    HW234551   4.448   0.259  16.459 -0.0348  1.2507  0.5451
 7639SOL     OW34552   3.397   2.867   2.091 -0.1308 -0.0762  0.2576
 7639SOL    HW134553   3.474   2.914   2.060  0.0748 -0.7070 -0.1951
 7639SOL    HW234554   3.432   2.793   2.140 -0.7405 -1.0383 -0.7520
 7640SOL     OW34555   4.055   4.232  10.951 -0.3472  0.1364  0.1731
 7640SOL    HW134556   4.018   4.195  11.031 -0.0510  1.8749  1.1012
 7640SOL    HW234557   4.014   4.166  10.894  0.1090  0.6002 -0.7027
 7641SOL     OW34558   4.593   0.003   8.024  0.1666  0.1857  0.8339
 7641SOL    HW134559   4.548   4.655   8.038 -0.3145  0.3101  0.0336
 7641SOL    HW234560   4.530   0.045   7.966  0.0668  0.3332  1.0510
 7642SOL     OW34561   2.042   4.068  15.192  0.1807  0.4633 -0.1183
 7642SOL    HW134562   2.084   4.150  15.166  2.3618 -0.9836 -1.2227
 7642SOL    HW234563   2.108   4.029  15.249 -1.4522 -1.6361  0.3251
 7643SOL     OW34564   3.008   0.080   3.523 -0.0146 -0.1589 -0.5204
 7643SOL    HW134565   2.995   0.175   3.527 -1.3249 -0.3703  0.0743
 7643SOL    HW234566   3.052   0.059   3.606  0.9736 -0.7359 -1.1948
 7644SOL     OW34567   4.168   1.081   1.908  0.3668  0.1643  0.6613
 7644SOL    HW134568   4.080   1.112   1.886 -0.0758 -1.2544  0.4550
 7644SOL    HW234569   4.177   1.127   1.991  2.7743  3.3458 -1.3481
 7645SOL     OW34570   2.034   0.310   4.969  0.4084 -0.1046 -0.7772
 7645SOL    HW134571   2.059   0.222   4.942 -0.6811 -0.9110  0.8152
 7645SOL    HW234572   1.997   0.341   4.886  1.3935  0.0097 -1.1709
 7646SOL     OW34573   1.013   4.652   8.698  0.6589  0.3296  0.1789
 7646SOL    HW134574   0.942   4.691   8.647 -1.4516 -3.5112  0.1739
 7646SOL    HW234575   0.961   4.591   8.750  0.6413 -0.8180 -1.1751
 7647SOL     OW34576   2.785   0.577   9.348 -0.3039  0.1473  0.1913
 7647SOL    HW134577   2.859   0.518   9.360 -0.7352 -0.5749 -0.6845
 7647SOL    HW234578   2.763   0.600   9.438  0.5126  0.4886  0.3047
 7648SOL     OW34579   2.318   3.201   4.973  0.0882  1.2096 -0.2028
 7648SOL    HW134580   2.412   3.213   4.959  0.7667 -0.7159  2.5639
 7648SOL    HW234581   2.318   3.262   5.047 -1.4051  0.0968  0.7099
 7649SOL     OW34582   2.948   3.888  13.563 -0.5653  0.7627 -0.0168
 7649SOL    HW134583   2.903   3.903  13.646 -0.7364 -4.1091  0.7763
 7649SOL    HW234584   3.031   3.853  13.595 -1.6817 -1.0626  0.8865
 7650SOL     OW34585   1.813   2.170   5.059  0.9902 -0.2891  0.1921
 7650SOL    HW134586   1.768   2.214   4.987 -0.3350 -1.9523  0.0024
 7650SOL    HW234587   1.743   2.135   5.115  1.8406  1.2425  2.2121
 7651SOL     OW34588   4.672   3.701   9.151 -1.0638  0.3629  0.0120
 7651SOL    HW134589   4.579   3.690   9.170 -1.4723  3.1049 -0.3695
 7651SOL    HW234590   4.680   3.796   9.144  3.0444 -0.0305 -0.4795
 7652SOL     OW34591   3.724   0.036   2.754 -0.4004 -0.4955  0.0783
 7652SOL    HW134592   3.653   0.100   2.744  0.4774  0.6560  1.2792
 7652SOL    HW234593   3.784   0.056   2.681 -3.4663  1.9218 -1.7932
 7653SOL     OW34594   3.696   0.095   4.763  0.1512 -0.6434  0.2913
 7653SOL    HW134595   3.783   0.072   4.795 -0.3283 -2.3316  0.3887
 7653SOL    HW234596   3.647   0.109   4.844  0.6100 -0.1101  0.4775
 7654SOL     OW34597   0.449   3.211   4.556  0.5794 -0.5600  0.0918
 7654SOL    HW134598   0.422   3.286   4.610 -1.5198 -0.1792 -1.4899
 7654SOL    HW234599   0.493   3.259   4.486 -0.8400 -0.3140 -0.6094
 7655SOL     OW34600   2.886   2.480  14.374  0.4144  0.4292 -0.3489
 7655SOL    HW134601   2.854   2.441  14.293  0.7979 -1.0680  0.2325
 7655SOL    HW234602   2.801   2.500  14.415  0.6353 -2.1690  1.3946
 7656SOL     OW34603   2.612   3.880   1.155 -0.1474  0.1289 -0.3383
 7656SOL    HW134604   2.671   3.807   1.174 -2.1246 -1.1029  1.0395
 7656SOL    HW234605   2.628   3.885   1.061 -0.3856  3.3501 -0.2035
 7657SOL     OW34606   2.598   0.965   5.087 -0.2291  0.3585  0.1115
 7657SOL    HW134607   2.600   0.926   5.174 -0.5776 -2.2242 -1.0663
 7657SOL    HW234608   2.540   0.909   5.036  2.7408 -1.3039 -1.4114
 7658SOL     OW34609   0.390   2.041   5.222 -0.9110  0.1618 -0.2130
 7658SOL    HW134610   0.381   1.968   5.282 -3.0489  1.4310  1.0074
 7658SOL    HW234611   0.414   2.110   5.284 -0.9872  1.0017 -1.0991
 7659SOL     OW34612   3.694   3.535  11.454 -0.2565 -0.0626 -0.1554
 7659SOL    HW134613   3.667   3.448  11.484 -0.9342 -0.3712 -1.6797
 7659SOL    HW234614   3.750   3.506  11.382  1.9025  0.4505  1.3227
 7660SOL     OW34615   2.915   0.592   8.458  0.0492 -0.0269  0.1492
 7660SOL    HW134616   2.866   0.567   8.536 -1.6179 -0.6293 -1.1125
 7660SOL    HW234617   2.918   0.685   8.481 -0.2900  0.3335 -1.2697
 7661SOL     OW34618   4.542   3.993   9.350  0.7377 -0.0173 -0.2427
 7661SOL    HW134619   4.521   3.994   9.257 -0.7318 -0.7190  0.0938
 7661SOL    HW234620   4.632   3.962   9.338  1.7401  3.1391 -1.0525
 7662SOL     OW34621   3.019   1.888   6.180 -0.4577  0.1965 -0.2466
 7662SOL    HW134622   3.100   1.842   6.202 -1.1317 -1.3921 -1.0633
 7662SOL    HW234623   2.959   1.822   6.214 -0.9894  0.6567 -0.2886
 7663SOL     OW34624   1.065   1.629   2.554 -0.4979 -0.3450  0.2141
 7663SOL    HW134625   1.085   1.718   2.584  0.4816 -0.7864  0.8770
 7663SOL    HW234626   1.152   1.589   2.554 -0.0411  0.6170  1.6413
 7664SOL     OW34627   4.484   3.278   7.648 -0.0791  0.3557  0.1708
 7664SOL    HW134628   4.534   3.228   7.584 -0.1999  0.2303  0.1736
 7664SOL    HW234629   4.435   3.339   7.592  1.2309  1.5698  0.3634
 7665SOL     OW34630   0.678   0.878   2.420  0.5685 -0.3239  0.0352
 7665SOL    HW134631   0.717   0.797   2.387 -0.6235 -0.8585 -0.0760
 7665SOL    HW234632   0.672   0.924   2.337 -3.2060  0.6475  0.8249
 7666SOL     OW34633   1.701   3.919  14.745  0.8281  0.2772 -0.0958
 7666SOL    HW134634   1.785   3.879  14.765  1.5480  0.7715 -2.1924
 7666SOL    HW234635   1.644   3.844  14.759  1.4128 -0.3955 -1.3583
 7667SOL     OW34636   0.594   4.040   2.788  0.0543  0.0273  0.1503
 7667SOL    HW134637   0.629   4.109   2.844  3.9799 -0.3282 -1.8524
 7667SOL    HW234638   0.667   4.033   2.727  1.1033  1.0276  1.2850
 7668SOL     OW34639   3.634   2.059   1.244 -0.4034  0.6836 -0.0669
 7668SOL    HW134640   3.552   2.009   1.244  0.7844 -1.2459  0.3881
 7668SOL    HW234641   3.694   2.002   1.197 -0.4598  0.3471  0.2699
 7669SOL     OW34642   3.541   0.480  14.686 -0.4241 -0.0216 -0.0741
 7669SOL    HW134643   3.513   0.572  14.680 -1.2786 -0.2452  0.6345
 7669SOL    HW234644   3.591   0.470  14.605 -3.1256 -0.3117 -1.7112
 7670SOL     OW34645   1.479   2.778   5.296 -0.3008 -0.2345  0.0319
 7670SOL    HW134646   1.567   2.802   5.268 -1.2805  2.3880 -0.7971
 7670SOL    HW234647   1.462   2.846   5.361 -1.8166 -0.8555  0.2841
 7671SOL     OW34648   3.103   3.210   0.499  0.0430  0.0122  0.0790
 7671SOL    HW134649   3.183   3.184   0.544  0.0642  0.0711  0.0752
 7671SOL    HW234650   3.102   3.305   0.504 -0.5524  0.0871 -1.5545
 7672SOL     OW34651   1.588   0.818   2.485  0.6229 -0.4317 -0.0649
 7672SOL    HW134652   1.626   0.782   2.566  0.0770  1.1473  0.8832
 7672SOL    HW234653   1.526   0.881   2.522  0.6796  0.0771 -0.8605
 7673SOL     OW34654   0.440   3.715   6.343  0.2329  0.0797  0.4324
 7673SOL    HW134655   0.504   3.758   6.400  0.8872  0.6824 -0.7484
 7673SOL    HW234656   0.488   3.655   6.285 -0.7367  0.2510 -0.5485
 7674SOL     OW34657   3.914   3.987  16.335  0.1773  0.4874 -0.3127
 7674SOL    HW134658   3.915   4.060  16.274  1.2223  1.5440  0.9626
 7674SOL    HW234659   3.835   3.943  16.305  0.7728 -0.6274 -0.2802
 7675SOL     OW34660   0.415   1.938   8.183  0.3503  0.2384 -0.1458
 7675SOL    HW134661   0.458   2.021   8.163  2.6003 -0.2508  2.4625
 7675SOL    HW234662   0.490   1.879   8.194 -0.8662 -1.0584  1.1456
 7676SOL     OW34663   1.468   2.137   4.746 -0.2694  0.3316  0.3002
 7676SOL    HW134664   1.387   2.093   4.720  0.9966 -2.2197  0.7036
 7676SOL    HW234665   1.491   2.068   4.808 -0.6010  1.1944  1.3860
 7677SOL     OW34666   4.096   0.398   6.015 -0.1534  0.4295 -0.3312
 7677SOL    HW134667   4.000   0.396   6.017 -0.1169 -1.4682 -0.5399
 7677SOL    HW234668   4.115   0.480   6.062 -2.0453  2.2743 -2.8015
 7678SOL     OW34669   3.709   4.248  15.982  0.1789 -0.1032  0.1673
 7678SOL    HW134670   3.704   4.171  15.926  0.6527  0.5907 -0.8567
 7678SOL    HW234671   3.671   4.328  15.945 -1.6698 -0.0255  2.2606
 7679SOL     OW34672   0.612   0.466   3.564 -0.0569 -0.1444 -0.5077
 7679SOL    HW134673   0.528   0.500   3.532 -1.4954 -2.7702  0.4995
 7679SOL    HW234674   0.680   0.503   3.507  1.3882 -4.3264 -1.5656
 7680SOL     OW34675   1.301   1.866   5.047 -0.6005 -0.5559 -0.2984
 7680SOL    HW134676   1.287   1.947   5.097 -0.1608  0.4719 -1.8423
 7680SOL    HW234677   1.360   1.903   4.982 -0.2890 -1.9496 -0.8084
 7681SOL     OW34678   4.325   1.817   4.756 -0.2760 -0.6391  0.1012
 7681SOL    HW134679   4.280   1.810   4.841  0.4670  2.0411  0.6917
 7681SOL    HW234680   4.301   1.731   4.720  1.2517 -0.7179 -0.7270
 7682SOL     OW34681   2.563   4.272   2.435 -0.2490  0.1938  0.5838
 7682SOL    HW134682   2.536   4.302   2.522  2.0883 -0.6691  1.6146
 7682SOL    HW234683   2.482   4.231   2.405 -0.3364  0.5067  0.3907
 7683SOL     OW34684   0.007   2.753   1.120  0.4871  0.3304 -0.0541
 7683SOL    HW134685   4.702   2.762   1.206  0.4297  0.0333 -0.0507
 7683SOL    HW234686   0.055   2.671   1.129  0.1453  0.1981  0.6000
 7684SOL     OW34687   1.054   4.713  12.914 -0.2466 -0.5329 -0.1210
 7684SOL    HW134688   0.966   4.727  12.879  0.2967 -1.3284 -1.8156
 7684SOL    HW234689   1.091   4.677  12.833  1.2947  0.4869  0.1402
 7685SOL     OW34690   1.015   2.316  16.793 -0.4089  0.0757  0.3245
 7685SOL    HW134691   0.927   2.325  16.828 -0.3343 -0.4552  0.6463
 7685SOL    HW234692   1.043   2.406  16.813 -1.2779  0.5515 -0.6060
 7686SOL     OW34693   1.856   3.913   4.246  0.1139 -0.3360  0.2577
 7686SOL    HW134694   1.936   3.869   4.276  0.9108  0.9945  0.1095
 7686SOL    HW234695   1.861   3.890   4.153  0.1419 -1.4309  0.5331
 7687SOL     OW34696   2.729   3.228   5.460 -0.7364 -0.1322 -0.4400
 7687SOL    HW134697   2.689   3.297   5.407  1.6202  1.0672 -0.6806
 7687SOL    HW234698   2.807   3.270   5.496  0.3981 -0.6806 -2.2348
 7688SOL     OW34699   2.764   1.497  17.684 -0.2480 -0.4450 -0.1868
 7688SOL    HW134700   2.689   1.506  17.626 -0.6022  0.1373  0.3656
 7688SOL    HW234701   2.821   1.569  17.660  0.7966 -1.2465 -0.1316
 7689SOL     OW34702   4.276   1.991   0.442 -0.2115  0.6367 -0.0810
 7689SOL    HW134703   4.289   2.070   0.494 -1.0123  1.7022 -1.4778
 7689SOL    HW234704   4.364   1.981   0.406 -0.6562 -2.3376 -0.3595
 7690SOL     OW34705   2.596   3.318   6.555 -0.1611 -0.0685  0.2024
 7690SOL    HW134706   2.676   3.304   6.505  0.0795 -2.1378  1.1756
 7690SOL    HW234707   2.533   3.344   6.488  2.5356  0.6235 -2.0600
 7691SOL     OW34708   3.776   0.486   1.230 -0.1139 -0.2383 -0.0367
 7691SOL    HW134709   3.816   0.559   1.182  1.4766  1.0158  3.1721
 7691SOL    HW234710   3.843   0.471   1.296  0.4890 -2.5220 -1.1681
 7692SOL     OW34711   3.249   2.583   6.674 -0.3559 -0.2158 -0.2418
 7692SOL    HW134712   3.316   2.524   6.709  0.8843  1.2682 -0.1021
 7692SOL    HW234713   3.300   2.652   6.633  1.9862 -0.5835  2.0460
 7693SOL     OW34714   3.378   2.628   1.033  0.0669  0.7818 -0.2665
 7693SOL    HW134715   3.411   2.661   0.950 -1.8110  0.4284 -1.1618
 7693SOL    HW234716   3.442   2.560   1.054  0.9009  1.0790 -1.8799
 7694SOL     OW34717   2.359   4.374   1.824  0.0705  0.1680 -0.6361
 7694SOL    HW134718   2.374   4.408   1.912 -0.8808 -1.4278  0.1540
 7694SOL    HW234719   2.271   4.410   1.815  0.6809  1.9997  0.7295
 7695SOL     OW34720   2.918   1.570   9.982  0.5887  0.3839  0.3848
 7695SOL    HW134721   2.937   1.611  10.066  0.3330  0.3974  0.4366
 7695SOL    HW234722   2.999   1.558   9.934 -0.5037 -2.5555 -0.7362
 7696SOL     OW34723   3.141   1.907   2.535  0.1055  0.5608 -0.5190
 7696SOL    HW134724   3.052   1.896   2.567 -0.2482  2.0562 -0.9785
 7696SOL    HW234725   3.194   1.840   2.579 -0.8517  0.6749  0.8049
 7697SOL     OW34726   4.543   1.248   4.958  0.0542  0.3109  0.1438
 7697SOL    HW134727   4.584   1.271   4.874 -0.8240  1.4019  0.0094
 7697SOL    HW234728   4.482   1.321   4.968 -0.4466 -0.0349 -0.3586
 7698SOL     OW34729   4.479   3.135   4.577 -0.2761 -0.2390  0.0805
 7698SOL    HW134730   4.515   3.053   4.610  0.1199 -0.0337  0.1634
 7698SOL    HW234731   4.562   3.176   4.552 -0.0812  0.0183  1.1443
 7699SOL     OW34732   4.243   4.307   6.498 -0.4905 -0.0135 -0.5611
 7699SOL    HW134733   4.195   4.390   6.504  2.0847  1.4129  0.2756
 7699SOL    HW234734   4.284   4.308   6.584  1.6953  1.6633 -1.6189
 7700SOL     OW34735   0.868   1.100   3.735  0.3167 -0.4071 -0.1868
 7700SOL    HW134736   0.793   1.159   3.744  1.3877  0.8607  0.4549
 7700SOL    HW234737   0.824   1.015   3.738 -1.1707  0.3947  0.5030
 7701SOL     OW34738   1.965   0.511   6.331 -0.0621 -0.1573  0.2499
 7701SOL    HW134739   1.979   0.572   6.258 -2.7589 -0.6491 -0.6870
 7701SOL    HW234740   2.050   0.530   6.371  1.0788 -2.1352 -1.2166
 7702SOL     OW34741   3.485   0.477   8.641  0.0814 -0.5569  0.5945
 7702SOL    HW134742   3.495   0.383   8.627  2.4896 -0.7648  3.6399
 7702SOL    HW234743   3.462   0.484   8.734  1.8049 -0.7714  1.0362
 7703SOL     OW34744   1.495   2.563   3.767 -0.2450  0.1658  0.2845
 7703SOL    HW134745   1.417   2.600   3.808 -0.7106  0.2235 -0.6548
 7703SOL    HW234746   1.561   2.582   3.833 -0.5177 -0.7837  0.8379
 7704SOL     OW34747   0.615   1.018   4.603 -0.1065 -0.0832  0.0160
 7704SOL    HW134748   0.680   1.073   4.645  1.4926 -0.8992 -1.4101
 7704SOL    HW234749   0.548   1.081   4.575  0.3804  0.4387  0.0205
 7705SOL     OW34750   0.205   0.263  10.673 -0.0859 -0.8248  0.0024
 7705SOL    HW134751   0.280   0.204  10.665 -0.0598 -0.7847 -0.0500
 7705SOL    HW234752   0.231   0.330  10.610 -0.4764 -0.1812  0.5246
 7706SOL     OW34753   1.887   2.509   7.300  0.3647  1.0006  0.4802
 7706SOL    HW134754   1.796   2.497   7.273  1.3465  2.6918 -3.5364
 7706SOL    HW234755   1.928   2.500   7.214  0.7514  1.1747  0.6450
 7707SOL     OW34756   3.503   1.137  14.020 -0.9950 -0.0090 -0.1439
 7707SOL    HW134757   3.518   1.054  13.974 -1.5945 -0.0908 -0.1872
 7707SOL    HW234758   3.409   1.144  14.003 -1.1444 -2.2886 -0.3105
 7708SOL     OW34759   3.071   1.061   3.762  0.3689  0.5461  0.6514
 7708SOL    HW134760   3.097   0.979   3.719 -4.4267 -0.6409 -0.0233
 7708SOL    HW234761   3.124   1.058   3.841 -0.0868 -2.0844  0.8919
 7709SOL     OW34762   2.023   1.605   4.932  0.7967 -0.1655 -0.8248
 7709SOL    HW134763   2.082   1.670   4.971  2.3090 -0.4199 -2.6724
 7709SOL    HW234764   2.030   1.521   4.977  0.3291 -0.3722 -1.1354
 7710SOL     OW34765   4.693   1.808   8.519 -0.2462  0.0692  0.6604
 7710SOL    HW134766   0.041   1.845   8.548  0.1955 -1.4567  1.3247
 7710SOL    HW234767   4.711   1.714   8.525  0.8434  0.1810 -0.8648
 7711SOL     OW34768   1.434   0.644   7.596  0.1241  0.2148  0.3168
 7711SOL    HW134769   1.380   0.599   7.661 -3.3109  0.4613 -2.3854
 7711SOL    HW234770   1.379   0.723   7.593 -0.3012 -0.1018 -0.3970
 7712SOL     OW34771   2.897   3.319   3.778  0.1869  0.2589 -0.6147
 7712SOL    HW134772   2.959   3.362   3.837  0.6191  1.3770 -1.8876
 7712SOL    HW234773   2.916   3.230   3.806 -0.9441  0.8014  1.8737
 7713SOL     OW34774   1.623   3.065   2.513 -0.1509 -0.2507  0.1665
 7713SOL    HW134775   1.562   3.139   2.513 -1.5715 -1.4317  0.1191
 7713SOL    HW234776   1.592   3.019   2.435  1.6012 -1.5203  0.2217
 7714SOL     OW34777   4.324   2.241   5.211 -0.0186  0.4690 -0.0120
 7714SOL    HW134778   4.241   2.270   5.247  0.3027  0.1856  0.9698
 7714SOL    HW234779   4.339   2.308   5.145 -1.5792  1.6596  0.8638
 7715SOL     OW34780   4.735   3.916  10.351 -0.2780  0.0935 -0.1800
 7715SOL    HW134781   0.069   3.976  10.376 -1.1653  0.5645  1.1434
 7715SOL    HW234782   4.675   3.915  10.426  1.6237  0.2329  1.3390
 7716SOL     OW34783   4.372   2.036  16.599  0.2419  0.2120 -0.3452
 7716SOL    HW134784   4.370   1.971  16.529 -1.4759  0.4172 -0.4786
 7716SOL    HW234785   4.448   2.080  16.560 -1.5005  3.1260 -0.4567
 7717SOL     OW34786   1.721   2.854  10.305 -0.2763 -0.3504 -0.3119
 7717SOL    HW134787   1.746   2.877  10.394  1.5966 -1.6547 -0.4907
 7717SOL    HW234788   1.689   2.936  10.270  1.8524  0.3736 -0.5953
 7718SOL     OW34789   1.344   1.648   1.879  0.3619 -0.2145 -0.3198
 7718SOL    HW134790   1.310   1.588   1.946  0.0228 -0.4045 -0.6648
 7718SOL    HW234791   1.275   1.713   1.869  2.0928  2.0360  2.4390
 7719SOL     OW34792   3.774   0.980   8.834  0.3582  0.8497 -0.4282
 7719SOL    HW134793   3.832   1.056   8.842  1.7859 -0.2888  0.2516
 7719SOL    HW234794   3.822   0.926   8.771  1.4263 -0.3831  1.4250
 7720SOL     OW34795   2.151   3.106   9.850 -0.1938  1.0893 -0.0509
 7720SOL    HW134796   2.218   3.167   9.821 -2.0148  2.8530 -0.5974
 7720SOL    HW234797   2.127   3.053   9.774  1.1318  4.9671 -3.1729
 7721SOL     OW34798   2.452   3.677   7.416  0.0966 -0.2572 -0.2666
 7721SOL    HW134799   2.518   3.745   7.399  0.4498 -0.5718 -0.1497
 7721SOL    HW234800   2.503   3.602   7.386 -0.7152 -0.8904 -0.0727
 7722SOL     OW34801   1.290   0.532   7.370  0.3222 -0.0360  0.3072
 7722SOL    HW134802   1.347   0.460   7.342  1.4403  1.6537 -1.6848
 7722SOL    HW234803   1.319   0.521   7.461  1.9619  0.0152 -0.2007
 7723SOL     OW34804   3.165   2.797   5.894 -0.2686  0.9685  0.0435
 7723SOL    HW134805   3.141   2.706   5.877  1.3524  0.7348 -1.1070
 7723SOL    HW234806   3.219   2.812   5.816 -1.4744 -2.6564 -1.4757
 7724SOL     OW34807   1.239   2.018  12.450  0.2027  0.0398 -0.2085
 7724SOL    HW134808   1.183   1.953  12.492  1.1071  0.0156  0.9535
 7724SOL    HW234809   1.306   1.960  12.415 -1.0911 -1.6239  0.0606
 7725SOL     OW34810   3.929   3.949   7.221  0.0884  0.4960  0.0033
 7725SOL    HW134811   3.968   3.884   7.162  1.8279  2.3906 -0.9203
 7725SOL    HW234812   3.971   4.032   7.198  1.0060 -0.1319 -0.5739
 7726SOL     OW34813   2.203   2.652  11.241  0.1517 -0.1224  0.2071
 7726SOL    HW134814   2.218   2.702  11.161  1.4725 -0.9079 -0.0507
 7726SOL    HW234815   2.216   2.715  11.312  0.6102 -0.5141  0.4731
 7727SOL     OW34816   1.725   1.192   6.389 -0.0803 -0.3669  0.0297
 7727SOL    HW134817   1.711   1.197   6.484 -1.2283  1.3811 -0.2475
 7727SOL    HW234818   1.692   1.277   6.359 -0.2380 -0.1170  0.9148
 7728SOL     OW34819   0.065   1.384  15.542 -0.2242 -0.1639  0.6343
 7728SOL    HW134820   0.143   1.377  15.487 -1.2538  1.2133 -1.0012
 7728SOL    HW234821   0.108   1.362  15.625  1.0639 -1.5316 -0.3833
 7729SOL     OW34822   2.417   2.319   6.336  0.1081  0.2770 -0.0648
 7729SOL    HW134823   2.454   2.388   6.390  0.3455  1.2123 -1.4278
 7729SOL    HW234824   2.331   2.357   6.318 -0.7233 -0.3691  2.5966
 7730SOL     OW34825   1.868   0.316  13.341  0.2181 -0.1161 -0.2362
 7730SOL    HW134826   1.855   0.328  13.435 -2.6393 -0.4253 -0.6083
 7730SOL    HW234827   1.963   0.305  13.346  0.3269  1.2783  0.7928
 7731SOL     OW34828   2.091   4.135  11.481  0.3757 -0.0068 -0.8247
 7731SOL    HW134829   2.104   4.057  11.427 -1.6259  0.1830 -1.5929
 7731SOL    HW234830   2.037   4.108  11.555  1.1334  3.1253  0.8710
 7732SOL     OW34831   1.804   1.209   9.564  0.6504 -0.2068 -0.0428
 7732SOL    HW134832   1.811   1.253   9.649  1.0687 -3.0294  1.3873
 7732SOL    HW234833   1.888   1.230   9.523  1.4058 -2.3986  0.3798
 7733SOL     OW34834   2.946   3.545   8.040  0.4153 -0.1208 -0.2499
 7733SOL    HW134835   3.026   3.492   8.042 -0.1260 -0.8585  1.5888
 7733SOL    HW234836   2.888   3.485   8.086 -1.4238  1.9395  0.1088
 7734SOL     OW34837   0.047   0.760   4.847  0.2854  0.5546  0.0067
 7734SOL    HW134838   4.693   0.727   4.851  0.4728  0.0605  0.0332
 7734SOL    HW234839   0.093   0.676   4.844 -0.6074  0.0079  1.3407
 7735SOL     OW34840   4.280   4.138   5.581 -0.2412  0.0620 -0.1420
 7735SOL    HW134841   4.279   4.198   5.656 -0.7730 -1.4488  1.0621
 7735SOL    HW234842   4.198   4.088   5.580 -1.0368  1.3335  0.0840
 7736SOL     OW34843   1.283   1.135   5.797  0.3205  0.0565 -0.0880
 7736SOL    HW134844   1.330   1.108   5.718 -0.7626  1.9298 -1.3621
 7736SOL    HW234845   1.198   1.091   5.805 -0.0035  0.7621  0.3230
 7737SOL     OW34846   0.944   4.257   2.765  0.1146 -0.2238 -0.2185
 7737SOL    HW134847   0.956   4.348   2.790  0.9396 -0.5576  0.6006
 7737SOL    HW234848   0.858   4.239   2.804  0.1890 -0.4285 -0.1473
 7738SOL     OW34849   1.052   3.185   0.020 -0.1848 -0.2387 -0.5119
 7738SOL    HW134850   1.139   3.209  17.729 -0.0443 -0.1303 -0.0369
 7738SOL    HW234851   1.061   3.210   0.112  1.7454  1.8916 -1.2867
 7739SOL     OW34852   3.372   2.894   3.560  0.3227 -0.2274  0.0856
 7739SOL    HW134853   3.458   2.901   3.600  0.9474 -0.4956 -1.2181
 7739SOL    HW234854   3.361   2.798   3.559 -1.2429 -0.0677  2.2094
 7740SOL     OW34855   3.391   0.891   7.933  0.5386 -0.4940 -0.3410
 7740SOL    HW134856   3.347   0.966   7.974  0.4938 -0.3787 -0.5964
 7740SOL    HW234857   3.483   0.920   7.929  0.0894  1.1352  0.8404
 7741SOL     OW34858   3.877   4.223   7.618  0.1491  0.3375  0.1414
 7741SOL    HW134859   3.834   4.177   7.546  1.8254 -0.7970 -0.1306
 7741SOL    HW234860   3.963   4.183   7.611 -0.4567 -0.6397 -1.6205
 7742SOL     OW34861   3.732   4.438   3.243  0.3081 -0.2835 -0.1746
 7742SOL    HW134862   3.803   4.445   3.307 -0.0321  0.6209  0.1127
 7742SOL    HW234863   3.665   4.437   3.312 -0.1320 -1.2876 -0.6214
 7743SOL     OW34864   3.986   3.840   1.962 -0.1398 -0.3422  0.0125
 7743SOL    HW134865   4.050   3.850   1.892  2.0797 -0.3573  2.0492
 7743SOL    HW234866   3.949   3.753   1.942 -2.2249  0.4963  0.1860
 7744SOL     OW34867   1.235   1.560  11.024  0.7274 -0.0858 -0.0933
 7744SOL    HW134868   1.262   1.650  11.010  1.2810 -0.5061 -1.7653
 7744SOL    HW234869   1.326   1.532  11.028  0.8252  0.0327 -1.4882
 7745SOL     OW34870   1.419   2.301   2.174 -0.1268  0.6859 -0.2890
 7745SOL    HW134871   1.477   2.238   2.133 -0.8295 -0.6922  0.8471
 7745SOL    HW234872   1.453   2.384   2.139 -1.9422  0.3863 -2.7619
 7746SOL     OW34873   2.395   0.281   5.319 -0.3924 -0.1551 -0.6246
 7746SOL    HW134874   2.352   0.196   5.319 -2.5073  0.9198 -0.1490
 7746SOL    HW234875   2.481   0.249   5.345 -0.2336  0.3027 -0.5849
 7747SOL     OW34876   1.341   3.858  13.462  0.0602 -0.2814 -0.4347
 7747SOL    HW134877   1.273   3.899  13.408 -2.3007 -2.3591  0.9487
 7747SOL    HW234878   1.370   3.939  13.504 -0.5430 -0.2345 -0.0992
 7748SOL     OW34879   4.168   0.580   1.798  0.2010 -0.1890 -0.3956
 7748SOL    HW134880   4.173   0.485   1.795 -0.5291 -0.1755 -1.6080
 7748SOL    HW234881   4.261   0.604   1.806  0.6156 -1.5063 -1.3551
 7749SOL     OW34882   0.968   0.207   3.524  0.3800 -0.3516  0.3105
 7749SOL    HW134883   0.977   0.301   3.538  0.4211 -0.1486 -1.0838
 7749SOL    HW234884   1.008   0.178   3.606  1.8922  2.6249  0.6081
 7750SOL     OW34885   0.150   3.995  15.075 -0.1591  1.1064  0.3072
 7750SOL    HW134886   0.057   3.975  15.068 -0.0978  0.7835  0.3821
 7750SOL    HW234887   0.143   4.078  15.123 -3.2965 -0.1640  2.0310
 7751SOL     OW34888   3.909   2.868   6.502 -0.0605 -0.7495  0.1914
 7751SOL    HW134889   3.828   2.904   6.537  0.8451 -0.7573  2.3448
 7751SOL    HW234890   3.981   2.893   6.560  1.3536 -1.2317 -1.3721
 7752SOL     OW34891   1.865   4.154  14.849 -0.4755  0.1963  0.6390
 7752SOL    HW134892   1.783   4.111  14.823 -0.7316  0.6153  0.7573
 7752SOL    HW234893   1.899   4.109  14.926  0.0120  0.5073  0.6049
 7753SOL     OW34894   2.332   2.027   5.123 -0.5189  0.4688 -0.7821
 7753SOL    HW134895   2.391   1.982   5.062  1.0147  1.0664  0.2865
 7753SOL    HW234896   2.349   2.117   5.094  0.8490  1.0443  1.8816
 7754SOL     OW34897   2.166   3.456   7.233  0.0517  0.7756 -0.3987
 7754SOL    HW134898   2.216   3.537   7.225 -3.2420  2.6676 -1.6850
 7754SOL    HW234899   2.087   3.479   7.184  1.2353  1.6738 -1.9051
 7755SOL     OW34900   0.145   3.503   4.094  0.0426  0.1899  0.4403
 7755SOL    HW134901   0.191   3.586   4.084 -0.4313  0.1895 -1.7858
 7755SOL    HW234902   0.057   3.540   4.085  0.8256  1.8611 -0.4174
 7756SOL     OW34903   3.981   1.819  13.941  0.1608  0.3477  0.0689
 7756SOL    HW134904   4.005   1.897  13.889  1.7725 -0.1486  0.0638
 7756SOL    HW234905   4.045   1.828  14.012  0.7387 -1.1450 -0.2632
 7757SOL     OW34906   0.083   3.833   8.654  0.8622  0.4599  0.4117
 7757SOL    HW134907   0.062   3.777   8.728  1.2497 -0.7749 -0.4269
 7757SOL    HW234908   0.178   3.838   8.665  0.7293 -0.3117  1.8082
 7758SOL     OW34909   0.664   1.954  13.272  0.0920  0.6214 -0.0995
 7758SOL    HW134910   0.633   1.922  13.187 -0.5209  1.7277 -0.2926
 7758SOL    HW234911   0.580   1.990  13.301 -0.7523 -1.2493 -0.2307
 7759SOL     OW34912   4.223   2.274   6.286  0.1174 -0.3948  0.1016
 7759SOL    HW134913   4.203   2.256   6.378  0.2245  2.8284  0.7740
 7759SOL    HW234914   4.167   2.350   6.267 -0.5478 -1.1488 -0.9154
 7760SOL     OW34915   1.540   3.823   2.589 -0.2771  0.2378 -0.0076
 7760SOL    HW134916   1.569   3.741   2.628  0.7933 -0.1440 -1.5831
 7760SOL    HW234917   1.628   3.860   2.581 -0.7320  1.4584  0.5627
 7761SOL     OW34918   3.119   1.143  16.459  0.0522 -0.2222  0.2299
 7761SOL    HW134919   3.046   1.098  16.417 -0.2183  0.7607 -0.3576
 7761SOL    HW234920   3.074   1.228  16.465  1.7454  0.7611 -1.2454
 7762SOL     OW34921   3.574   1.571   7.463  0.5285 -1.2577  0.2149
 7762SOL    HW134922   3.604   1.615   7.383  0.1902 -2.1335 -0.3941
 7762SOL    HW234923   3.486   1.539   7.440  0.5649 -1.7530  0.7855
 7763SOL     OW34924   4.324   2.674   2.644  0.1436 -0.1209  0.4116
 7763SOL    HW134925   4.285   2.616   2.579  0.2676 -0.9613  1.0899
 7763SOL    HW234926   4.417   2.670   2.624  0.1363 -0.4944  0.4548
 7764SOL     OW34927   1.219   1.942   7.615 -0.3816  0.2891  0.2241
 7764SOL    HW134928   1.228   1.856   7.655  2.9757  0.9228  0.7687
 7764SOL    HW234929   1.184   1.986   7.693 -2.3209  0.4106 -0.7200
 7765SOL     OW34930   0.194   4.557   0.050 -0.0687 -0.1755  0.1083
 7765SOL    HW134931   0.160   4.480   0.095  0.2288 -1.2024 -1.3932
 7765SOL    HW234932   0.243   4.514  17.720 -0.5364 -0.6547  0.0774
 7766SOL     OW34933   2.171   1.165   8.028  0.5465  0.0671  0.0286
 7766SOL    HW134934   2.256   1.148   8.068  1.4159  1.7669 -1.0892
 7766SOL    HW234935   2.135   1.080   8.003 -0.1631  0.5410 -0.5621
 7767SOL     OW34936   3.505   3.930   2.473 -0.8265  0.1190 -0.3014
 7767SOL    HW134937   3.459   3.849   2.448 -2.3686  0.7349  0.4889
 7767SOL    HW234938   3.587   3.901   2.512 -2.0760 -0.8200  1.6845
 7768SOL     OW34939   1.799   3.118  10.200  0.2108 -0.3133  0.1200
 7768SOL    HW134940   1.816   3.068  10.120 -3.1200 -2.2029  0.6029
 7768SOL    HW234941   1.754   3.193  10.160 -0.6483  0.5424  2.6861
 7769SOL     OW34942   2.243   0.553   4.344  0.2598 -0.2994 -0.2396
 7769SOL    HW134943   2.182   0.504   4.290 -0.2912  1.4513 -1.2152
 7769SOL    HW234944   2.245   0.635   4.295  1.2090 -0.0811  0.1811
 7770SOL     OW34945   0.524   4.730  15.064 -0.1919 -0.2051 -0.8287
 7770SOL    HW134946   0.534   4.635  15.073  0.5877 -0.1972 -1.6501
 7770SOL    HW234947   0.448   4.728  15.006 -0.1001 -2.6305 -0.8981
 7771SOL     OW34948   2.287   4.376   3.184  0.2832 -0.0560  0.0826
 7771SOL    HW134949   2.344   4.352   3.111 -1.0931  1.0342 -1.3488
 7771SOL    HW234950   2.218   4.311   3.196  2.1753 -2.4072 -1.7434
 7772SOL     OW34951   0.898   2.282   0.056  0.3009  0.2965  0.0855
 7772SOL    HW134952   0.890   2.248   0.145  0.4705 -1.0728 -0.4320
 7772SOL    HW234953   0.924   2.203   0.010 -2.0984 -0.0694 -0.6328
 7773SOL     OW34954   1.768   0.247   7.440  0.2043  0.0834  0.4355
 7773SOL    HW134955   1.702   0.291   7.494 -0.2925  0.2917 -0.3396
 7773SOL    HW234956   1.759   0.156   7.469  0.9359 -0.0226  0.3267
 7774SOL     OW34957   1.341   1.196  13.562 -0.2663 -0.2076 -0.1347
 7774SOL    HW134958   1.394   1.238  13.630  0.8080  0.2045 -1.2294
 7774SOL    HW234959   1.369   1.105  13.563 -0.2589 -0.2156 -1.6157
 7775SOL     OW34960   2.857   0.388   1.656  0.7040  0.1542  0.6731
 7775SOL    HW134961   2.842   0.355   1.744  1.0351  4.3704  2.3303
 7775SOL    HW234962   2.874   0.482   1.670  2.4568  0.1775 -1.5487
 7776SOL     OW34963   4.552   2.537   2.207  0.0678 -0.2154  0.1266
 7776SOL    HW134964   4.523   2.464   2.152 -0.5879 -0.0015  0.1793
 7776SOL    HW234965   4.555   2.489   2.289 -2.0983  0.3375  0.5470
 7777SOL     OW34966   2.119   4.394   6.838 -0.2537  0.2453  0.1895
 7777SOL    HW134967   2.029   4.382   6.871  0.0039 -0.7050  0.5356
 7777SOL    HW234968   2.160   4.389   6.925 -0.4705  2.2170  0.3964
 7778SOL     OW34969   4.634   4.436   6.106  0.1298  0.3775  0.0406
 7778SOL    HW134970   4.565   4.497   6.130  1.3332  1.7857 -0.1286
 7778SOL    HW234971   4.622   4.382   6.184 -1.7292 -1.2700 -1.3710
 7779SOL     OW34972   4.126   4.200  16.584  0.6516  0.1536  0.8634
 7779SOL    HW134973   4.070   4.277  16.589 -0.7035 -1.0538  3.7945
 7779SOL    HW234974   4.207   4.230  16.543  0.6280  0.6371  1.1636
 7780SOL     OW34975   3.181   0.391   7.827  0.1092 -0.8372  0.2655
 7780SOL    HW134976   3.241   0.363   7.897 -2.7278 -3.0372  1.8035
 7780SOL    HW234977   3.163   0.484   7.839  1.2005 -0.6231  0.2303
 7781SOL     OW34978   3.351   0.703   3.574  0.1412 -0.8453  0.5640
 7781SOL    HW134979   3.361   0.703   3.479  0.7610 -0.3368  0.6316
 7781SOL    HW234980   3.436   0.742   3.597  1.6010 -1.7849 -3.2406
 7782SOL     OW34981   3.499   4.180   9.744  0.0229 -0.0010 -0.4852
 7782SOL    HW134982   3.474   4.091   9.768  0.4241  0.2928  0.9757
 7782SOL    HW234983   3.429   4.193   9.679 -0.2928 -1.5936 -0.4497
 7783SOL     OW34984   4.594   4.051   1.949  0.6442 -0.2777  0.2998
 7783SOL    HW134985   4.504   4.048   1.981  0.6045 -0.5406  0.1637
 7783SOL    HW234986   4.623   4.123   2.005  4.4214 -0.5735 -1.3039
 7784SOL     OW34987   3.518   2.473   1.620  0.4517 -0.0487  0.4221
 7784SOL    HW134988   3.517   2.377   1.616  3.4877 -0.0487 -0.5028
 7784SOL    HW234989   3.435   2.499   1.660 -1.5437 -2.1274 -2.3620
 7785SOL     OW34990   2.768   2.182   5.789  0.5113 -0.1512  0.1944
 7785SOL    HW134991   2.791   2.145   5.875 -1.5241  1.6155  1.5006
 7785SOL    HW234992   2.703   2.115   5.768 -0.0689  0.9286 -1.4235
 7786SOL     OW34993   2.082   3.047   5.457 -0.5605 -0.8492  0.0593
 7786SOL    HW134994   1.994   3.011   5.448 -0.8458 -0.2405  0.4213
 7786SOL    HW234995   2.110   3.032   5.547  0.9906 -0.2721 -0.3283
 7787SOL     OW34996   4.563   0.563   5.521 -0.4998 -0.4176 -0.1763
 7787SOL    HW134997   4.592   0.634   5.579 -1.0515  0.8663 -1.4459
 7787SOL    HW234998   4.571   0.483   5.573 -2.8139 -0.1825  0.5704
 7788SOL     OW34999   3.400   2.943   2.563 -0.3350 -0.1689  0.0566
 7788SOL    HW135000   3.354   2.933   2.479  1.0662  3.8587 -1.1886
 7788SOL    HW235001   3.458   3.019   2.560  1.6189 -1.6339  1.1937
 7789SOL     OW35002   2.020   1.044  12.615  0.4860 -0.3404 -0.8703
 7789SOL    HW135003   2.067   1.053  12.698  0.1281 -3.4521 -0.2930
 7789SOL    HW235004   1.987   0.954  12.619 -1.9705  0.6915  1.9993
 7790SOL     OW35005   1.064   1.536  15.008 -0.7599  0.2914 -0.2621
 7790SOL    HW135006   1.077   1.572  14.920  0.7746  0.5830  0.0841
 7790SOL    HW235007   0.973   1.508  15.001 -0.5437 -0.8342  1.6569
 7791SOL     OW35008   2.851   3.274   3.495  0.5192  0.2282  0.6623
 7791SOL    HW135009   2.884   3.306   3.579  0.7497  2.3753 -0.2531
 7791SOL    HW235010   2.935   3.249   3.458  0.6764  0.7750  0.6487
 7792SOL     OW35011   1.964   3.741   9.709 -0.4438  0.3404 -0.0848
 7792SOL    HW135012   2.014   3.820   9.728  0.6978  0.0157 -1.7237
 7792SOL    HW235013   2.035   3.677   9.715  0.3052  1.0544 -1.2996
 7793SOL     OW35014   1.385   3.710   5.194 -0.1032  0.6300  1.0713
 7793SOL    HW135015   1.357   3.670   5.276 -1.0965 -0.7290  0.0720
 7793SOL    HW235016   1.423   3.630   5.158 -0.7527  1.0928 -0.6643
 7794SOL     OW35017   2.742   2.059   2.405 -0.2147 -0.4041  0.1113
 7794SOL    HW135018   2.702   2.141   2.378 -1.2342 -0.6783  0.7864
 7794SOL    HW235019   2.759   2.031   2.315 -1.2451 -2.6975  0.6379
 7795SOL     OW35020   3.875   2.378   1.580  0.1743  0.1522  0.0662
 7795SOL    HW135021   3.840   2.344   1.497  1.6873 -1.4759  0.0987
 7795SOL    HW235022   3.898   2.296   1.623  2.2222  1.8381  2.1434
 7796SOL     OW35023   0.078   3.006   5.369  0.1394 -0.0738  0.0828
 7796SOL    HW135024   0.079   3.003   5.465 -2.2062  2.8761  0.1747
 7796SOL    HW235025   0.035   3.091   5.366  1.1707  0.5555  3.1741
 7797SOL     OW35026   3.572   1.888  12.965 -0.1506 -0.0745 -0.7639
 7797SOL    HW135027   3.623   1.947  13.021 -1.0201 -0.3621  0.3340
 7797SOL    HW235028   3.589   1.800  12.998 -0.2517  0.4446  0.6758
 7798SOL     OW35029   2.077   3.503   0.434 -0.6215  0.5114  0.9446
 7798SOL    HW135030   2.157   3.518   0.484  0.5815  0.1507 -0.8650
 7798SOL    HW235031   2.027   3.500   0.515 -0.7658 -0.6477  0.8255
 7799SOL     OW35032   0.507   0.477  11.447 -0.1144 -0.4585 -0.1541
 7799SOL    HW135033   0.455   0.507  11.372  0.0158  3.2136  1.1907
 7799SOL    HW235034   0.436   0.496  11.508 -0.1145 -0.7712 -0.0619
 7800SOL     OW35035   2.376   2.203   0.696 -0.7169  0.0998 -0.7220
 7800SOL    HW135036   2.457   2.194   0.646 -0.1138  1.2680  0.0484
 7800SOL    HW235037   2.394   2.154   0.776  3.1097  1.8288 -0.5336
 7801SOL     OW35038   1.133   3.401   3.596  0.3374  0.2023 -0.1463
 7801SOL    HW135039   1.055   3.411   3.542  0.8815  1.9053 -0.6164
 7801SOL    HW235040   1.152   3.308   3.594  0.6486  0.2924 -1.3121
 7802SOL     OW35041   0.329   0.115  12.949 -0.4007 -0.2682  0.0236
 7802SOL    HW135042   0.391   0.077  12.887  0.7566 -1.0782  1.6677
 7802SOL    HW235043   0.250   0.130  12.897 -0.6739 -2.2245 -0.1343
 7803SOL     OW35044   4.292   2.143   3.651 -0.3592 -0.0433 -0.4528
 7803SOL    HW135045   4.255   2.179   3.570 -2.2267 -1.1328 -0.0642
 7803SOL    HW235046   4.384   2.133   3.625 -0.5588 -0.6265 -0.9380
 7804SOL     OW35047   2.132   0.785   1.328  0.5021  0.7764 -0.2053
 7804SOL    HW135048   2.191   0.730   1.379  0.1027  0.0185 -0.5672
 7804SOL    HW235049   2.048   0.781   1.375 -1.0676  1.2720 -3.0227
 7805SOL     OW35050   0.380   0.366   2.474 -0.7692 -0.3152  0.1754
 7805SOL    HW135051   0.411   0.447   2.434  0.9365  0.0937  2.2789
 7805SOL    HW235052   0.381   0.397   2.565  1.0851  1.1543 -0.3396
 7806SOL     OW35053   0.818   1.699   7.887  0.0919  0.3015  0.0607
 7806SOL    HW135054   0.819   1.604   7.876 -0.1746  0.3351 -0.2732
 7806SOL    HW235055   0.910   1.723   7.899  0.0639  0.0022  0.8050
 7807SOL     OW35056   3.127   3.140   5.570 -0.2040 -0.4680  0.7911
 7807SOL    HW135057   3.080   3.197   5.509  1.0258 -0.9731 -0.6197
 7807SOL    HW235058   3.162   3.074   5.510 -2.7517 -1.4094  0.3338
 7808SOL     OW35059   3.995   3.919   3.116  0.1596  0.0588 -0.4860
 7808SOL    HW135060   4.087   3.940   3.101  0.1251  2.3806  2.5960
 7808SOL    HW235061   3.990   3.873   3.199  0.7678 -0.9213 -0.9956
 7809SOL     OW35062   3.917   2.776  14.582 -0.0693  0.1244  0.0279
 7809SOL    HW135063   3.879   2.743  14.501  0.3682  2.7627 -1.2502
 7809SOL    HW235064   4.005   2.799  14.552  0.0676 -0.8344 -0.3086
 7810SOL     OW35065   1.839   4.444   9.028 -0.5498 -0.1830  0.1544
 7810SOL    HW135066   1.934   4.440   9.016 -0.4175 -2.3843  1.9785
 7810SOL    HW235067   1.832   4.423   9.121  3.1262  0.7895  0.6473
 7811SOL     OW35068   3.785   2.756   6.088  0.4357  0.5237 -0.2212
 7811SOL    HW135069   3.843   2.715   6.152 -2.5858 -2.2726  0.7437
 7811SOL    HW235070   3.786   2.848   6.114 -0.2085  0.2996  0.6020
 7812SOL     OW35071   3.808   3.066   7.201  1.0934  0.8952 -0.0843
 7812SOL    HW135072   3.763   2.982   7.188  0.1627  1.6655 -1.8760
 7812SOL    HW235073   3.752   3.112   7.263  1.3621  1.7687 -0.4877
 7813SOL     OW35074   3.711   2.924   2.356 -0.0424  0.1543 -0.3657
 7813SOL    HW135075   3.806   2.933   2.365 -0.5500  3.7165  1.3337
 7813SOL    HW235076   3.674   3.001   2.401  1.1047  1.0019 -0.8709
 7814SOL     OW35077   4.339   4.338   7.189 -0.2503 -0.6886 -0.4448
 7814SOL    HW135078   4.336   4.428   7.155 -2.9768 -0.0288  1.5818
 7814SOL    HW235079   4.277   4.338   7.261 -0.2961  0.2454 -0.4899
 7815SOL     OW35080   1.943   0.815   0.570  0.0012  0.0370  0.5568
 7815SOL    HW135081   2.027   0.783   0.536 -1.1815 -2.1318 -0.3032
 7815SOL    HW235082   1.878   0.758   0.529 -0.0914 -0.8702  1.9758
 7816SOL     OW35083   1.540   0.743  15.187  0.5502 -0.1574 -0.1117
 7816SOL    HW135084   1.506   0.682  15.252 -0.5501  0.7682  0.1989
 7816SOL    HW235085   1.620   0.773  15.231  0.2094 -0.3914  0.6725
 7817SOL     OW35086   3.643   1.031   1.874  0.1567 -0.0624  0.6330
 7817SOL    HW135087   3.566   1.039   1.931 -0.3755 -1.6043  0.1397
 7817SOL    HW235088   3.635   0.940   1.843 -1.1266 -0.2153  1.4330
 7818SOL     OW35089   3.807   2.224  16.447  0.1277  0.0927  0.4730
 7818SOL    HW135090   3.900   2.205  16.431 -0.0946  0.4812 -1.3114
 7818SOL    HW235091   3.777   2.256  16.362 -2.9509 -0.7298  1.2414
 7819SOL     OW35092   1.136   2.706  13.976 -0.2603  0.9312 -0.2567
 7819SOL    HW135093   1.221   2.725  13.938  0.5868 -2.8072 -0.1967
 7819SOL    HW235094   1.079   2.715  13.900 -1.0908 -1.7077  0.0613
 7820SOL     OW35095   1.773   0.476  10.350  0.0964 -0.1437  0.6135
 7820SOL    HW135096   1.749   0.545  10.411 -0.0131 -0.4195  0.8782
 7820SOL    HW235097   1.781   0.403  10.411  3.0411 -0.5624 -0.2506
 7821SOL     OW35098   1.871   1.990   6.462 -0.0447 -0.1628 -0.1823
 7821SOL    HW135099   1.833   1.948   6.539 -0.5831 -0.6197 -0.7003
 7821SOL    HW235100   1.877   1.908   6.413 -0.5432 -0.2368 -0.1182
 7822SOL     OW35101   2.903   1.666   7.147  0.7342 -0.4164  0.0506
 7822SOL    HW135102   2.830   1.700   7.095  1.0152 -1.1441 -0.8250
 7822SOL    HW235103   2.963   1.716   7.093  1.1115 -0.1177  0.7450
 7823SOL     OW35104   3.062   3.970   7.368  0.8442  0.9335 -0.2053
 7823SOL    HW135105   3.102   4.021   7.298  1.9644  2.2231  1.3709
 7823SOL    HW235106   3.099   4.016   7.444 -0.2118  1.3152  0.0893
 7824SOL     OW35107   1.783   4.581   2.702 -0.4250 -0.1863  0.6739
 7824SOL    HW135108   1.780   4.513   2.769 -0.3137 -0.4484  0.4146
 7824SOL    HW235109   1.805   4.655   2.759 -0.6694 -1.2470  2.1378
 7825SOL     OW35110   0.870   2.634   7.692 -0.2914  0.0855  0.2101
 7825SOL    HW135111   0.780   2.619   7.723 -0.2978  0.8882  0.5831
 7825SOL    HW235112   0.895   2.546   7.717 -0.9735 -0.2813 -0.3812
 7826SOL     OW35113   1.736   1.482   9.725 -0.6832  0.1103  0.7033
 7826SOL    HW135114   1.791   1.512   9.653 -1.9550 -0.8368 -0.6611
 7826SOL    HW235115   1.659   1.538   9.732 -0.6535 -0.0974  2.7609
 7827SOL     OW35116   4.651   3.255  11.704 -0.3893 -0.9475 -0.2420
 7827SOL    HW135117   4.732   3.250  11.652  0.3068  0.1737  0.7387
 7827SOL    HW235118   4.662   3.176  11.757 -0.1595 -0.2992  0.6624
 7828SOL     OW35119   2.524   1.343   5.502  0.0939 -0.4999 -0.0049
 7828SOL    HW135120   2.518   1.412   5.568  0.8197 -2.0851  1.7157
 7828SOL    HW235121   2.496   1.381   5.419  3.3598  1.5169 -0.1768
 7829SOL     OW35122   4.452   4.340  15.193  0.3536  0.2368 -0.0334
 7829SOL    HW135123   4.538   4.314  15.159 -0.0369 -1.2205  0.0724
 7829SOL    HW235124   4.409   4.392  15.125 -0.7456 -0.1002  0.4139
 7830SOL     OW35125   2.247   2.412   9.658  0.2747 -0.3064 -0.0669
 7830SOL    HW135126   2.229   2.472   9.731 -1.4747  0.6262 -1.2688
 7830SOL    HW235127   2.188   2.340   9.677 -1.1766  0.5664 -1.3302
 7831SOL     OW35128   0.184   1.574   3.051  0.1183  0.1616 -0.2315
 7831SOL    HW135129   0.187   1.654   3.103  0.5362  1.2381 -1.9048
 7831SOL    HW235130   0.192   1.509   3.121 -1.4911 -1.1118 -1.2119
 7832SOL     OW35131   0.413   4.096  14.153  0.4214  0.3094 -0.0087
 7832SOL    HW135132   0.409   4.174  14.097  0.2393  1.0251  0.9856
 7832SOL    HW235133   0.323   4.092  14.187  0.3893 -1.2615 -0.3132
 7833SOL     OW35134   2.148   4.045  16.494  0.3072  0.5038 -0.2961
 7833SOL    HW135135   2.057   4.052  16.467  0.3460 -0.1707 -0.5932
 7833SOL    HW235136   2.147   4.083  16.582 -2.3505  0.0094 -0.1168
 7834SOL     OW35137   0.726   0.741   7.642  0.3791  0.4679 -0.3133
 7834SOL    HW135138   0.687   0.727   7.555  2.8145  0.2753 -1.3978
 7834SOL    HW235139   0.811   0.700   7.622 -0.2774 -0.0571 -2.0586
 7835SOL     OW35140   0.714   3.439   2.584 -0.0007  0.4730 -0.1860
 7835SOL    HW135141   0.754   3.381   2.649 -1.3600  0.6836  0.8191
 7835SOL    HW235142   0.716   3.519   2.637 -0.9067 -0.2663  0.9657
 7836SOL     OW35143   2.646   4.027  11.850  0.0867  0.0565  0.1051
 7836SOL    HW135144   2.729   3.978  11.855 -0.0382  0.0348  1.8056
 7836SOL    HW235145   2.640   4.041  11.755  0.7491  1.1997  0.2335
 7837SOL     OW35146   0.277   3.591   5.658 -0.6599 -0.7755  0.7579
 7837SOL    HW135147   0.214   3.644   5.708  0.6158  0.9409  0.5614
 7837SOL    HW235148   0.244   3.616   5.572  0.2487 -1.4146  0.2315
 7838SOL     OW35149   4.262   1.014  17.231  0.3638  0.1746 -0.0518
 7838SOL    HW135150   4.300   1.063  17.304  1.1472 -1.0041  0.3241
 7838SOL    HW235151   4.296   1.069  17.161  1.6306 -1.1098 -0.4493
 7839SOL     OW35152   1.978   3.392   9.122 -0.3891 -0.0111  0.0461
 7839SOL    HW135153   1.905   3.366   9.066 -3.5782  2.0316  3.2638
 7839SOL    HW235154   2.036   3.318   9.108  1.2068  1.2124  0.2128
 7840SOL     OW35155   0.711   4.212  13.953  0.0444  0.5799  0.4427
 7840SOL    HW135156   0.652   4.285  13.934 -0.3702  0.3401  0.8131
 7840SOL    HW235157   0.768   4.251  14.020 -1.7726 -0.4625  2.5551
 7841SOL     OW35158   4.495   2.496   2.476  0.7271  0.2568  0.4441
 7841SOL    HW135159   4.402   2.516   2.473  0.5866 -0.5885 -0.7423
 7841SOL    HW235160   4.482   2.402   2.490  0.1091  0.4401  1.0982
 7842SOL     OW35161   1.259   1.649   2.900 -0.2993 -0.4766 -0.1078
 7842SOL    HW135162   1.175   1.668   2.858  0.5425  1.2633 -1.0138
 7842SOL    HW235163   1.272   1.555   2.899  0.9307 -0.3012 -0.7306
 7843SOL     OW35164   0.756   0.421   4.342 -0.5526 -0.0910 -0.1797
 7843SOL    HW135165   0.714   0.497   4.381  1.3950  0.6721  0.4423
 7843SOL    HW235166   0.734   0.432   4.250  1.7107 -1.0172 -0.8451
 7844SOL     OW35167   1.514   0.367   1.310  0.1369 -0.1510 -0.4045
 7844SOL    HW135168   1.533   0.377   1.217  0.0356 -0.4946 -0.4649
 7844SOL    HW235169   1.600   0.338   1.342  0.8144  1.2767 -0.9394
 7845SOL     OW35170   1.966   1.207   7.430  0.1716  0.1628  0.3478
 7845SOL    HW135171   1.917   1.134   7.392  0.0898  1.7177 -2.5656
 7845SOL    HW235172   2.053   1.169   7.423  0.2165 -0.0283  1.9917
 7846SOL     OW35173   2.735   3.946   2.176 -0.0822 -0.2572  0.4130
 7846SOL    HW135174   2.670   3.993   2.227 -1.7675 -2.8048  0.6004
 7846SOL    HW235175   2.706   3.958   2.085  0.9796  1.9780  0.3604
 7847SOL     OW35176   4.586   1.785   9.382  0.2282  0.0499 -0.0456
 7847SOL    HW135177   4.630   1.705   9.410  0.9179 -0.4393 -2.5476
 7847SOL    HW235178   4.564   1.756   9.294 -3.4571  0.3599  0.7950
 7848SOL     OW35179   3.166   2.618  12.877 -0.2912  0.4962 -0.4625
 7848SOL    HW135180   3.092   2.560  12.895  0.0917  0.0118 -0.4692
 7848SOL    HW235181   3.190   2.614  12.785  0.3823  1.7754 -0.3524
 7849SOL     OW35182   2.445   3.048   2.921  0.6911 -0.5303 -1.1010
 7849SOL    HW135183   2.400   3.082   2.998  1.5707 -1.3790 -0.2073
 7849SOL    HW235184   2.533   3.023   2.951  0.7758  0.3235 -0.6521
 7850SOL     OW35185   1.433   1.290  15.329  0.3212  0.6630  0.0314
 7850SOL    HW135186   1.502   1.234  15.293  0.9255 -0.8925  3.7011
 7850SOL    HW235187   1.352   1.239  15.331 -0.0967  1.3947  1.6286
 7851SOL     OW35188   2.271   3.193   1.535  0.1309  0.1209 -0.3533
 7851SOL    HW135189   2.183   3.170   1.564  0.0901  0.5927 -0.1061
 7851SOL    HW235190   2.286   3.280   1.572  1.2933 -1.1946  2.2756
 7852SOL     OW35191   3.256   1.688  12.936  0.4641  0.0401 -0.7738
 7852SOL    HW135192   3.343   1.666  12.969 -0.9253 -1.4652  1.9543
 7852SOL    HW235193   3.217   1.738  13.008 -0.2623  2.1590 -2.6670
 7853SOL     OW35194   2.794   0.351   0.126  0.1042  0.2883  0.2533
 7853SOL    HW135195   2.859   0.358   0.056 -0.6359  1.5950 -0.3090
 7853SOL    HW235196   2.844   0.307   0.194 -0.2141 -0.9539 -0.3247
 7854SOL     OW35197   0.805   1.719   3.223 -0.2845 -0.0149  0.2761
 7854SOL    HW135198   0.734   1.750   3.167  0.3803  2.8350  1.0047
 7854SOL    HW235199   0.792   1.769   3.304  0.6921  2.0165 -0.8472
 7855SOL     OW35200   3.907   2.352  11.788 -0.0620  0.4038  0.7052
 7855SOL    HW135201   3.986   2.317  11.748 -0.4094 -0.8113  1.0980
 7855SOL    HW235202   3.846   2.339  11.715  1.5561 -3.1705  0.0376
 7856SOL     OW35203   0.545   2.220   7.366  0.0791 -0.2378 -0.2731
 7856SOL    HW135204   0.454   2.216   7.397  1.0547  0.7135  2.6796
 7856SOL    HW235205   0.549   2.137   7.319  2.8625 -0.6363  0.6872
 7857SOL     OW35206   2.497   1.970   5.342  0.7683 -0.4264 -0.0513
 7857SOL    HW135207   2.444   2.023   5.281 -1.3090 -1.0969  1.1513
 7857SOL    HW235208   2.453   1.885   5.347 -0.1680  0.0612  0.1289
 7858SOL     OW35209   3.611   0.704   4.055  0.0430 -0.1042 -0.0905
 7858SOL    HW135210   3.572   0.760   3.987  0.8540  1.9386  1.1034
 7858SOL    HW235211   3.592   0.751   4.136  0.0214  0.5279 -0.4555
 7859SOL     OW35212   2.289   3.286   8.781 -0.0285  0.4727  0.5592
 7859SOL    HW135213   2.322   3.306   8.694 -0.1767  0.6548  0.5443
 7859SOL    HW235214   2.291   3.190   8.790  0.5369  0.2749 -1.7011
 7860SOL     OW35215   4.137   2.184   3.380  0.8074 -0.1927  0.1034
 7860SOL    HW135216   4.188   2.111   3.346 -0.1924 -0.3839 -0.9658
 7860SOL    HW235217   4.055   2.173   3.331  0.4493  1.1873  0.3815
 7861SOL     OW35218   0.823   0.146  12.079 -0.0178 -0.1425 -0.0916
 7861SOL    HW135219   0.790   0.235  12.086 -0.7622 -0.4691  0.5609
 7861SOL    HW235220   0.755   0.113  12.020 -0.2037 -1.2796  0.7388
 7862SOL     OW35221   2.597   4.134  16.646  0.0180  0.2469 -0.0055
 7862SOL    HW135222   2.576   4.040  16.645  1.3817 -0.0595 -0.5064
 7862SOL    HW235223   2.617   4.142  16.553  2.7755  1.0806  0.6477
 7863SOL     OW35224   3.511   2.576  16.683  0.0237 -0.2667 -0.0888
 7863SOL    HW135225   3.550   2.644  16.738  0.9086 -0.6194 -0.2845
 7863SOL    HW235226   3.473   2.531  16.759 -0.2182 -1.7390 -1.0806
 7864SOL     OW35227   2.301   1.977   3.773  0.1751 -0.1424  0.5002
 7864SOL    HW135228   2.358   2.042   3.732  1.8555 -0.4736  2.3074
 7864SOL    HW235229   2.258   2.040   3.833 -0.0885  0.5038 -0.3649
 7865SOL     OW35230   1.532   0.724  17.390 -0.0349 -0.4308 -0.2279
 7865SOL    HW135231   1.439   0.742  17.405  0.6002  0.8794  2.2107
 7865SOL    HW235232   1.548   0.645  17.441  1.4329  1.2186  1.9059
 7866SOL     OW35233   3.329   4.727   3.405  1.0636 -0.8342  0.2398
 7866SOL    HW135234   3.400   4.704   3.465  0.3823 -0.9543  1.0052
 7866SOL    HW235235   3.373   4.731   3.320 -1.3147 -1.7534 -1.0316
 7867SOL     OW35236   2.052   1.758  11.085  0.2050 -0.3091 -0.5150
 7867SOL    HW135237   1.998   1.790  11.157 -2.4678  1.4594 -3.3651
 7867SOL    HW235238   2.071   1.664  11.097 -0.8757 -0.1879  2.0089
 7868SOL     OW35239   1.624   2.116   5.935  0.0609 -0.5599  0.1930
 7868SOL    HW135240   1.591   2.177   6.001  1.5789 -0.7029  1.0793
 7868SOL    HW235241   1.670   2.052   5.989  1.2683  0.0493 -0.1144
 7869SOL     OW35242   4.183   4.673   3.674  0.3032  0.3898 -0.3915
 7869SOL    HW135243   4.222   4.724   3.603 -0.8618  0.3397 -1.0634
 7869SOL    HW235244   4.238   4.708   3.745 -1.6226  1.4262  0.5846
 7870SOL     OW35245   1.723   2.264   4.817 -0.3718  0.4597  0.0008
 7870SOL    HW135246   1.632   2.239   4.803 -0.8487  0.8822  2.2557
 7870SOL    HW235247   1.756   2.231   4.733 -0.6240  0.0725  0.0560
 7871SOL     OW35248   1.670   0.807   6.105  0.4243 -0.0160 -0.3880
 7871SOL    HW135249   1.684   0.880   6.045  1.2945  0.6042  0.5712
 7871SOL    HW235250   1.708   0.731   6.061  1.9298  0.2424  0.4741
 7872SOL     OW35251   4.540   0.229  10.312  0.0532  0.3991  0.5320
 7872SOL    HW135252   4.599   0.246  10.386 -0.0554 -1.6516  1.0832
 7872SOL    HW235253   4.460   0.211  10.362 -0.0564  0.9280  0.5480
 7873SOL     OW35254   0.368   1.029  17.149  0.5383 -0.7719  0.3960
 7873SOL    HW135255   0.409   1.024  17.236 -1.4182 -2.8625  1.2004
 7873SOL    HW235256   0.430   1.085  17.102 -1.2549  0.8286 -0.0501
 7874SOL     OW35257   3.875   4.143   3.662  0.3114  0.2815 -0.3726
 7874SOL    HW135258   3.787   4.112   3.681  0.9466 -2.1218 -1.3923
 7874SOL    HW235259   3.872   4.140   3.567 -1.9639 -1.3385 -0.2561
 7875SOL     OW35260   1.237   2.495   3.132 -0.4821 -0.5955 -0.3050
 7875SOL    HW135261   1.180   2.444   3.074 -1.5677  0.1512  0.1018
 7875SOL    HW235262   1.246   2.423   3.195 -0.3045 -0.3262 -0.0239
 7876SOL     OW35263   3.772   0.795   9.059 -0.0598 -0.0149  0.2115
 7876SOL    HW135264   3.813   0.859   9.000  0.5746 -0.1388  0.5126
 7876SOL    HW235265   3.846   0.738   9.078 -1.9085 -2.6937 -0.6520
 7877SOL     OW35266   1.243   4.193  11.215 -0.0931  0.5897 -0.2884
 7877SOL    HW135267   1.319   4.164  11.164  2.4606  0.8227  3.3455
 7877SOL    HW235268   1.217   4.269  11.164 -0.7443 -1.3143 -2.7649
 7878SOL     OW35269   3.567   3.119   5.490  0.0178  0.3835  0.5540
 7878SOL    HW135270   3.494   3.157   5.540  2.0090 -0.2244  3.9583
 7878SOL    HW235271   3.533   3.113   5.401 -0.1351  1.0500  0.5683
 7879SOL     OW35272   0.340   0.861   5.509  0.2036  0.0436  0.1085
 7879SOL    HW135273   0.385   0.783   5.543  1.5550  1.6988  2.1111
 7879SOL    HW235274   0.383   0.930   5.559 -0.9454  0.7605  0.1113
 7880SOL     OW35275   0.905   2.062   7.515  0.4102  0.3160 -0.1258
 7880SOL    HW135276   0.961   2.106   7.579  1.5459  0.8744 -1.4937
 7880SOL    HW235277   0.822   2.049   7.562  2.4179  0.0198  3.2921
 7881SOL     OW35278   4.472   0.670   0.375 -0.0309  0.1317 -0.5627
 7881SOL    HW135279   4.517   0.740   0.328  0.4466  0.8704  1.0030
 7881SOL    HW235280   4.553   0.622   0.390  0.0288  0.2793 -0.4091
 7882SOL     OW35281   4.266   1.792   8.193  0.5326 -0.4068  0.3456
 7882SOL    HW135282   4.219   1.875   8.203  1.1204 -0.0266 -0.0742
 7882SOL    HW235283   4.337   1.805   8.256  0.1351  0.5413  0.6008
 7883SOL     OW35284   1.360   4.071   3.215 -0.2702 -0.1637 -0.1427
 7883SOL    HW135285   1.312   4.038   3.139  0.7785 -1.7087 -0.1371
 7883SOL    HW235286   1.412   4.136   3.170 -2.5433 -0.4800 -3.1835
 7884SOL     OW35287   1.204   4.283  16.594  0.3593  0.0026  0.0877
 7884SOL    HW135288   1.206   4.351  16.661  1.0631 -0.1385  0.2177
 7884SOL    HW235289   1.131   4.231  16.627  1.1361 -2.0865 -1.4336
 7885SOL     OW35290   4.664   2.042   8.698 -0.0387  0.1342  0.0113
 7885SOL    HW135291   4.584   2.078   8.659 -0.7329 -1.0667  0.3161
 7885SOL    HW235292   4.673   1.962   8.646  1.5878 -0.5734  1.3856
 7886SOL     OW35293   0.445   4.073   4.673  0.5250 -0.2340  0.1149
 7886SOL    HW135294   0.355   4.044   4.658  0.5804 -1.4798  2.1532
 7886SOL    HW235295   0.451   4.046   4.765 -0.6557 -0.6592  0.0706
 7887SOL     OW35296   3.187   2.732   1.962  0.3002  0.2817  0.2476
 7887SOL    HW135297   3.248   2.801   1.991 -1.1125  2.2342 -1.3929
 7887SOL    HW235298   3.171   2.751   1.870  0.4624 -0.0768  0.1481
 7888SOL     OW35299   3.026   1.594  17.396 -0.9408 -0.0775 -0.2202
 7888SOL    HW135300   3.086   1.529  17.432  0.6661  1.7736  0.4610
 7888SOL    HW235301   3.084   1.639  17.334  1.8710 -0.0898  2.3806
 7889SOL     OW35302   4.450   3.713   1.893  0.3072  0.2854 -0.5416
 7889SOL    HW135303   4.483   3.630   1.860  1.7249  0.3547  0.6744
 7889SOL    HW235304   4.486   3.783   1.839  0.3545 -0.0069 -0.8910
 7890SOL     OW35305   4.587   1.228   4.617 -0.3090 -0.0099 -0.3039
 7890SOL    HW135306   4.674   1.267   4.609  0.1315 -1.0556 -0.6034
 7890SOL    HW235307   4.622   1.145   4.585  1.4765  0.3114  0.7978
 7891SOL     OW35308   2.814   2.603   3.333  0.3980  0.1926  0.3449
 7891SOL    HW135309   2.850   2.527   3.379  2.4236  0.4071 -0.8942
 7891SOL    HW235310   2.800   2.666   3.404 -1.9271 -0.0229  0.0802
 7892SOL     OW35311   3.414   0.060   6.717  0.5042  0.0842  0.5274
 7892SOL    HW135312   3.321   0.054   6.737  0.5485  3.4287  1.6803
 7892SOL    HW235313   3.414   0.099   6.630  0.5613 -1.4266 -0.1512
 7893SOL     OW35314   2.437   0.518   4.126  0.4763  0.3345  0.2252
 7893SOL    HW135315   2.356   0.530   4.175  0.3597 -0.6646  0.2755
 7893SOL    HW235316   2.499   0.485   4.191  1.3870 -0.9192 -1.2704
 7894SOL     OW35317   2.747   4.581   3.159 -0.2217 -0.6810  0.2935
 7894SOL    HW135318   2.744   4.641   3.233 -0.1786  0.9766 -1.0523
 7894SOL    HW235319   2.828   4.608   3.116 -1.8200  2.7555 -0.5098
 7895SOL     OW35320   0.285   2.681   8.120 -0.1273 -0.5118 -0.0566
 7895SOL    HW135321   0.281   2.586   8.109 -0.0793 -0.5113 -0.0800
 7895SOL    HW235322   0.324   2.678   8.207 -3.4173 -1.5156  1.3589
 7896SOL     OW35323   4.046   3.895   6.606  0.5505 -0.0763  0.1584
 7896SOL    HW135324   4.116   3.839   6.572  1.2439  1.2879 -0.6922
 7896SOL    HW235325   4.048   3.963   6.539  0.4958  1.6423  1.8882
 7897SOL     OW35326   2.248   0.120  15.591 -0.0883 -0.0433  0.0619
 7897SOL    HW135327   2.272   0.044  15.643 -1.7122  0.4432  1.5063
 7897SOL    HW235328   2.297   0.196  15.623  1.2157 -1.2125  0.7808
 7898SOL     OW35329   2.779   0.923   3.015 -0.1463  0.2653  0.1899
 7898SOL    HW135330   2.823   0.941   3.098  0.1038  1.0016 -0.1040
 7898SOL    HW235331   2.758   1.010   2.982  0.5192  1.1679  2.1389
 7899SOL     OW35332   3.638   4.353  12.281 -0.1332 -0.1781  0.0270
 7899SOL    HW135333   3.599   4.350  12.368 -0.7290  0.6601 -0.2191
 7899SOL    HW235334   3.594   4.276  12.246  0.3393 -0.3927 -0.0983
 7900SOL     OW35335   1.820   0.423  16.394  0.2344  0.1311 -0.4734
 7900SOL    HW135336   1.738   0.420  16.444  0.0172  2.1187 -0.6813
 7900SOL    HW235337   1.793   0.464  16.312  0.0628  1.3466  0.1848
 7901SOL     OW35338   2.368   0.656   3.899  0.2255  0.2275 -0.1592
 7901SOL    HW135339   2.329   0.605   3.828  0.2767 -0.3762  0.2516
 7901SOL    HW235340   2.383   0.591   3.967 -1.1099  0.3789  0.2714
 7902SOL     OW35341   2.747   1.884   6.471 -0.5039 -0.5059 -0.4350
 7902SOL    HW135342   2.759   1.821   6.400  0.1998  1.3717 -1.9735
 7902SOL    HW235343   2.820   1.865   6.530  0.8101  0.1919 -1.8349
 7903SOL     OW35344   3.468   3.277   7.151 -0.4554 -0.2179  0.6888
 7903SOL    HW135345   3.445   3.196   7.197  1.9874 -0.6917  1.0487
 7903SOL    HW235346   3.387   3.328   7.154  0.6064  1.4530  0.9459
 7904SOL     OW35347   1.180   4.645  14.493 -0.4857  0.2571 -0.1559
 7904SOL    HW135348   1.138   4.730  14.505 -0.6044 -0.1103  1.9828
 7904SOL    HW235349   1.234   4.640  14.572  0.4766 -2.3516 -0.9722
 7905SOL     OW35350   2.388   0.252   3.991 -0.0706  0.0094  0.1429
 7905SOL    HW135351   2.411   0.296   4.072  0.8605  1.3976 -0.8730
 7905SOL    HW235352   2.467   0.275   3.942 -0.0130 -1.5963 -0.5322
 7906SOL     OW35353   1.635   0.000   7.138  0.2702  0.0140 -0.4536
 7906SOL    HW135354   1.656   4.645   7.162 -1.2952 -0.2781 -0.1692
 7906SOL    HW235355   1.630   4.721   7.044  0.1814  0.8187 -0.5726
 7907SOL     OW35356   1.265   4.061  17.372  0.2453  0.2832 -1.0221
 7907SOL    HW135357   1.262   3.983  17.427 -0.1595  0.2978 -1.0258
 7907SOL    HW235358   1.237   4.135  17.426 -1.0173 -1.7582  1.1077
 7908SOL     OW35359   2.032   0.758   2.523  0.0684  0.2406 -0.1313
 7908SOL    HW135360   2.125   0.772   2.504 -0.0638  1.1585 -0.1355
 7908SOL    HW235361   2.003   0.809   2.447  0.1139 -0.3186 -0.5167
 7909SOL     OW35362   1.634   0.823   5.425 -0.3356  0.4726  0.1173
 7909SOL    HW135363   1.634   0.859   5.336 -1.0052  0.4452  0.1026
 7909SOL    HW235364   1.631   0.728   5.416  0.8956  0.3463  1.1355
 7910SOL     OW35365   2.889   3.736   3.515  0.1339  0.6838  0.2566
 7910SOL    HW135366   2.855   3.756   3.602  1.4429  0.3289  0.8524
 7910SOL    HW235367   2.944   3.660   3.537  1.5635  1.8596  0.7127
 7911SOL     OW35368   3.022   1.092  12.446 -0.2270  0.1294  0.4803
 7911SOL    HW135369   3.019   1.180  12.482 -3.7515 -0.2525  1.1646
 7911SOL    HW235370   2.951   1.051  12.496  0.8138 -1.8850  0.2982
 7912SOL     OW35371   4.036   1.126   5.604 -0.0324  0.3733 -0.6050
 7912SOL    HW135372   4.030   1.215   5.569  1.1592  0.3173 -0.9535
 7912SOL    HW235373   4.038   1.144   5.698 -0.9135  2.4097 -0.9648
 7913SOL     OW35374   0.170   2.356   9.062 -0.3361  0.6007  0.0208
 7913SOL    HW135375   0.219   2.274   9.059  1.2197  1.5218  0.2963
 7913SOL    HW235376   0.191   2.394   8.977 -0.5006  0.0971 -0.2480
 7914SOL     OW35377   4.505   2.962  12.952 -0.5402  0.3567 -0.2518
 7914SOL    HW135378   4.432   3.005  12.908  0.6234  1.9958 -0.6099
 7914SOL    HW235379   4.573   2.978  12.886 -0.2390  0.0222 -0.0266
 7915SOL     OW35380   3.896   3.328   1.709  0.6948  0.3962  0.4867
 7915SOL    HW135381   3.954   3.373   1.648 -0.2988  0.7430 -0.1943
 7915SOL    HW235382   3.961   3.261   1.730 -1.3959 -1.2684  1.6399
 7916SOL     OW35383   1.890   2.128   4.315 -0.0935  0.4394  0.1333
 7916SOL    HW135384   1.967   2.184   4.307  0.4879 -0.3218  0.3576
 7916SOL    HW235385   1.906   2.043   4.273 -2.4667  0.1175 -0.0965
 7917SOL     OW35386   4.413   2.261  14.950  0.2150 -0.1943  0.1187
 7917SOL    HW135387   4.340   2.206  14.979  0.3163 -1.8441 -2.7496
 7917SOL    HW235388   4.414   2.250  14.855  3.4632 -1.7806  0.3218
 7918SOL     OW35389   0.572   0.056   9.424 -0.0090  0.0065 -0.0886
 7918SOL    HW135390   0.627   0.091   9.354 -0.4928  0.7927 -0.0686
 7918SOL    HW235391   0.594   4.699   9.410  1.3667  0.4086 -0.5756
 7919SOL     OW35392   2.464   4.584   3.187  0.5031 -0.4439 -0.4586
 7919SOL    HW135393   2.403   4.513   3.204  0.4345  0.0978  1.6229
 7919SOL    HW235394   2.549   4.543   3.168  0.5827 -0.0170 -1.0327
 7920SOL     OW35395   3.992   1.354   4.395 -0.7591 -0.4171  0.5422
 7920SOL    HW135396   3.907   1.341   4.438 -0.7473 -0.6682  0.4857
 7920SOL    HW235397   3.980   1.431   4.339  1.1203 -1.7721 -1.7047
 7921SOL     OW35398   4.192   2.413   1.889 -0.6421  0.0594  0.6475
 7921SOL    HW135399   4.249   2.415   1.812 -1.1607  1.1481  0.2859
 7921SOL    HW235400   4.109   2.447   1.856 -0.2218  0.3407 -0.1338
 7922SOL     OW35401   2.042   3.009  12.778 -0.2468  0.2019  0.1365
 7922SOL    HW135402   1.981   2.946  12.740  1.9928 -1.1607 -1.2333
 7922SOL    HW235403   2.128   2.966  12.780 -0.2729  0.1240 -0.5433
 7923SOL     OW35404   3.206   0.988  17.224  0.3524 -0.3049 -0.7749
 7923SOL    HW135405   3.114   0.994  17.253  0.6277 -2.4589  0.5617
 7923SOL    HW235406   3.196   0.976  17.130  0.9863  0.9995 -1.0121
 7924SOL     OW35407   3.476   2.911  13.760  0.0301 -0.1674  0.1811
 7924SOL    HW135408   3.387   2.943  13.775 -0.3265 -1.7568  1.4685
 7924SOL    HW235409   3.459   2.879  13.672 -1.3967  2.1846 -0.4106
 7925SOL     OW35410   1.788   2.173   1.111  0.3175 -0.9243 -0.1172
 7925SOL    HW135411   1.838   2.145   1.188  0.4911  0.3305  0.2207
 7925SOL    HW235412   1.789   2.094   1.056  1.5689 -0.1706 -1.1741
 7926SOL     OW35413   3.231   0.062   2.936  0.3606 -0.2969  0.5307
 7926SOL    HW135414   3.153   0.074   2.990  0.1856  0.3292  0.1320
 7926SOL    HW235415   3.204   4.727   2.876 -0.3089 -0.2509  0.7747
 7927SOL     OW35416   0.206   4.262   5.769 -0.2503  0.5400  0.2481
 7927SOL    HW135417   0.203   4.269   5.865  1.2635 -0.7964  0.4017
 7927SOL    HW235418   0.278   4.323   5.755  0.6579 -0.1764  1.7200
 7928SOL     OW35419   0.217   3.467   3.228  0.0639  0.0662  0.3425
 7928SOL    HW135420   0.141   3.488   3.175 -0.1295 -2.0234 -0.2265
 7928SOL    HW235421   0.173   3.484   3.312  0.5486 -1.4251  0.9019
 7929SOL     OW35422   4.635   1.812   4.762 -0.0474 -0.0289  0.2474
 7929SOL    HW135423   4.551   1.829   4.720  0.9167  1.5071 -1.0214
 7929SOL    HW235424   4.619   1.751   4.834 -0.3478 -1.3342 -0.9245
 7930SOL     OW35425   3.277   0.654   5.040  0.5750  0.0726  0.3221
 7930SOL    HW135426   3.206   0.589   5.042  2.2781 -1.7652  0.4156
 7930SOL    HW235427   3.341   0.628   4.974 -0.8906  0.3108 -1.2112
 7931SOL     OW35428   0.040   3.593  10.219 -0.4918 -0.0922 -0.4009
 7931SOL    HW135429   4.686   3.598  10.184  0.2486 -0.4369 -2.3492
 7931SOL    HW235430   0.016   3.570  10.309  2.7630  1.4173  0.8487
 7932SOL     OW35431   1.202   3.953   2.992 -0.1555 -0.3843  0.0027
 7932SOL    HW135432   1.242   3.956   2.905 -1.1984 -0.0911 -0.4628
 7932SOL    HW235433   1.150   4.034   2.993  1.8713  0.9227 -0.8308
 7933SOL     OW35434   1.952   1.137   5.016  0.0707 -0.2696  0.0180
 7933SOL    HW135435   1.928   1.150   5.108 -3.2179 -1.5447 -0.6658
 7933SOL    HW235436   2.043   1.168   5.019  0.5142 -1.6362  0.9587
 7934SOL     OW35437   0.123   4.328   7.627  0.2590  0.5428 -0.6849
 7934SOL    HW135438   0.214   4.320   7.654  0.6192  0.6423 -1.8658
 7934SOL    HW235439   0.080   4.342   7.711 -1.8831 -3.0622 -1.1738
 7935SOL     OW35440   2.972   1.920  14.682 -1.1307  0.0417  0.0715
 7935SOL    HW135441   2.932   1.850  14.630  1.0707 -1.1376 -0.0181
 7935SOL    HW235442   2.991   1.988  14.617 -0.7127 -1.0729 -0.9592
 7936SOL     OW35443   1.275   3.915  12.867 -0.0124  0.1429  0.2433
 7936SOL    HW135444   1.326   3.836  12.850 -1.7031 -0.7766 -0.4393
 7936SOL    HW235445   1.279   3.934  12.773  1.1771  0.0310  0.2666
 7937SOL     OW35446   1.895   3.167   7.342  0.3556 -0.1595 -0.3983
 7937SOL    HW135447   1.803   3.157   7.364  0.2315  0.2643 -0.7131
 7937SOL    HW235448   1.919   3.246   7.391 -0.4961 -0.7738  1.0011
 7938SOL     OW35449   2.984   4.152   4.669  0.1773  0.2527 -0.0359
 7938SOL    HW135450   3.042   4.106   4.608 -0.8102 -0.9589 -0.0702
 7938SOL    HW235451   3.017   4.126   4.755 -1.4354  1.5268  0.9731
 7939SOL     OW35452   3.112   2.871  10.719 -0.2666  0.3621 -0.3680
 7939SOL    HW135453   3.141   2.947  10.770  0.9746  0.1532 -0.7611
 7939SOL    HW235454   3.200   2.839  10.702 -1.5307 -0.7200 -4.7255
 7940SOL     OW35455   0.562   4.731  10.073 -0.5303  0.0454 -0.3245
 7940SOL    HW135456   0.607   4.671  10.132 -2.5559 -0.5553  0.6273
 7940SOL    HW235457   0.529   0.061  10.135  1.1663 -0.4267  1.0805
 7941SOL     OW35458   3.775   2.759   4.791  0.0208  0.3928  0.1046
 7941SOL    HW135459   3.870   2.767   4.785  0.2868 -1.1060  2.5243
 7941SOL    HW235460   3.739   2.804   4.714 -0.8865 -2.0074 -0.8908
 7942SOL     OW35461   4.407   4.641   7.003  0.1287  0.1491  0.3985
 7942SOL    HW135462   4.328   4.637   6.950  0.1020 -1.6002  0.5621
 7942SOL    HW235463   4.457   4.575   6.955 -0.0082  0.2079  0.1730
 7943SOL     OW35464   3.236   0.910  15.149  0.1944 -0.4066 -0.3614
 7943SOL    HW135465   3.207   0.993  15.111  3.0241  0.7196 -0.0619
 7943SOL    HW235466   3.263   0.865  15.070 -0.9434  0.2405 -1.1212
 7944SOL     OW35467   2.266   1.312  10.989  0.3114  0.1893  0.5080
 7944SOL    HW135468   2.177   1.277  10.988 -0.6603  2.7088 -1.0385
 7944SOL    HW235469   2.326   1.240  11.009  0.7831 -0.3308 -2.7792
 7945SOL     OW35470   2.635   3.321   4.447  0.2235  0.2026 -0.8451
 7945SOL    HW135471   2.724   3.292   4.466  0.6392  0.2971 -2.6220
 7945SOL    HW235472   2.599   3.315   4.535 -1.1317  1.0377 -1.3438
 7946SOL     OW35473   0.840   0.758   4.239  0.4220  0.3530 -0.2149
 7946SOL    HW135474   0.880   0.844   4.248 -0.0128  0.3093  2.0394
 7946SOL    HW235475   0.845   0.722   4.328  1.2511  0.4460 -0.2292
 7947SOL     OW35476   3.224   2.028   3.832  0.0952  0.6340  1.0863
 7947SOL    HW135477   3.267   2.110   3.855  0.9858  0.8719 -1.4268
 7947SOL    HW235478   3.274   1.971   3.891 -1.4692 -2.2121 -0.3028
 7948SOL     OW35479   4.149   3.727   2.342  0.5962  0.3327 -0.1809
 7948SOL    HW135480   4.190   3.712   2.257  1.8936 -1.8380  0.8296
 7948SOL    HW235481   4.155   3.823   2.341 -0.5629  0.3987 -1.1896
 7949SOL     OW35482   3.722   3.938   5.384  0.4574  0.4336  0.1751
 7949SOL    HW135483   3.688   4.018   5.424  0.3588 -0.7034  2.3436
 7949SOL    HW235484   3.808   3.973   5.357  0.1275  0.8177 -0.3759
 7950SOL     OW35485   1.510   2.106   5.531 -0.6662  0.0485 -0.0779
 7950SOL    HW135486   1.527   2.012   5.540  0.0101  0.4679  3.0828
 7950SOL    HW235487   1.449   2.130   5.600 -0.3667 -1.9722  0.8785
 7951SOL     OW35488   3.126   1.421   9.727  0.5875 -0.4754  0.9347
 7951SOL    HW135489   3.164   1.502   9.762 -0.0623  0.3010 -0.1556
 7951SOL    HW235490   3.058   1.461   9.673  1.2517 -1.8091 -0.8711
 7952SOL     OW35491   3.014   4.344  13.519  0.1306  0.0442  0.0160
 7952SOL    HW135492   3.033   4.352  13.613 -2.3449  2.7108  0.2961
 7952SOL    HW235493   2.980   4.255  13.514 -1.9464  0.9593 -2.1612
 7953SOL     OW35494   3.404   4.252   4.536  0.4412  0.1375 -0.1891
 7953SOL    HW135495   3.472   4.311   4.504 -1.6796  2.1387 -0.9701
 7953SOL    HW235496   3.368   4.213   4.456  1.0314 -1.5246  0.3714
 7954SOL     OW35497   1.293   2.659   7.864 -0.4348  0.6714  0.0583
 7954SOL    HW135498   1.378   2.687   7.829 -1.5862  2.8573 -1.0063
 7954SOL    HW235499   1.243   2.696   7.790  0.9948 -0.0737 -1.2775
 7955SOL     OW35500   2.339   3.462   8.534  1.3121 -0.0500  0.1031
 7955SOL    HW135501   2.280   3.526   8.574  1.2306 -0.8324  1.2317
 7955SOL    HW235502   2.296   3.450   8.450  1.3171  1.8925 -0.1895
 7956SOL     OW35503   4.082   4.054   2.110  0.4513 -0.2906 -0.2161
 7956SOL    HW135504   4.020   4.113   2.067 -0.2996 -1.7081 -1.0885
 7956SOL    HW235505   4.066   3.974   2.060 -0.6871 -0.8382  1.0356
 7957SOL     OW35506   2.012   1.395   2.276  0.2985  0.7758  0.0182
 7957SOL    HW135507   1.986   1.399   2.368  0.1878  2.2846 -0.0723
 7957SOL    HW235508   2.087   1.335   2.277 -0.6776 -0.4620 -0.6789
 7958SOL     OW35509   1.506   2.617   8.117  0.2405 -1.1896  0.5452
 7958SOL    HW135510   1.418   2.652   8.101  1.3739  0.2415 -2.5674
 7958SOL    HW235511   1.536   2.678   8.185  2.8283 -0.8858 -0.8985
 7959SOL     OW35512   1.669   0.811  11.863 -0.9769  0.5096 -0.3795
 7959SOL    HW135513   1.759   0.813  11.896 -0.8031  0.4247 -0.8511
 7959SOL    HW235514   1.662   0.903  11.836  1.3450  0.5165 -0.9447
 7960SOL     OW35515   0.863   0.073  16.365 -0.0913 -0.6521  0.0415
 7960SOL    HW135516   0.932   0.138  16.374 -0.7214 -0.0861  0.7751
 7960SOL    HW235517   0.874   0.043  16.275  2.1121  0.7849 -0.1711
 7961SOL     OW35518   1.835   0.629   1.943 -0.3797 -0.1588  0.2913
 7961SOL    HW135519   1.802   0.718   1.948  0.7015  0.4622 -3.3188
 7961SOL    HW235520   1.872   0.625   1.854 -0.0709  0.6115  0.3855
 7962SOL     OW35521   2.470   2.516   3.942 -0.0123  0.4111 -0.0337
 7962SOL    HW135522   2.411   2.499   4.016 -1.1479  2.2132 -0.5508
 7962SOL    HW235523   2.538   2.454   3.968 -0.9805 -0.8529 -0.4607
 7963SOL     OW35524   1.400   0.949  12.500 -0.0641  0.4074  0.2788
 7963SOL    HW135525   1.357   1.034  12.500  0.5610  0.7191  0.2578
 7963SOL    HW235526   1.328   0.888  12.484 -0.2320  0.1785  1.8265
 7964SOL     OW35527   1.236   2.218   8.036  0.1753  0.2020  0.3458
 7964SOL    HW135528   1.254   2.309   8.059 -0.8651  0.5374 -0.1801
 7964SOL    HW235529   1.199   2.180   8.116 -0.0803 -0.3703 -0.0472
 7965SOL     OW35530   1.270   0.941   9.582  0.0540  0.1192  0.5329
 7965SOL    HW135531   1.323   0.939   9.502  1.1483  0.8440  1.2311
 7965SOL    HW235532   1.256   0.849   9.606  1.3665  0.5514  3.0493
 7966SOL     OW35533   3.187   3.350   7.794 -0.1528  0.1074  0.5764
 7966SOL    HW135534   3.165   3.372   7.704  0.6441 -1.3605  0.0279
 7966SOL    HW235535   3.109   3.299   7.814 -0.0868 -0.5007 -0.7297
 7967SOL     OW35536   1.855   4.514   5.358 -0.0005  0.3140  0.2600
 7967SOL    HW135537   1.769   4.506   5.398 -0.1792 -0.1864 -0.2198
 7967SOL    HW235538   1.849   4.597   5.309 -1.7689 -0.2070 -0.4094
 7968SOL     OW35539   0.020   3.353   7.313  0.6257 -0.0042  0.1239
 7968SOL    HW135540   0.056   3.278   7.360 -0.5221 -1.6541 -1.5957
 7968SOL    HW235541   4.729   3.309   7.231  2.4645 -0.8187 -0.0350
 7969SOL     OW35542   2.300   1.610   7.702 -0.1594 -0.1785  0.7729
 7969SOL    HW135543   2.311   1.613   7.797 -1.6566  1.2586  0.8869
 7969SOL    HW235544   2.371   1.665   7.669  0.4941 -1.8373 -0.6342
 7970SOL     OW35545   0.873   0.923   6.186 -0.1286  0.1328 -0.3798
 7970SOL    HW135546   0.931   0.848   6.196  0.2924  0.5268  0.1093
 7970SOL    HW235547   0.928   0.986   6.140 -0.6356  0.6155 -0.3315
 7971SOL     OW35548   2.015   2.718  15.465 -0.4223  0.3225 -0.2197
 7971SOL    HW135549   1.989   2.805  15.433  0.5323  0.9910  0.8263
 7971SOL    HW235550   1.929   2.680  15.482 -1.1972  2.3663  0.3702
 7972SOL     OW35551   2.189   2.508  15.300 -0.1588  0.0718  0.0246
 7972SOL    HW135552   2.119   2.519  15.364  0.4432  0.7810  0.5693
 7972SOL    HW235553   2.190   2.595  15.261 -3.1781 -0.3815 -1.0705
 7973SOL     OW35554   2.054   1.416   8.179  0.2004  0.5172  0.1733
 7973SOL    HW135555   2.146   1.423   8.154 -0.0596 -0.1785 -0.9848
 7973SOL    HW235556   2.054   1.357   8.254 -0.2967  0.5591  0.2056
 7974SOL     OW35557   3.723   3.225   7.426  0.0961  0.1648  0.3462
 7974SOL    HW135558   3.781   3.224   7.502 -2.0297  1.4634  1.9788
 7974SOL    HW235559   3.692   3.315   7.422 -0.0725  0.1150  0.5334
 7975SOL     OW35560   4.365   4.485   2.892  0.6746 -0.1333  0.6252
 7975SOL    HW135561   4.310   4.562   2.882  1.5543  0.6354  1.7492
 7975SOL    HW235562   4.320   4.415   2.845 -2.2684  2.3238 -0.1607
 7976SOL     OW35563   0.678   0.096  13.237  0.4587  0.3695  0.2865
 7976SOL    HW135564   0.614   0.167  13.232  0.1463  0.0666 -0.0207
 7976SOL    HW235565   0.669   0.089  13.332 -0.9342  0.4285  0.1553
 7977SOL     OW35566   3.291   0.582   8.211 -0.0242  0.0974 -0.2355
 7977SOL    HW135567   3.215   0.634   8.185  1.1033  0.3073 -3.1312
 7977SOL    HW235568   3.248   0.512   8.260  1.1733 -0.9800 -0.7331
 7978SOL     OW35569   3.099   0.942   0.149 -0.2370  0.2677 -0.2485
 7978SOL    HW135570   3.042   0.888   0.205 -0.0973  0.1697 -0.2026
 7978SOL    HW235571   3.089   1.030   0.186 -0.9526  0.6444 -1.3490
 7979SOL     OW35572   3.731   0.088   6.277 -0.2887  0.0056  0.0756
 7979SOL    HW135573   3.698   0.073   6.189  1.4146  1.5617 -0.8171
 7979SOL    HW235574   3.769   0.173   6.257 -1.4898  0.5005 -0.1079
 7980SOL     OW35575   3.190   1.711  16.679  0.1873  0.1135  0.1455
 7980SOL    HW135576   3.259   1.768  16.646 -0.6076 -0.1314 -1.8983
 7980SOL    HW235577   3.123   1.743  16.618  0.6328 -0.3528 -0.5828
 7981SOL     OW35578   2.595   2.224  12.933 -0.1186  0.2901  0.1293
 7981SOL    HW135579   2.610   2.319  12.941 -1.0734  0.6918 -3.1129
 7981SOL    HW235580   2.505   2.215  12.901  0.5387  1.1015 -1.9136
 7982SOL     OW35581   4.446   1.466   4.512 -0.5149 -0.0180 -0.4944
 7982SOL    HW135582   4.493   1.408   4.572 -0.4709 -1.9276 -2.3749
 7982SOL    HW235583   4.358   1.428   4.522 -0.9935  1.0991 -0.4155
 7983SOL     OW35584   3.024   2.548   3.746  0.0183 -0.3065  0.2752
 7983SOL    HW135585   2.955   2.614   3.747  0.0850 -0.2261 -0.1384
 7983SOL    HW235586   2.994   2.473   3.796  0.3984 -1.7794 -1.6806
 7984SOL     OW35587   2.527   1.589   0.972 -0.5997 -0.7121  0.3741
 7984SOL    HW135588   2.521   1.499   0.940  0.3169 -1.0720  1.1935
 7984SOL    HW235589   2.594   1.583   1.041  1.5048  0.8916 -1.5418
 7985SOL     OW35590   3.854   1.862  15.745  0.1734  0.1040  0.1028
 7985SOL    HW135591   3.938   1.816  15.733  1.6233  3.0486 -0.9221
 7985SOL    HW235592   3.884   1.936  15.798 -0.6509  0.6715 -0.2224
 7986SOL     OW35593   1.807   0.400   4.032 -0.0423 -0.0161 -0.7790
 7986SOL    HW135594   1.813   0.323   3.974 -0.4855  0.4660 -1.4684
 7986SOL    HW235595   1.749   0.463   3.991 -0.9888 -1.7116 -2.0636
 7987SOL     OW35596   3.038   1.563   0.577 -0.4325  0.6009 -0.0334
 7987SOL    HW135597   3.131   1.575   0.556 -0.2412  2.1303  1.6576
 7987SOL    HW235598   3.032   1.549   0.672 -1.1187 -0.1673 -0.1946
 7988SOL     OW35599   3.410   1.877  16.196 -0.3794 -0.0987 -0.1839
 7988SOL    HW135600   3.325   1.861  16.155 -0.8455 -0.4683  0.9106
 7988SOL    HW235601   3.466   1.886  16.119 -1.4489 -0.4456 -1.0019
 7989SOL     OW35602   2.961   4.724   8.219  0.1873 -0.7801 -0.0884
 7989SOL    HW135603   2.908   0.064   8.192  0.7184 -0.0954  0.8154
 7989SOL    HW235604   2.886   4.664   8.225  0.5058 -1.0968  0.6846
 7990SOL     OW35605   1.031   2.049   5.920  0.6474 -0.1436 -0.4032
 7990SOL    HW135606   1.023   1.962   5.960 -2.3428  0.3044 -0.0806
 7990SOL    HW235607   1.069   2.086   5.999 -1.0374  1.0206 -0.1462
 7991SOL     OW35608   3.028   3.629   4.251  0.3534  0.1943  0.2457
 7991SOL    HW135609   3.084   3.563   4.292  3.4321  1.9385 -1.1473
 7991SOL    HW235610   2.948   3.632   4.303 -1.2647 -0.9319 -2.1794
 7992SOL     OW35611   2.669   3.728   4.731  0.1653  0.2787  0.6635
 7992SOL    HW135612   2.597   3.726   4.795 -0.2695 -0.5409  0.1373
 7992SOL    HW235613   2.633   3.794   4.671  0.5490 -1.3233 -1.3124
 7993SOL     OW35614   3.590   2.533   6.220  0.9240 -0.1413 -0.5343
 7993SOL    HW135615   3.676   2.575   6.217  0.8045  0.2394  1.1883
 7993SOL    HW235616   3.552   2.593   6.284 -0.2621 -1.5468  0.1046
 7994SOL     OW35617   0.039   3.809   5.703  0.3973  0.1833 -0.2086
 7994SOL    HW135618   4.719   3.841   5.632 -1.2479 -0.0417  0.9797
 7994SOL    HW235619   0.049   3.881   5.764  0.4215 -0.3934  0.4630
 7995SOL     OW35620   2.503   1.265   9.514 -0.3051 -0.4131  0.2708
 7995SOL    HW135621   2.556   1.272   9.593  0.3099 -1.9731  0.0096
 7995SOL    HW235622   2.521   1.172   9.497 -0.0394  0.3876 -3.9149
 7996SOL     OW35623   0.258   1.192   4.041  0.4417 -0.4272  0.6275
 7996SOL    HW135624   0.237   1.265   3.983 -0.8384 -0.2515  1.2903
 7996SOL    HW235625   0.219   1.124   3.986  0.2744 -0.8889  1.3155
 7997SOL     OW35626   1.534   3.722   7.517  0.2214  0.1251 -0.5087
 7997SOL    HW135627   1.448   3.730   7.475  0.0871 -0.5715 -0.3681
 7997SOL    HW235628   1.552   3.813   7.543  2.2650 -0.6804  0.9151
 7998SOL     OW35629   0.750   0.800   4.672 -0.1143  0.0831 -0.0109
 7998SOL    HW135630   0.692   0.872   4.647  2.2443  1.1707 -2.2528
 7998SOL    HW235631   0.822   0.848   4.712 -1.2982  0.8464  1.1927
 7999SOL     OW35632   3.738   1.560  13.838  0.4704  0.0682 -0.1925
 7999SOL    HW135633   3.677   1.503  13.884 -1.6084 -0.0123 -3.0528
 7999SOL    HW235634   3.721   1.639  13.889 -0.5159  0.6191 -1.3618
 8000SOL     OW35635   3.001   3.826  17.266 -0.1937  0.0616 -0.3674
 8000SOL    HW135636   2.961   3.859  17.347 -2.0550  2.0411 -2.0923
 8000SOL    HW235637   3.006   3.898  17.203  1.3074 -0.4181 -0.7842
 8001SOL     OW35638   1.543   2.246   8.856  0.2303 -0.5895  0.4640
 8001SOL    HW135639   1.567   2.234   8.764  0.4571 -0.9888  0.5761
 8001SOL    HW235640   1.507   2.333   8.837 -3.1365 -2.5177 -1.9812
 8002SOL     OW35641   0.197   4.705   4.427 -0.1731 -0.0170 -0.5670
 8002SOL    HW135642   0.206   4.615   4.396 -0.4506 -0.4129  0.5174
 8002SOL    HW235643   0.161   0.018   4.352 -1.1302  0.5034  0.2175
 8003SOL     OW35644   2.399   1.407   7.118  0.2148  0.3454  0.4702
 8003SOL    HW135645   2.421   1.314   7.120  1.1497  0.5751  0.6918
 8003SOL    HW235646   2.335   1.405   7.189  0.7629 -0.9522  0.9234
 8004SOL     OW35647   0.866   3.758   3.992  0.3332  0.4386  0.2389
 8004SOL    HW135648   0.882   3.852   3.983 -1.4190  0.9146  2.1264
 8004SOL    HW235649   0.777   3.766   3.959  1.6125  2.4345 -2.7451
 8005SOL     OW35650   3.721   3.756   5.878 -0.3232 -0.2228  0.4568
 8005SOL    HW135651   3.629   3.773   5.899 -0.9551 -3.0821  0.0684
 8005SOL    HW235652   3.744   3.672   5.917 -0.5777  0.1024  1.3140
 8006SOL     OW35653   4.492   4.100   8.816  0.0953  0.0063 -0.5732
 8006SOL    HW135654   4.559   4.062   8.759  0.4520 -1.0578  0.5679
 8006SOL    HW235655   4.416   4.059   8.775 -0.0627  1.7121 -1.9905
 8007SOL     OW35656   2.705   4.057   9.490 -0.1541 -0.5013 -0.3769
 8007SOL    HW135657   2.689   4.086   9.579 -0.4065  0.6150 -0.7873
 8007SOL    HW235658   2.647   3.981   9.487 -1.4177  0.4703 -0.2960
 8008SOL     OW35659   3.360   2.332   7.307 -0.1653  0.2427  0.0667
 8008SOL    HW135660   3.392   2.257   7.258 -1.4350  1.2369 -2.2618
 8008SOL    HW235661   3.372   2.397   7.237 -0.2358  0.5345  0.3220
 8009SOL     OW35662   0.075   2.312   4.720 -0.3996 -0.0601 -0.7829
 8009SOL    HW135663   0.003   2.261   4.757 -1.7721  0.0863 -3.2755
 8009SOL    HW235664   0.150   2.254   4.733 -1.2896 -1.4091 -1.7308
 8010SOL     OW35665   2.952   4.442   2.565 -0.2492 -0.1232 -0.3514
 8010SOL    HW135666   3.005   4.421   2.488  1.2768 -2.3417  1.2941
 8010SOL    HW235667   2.907   4.357   2.571  0.2400 -0.2702  1.1808
 8011SOL     OW35668   2.156   4.025   4.098  0.0903 -0.1383 -0.3346
 8011SOL    HW135669   2.145   4.017   4.193  1.2032 -0.9726 -0.2794
 8011SOL    HW235670   2.238   4.074   4.105 -0.3452  0.7151 -1.2143
 8012SOL     OW35671   3.176   2.368   3.998  0.1082 -0.3444 -0.7130
 8012SOL    HW135672   3.089   2.334   3.976  0.1166 -1.0678  0.3440
 8012SOL    HW235673   3.159   2.460   3.977  0.4396 -0.2978 -0.7739
 8013SOL     OW35674   2.028   1.406   4.630 -0.2143  0.3878 -0.1883
 8013SOL    HW135675   1.984   1.360   4.701 -0.2310 -1.1198 -1.1840
 8013SOL    HW235676   2.018   1.496   4.661 -2.4519 -0.2984  1.0844
 8014SOL     OW35677   0.988   2.990   6.843  0.7172 -0.2902 -0.3078
 8014SOL    HW135678   0.922   2.920   6.838 -0.9505  1.2130  0.6260
 8014SOL    HW235679   1.004   3.005   6.936  0.5648  0.2998 -0.3750
 8015SOL     OW35680   0.676   1.200   7.051  0.6622  0.0226  0.4531
 8015SOL    HW135681   0.735   1.132   7.080  0.6101  0.2652  1.1373
 8015SOL    HW235682   0.635   1.220   7.135  0.5783 -2.1463  0.9267
 8016SOL     OW35683   0.216   3.176   2.655  0.2067  0.5826 -0.3199
 8016SOL    HW135684   0.293   3.159   2.601  0.5492 -0.6131  0.5528
 8016SOL    HW235685   0.254   3.255   2.694 -0.8443  0.2826  1.3019
 8017SOL     OW35686   1.329   0.852  13.832  0.4148 -0.2616 -0.3653
 8017SOL    HW135687   1.372   0.806  13.759  1.2720 -2.2087  1.3670
 8017SOL    HW235688   1.290   0.924  13.783  0.0955  0.1305  0.4703
 8018SOL     OW35689   1.694   0.603   5.646 -0.7842 -0.0785  0.0566
 8018SOL    HW135690   1.737   0.521   5.622  0.5314  0.9676 -1.0977
 8018SOL    HW235691   1.628   0.601   5.577  0.3872 -0.1550 -1.0493
 8019SOL     OW35692   2.670   3.535   3.290  0.6535  0.0433 -0.1425
 8019SOL    HW135693   2.698   3.503   3.205 -2.6444 -2.2808 -0.3604
 8019SOL    HW235694   2.759   3.549   3.322  0.4415 -0.1148  0.5222
 8020SOL     OW35695   4.206   0.699   7.188 -0.4285 -0.1456  0.0644
 8020SOL    HW135696   4.120   0.732   7.161 -1.1074 -0.3498  2.0138
 8020SOL    HW235697   4.191   0.605   7.178 -0.5889  0.0233 -1.3340
 8021SOL     OW35698   4.309   1.155   2.529 -0.2425 -0.1258  0.5120
 8021SOL    HW135699   4.315   1.221   2.599  0.7876 -0.2880  0.5886
 8021SOL    HW235700   4.250   1.187   2.461 -0.7347 -0.1533  0.9273
 8022SOL     OW35701   1.266   3.488  16.377  0.0710 -0.4140 -1.0369
 8022SOL    HW135702   1.275   3.579  16.405 -0.1326 -0.7383  0.1032
 8022SOL    HW235703   1.260   3.503  16.283  0.2529  0.0479 -0.9726
 8023SOL     OW35704   1.513   1.960   4.491  0.2980  0.1452  0.8150
 8023SOL    HW135705   1.538   1.899   4.560 -1.2392 -1.3541  0.0301
 8023SOL    HW235706   1.430   1.998   4.520  0.4519  0.7539  0.4599
 8024SOL     OW35707   1.309   4.038   8.424 -0.0161 -0.3702 -0.2273
 8024SOL    HW135708   1.366   4.072   8.355 -0.0051 -0.4361 -0.2512
 8024SOL    HW235709   1.354   4.081   8.496  1.6278 -0.1934 -1.3427
 8025SOL     OW35710   4.342   2.340  16.577 -0.2289 -0.3151  0.5266
 8025SOL    HW135711   4.299   2.425  16.588  2.2470  0.9214  0.7363
 8025SOL    HW235712   4.366   2.317  16.667  0.5376  0.6731  0.5753
 8026SOL     OW35713   3.331   0.400   8.886  0.0219  0.4458 -0.4613
 8026SOL    HW135714   3.259   0.418   8.947  2.7549  1.0405  2.6155
 8026SOL    HW235715   3.359   0.312   8.911  1.9731  0.9069 -1.0620
 8027SOL     OW35716   2.100   3.621   9.046  0.1075 -0.0631 -0.5469
 8027SOL    HW135717   2.045   3.545   9.066 -1.5401  1.0237 -0.9438
 8027SOL    HW235718   2.183   3.578   9.027  0.3146 -0.1721  0.6019
 8028SOL     OW35719   4.547   3.969   6.770  0.3071 -0.5584  0.3775
 8028SOL    HW135720   4.630   4.012   6.792  0.4971 -0.6288 -0.1747
 8028SOL    HW235721   4.522   3.918   6.846 -3.4792  2.7897  1.3693
 8029SOL     OW35722   0.932   2.157   6.758  0.2514  0.3238  0.3596
 8029SOL    HW135723   0.889   2.229   6.803 -0.0741  0.7601 -0.6462
 8029SOL    HW235724   0.949   2.103   6.836 -0.0474 -1.2034 -0.6260
 8030SOL     OW35725   2.660   1.508   9.172 -0.3569  0.3051  0.7431
 8030SOL    HW135726   2.572   1.471   9.169 -0.1696 -0.0227 -1.3189
 8030SOL    HW235727   2.687   1.466   9.253 -0.6016  0.4021  0.8737
 8031SOL     OW35728   0.437   0.100   8.254 -0.3005  0.6874 -0.8267
 8031SOL    HW135729   0.358   0.110   8.306 -0.9796 -1.5597 -1.4419
 8031SOL    HW235730   0.435   0.181   8.203  0.0301  0.4305 -1.2508
 8032SOL     OW35731   2.709   0.736   1.178  0.4897  0.3283 -0.3813
 8032SOL    HW135732   2.661   0.654   1.166  0.3819  0.4715 -0.9376
 8032SOL    HW235733   2.657   0.793   1.121  1.9555  0.1030 -1.9350
 8033SOL     OW35734   4.019   1.311   4.795  0.0632  0.1191  0.2143
 8033SOL    HW135735   3.979   1.338   4.878 -1.3212 -0.2075 -0.3537
 8033SOL    HW235736   3.944   1.284   4.741  2.7664 -0.2776 -3.3304
 8034SOL     OW35737   0.673   2.646   8.049  0.3704 -0.1477  0.5586
 8034SOL    HW135738   0.657   2.740   8.049  3.1787  0.3120  2.5492
 8034SOL    HW235739   0.643   2.627   7.960 -0.4681 -0.6354  0.9480
 8035SOL     OW35740   3.945   1.143  16.056  0.4720  0.2685  0.0578
 8035SOL    HW135741   3.916   1.230  16.028  1.1001  0.9889  1.6677
 8035SOL    HW235742   3.875   1.087  16.023  1.5791 -0.7080 -0.6355
 8036SOL     OW35743   3.521   0.014   1.738 -0.1260  0.5358 -0.6986
 8036SOL    HW135744   3.559   0.038   1.654  0.3079 -0.1567 -0.7051
 8036SOL    HW235745   3.490   4.661   1.718  1.3622 -0.1005 -0.1742
 8037SOL     OW35746   0.864   4.583   5.780  0.6814 -0.5722  0.1654
 8037SOL    HW135747   0.777   4.590   5.819  1.6429 -1.2559  2.4752
 8037SOL    HW235748   0.855   4.646   5.709 -2.8478 -0.8737  0.3723
 8038SOL     OW35749   1.787   1.691  14.571  0.1580  0.1700 -0.1055
 8038SOL    HW135750   1.747   1.760  14.624  0.2736  0.5541 -0.5211
 8038SOL    HW235751   1.821   1.642  14.645 -0.5323  0.9428  0.7350
 8039SOL     OW35752   1.617   0.126   5.378  0.6023 -0.4071  0.0701
 8039SOL    HW135753   1.587   0.217   5.376 -1.5583 -1.1320  0.0494
 8039SOL    HW235754   1.696   0.129   5.433  0.8084  1.2053 -0.3067
 8040SOL     OW35755   2.191   1.258   2.732 -0.6558  0.3870 -0.2681
 8040SOL    HW135756   2.279   1.294   2.747 -0.4591 -1.9669  3.9938
 8040SOL    HW235757   2.219   1.175   2.693 -1.5267 -0.3520  0.6882
 8041SOL     OW35758   0.118   0.049   3.305 -0.1193 -0.5539  0.4358
 8041SOL    HW135759   0.178   0.030   3.378  2.0784 -0.9578 -1.4699
 8041SOL    HW235760   0.037   0.065   3.353  0.6050  1.6385  0.9316
 8042SOL     OW35761   1.399   4.587  11.950 -0.3881 -0.8077  0.1686
 8042SOL    HW135762   1.324   4.585  12.010  0.0607  0.5351  0.7662
 8042SOL    HW235763   1.418   4.495  11.930 -0.2576 -0.5665 -0.8349
 8043SOL     OW35764   4.661   3.943   6.111  0.0485  0.0225 -0.1930
 8043SOL    HW135765   4.577   3.897   6.113  1.1403 -1.9400  1.2180
 8043SOL    HW235766   4.627   4.026   6.078  2.9812  1.8052  1.2913
 8044SOL     OW35767   1.048   3.001  13.098  0.2667  0.1448 -0.3824
 8044SOL    HW135768   1.016   3.003  13.188  2.8362  1.5899  0.5024
 8044SOL    HW235769   1.087   2.914  13.103 -4.5283 -2.1227 -1.9294
 8045SOL     OW35770   3.814   3.640   1.941 -0.1140  0.2412 -0.1502
 8045SOL    HW135771   3.750   3.706   1.914  0.4482  0.2001 -1.5409
 8045SOL    HW235772   3.752   3.567   1.935  1.3544 -0.8728 -1.6445
 8046SOL     OW35773   3.351   1.886   9.357  0.3634  0.1490 -0.1138
 8046SOL    HW135774   3.409   1.957   9.329  0.7905 -0.5898 -1.0842
 8046SOL    HW235775   3.284   1.919   9.418 -0.7911 -1.0102 -0.7583
 8047SOL     OW35776   4.102   2.379   7.113  0.0900  0.3034  0.1643
 8047SOL    HW135777   4.099   2.371   7.208  0.6312  0.5048  0.1922
 8047SOL    HW235778   4.048   2.455   7.091 -1.5219 -0.4018  1.6434
 8048SOL     OW35779   4.499   0.274   1.298  0.1516  0.1059 -0.0113
 8048SOL    HW135780   4.423   0.291   1.243 -0.1867  1.1549  0.7788
 8048SOL    HW235781   4.557   0.233   1.234  1.2509  1.5382  0.0672
 8049SOL     OW35782   1.175   1.187  15.624  0.3368  0.1173 -0.9954
 8049SOL    HW135783   1.210   1.104  15.655 -1.8878  0.5848  2.8617
 8049SOL    HW235784   1.081   1.168  15.627 -0.3498  3.4200 -1.5218
 8050SOL     OW35785   2.485   4.515  13.305 -0.1528  1.0287 -0.1235
 8050SOL    HW135786   2.443   4.539  13.388  0.6350  0.5222  0.4189
 8050SOL    HW235787   2.576   4.540  13.323  0.4595 -1.8971  0.8330
 8051SOL     OW35788   0.547   1.564   2.916  0.6673 -0.9098 -0.6038
 8051SOL    HW135789   0.555   1.471   2.936 -0.2261 -0.0438  3.7271
 8051SOL    HW235790   0.538   1.612   2.999 -1.2874 -1.3170 -0.5856
 8052SOL     OW35791   4.473   1.204  15.514  0.2438  0.2170 -0.1712
 8052SOL    HW135792   4.415   1.275  15.539  2.9692  2.0069  1.0699
 8052SOL    HW235793   4.471   1.209  15.418 -0.7589  0.6576 -0.1232
 8053SOL     OW35794   0.461   3.169   8.924 -0.3103  0.0984  0.0538
 8053SOL    HW135795   0.458   3.167   9.020 -1.0978 -0.8041  0.0040
 8053SOL    HW235796   0.428   3.084   8.895  0.5298 -0.2298  0.0618
 8054SOL     OW35797   1.611   1.939  10.174  0.1072 -1.0287 -0.3813
 8054SOL    HW135798   1.529   1.958  10.220 -1.0171  1.8752 -3.5676
 8054SOL    HW235799   1.586   1.948  10.082  0.1456  1.5641 -0.1208
 8055SOL     OW35800   3.100   2.860  16.009 -0.0020 -0.6396 -0.1253
 8055SOL    HW135801   3.155   2.803  16.063  1.8478  1.3212  0.0550
 8055SOL    HW235802   3.070   2.929  16.068  1.0147  0.5684 -1.0239
 8056SOL     OW35803   1.510   2.859  14.599 -0.4348 -0.5153  0.9207
 8056SOL    HW135804   1.489   2.912  14.676 -2.7822 -0.7137  0.3980
 8056SOL    HW235805   1.452   2.895  14.532  0.4090  0.3292  0.6521
 8057SOL     OW35806   0.309   0.538   3.551  0.3947 -0.2118 -0.1090
 8057SOL    HW135807   0.283   0.598   3.481  0.4737  0.1603  0.1816
 8057SOL    HW235808   0.300   0.454   3.504  0.6895 -0.8959  1.0514
 8058SOL     OW35809   3.388   4.048   3.177  0.5714 -0.0425 -0.0427
 8058SOL    HW135810   3.428   4.096   3.105  0.1897  0.5519  0.1486
 8058SOL    HW235811   3.297   4.067   3.157  0.2908 -2.1151 -0.7924
 8059SOL     OW35812   1.704   1.408   0.520 -0.1200  0.1938  0.3292
 8059SOL    HW135813   1.759   1.482   0.495 -0.7439  0.0729 -1.3940
 8059SOL    HW235814   1.680   1.362   0.439 -0.0325 -0.9395  0.9563
 8060SOL     OW35815   0.517   0.655  13.109  0.0372 -0.0439  0.5261
 8060SOL    HW135816   0.506   0.748  13.129  1.0509 -0.3279  2.3731
 8060SOL    HW235817   0.539   0.659  13.016  2.0441 -1.0808  0.9592
 8061SOL     OW35818   1.930   0.790  16.419 -0.2387  0.0408  0.4692
 8061SOL    HW135819   1.839   0.799  16.449 -0.4470 -0.0300 -0.1551
 8061SOL    HW235820   1.971   0.784  16.506 -0.3297 -0.4071  0.4800
 8062SOL     OW35821   1.726   3.356   6.362 -0.0340  0.3144 -0.4338
 8062SOL    HW135822   1.712   3.332   6.271  0.5932  0.9410 -0.6979
 8062SOL    HW235823   1.795   3.294   6.385  1.1759  1.6998 -0.2807
 8063SOL     OW35824   4.059   0.804   8.966  0.1599 -1.0785 -0.1969
 8063SOL    HW135825   4.140   0.853   8.953 -0.0240 -0.3080  1.5829
 8063SOL    HW235826   4.024   0.811   8.877 -1.2410  0.4909  0.4780
 8064SOL     OW35827   1.998   3.411  17.663  0.5270  0.0178  0.0191
 8064SOL    HW135828   2.029   3.502  17.667 -0.4657  0.3346  0.5074
 8064SOL    HW235829   2.076   3.360  17.639  2.0953  1.4268  2.1253
 8065SOL     OW35830   4.272   1.432   7.068 -0.1322 -0.5276 -0.3902
 8065SOL    HW135831   4.193   1.486   7.066 -0.8862 -1.7077 -2.2244
 8065SOL    HW235832   4.273   1.409   7.161  1.2577  0.1753 -0.2289
 8066SOL     OW35833   3.562   4.652   4.568  0.1823  0.9392 -0.1055
 8066SOL    HW135834   3.497   4.713   4.533 -0.8312  1.0882  2.0232
 8066SOL    HW235835   3.608   4.707   4.632  2.5313 -2.0090  0.7488
 8067SOL     OW35836   0.004   3.901   4.165 -0.0606 -0.1151  0.3659
 8067SOL    HW135837   0.004   3.822   4.110  0.1169  0.8008 -0.9715
 8067SOL    HW235838   0.086   3.897   4.214  1.0206  1.0251 -1.3254
 8068SOL     OW35839   4.267   2.051   2.130  0.2871 -0.5687  0.1511
 8068SOL    HW135840   4.203   2.004   2.078  0.5417  0.6573 -1.2571
 8068SOL    HW235841   4.315   1.978   2.169  1.7620 -0.3180 -1.2170
 8069SOL     OW35842   0.105   0.661   8.987  0.1270  0.4597 -0.1756
 8069SOL    HW135843   0.153   0.669   8.905  0.2290  0.3665 -0.1254
 8069SOL    HW235844   0.053   0.741   8.987  0.7490  0.8655 -1.4636
 8070SOL     OW35845   3.883   3.041   7.594  0.0820 -0.4386  0.0488
 8070SOL    HW135846   3.798   3.003   7.575 -1.4280  2.0352  1.9081
 8070SOL    HW235847   3.941   2.964   7.597  0.6246 -0.0669 -0.9427
 8071SOL     OW35848   0.240   1.184   4.318  0.0232  0.1234  0.2891
 8071SOL    HW135849   0.311   1.248   4.318  0.5668 -0.5134 -2.5175
 8071SOL    HW235850   0.225   1.168   4.225 -0.7440  1.1726  0.2278
 8072SOL     OW35851   3.266   3.283  15.772  0.2167  0.0572  0.3142
 8072SOL    HW135852   3.347   3.233  15.757  0.5969  0.6422  0.4110
 8072SOL    HW235853   3.299   3.372  15.781 -0.2330  0.0906  1.6549
 8073SOL     OW35854   3.916   1.480  17.326 -0.2082  0.0542 -0.1119
 8073SOL    HW135855   3.997   1.438  17.299  0.0736 -0.3082  1.3032
 8073SOL    HW235856   3.850   1.416  17.299 -0.4407 -0.0568  0.7284
 8074SOL     OW35857   4.219   0.546  14.266  0.5444 -0.0025 -0.4396
 8074SOL    HW135858   4.219   0.495  14.347  1.4196  0.2049 -0.3066
 8074SOL    HW235859   4.278   0.618  14.286 -0.7723  1.4620 -1.8739
 8075SOL     OW35860   1.248   0.155   7.299  0.0508  0.2079 -0.0593
 8075SOL    HW135861   1.312   0.226   7.286 -1.5657  1.1758 -2.8308
 8075SOL    HW235862   1.291   0.076   7.266 -0.6179  0.8915 -2.5416
 8076SOL     OW35863   4.567   0.421  12.846 -0.3767 -0.1898  0.3422
 8076SOL    HW135864   4.638   0.425  12.910 -1.3552  2.7784  1.2373
 8076SOL    HW235865   4.552   0.326  12.851 -1.1339 -0.0907 -0.0973
 8077SOL     OW35866   4.050   0.965   9.385  0.5228  0.2541  0.2142
 8077SOL    HW135867   4.128   0.999   9.430  1.2025  0.0139 -0.7675
 8077SOL    HW235868   4.031   0.885   9.433  2.2716  0.2410  0.8888
 8078SOL     OW35869   4.553   1.889   7.857 -0.5530 -0.7257 -0.8039
 8078SOL    HW135870   4.633   1.841   7.834 -0.2304 -0.2827 -0.6067
 8078SOL    HW235871   4.560   1.886   7.953  0.3314 -0.4238 -0.8638
 8079SOL     OW35872   4.327   1.530   2.319 -0.2913  0.1891 -0.1598
 8079SOL    HW135873   4.290   1.465   2.379  0.1030  0.3540  0.2630
 8079SOL    HW235874   4.321   1.479   2.238  1.4442  0.7638 -0.6466
 8080SOL     OW35875   0.670   2.323   8.617 -0.4712 -0.6496  0.0343
 8080SOL    HW135876   0.647   2.362   8.702 -2.5648  1.9345 -1.7228
 8080SOL    HW235877   0.598   2.261   8.633 -1.0829  0.2285  0.6988
 8081SOL     OW35878   1.554   0.958  10.480  0.1868  0.0309 -0.3111
 8081SOL    HW135879   1.473   0.947  10.529  0.4121 -1.3565 -0.2468
 8081SOL    HW235880   1.519   0.966  10.391 -1.1315 -1.9148  0.0348
 8082SOL     OW35881   1.718   0.329   9.051 -0.0502  0.1312  0.0542
 8082SOL    HW135882   1.670   0.370   8.979  2.5964  2.7252 -0.2423
 8082SOL    HW235883   1.806   0.362   9.031  0.8861 -1.1133  2.1478
 8083SOL     OW35884   3.519   1.876  13.738  0.8560  0.3736  0.2345
 8083SOL    HW135885   3.582   1.855  13.807  1.7221  0.3513 -0.5613
 8083SOL    HW235886   3.438   1.867  13.789 -1.0380  1.0014 -2.6977
 8084SOL     OW35887   3.731   2.677   5.319  0.5260  0.0621 -0.4081
 8084SOL    HW135888   3.688   2.748   5.367 -2.7632 -1.3507 -1.2710
 8084SOL    HW235889   3.743   2.616   5.391  0.0184 -0.1422 -0.4979
 8085SOL     OW35890   0.367   1.047   7.565 -0.1045  0.3805  0.0302
 8085SOL    HW135891   0.289   1.030   7.618 -0.5524 -0.7762 -0.9983
 8085SOL    HW235892   0.365   1.143   7.561 -1.0596  0.3638  0.1044
 8086SOL     OW35893   1.964   2.104   3.513 -0.1743  0.2451 -0.4820
 8086SOL    HW135894   1.988   2.032   3.453  2.3470 -0.1865  1.0476
 8086SOL    HW235895   1.874   2.081   3.534  0.2775  0.8717  2.0875
 8087SOL     OW35896   4.248   1.398  14.856 -0.2424 -0.4460  0.3184
 8087SOL    HW135897   4.262   1.306  14.832  3.0923 -0.3151  1.7320
 8087SOL    HW235898   4.317   1.415  14.920  2.7271 -2.0308 -2.4579
 8088SOL     OW35899   0.074   4.585  11.387 -0.9153 -0.2141  0.6040
 8088SOL    HW135900   4.718   4.607  11.400 -0.9834  0.0009 -0.1973
 8088SOL    HW235901   0.087   4.592  11.292 -1.8099  2.3648  0.6896
 8089SOL     OW35902   3.663   4.043   4.382  0.5868 -0.1290  0.4082
 8089SOL    HW135903   3.699   3.961   4.349 -1.4746 -1.0720  0.5350
 8089SOL    HW235904   3.588   4.016   4.434 -1.4198  2.1363 -1.2891
 8090SOL     OW35905   2.641   4.492   3.467 -0.3903  0.2833  0.0751
 8090SOL    HW135906   2.624   4.586   3.465 -1.6705  0.0102 -1.6883
 8090SOL    HW235907   2.728   4.488   3.428 -0.8098  0.5779 -0.8925
 8091SOL     OW35908   2.176   1.360   7.277  0.2068 -0.3673  0.5148
 8091SOL    HW135909   2.091   1.402   7.283  1.2778  1.8995 -0.2914
 8091SOL    HW235910   2.187   1.343   7.371  2.0943  1.8102  0.7030
 8092SOL     OW35911   2.784   0.318   2.894  0.2384  0.8310 -0.0908
 8092SOL    HW135912   2.797   0.411   2.914  2.7578  0.1030  1.6963
 8092SOL    HW235913   2.831   0.314   2.810 -0.7403  2.0619 -0.6968
 8093SOL     OW35914   0.589   0.636   3.210 -0.0805  0.9670  0.2092
 8093SOL    HW135915   0.599   0.709   3.149  1.0609  0.5743 -0.0648
 8093SOL    HW235916   0.555   0.674   3.291 -0.2578 -0.5392  0.8480
 8094SOL     OW35917   4.646   2.682   3.592  0.2067 -0.6041  0.1572
 8094SOL    HW135918   4.663   2.593   3.561  0.1722 -0.4622 -0.2791
 8094SOL    HW235919   4.608   2.662   3.677 -1.4039 -0.1546 -0.4523
 8095SOL     OW35920   0.307   0.270  13.197 -0.3802  0.1077 -0.0677
 8095SOL    HW135921   0.230   0.222  13.224 -1.4378  1.7659 -0.1461
 8095SOL    HW235922   0.311   0.242  13.105 -0.8055 -1.5808  0.4415
 8096SOL     OW35923   3.430   1.153   9.331 -0.6411  0.0945 -0.7463
 8096SOL    HW135924   3.452   1.117   9.417 -2.0223 -0.4276 -0.6199
 8096SOL    HW235925   3.396   1.075   9.286 -1.5846 -0.3570  0.7649
 8097SOL     OW35926   0.223   3.465   2.355  0.1051  0.5905  0.8843
 8097SOL    HW135927   0.294   3.452   2.417 -0.2944  2.4535  1.7428
 8097SOL    HW235928   0.184   3.550   2.376 -0.8374  0.4787 -0.4314
 8098SOL     OW35929   1.232   3.113   4.208 -0.2085 -0.2838  0.2954
 8098SOL    HW135930   1.293   3.110   4.134  0.5718  1.1240  0.8986
 8098SOL    HW235931   1.297   3.150   4.267  1.3908 -0.2595 -1.5060
 8099SOL     OW35932   3.990   2.117   5.132  0.2893  0.0627  0.2900
 8099SOL    HW135933   3.895   2.115   5.141 -0.0853  0.4746 -3.6084
 8099SOL    HW235934   4.020   2.199   5.172  0.4004  0.5484 -0.7871
 8100SOL     OW35935   2.140   1.056   7.600 -1.1112 -0.4644  0.2706
 8100SOL    HW135936   2.179   1.084   7.517  0.3697  0.7610  1.3809
 8100SOL    HW235937   2.169   0.966   7.611  1.3872  0.3659  0.3910
 8101SOL     OW35938   0.435   1.005  11.312 -0.0713 -0.7708 -0.4329
 8101SOL    HW135939   0.499   0.984  11.244  0.2673  0.3942 -0.4711
 8101SOL    HW235940   0.357   1.038  11.267 -0.0418 -0.1509 -0.0201
 8102SOL     OW35941   0.529   2.480  11.362 -0.2294 -0.6616  0.7559
 8102SOL    HW135942   0.580   2.548  11.406  2.3828 -0.0766 -3.1482
 8102SOL    HW235943   0.591   2.446  11.297 -1.8975 -0.1205 -1.1470
 8103SOL     OW35944   3.202   2.770   2.758  0.0506  0.4606  0.2471
 8103SOL    HW135945   3.273   2.722   2.801 -1.4068  0.5273  2.7989
 8103SOL    HW235946   3.128   2.722   2.797  0.3388 -0.2330 -0.0621
 8104SOL     OW35947   3.747   1.033  10.884  0.2145  0.5614  0.0595
 8104SOL    HW135948   3.681   0.998  10.944 -1.9423  1.3331 -1.8653
 8104SOL    HW235949   3.794   0.953  10.860 -1.3086 -0.9062  1.9060
 8105SOL     OW35950   3.002   3.493  12.186  0.5603  0.0305  0.4108
 8105SOL    HW135951   3.028   3.573  12.140  0.7277  0.4470  1.2277
 8105SOL    HW235952   2.959   3.454  12.110 -1.9002  4.1588 -0.3200
 8106SOL     OW35953   1.177   4.245   2.621 -0.4506 -0.2532  0.0641
 8106SOL    HW135954   1.243   4.267   2.687  0.6539 -1.1339 -0.7394
 8106SOL    HW235955   1.101   4.225   2.675 -1.7911 -1.0162 -2.1092
 8107SOL     OW35956   2.772   2.674   4.177 -0.0964 -0.4484 -0.3198
 8107SOL    HW135957   2.698   2.677   4.115  0.5913  1.0571 -1.0505
 8107SOL    HW235958   2.761   2.759   4.218  0.8487 -0.0330 -0.9321
 8108SOL     OW35959   2.047   0.947   6.265 -0.4983  0.7104 -0.0055
 8108SOL    HW135960   1.992   1.010   6.219 -0.9400 -0.1987 -0.7108
 8108SOL    HW235961   2.121   1.003   6.289  0.0686  0.0393 -0.2060
 8109SOL     OW35962   1.856   4.688   3.415  0.4157 -0.1203  0.1261
 8109SOL    HW135963   1.894   4.600   3.425 -0.0033  0.1352  3.8945
 8109SOL    HW235964   1.883   4.730   3.497  1.7839 -0.5159 -0.1092
 8110SOL     OW35965   0.420   1.856  10.426 -0.0627 -0.1775  0.7390
 8110SOL    HW135966   0.439   1.877  10.334 -1.1541 -1.9693  0.0941
 8110SOL    HW235967   0.336   1.810  10.419 -0.1108  0.3770 -2.7064
 8111SOL     OW35968   0.155   1.751  11.587  0.1326 -0.0853  0.1190
 8111SOL    HW135969   0.212   1.781  11.658 -1.2848  0.1616  1.1509
 8111SOL    HW235970   0.221   1.760  11.517 -0.0464 -1.8904 -0.2691
 8112SOL     OW35971   1.875   0.465   3.595  0.4837 -0.2505 -0.4350
 8112SOL    HW135972   1.782   0.490   3.600  0.4137 -0.6619  0.1901
 8112SOL    HW235973   1.897   0.465   3.501  0.1702  0.5513 -0.5165
 8113SOL     OW35974   1.332   2.977  14.395 -0.2743  0.2863 -0.3318
 8113SOL    HW135975   1.412   3.027  14.381 -0.7933  1.4171  0.8066
 8113SOL    HW235976   1.314   2.961  14.302  0.5795 -0.0714 -0.4376
 8114SOL     OW35977   4.540   2.858   4.697  0.6856  0.1176 -0.2785
 8114SOL    HW135978   4.492   2.812   4.628 -0.8685 -1.6466  2.0096
 8114SOL    HW235979   4.528   2.807   4.777  0.8176 -0.6450 -0.7436
 8115SOL     OW35980   3.316   0.928   9.206 -0.6032  0.3732 -0.5869
 8115SOL    HW135981   3.403   0.911   9.242 -0.4711  3.8719  0.7710
 8115SOL    HW235982   3.292   0.848   9.160  1.7011 -1.6094  1.7357
 8116SOL     OW35983   0.057   2.345   4.068  0.2097  0.3618  0.0825
 8116SOL    HW135984   0.091   2.256   4.062 -0.8209 -0.0669  0.5959
 8116SOL    HW235985   0.103   2.381   4.143  0.1656 -0.1819  0.3664
 8117SOL     OW35986   0.038   4.037   2.991  0.0840  0.0418  0.0090
 8117SOL    HW135987   0.079   4.105   3.044 -0.0218 -2.0040  2.6935
 8117SOL    HW235988   0.098   3.964   3.003 -0.3889 -0.2703  0.4722
 8118SOL     OW35989   4.414   4.546   3.902  0.9498  0.2186 -0.2020
 8118SOL    HW135990   4.505   4.550   3.931  0.4535 -1.0918  1.5765
 8118SOL    HW235991   4.369   4.518   3.982 -0.2926  1.1913 -0.5562
 8119SOL     OW35992   3.631   2.421   2.530  0.4975 -0.0062 -0.7599
 8119SOL    HW135993   3.572   2.477   2.480  0.0975 -1.6187 -2.0780
 8119SOL    HW235994   3.695   2.484   2.563  0.4597 -0.2104 -0.2886
 8120SOL     OW35995   1.530   3.505   7.673  0.2264 -0.4927  0.3997
 8120SOL    HW135996   1.435   3.514   7.669  0.0712 -2.2736 -0.2360
 8120SOL    HW235997   1.550   3.573   7.608  0.4914  1.3847  2.4486
 8121SOL     OW35998   3.569   0.969   4.234  0.0797 -0.6765 -0.0724
 8121SOL    HW135999   3.474   0.980   4.229  0.0806 -1.0289 -0.8316
 8121SOL    HW236000   3.589   1.043   4.292  1.1456  1.0659 -2.6500
 8122SOL     OW36001   0.227   1.196  13.361  0.1841  0.2300  0.2899
 8122SOL    HW136002   0.311   1.220  13.399  0.8816 -1.6430 -0.0434
 8122SOL    HW236003   0.222   1.243  13.277  2.0816  0.2834  0.2154
 8123SOL     OW36004   4.292   0.308   1.917  0.1199  0.4482  0.2253
 8123SOL    HW136005   4.384   0.333   1.927  0.1879  0.2657  0.0316
 8123SOL    HW236006   4.260   0.343   2.001 -0.8563  0.2824 -0.0754
 8124SOL     OW36007   1.946   1.818  14.943 -0.1934 -0.2643  0.1618
 8124SOL    HW136008   1.992   1.794  15.024  0.0823 -1.3699 -0.3195
 8124SOL    HW236009   1.876   1.871  14.980  1.8756  0.7965  2.5315
 8125SOL     OW36010   1.239   3.026   6.420  0.5200 -0.2388  0.7583
 8125SOL    HW136011   1.247   2.958   6.353 -1.0133 -1.3511  1.6986
 8125SOL    HW236012   1.203   3.089   6.358  0.3203 -0.4558  0.6535
 8126SOL     OW36013   2.175   3.862   4.804  0.3011  0.5817  0.4356
 8126SOL    HW136014   2.148   3.827   4.889 -1.1512  1.5183  0.3767
 8126SOL    HW236015   2.176   3.955   4.830 -0.1216  0.0673  2.3010
 8127SOL     OW36016   1.065   2.817  14.415  0.1063 -0.1550 -0.2123
 8127SOL    HW136017   1.044   2.854  14.330 -0.6391 -4.2514 -1.8286
 8127SOL    HW236018   1.148   2.860  14.433 -1.2433  2.3444 -0.0308
 8128SOL     OW36019   1.283   2.824   6.586  0.6026 -0.2257  0.7914
 8128SOL    HW136020   1.265   2.899   6.529  1.9811 -0.4022  0.1264
 8128SOL    HW236021   1.281   2.862   6.674 -0.6147  0.0511  0.6531
 8129SOL     OW36022   3.214   4.721  15.039  0.0558 -0.3008 -0.2019
 8129SOL    HW136023   3.148   4.712  14.971  1.0057 -2.6549 -0.8123
 8129SOL    HW236024   3.156   4.724  15.115  0.6943 -0.9825  0.3148
 8130SOL     OW36025   3.822   4.710   3.416  0.4670  0.0325  0.3180
 8130SOL    HW136026   3.895   0.010   3.365 -2.0985  1.1106 -2.5373
 8130SOL    HW236027   3.843   4.617   3.420 -1.3009 -0.3391  0.8529
 8131SOL     OW36028   3.401   4.678   1.201 -0.0642 -0.9318 -0.3424
 8131SOL    HW136029   3.315   4.717   1.184 -0.5177 -0.8071  2.3019
 8131SOL    HW236030   3.452   4.695   1.121  1.0757 -0.9724  0.3864
 8132SOL     OW36031   0.164   2.076   6.004  0.2512 -0.2800  0.3124
 8132SOL    HW136032   0.070   2.062   6.013 -0.1884  2.1667 -0.3194
 8132SOL    HW236033   0.192   2.072   6.096 -0.7375 -1.6902  0.5378
 8133SOL     OW36034   2.612   2.919   8.128 -0.1932 -0.0665 -0.3954
 8133SOL    HW136035   2.639   2.958   8.211  2.4015 -1.3686 -0.6230
 8133SOL    HW236036   2.642   2.985   8.065 -0.8065  0.7685  0.1828
 8134SOL     OW36037   1.633   2.110  16.317  0.0291  0.2360 -1.1719
 8134SOL    HW136038   1.626   2.145  16.406 -2.9201 -1.0738 -0.8621
 8134SOL    HW236039   1.539   2.110  16.297 -0.2439  0.0634  0.0985
 8135SOL     OW36040   0.148   0.092   4.665 -0.6112  0.0644 -0.2672
 8135SOL    HW136041   0.158   0.016   4.607  2.6225  0.0329  0.3254
 8135SOL    HW236042   0.053   0.094   4.678 -0.5586 -0.5827  0.2586
 8136SOL     OW36043   1.203   0.793  14.433  0.1021 -0.3276  0.0486
 8136SOL    HW136044   1.250   0.834  14.360  0.4055  0.9176  0.9467
 8136SOL    HW236045   1.240   0.837  14.509 -1.2988 -0.9937  1.1058
 8137SOL     OW36046   4.167   3.628   5.048  0.1731  0.5753  0.0033
 8137SOL    HW136047   4.229   3.647   5.118  1.4269 -1.2295 -0.6010
 8137SOL    HW236048   4.138   3.540   5.072 -0.2279  1.5242  2.9643
 8138SOL     OW36049   4.049   4.633  16.482 -0.2174  0.1962  0.0414
 8138SOL    HW136050   4.070   4.703  16.420  2.2332 -1.0807 -0.5963
 8138SOL    HW236051   4.108   4.666  16.551 -2.0173  0.9505  1.2009
 8139SOL     OW36052   0.798   3.458   1.917  0.2406  0.0281 -0.1814
 8139SOL    HW136053   0.818   3.367   1.942 -2.3075  0.0435  1.9393
 8139SOL    HW236054   0.842   3.500   1.991  1.4763  1.3925 -1.7040
 8140SOL     OW36055   4.350   4.108   2.519  0.1007 -0.0136  0.2604
 8140SOL    HW136056   4.379   4.047   2.587  0.4501  1.4751  1.4506
 8140SOL    HW236057   4.268   4.068   2.490 -0.1377  0.3252  0.4752
 8141SOL     OW36058   4.612   4.328   2.783 -0.0082 -0.0060 -0.2990
 8141SOL    HW136059   4.534   4.378   2.808  0.6318  0.5212  0.6464
 8141SOL    HW236060   4.643   4.283   2.861 -2.0765 -0.5421  0.2069
 8142SOL     OW36061   2.570   0.595  16.820  0.0285  0.2104  0.1786
 8142SOL    HW136062   2.644   0.539  16.794  0.0875 -0.1643  1.1579
 8142SOL    HW236063   2.550   0.558  16.906 -2.8569 -0.7301 -0.8973
 8143SOL     OW36064   1.104   4.053   1.411 -0.0782 -0.4840 -0.6377
 8143SOL    HW136065   1.092   3.962   1.440  0.4621 -1.8804 -4.7941
 8143SOL    HW236066   1.014   4.084   1.419 -0.4543 -1.2896 -1.7705
 8144SOL     OW36067   0.068   1.035   8.502  0.5334 -0.0599 -0.5081
 8144SOL    HW136068   0.068   0.940   8.500 -0.7458 -0.1109  1.4146
 8144SOL    HW236069   4.720   1.053   8.458  0.2309 -1.6962 -0.5758
 8145SOL     OW36070   3.230   3.865  15.474 -0.0491  0.4200 -0.3162
 8145SOL    HW136071   3.192   3.856  15.562 -0.1463  2.5071 -0.1622
 8145SOL    HW236072   3.183   3.945  15.453 -0.8091  0.7542  2.6178
 8146SOL     OW36073   2.744   2.916  15.306  0.0098 -0.1569 -0.0986
 8146SOL    HW136074   2.721   2.948  15.393 -0.9581  2.1721 -1.2022
 8146SOL    HW236075   2.809   2.982  15.284 -1.2213  0.4402 -1.9887
 8147SOL     OW36076   0.927   2.653  10.853 -0.0163  0.1167 -0.1042
 8147SOL    HW136077   0.922   2.624  10.944 -1.8239 -0.2124 -0.3035
 8147SOL    HW236078   0.853   2.612  10.809 -0.2038 -1.3728  1.5710
 8148SOL     OW36079   3.766   3.683   3.453  0.7043 -0.2458  0.3252
 8148SOL    HW136080   3.672   3.702   3.450  0.7819 -0.2598 -2.0384
 8148SOL    HW236081   3.765   3.589   3.437 -0.5557 -0.3624  1.0157
 8149SOL     OW36082   3.900   1.605   7.740 -0.0206 -0.0959  0.0439
 8149SOL    HW136083   3.812   1.618   7.773  0.5273 -1.6194  2.0827
 8149SOL    HW236084   3.940   1.530   7.784 -1.9878 -1.1483  0.0355
 8150SOL     OW36085   3.266   1.439  17.417  0.6284 -0.4099 -0.3856
 8150SOL    HW136086   3.278   1.344  17.409 -2.3000 -0.8114 -0.1287
 8150SOL    HW236087   3.348   1.465  17.460  0.0290 -0.6334  0.8788
 8151SOL     OW36088   3.889   1.991  14.345 -0.1209  0.5076  0.3476
 8151SOL    HW136089   3.820   1.947  14.295 -2.1525  2.1073  1.7115
 8151SOL    HW236090   3.966   1.958  14.300 -0.6892 -0.6830  0.2440
 8152SOL     OW36091   1.407   0.202   9.249 -0.6047  0.3521  0.0744
 8152SOL    HW136092   1.468   0.235   9.183 -0.9312 -1.0071 -0.8918
 8152SOL    HW236093   1.387   0.115   9.215  1.7098  0.5008 -1.6779
 8153SOL     OW36094   0.516   1.022   6.010 -0.2730  0.7601  0.0807
 8153SOL    HW136095   0.435   0.970   6.008  0.7565 -0.7275 -3.0235
 8153SOL    HW236096   0.554   1.001   6.095  0.3151  1.3509 -0.0360
 8154SOL     OW36097   1.253   2.801   8.172  0.0272 -0.3552 -0.6046
 8154SOL    HW136098   1.287   2.880   8.129  0.1412 -0.1737 -0.1825
 8154SOL    HW236099   1.178   2.776   8.119 -1.9946 -3.1297  3.5399
 8155SOL     OW36100   2.241   1.881   4.374 -0.1115 -0.0918 -0.5876
 8155SOL    HW136101   2.202   1.797   4.351 -1.3612  0.4220 -0.3084
 8155SOL    HW236102   2.328   1.845   4.395 -0.9624 -1.7903  0.0232
 8156SOL     OW36103   2.946   2.863   7.829  0.1624  0.9138  0.4772
 8156SOL    HW136104   3.018   2.840   7.888 -0.6891  1.5157  1.7646
 8156SOL    HW236105   2.875   2.802   7.852  1.6965 -0.9629  0.2640
 8157SOL     OW36106   3.986   2.307   3.564  0.3632 -0.2637 -0.1446
 8157SOL    HW136107   4.020   2.380   3.616 -2.1997  0.0319  1.0803
 8157SOL    HW236108   4.050   2.299   3.492 -0.6605  1.7762 -1.2841
 8158SOL     OW36109   4.120   4.640  11.216  0.0462 -0.6411 -0.1456
 8158SOL    HW136110   4.136   4.653  11.122  3.5930  0.8260  0.6532
 8158SOL    HW236111   4.183   4.576  11.249 -1.8928 -1.4272  2.0441
 8159SOL     OW36112   1.030   0.636   4.091 -0.3900  0.0302  0.1509
 8159SOL    HW136113   1.014   0.666   4.001 -2.2302 -0.8115  0.2039
 8159SOL    HW236114   0.950   0.655   4.140 -0.0452  1.5636  0.1283
 8160SOL     OW36115   1.575   3.312   3.098 -0.4178  0.2667 -0.5833
 8160SOL    HW136116   1.507   3.320   3.032 -0.5976 -0.9649 -0.5414
 8160SOL    HW236117   1.552   3.229   3.141 -0.4378  0.8751  0.5710
 8161SOL     OW36118   3.437   2.826  12.935 -0.2794  0.0586 -0.7607
 8161SOL    HW136119   3.518   2.789  12.899  0.1641  1.4079 -1.1228
 8161SOL    HW236120   3.462   2.916  12.955  1.0022 -0.1415 -1.4110
 8162SOL     OW36121   3.981   1.242   8.334  0.5104 -0.1797  0.3510
 8162SOL    HW136122   4.072   1.269   8.351  0.7591 -0.9768  0.2525
 8162SOL    HW236123   3.932   1.308   8.384 -0.5381  0.1055 -1.0579
 8163SOL     OW36124   2.665   4.122   3.792 -0.2762 -0.2512 -0.1873
 8163SOL    HW136125   2.650   4.128   3.698 -1.1103  1.1626  0.0377
 8163SOL    HW236126   2.586   4.075   3.818 -0.9215  1.0133  0.1311
 8164SOL     OW36127   0.842   1.152   9.826  0.0558  0.1747 -0.8793
 8164SOL    HW136128   0.855   1.092   9.753  0.4639  2.4502 -2.6670
 8164SOL    HW236129   0.930   1.190   9.821 -0.3219  1.4594  2.2623
 8165SOL     OW36130   2.255   4.683   3.997  0.1369 -0.1187 -0.7808
 8165SOL    HW136131   2.323   4.734   4.042 -0.9073  0.8595 -0.3302
 8165SOL    HW236132   2.192   4.671   4.068 -0.3357 -0.5381 -1.2695
 8166SOL     OW36133   2.469   4.573   5.275  0.0836 -0.3996 -0.3602
 8166SOL    HW136134   2.409   4.512   5.232  1.4937 -2.2646  0.3262
 8166SOL    HW236135   2.485   4.536   5.361 -1.1623 -1.8839 -0.7616
 8167SOL     OW36136   4.264   0.223  14.157  0.4997  0.0033  0.0088
 8167SOL    HW136137   4.320   0.291  14.121  1.9262 -0.9589  0.4131
 8167SOL    HW236138   4.233   0.268  14.236  1.6139 -0.6012  0.8075
 8168SOL     OW36139   0.629   0.460   0.106 -0.4392  0.0309 -0.0115
 8168SOL    HW136140   0.574   0.513   0.164  0.0447  0.0844  0.3912
 8168SOL    HW236141   0.701   0.431   0.162 -0.6990 -0.8768 -0.1399
 8169SOL     OW36142   4.274   1.707   3.092  0.0592 -0.5115  0.0863
 8169SOL    HW136143   4.279   1.640   3.024  2.2249  1.4819 -1.7550
 8169SOL    HW236144   4.203   1.670   3.144  1.0940 -2.1410  0.3285
 8170SOL     OW36145   3.983   3.789   4.303  0.0558 -0.3110  0.1224
 8170SOL    HW136146   4.043   3.853   4.263 -0.3037 -0.6482 -0.9680
 8170SOL    HW236147   4.012   3.788   4.394 -0.4798 -1.5593  0.2665
 8171SOL     OW36148   0.465   2.519   3.777  0.4342 -0.2405 -0.2673
 8171SOL    HW136149   0.420   2.443   3.815 -0.3982  0.1896 -0.4035
 8171SOL    HW236150   0.412   2.588   3.817  0.4255  0.1732 -0.9937
 8172SOL     OW36151   1.807   1.589   4.437 -0.3105 -0.2548 -0.0997
 8172SOL    HW136152   1.827   1.649   4.510  0.2733  0.3926 -0.7829
 8172SOL    HW236153   1.791   1.650   4.365  0.7756 -0.9757 -0.9443
 8173SOL     OW36154   0.843   4.667   6.703 -0.2628  0.1915  0.4202
 8173SOL    HW136155   0.892   4.690   6.624  0.0772 -3.9175 -0.5994
 8173SOL    HW236156   0.829   0.018   6.741 -1.6356 -0.0598  0.4801
 8174SOL     OW36157   0.842   0.693   9.845  0.1427  0.0615 -0.8420
 8174SOL    HW136158   0.807   0.636   9.915 -1.9094  2.2698 -0.0790
 8174SOL    HW236159   0.768   0.688   9.784 -0.2306 -1.1612 -0.3078
 8175SOL     OW36160   2.565   2.894   1.488 -0.0173  0.3251  0.9624
 8175SOL    HW136161   2.598   2.939   1.566  2.6082  0.5866 -0.3055
 8175SOL    HW236162   2.519   2.823   1.533 -0.4560 -1.1094 -1.7510
 8176SOL     OW36163   0.376   0.035   9.142 -1.0264 -0.1844 -0.3588
 8176SOL    HW136164   0.384   4.709   9.215  1.6691  0.5890  0.0112
 8176SOL    HW236165   0.287   0.026   9.110 -1.1025 -0.7912  0.0388
 8177SOL     OW36166   3.326   0.081  11.015 -0.3735 -0.6022  0.2759
 8177SOL    HW136167   3.277   0.079  10.933 -1.8140  0.0263  1.1252
 8177SOL    HW236168   3.253   0.059  11.075  0.1336 -0.9657  0.7644
 8178SOL     OW36169   0.807   3.976   2.131  0.2651 -0.2039 -0.0450
 8178SOL    HW136170   0.756   3.895   2.122 -0.7583  0.2242  1.7698
 8178SOL    HW236171   0.844   3.969   2.219  0.4980  1.1481 -0.0464
 8179SOL     OW36172   2.870   4.043  17.059  0.3238 -0.1025 -0.4121
 8179SOL    HW136173   2.868   4.036  16.964 -0.9501  0.2067 -0.4077
 8179SOL    HW236174   2.915   4.127  17.062 -1.0473  0.5226  2.3973
 8180SOL     OW36175   2.088   1.636   4.380 -0.2726  0.1411  0.2229
 8180SOL    HW136176   2.050   1.679   4.457 -0.2868  0.3639  0.0890
 8180SOL    HW236177   2.011   1.588   4.348 -0.4112 -0.7492  1.8797
 8181SOL     OW36178   2.297   0.349   5.638 -0.5500  0.1148 -0.3609
 8181SOL    HW136179   2.275   0.385   5.551  0.8513  1.1130 -0.3001
 8181SOL    HW236180   2.384   0.312   5.620  0.1792  1.1863  1.0156
 8182SOL     OW36181   3.081   4.090   0.739  0.1208  0.1764  0.1634
 8182SOL    HW136182   3.055   4.179   0.762 -1.8000  0.0484 -1.5248
 8182SOL    HW236183   3.164   4.108   0.696 -0.6743 -0.3536 -1.5887
 8183SOL     OW36184   4.363   0.060   8.418  0.8326  0.3045  0.3744
 8183SOL    HW136185   4.431   0.126   8.434  0.8276  0.0534  1.4445
 8183SOL    HW236186   4.395   4.729   8.480  0.2136  0.5893  0.9976
 8184SOL     OW36187   4.186   0.586   3.335 -0.1413 -1.0039  0.4784
 8184SOL    HW136188   4.281   0.584   3.341  0.0037  0.5988 -1.3359
 8184SOL    HW236189   4.147   0.570   3.421 -0.3091 -3.2643 -0.0096
 8185SOL     OW36190   3.971   3.205   3.964 -0.1308  0.4612  0.1643
 8185SOL    HW136191   3.909   3.271   3.996  0.8805  0.4941  2.0755
 8185SOL    HW236192   4.042   3.268   3.955  0.7044 -0.1414  2.3602
 8186SOL     OW36193   0.505   3.017   4.746  0.0705 -0.0230 -0.3482
 8186SOL    HW136194   0.493   2.942   4.687 -2.1435 -0.7010  0.9642
 8186SOL    HW236195   0.539   3.078   4.681  0.5462  0.2266  0.1369
 8187SOL     OW36196   2.002   4.050   7.537  0.6668  0.1331  0.4015
 8187SOL    HW136197   2.009   4.006   7.622  0.1639 -0.8070 -0.0564
 8187SOL    HW236198   2.085   4.038   7.491  0.3153  2.4407 -0.8248
 8188SOL     OW36199   3.843   1.270   7.065 -0.3032  0.2632  0.3042
 8188SOL    HW136200   3.869   1.188   7.107  0.6809 -0.6361 -2.0509
 8188SOL    HW236201   3.885   1.253   6.981  1.6125 -2.0458  1.7156
 8189SOL     OW36202   3.265   2.944  13.161  0.4606  0.4217  0.0320
 8189SOL    HW136203   3.333   2.991  13.112  1.1214  0.5312  1.0459
 8189SOL    HW236204   3.282   2.856  13.129  1.9852  1.1282 -1.1062
 8190SOL     OW36205   0.031   4.594   7.569  0.3098  0.1296  0.2077
 8190SOL    HW136206   0.122   4.625   7.565  0.4013 -0.1888 -0.2289
 8190SOL    HW236207   0.053   4.503   7.550  0.8588  0.6634 -1.6659
 8191SOL     OW36208   0.981   2.197  12.968 -0.0440  0.0773 -0.4373
 8191SOL    HW136209   0.966   2.143  13.046  3.1637  0.2725  0.3178
 8191SOL    HW236210   0.999   2.126  12.907 -1.3936 -0.2839 -0.4144
 8192SOL     OW36211   3.190   0.993   5.846  0.2148 -0.2738  0.3704
 8192SOL    HW136212   3.249   1.058   5.808 -1.5955  1.0374 -0.2171
 8192SOL    HW236213   3.234   0.914   5.815  0.4994  0.0630 -0.0874
 8193SOL     OW36214   0.431   1.794   8.708 -0.2331  0.0179  0.4503
 8193SOL    HW136215   0.506   1.830   8.660 -0.1803  0.1605  0.6434
 8193SOL    HW236216   0.471   1.765   8.790  1.0555 -0.1702 -0.2275
 8194SOL     OW36217   3.195   3.005  17.007 -0.6380  0.0685 -0.2669
 8194SOL    HW136218   3.212   2.961  16.924 -1.0365 -1.2595  0.3431
 8194SOL    HW236219   3.126   2.942  17.031  0.2663 -1.1036 -0.7363
 8195SOL     OW36220   1.302   3.761  13.868 -0.7006  0.4510 -0.0564
 8195SOL    HW136221   1.209   3.739  13.862 -1.5627  4.0607  0.2171
 8195SOL    HW236222   1.339   3.746  13.781 -0.6481 -2.1052  0.4116
 8196SOL     OW36223   4.014   2.695   9.064  0.2487  0.3216  0.5591
 8196SOL    HW136224   4.022   2.627   9.131  3.1987 -1.3804 -1.5238
 8196SOL    HW236225   3.939   2.664   9.011 -1.2056  1.0144  2.2184
 8197SOL     OW36226   2.394   2.339   8.590  0.0494 -0.1560 -0.2305
 8197SOL    HW136227   2.362   2.291   8.667  0.9401  0.0978  0.2943
 8197SOL    HW236228   2.461   2.280   8.554  1.2652  2.3635 -2.1015
 8198SOL     OW36229   1.667   3.822   0.879  0.3524 -0.0540  0.0714
 8198SOL    HW136230   1.622   3.756   0.932  2.7120 -1.2179  0.6067
 8198SOL    HW236231   1.635   3.790   0.795 -0.0854 -2.4021  1.1117
 8199SOL     OW36232   2.334   1.082   2.579 -0.6001  0.2860 -0.1638
 8199SOL    HW136233   2.373   1.162   2.544 -1.3091  1.4450  1.6942
 8199SOL    HW236234   2.410   1.046   2.624 -2.6489 -2.4260  1.1003
 8200SOL     OW36235   0.413   0.537   2.718  0.0574 -0.2062 -0.0869
 8200SOL    HW136236   0.435   0.527   2.811 -1.2827  2.0816  0.4899
 8200SOL    HW236237   0.331   0.587   2.725 -1.1030 -2.0127 -0.8198
 8201SOL     OW36238   2.781   0.354   1.907  0.4539 -0.1875  0.3042
 8201SOL    HW136239   2.821   0.325   1.989 -0.7130 -0.3204  0.8179
 8201SOL    HW236240   2.719   0.418   1.944 -0.3972 -2.6673  3.1698
 8202SOL     OW36241   0.907   2.588  11.395  0.1593  0.1163  0.2169
 8202SOL    HW136242   0.968   2.651  11.436 -1.8272  2.7761 -0.9090
 8202SOL    HW236243   0.836   2.582  11.459  1.0022  1.7924  1.3362
 8203SOL     OW36244   0.775   0.081   3.127 -0.7014 -0.1182  0.6173
 8203SOL    HW136245   0.851   0.126   3.165 -0.5126  0.1797 -0.1212
 8203SOL    HW236246   0.752   0.142   3.057  0.2234  1.0204  1.3216
 8204SOL     OW36247   1.721   1.255   4.010 -0.1620  0.2363  0.0715
 8204SOL    HW136248   1.743   1.163   4.000  0.0630  0.2585  0.3433
 8204SOL    HW236249   1.792   1.293   4.062 -0.6468  0.5384  0.5221
 8205SOL     OW36250   1.822   3.039   1.799 -0.5521 -0.3386  0.4521
 8205SOL    HW136251   1.755   3.092   1.840 -1.9281 -1.0375 -0.8755
 8205SOL    HW236252   1.785   2.982   1.731 -0.4696 -0.9754  0.9336
 8206SOL     OW36253   2.113   2.685   6.394 -0.0451  0.0736  0.3747
 8206SOL    HW136254   2.144   2.716   6.309 -1.0018 -1.4495 -0.5304
 8206SOL    HW236255   2.130   2.762   6.449 -0.4862 -0.5617  1.3990
 8207SOL     OW36256   1.973   4.657   1.821 -0.0784 -0.4747 -0.2424
 8207SOL    HW136257   1.907   4.695   1.763  0.0273  0.6026  0.3502
 8207SOL    HW236258   1.951   4.684   1.910 -2.7668 -0.4258 -0.9310
 8208SOL     OW36259   0.473   3.448   8.889  0.3593 -0.3078 -0.1007
 8208SOL    HW136260   0.438   3.365   8.921  0.6860  0.4201  2.1686
 8208SOL    HW236261   0.568   3.438   8.898  0.8308  2.3236 -2.0290
 8209SOL     OW36262   1.054   3.166   5.207  0.4646  0.0692 -0.1745
 8209SOL    HW136263   1.029   3.074   5.196  0.1257 -0.0776  1.8204
 8209SOL    HW236264   1.014   3.183   5.292  1.7165  1.3157  0.1738
 8210SOL     OW36265   2.285   1.426   5.967  0.3143  0.1224 -0.2165
 8210SOL    HW136266   2.227   1.439   6.042 -1.6451  0.5443 -1.8167
 8210SOL    HW236267   2.232   1.472   5.902  1.4423  2.3910  0.4787
 8211SOL     OW36268   0.453   0.692  17.462  0.4702  0.3001  0.5845
 8211SOL    HW136269   0.400   0.675  17.383  1.2072 -0.2523  0.2104
 8211SOL    HW236270   0.469   0.786  17.462 -1.0331  0.5584 -0.5206
 8212SOL     OW36271   1.572   0.211   2.751  0.5915  0.4602 -0.5229
 8212SOL    HW136272   1.660   0.249   2.755  0.6583  0.4383 -1.9121
 8212SOL    HW236273   1.525   0.264   2.687 -0.1449  1.2028  0.6097
 8213SOL     OW36274   4.153   3.045   8.771  0.1136 -0.8359 -0.3012
 8213SOL    HW136275   4.105   3.125   8.753  4.0527  1.3622 -0.9221
 8213SOL    HW236276   4.240   3.066   8.737  0.2520 -1.3220 -0.2557
 8214SOL     OW36277   4.335   2.483   2.854 -0.5951  0.8013 -0.2588
 8214SOL    HW136278   4.422   2.494   2.894 -0.3130  1.1839 -0.9712
 8214SOL    HW236279   4.344   2.556   2.793  1.6022  0.9726  0.2483
 8215SOL     OW36280   3.176   1.304  12.809 -0.2749 -0.2793  0.7340
 8215SOL    HW136281   3.146   1.393  12.793  1.6940  0.1851 -0.3395
 8215SOL    HW236282   3.270   1.301  12.792 -0.1533 -0.8929  1.4909
 8216SOL     OW36283   2.243   1.345  12.849 -0.1048 -0.4586 -0.8005
 8216SOL    HW136284   2.210   1.386  12.768 -2.3106 -0.6533 -0.0157
 8216SOL    HW236285   2.177   1.276  12.858  0.8062 -1.4153 -1.5397
 8217SOL     OW36286   2.599   2.324   2.161 -0.3419 -0.1798 -0.2111
 8217SOL    HW136287   2.654   2.335   2.084  1.6445  0.3850  1.2986
 8217SOL    HW236288   2.567   2.234   2.159  0.0682 -0.3400  0.2932
 8218SOL     OW36289   0.040   1.823   6.974  0.1465  0.0513  0.1638
 8218SOL    HW136290   4.696   1.782   6.939 -0.1980  0.3241  0.6235
 8218SOL    HW236291   0.109   1.797   6.913  1.5404  0.8398  1.3828
 8219SOL     OW36292   1.339   3.629   8.269 -0.4138  0.2679  0.1043
 8219SOL    HW136293   1.327   3.706   8.324 -2.3996 -0.7512  1.1175
 8219SOL    HW236294   1.297   3.563   8.324 -0.6754  0.4313  0.1009
 8220SOL     OW36295   2.325   4.017  17.586 -0.0538 -0.5151  0.0908
 8220SOL    HW136296   2.350   4.109  17.577 -1.5187 -0.3281 -2.0642
 8220SOL    HW236297   2.390   3.995  17.653 -1.3515 -0.0106  1.5196
 8221SOL     OW36298   3.765   0.361   2.722  0.6807  0.0750  0.1817
 8221SOL    HW136299   3.859   0.369   2.703  0.5656 -0.7039 -0.7004
 8221SOL    HW236300   3.776   0.377   2.816 -0.7242  1.1183  0.1692
 8222SOL     OW36301   2.953   1.409   7.812 -0.3384 -0.6581  0.2460
 8222SOL    HW136302   2.857   1.407   7.821 -0.5464  0.5566 -1.4974
 8222SOL    HW236303   2.986   1.388   7.899  0.9062 -1.1761 -0.3549
 8223SOL     OW36304   2.062   3.201   3.926 -0.3249 -0.3121 -0.1584
 8223SOL    HW136305   2.005   3.275   3.943  1.3672  0.6108  1.4280
 8223SOL    HW236306   2.000   3.131   3.947  0.1029 -0.7376 -0.3078
 8224SOL     OW36307   3.010   0.696   5.223  0.0861 -0.0220  0.1303
 8224SOL    HW136308   3.071   0.711   5.151  1.0457 -0.2769  0.8995
 8224SOL    HW236309   3.055   0.755   5.283  1.4644 -1.8991  0.9242
 8225SOL     OW36310   1.639   1.367   2.991 -0.2036 -0.2636  0.1558
 8225SOL    HW136311   1.685   1.450   2.979 -0.2278  0.1161  2.6035
 8225SOL    HW236312   1.626   1.367   3.086  3.3815  0.7076  0.6327
 8226SOL     OW36313   3.331   1.483  16.779 -0.2024 -0.7063 -0.0489
 8226SOL    HW136314   3.288   1.569  16.780  1.1133 -0.0607  2.0523
 8226SOL    HW236315   3.419   1.511  16.805 -0.1430  0.9494 -2.0045
 8227SOL     OW36316   2.911   2.360   9.474 -0.4728 -0.3147  0.2357
 8227SOL    HW136317   2.897   2.269   9.503  0.1707 -0.8285 -1.0499
 8227SOL    HW236318   2.861   2.359   9.391 -1.3040  0.4230  0.7273
 8228SOL     OW36319   2.495   3.990   7.659  0.0804  0.0252  0.4488
 8228SOL    HW136320   2.412   3.948   7.682  0.9504 -1.6597  0.5065
 8228SOL    HW236321   2.555   3.940   7.714  0.4372  0.9081  0.8731
 8229SOL     OW36322   3.314   1.677  15.218 -0.2937 -1.1027  0.3550
 8229SOL    HW136323   3.228   1.715  15.236 -0.0866 -0.9309  0.9900
 8229SOL    HW236324   3.365   1.706  15.294 -0.5588  0.0487  0.0829
 8230SOL     OW36325   2.097   3.157   9.115 -0.0061 -0.3849  0.3467
 8230SOL    HW136326   2.062   3.080   9.161 -0.2183 -0.3126  0.3054
 8230SOL    HW236327   2.111   3.123   9.027  0.1557  0.0286  0.2168
 8231SOL     OW36328   1.203   3.404  13.319  0.2764 -0.0846 -0.5925
 8231SOL    HW136329   1.227   3.331  13.261  5.2147  1.4932 -0.5075
 8231SOL    HW236330   1.113   3.383  13.344 -0.2051  1.2748 -1.1927
 8232SOL     OW36331   2.215   1.517   2.117 -0.2806  0.5270  0.2534
 8232SOL    HW136332   2.156   1.591   2.101 -1.3721 -0.7125 -1.5023
 8232SOL    HW236333   2.160   1.471   2.181  0.3053  0.1312  0.4692
 8233SOL     OW36334   3.815   2.886  14.977 -1.0044 -0.1711 -0.2838
 8233SOL    HW136335   3.811   2.966  15.029  1.1721  0.4030 -1.0015
 8233SOL    HW236336   3.838   2.916  14.889  2.4837  0.1352  0.7183
 8234SOL     OW36337   1.073   2.290   4.470 -0.1888  0.3957 -0.1144
 8234SOL    HW136338   0.981   2.302   4.445  0.6027  3.2683 -1.7012
 8234SOL    HW236339   1.074   2.361   4.534 -3.9927 -0.1257  0.5095
 8235SOL     OW36340   2.800   1.531   8.265 -0.0789 -0.5756  0.1193
 8235SOL    HW136341   2.779   1.607   8.320  1.4274  0.5009 -0.7743
 8235SOL    HW236342   2.806   1.591   8.191  1.5051 -0.5028  0.3104
 8236SOL     OW36343   1.338   3.028  14.776 -0.2265 -0.4472 -0.5444
 8236SOL    HW136344   1.386   3.099  14.818 -0.5681 -0.2615 -0.4770
 8236SOL    HW236345   1.303   2.991  14.857  1.4862 -1.4782 -0.2681
 8237SOL     OW36346   4.256   0.408   2.177 -0.7514  0.6707  0.0483
 8237SOL    HW136347   4.311   0.447   2.244 -1.0620  2.6946 -0.8814
 8237SOL    HW236348   4.205   0.352   2.236 -0.1304  1.1502  1.0153
 8238SOL     OW36349   4.175   1.406   6.349 -0.0529  0.7933  0.0445
 8238SOL    HW136350   4.257   1.423   6.304 -0.4022  0.2223 -0.8023
 8238SOL    HW236351   4.195   1.435   6.438 -2.6496 -0.4102  1.0258
 8239SOL     OW36352   0.723   2.404   4.836 -0.7303  0.1299  0.0860
 8239SOL    HW136353   0.721   2.308   4.843 -1.9669  0.2675  1.5659
 8239SOL    HW236354   0.738   2.437   4.924 -0.0225  1.5056 -0.5492
 8240SOL     OW36355   2.921   4.429   3.497  0.0516  0.5133  0.3191
 8240SOL    HW136356   2.992   4.484   3.464  0.9367  0.1819  1.6896
 8240SOL    HW236357   2.967   4.351   3.529 -3.2410 -1.5037  0.1667
 8241SOL     OW36358   0.900   4.079   8.176  0.2572  0.5336  0.0262
 8241SOL    HW136359   0.978   4.128   8.148 -0.1344 -0.6668 -3.1424
 8241SOL    HW236360   0.838   4.080   8.103 -0.8715  0.1276  0.9824
 8242SOL     OW36361   2.244   2.731  15.195  0.5009  0.6663  0.2477
 8242SOL    HW136362   2.213   2.820  15.174 -2.8142 -0.2502  1.2020
 8242SOL    HW236363   2.335   2.756  15.178  0.8272 -1.2348 -0.7328
 8243SOL     OW36364   2.426   2.568   6.454  0.3520 -0.1963  0.2969
 8243SOL    HW136365   2.512   2.593   6.421  0.0405 -0.6555 -0.8573
 8243SOL    HW236366   2.378   2.643   6.419 -0.5202 -1.0610 -0.3468
 8244SOL     OW36367   2.867   3.282   9.148  0.0047  0.3043  0.0424
 8244SOL    HW136368   2.864   3.378   9.153  1.6293  0.4391 -1.5538
 8244SOL    HW236369   2.837   3.266   9.237  0.4355 -2.7078 -0.3696
 8245SOL     OW36370   2.143   3.307   4.711  0.3544 -0.1541 -0.2048
 8245SOL    HW136371   2.058   3.301   4.667 -0.1908  0.7449  0.7291
 8245SOL    HW236372   2.121   3.248   4.782 -0.7032  1.4548  0.8199
 8246SOL     OW36373   3.694   0.488   8.908  0.1830 -0.0248  0.2883
 8246SOL    HW136374   3.737   0.487   8.993  1.8090 -0.6684 -0.5382
 8246SOL    HW236375   3.621   0.547   8.928 -0.7543 -0.3738 -2.0604
 8247SOL     OW36376   0.604   3.764   9.720  0.8338  0.4849  0.3629
 8247SOL    HW136377   0.594   3.678   9.680 -1.9305  0.7092  0.5765
 8247SOL    HW236378   0.580   3.742   9.810 -0.6619  1.6517  0.2625
 8248SOL     OW36379   0.359   0.860   4.969 -0.0310 -0.2350  0.9873
 8248SOL    HW136380   0.365   0.779   4.919 -2.0943  0.2882 -0.1042
 8248SOL    HW236381   0.430   0.855   5.034 -0.4111  2.9280  1.6810
 8249SOL     OW36382   2.808   3.735   7.451 -0.8202  0.0529 -0.1531
 8249SOL    HW136383   2.745   3.686   7.502 -2.1477  0.2348 -1.6104
 8249SOL    HW236384   2.758   3.811   7.421  1.3436  1.1870 -0.8744
 8250SOL     OW36385   3.825   1.319   0.681 -0.3839  0.2734 -0.2598
 8250SOL    HW136386   3.911   1.285   0.655 -0.0589  2.1809 -1.7068
 8250SOL    HW236387   3.783   1.306   0.596 -0.6618  0.2148 -0.1133
 8251SOL     OW36388   0.968   3.012   4.608  0.5272 -0.7339  0.1440
 8251SOL    HW136389   1.060   3.028   4.631  0.6283 -1.2411  0.1092
 8251SOL    HW236390   0.942   3.089   4.559  1.1823 -1.4564 -1.3417
 8252SOL     OW36391   1.030   1.180  12.802 -0.0324 -0.8670  0.4030
 8252SOL    HW136392   1.056   1.123  12.730  1.0743  1.7196 -1.2479
 8252SOL    HW236393   1.101   1.163  12.865 -2.0626 -2.3333  2.2781
 8253SOL     OW36394   2.164   0.011   2.433 -0.3171  0.2606  0.2500
 8253SOL    HW136395   2.102   0.033   2.364  0.0145  0.4358  0.0074
 8253SOL    HW236396   2.148   4.652   2.426  0.0688  0.3389 -1.5309
 8254SOL     OW36397   4.159   2.698  15.512  0.3918  0.1876 -0.4929
 8254SOL    HW136398   4.221   2.657  15.573  2.0085  1.0623 -1.5202
 8254SOL    HW236399   4.164   2.632  15.443 -3.0095 -0.9763  0.3835
 8255SOL     OW36400   3.464   1.333   4.559 -0.2369 -0.0145 -0.8444
 8255SOL    HW136401   3.391   1.287   4.599  1.3203 -1.3283  0.4584
 8255SOL    HW236402   3.500   1.260   4.510  0.5684  0.1089 -0.4307
 8256SOL     OW36403   4.601   0.432   1.656  0.1079 -0.0847 -0.2939
 8256SOL    HW136404   4.651   0.352   1.672 -0.7642 -0.7393 -0.8322
 8256SOL    HW236405   4.550   0.424   1.737  1.8265  1.2596  0.9070
 8257SOL     OW36406   2.427   3.861  10.395  0.0006 -0.1175  0.0021
 8257SOL    HW136407   2.404   3.823  10.480  1.5703 -1.4524 -0.1832
 8257SOL    HW236408   2.501   3.805  10.375 -0.2450 -0.7111  0.7453
 8258SOL     OW36409   0.148   1.336   7.016  0.1514 -0.3323  0.2406
 8258SOL    HW136410   0.166   1.279   7.092 -1.7921 -0.5674  0.5330
 8258SOL    HW236411   0.166   1.275   6.945  1.4831 -1.0228  1.1556
 8259SOL     OW36412   2.766   0.045   4.585  0.0516 -0.1020 -0.3728
 8259SOL    HW136413   2.707   0.007   4.650  0.5178 -0.7789 -0.3373
 8259SOL    HW236414   2.843   4.727   4.604  0.4600  0.0147 -1.7182
 8260SOL     OW36415   3.298   1.594   0.471  0.5571  0.2434  0.0250
 8260SOL    HW136416   3.335   1.606   0.383  0.1701 -0.0996 -0.1848
 8260SOL    HW236417   3.363   1.643   0.520  1.7510 -0.1407 -1.1823
 8261SOL     OW36418   2.220   2.778   0.786 -0.3388  0.2567  0.4228
 8261SOL    HW136419   2.126   2.789   0.768 -0.3616  0.5010  0.6836
 8261SOL    HW236420   2.229   2.684   0.768  2.0490  1.1274 -2.8421
 8262SOL     OW36421   4.583   3.096   9.363  0.3744 -0.4670 -0.0923
 8262SOL    HW136422   4.531   3.168   9.399  1.1752 -0.5151  1.1552
 8262SOL    HW236423   4.519   3.026   9.378  1.3662 -1.2137  0.6124
 8263SOL     OW36424   4.603   4.241   6.642  0.4670  0.2694  0.1566
 8263SOL    HW136425   4.669   4.185   6.600  0.7134  2.1807 -2.0052
 8263SOL    HW236426   4.544   4.169   6.664 -0.1919  0.7008 -0.2012
 8264SOL     OW36427   0.734   1.371  13.433  0.1607  0.0633  0.5972
 8264SOL    HW136428   0.771   1.283  13.422  1.7634  0.7427  0.6629
 8264SOL    HW236429   0.768   1.403  13.516 -1.0643 -1.1186  1.5606
 8265SOL     OW36430   1.331   1.536  11.941  0.0791  0.0582  0.3917
 8265SOL    HW136431   1.385   1.527  11.862 -0.0699 -1.4132  0.4478
 8265SOL    HW236432   1.260   1.477  11.914 -0.7939  1.5147 -0.4720
 8266SOL     OW36433   3.571   4.113  11.740  0.1856  0.8670  0.4397
 8266SOL    HW136434   3.659   4.144  11.720  1.3862 -2.1237  1.0482
 8266SOL    HW236435   3.564   4.045  11.672 -0.2504  0.3641  0.9876
 8267SOL     OW36436   2.146   3.432   5.752  0.9745  0.5780 -0.7147
 8267SOL    HW136437   2.192   3.456   5.832  1.4994  1.8068 -1.3782
 8267SOL    HW236438   2.080   3.501   5.760 -1.3477 -1.2847 -3.7534
 8268SOL     OW36439   3.429   3.600   5.475  0.3284  1.1431  0.1660
 8268SOL    HW136440   3.500   3.550   5.435 -1.3040 -0.8443 -0.2452
 8268SOL    HW236441   3.468   3.608   5.563 -1.2152 -0.9379  1.0406
 8269SOL     OW36442   0.379   2.967  10.614  0.0015  0.1843 -0.5881
 8269SOL    HW136443   0.453   2.963  10.675  1.0020 -0.1561 -1.8279
 8269SOL    HW236444   0.431   2.966  10.534  2.5644 -1.3416  1.1172
 8270SOL     OW36445   1.288   3.113  12.793  0.4432  0.0135  0.1664
 8270SOL    HW136446   1.205   3.107  12.838  1.1060  1.1404  1.5528
 8270SOL    HW236447   1.261   3.064  12.715 -3.3906 -1.7207  2.6240
 8271SOL     OW36448   0.661   0.786   6.893 -0.2470 -0.2833 -0.4561
 8271SOL    HW136449   0.737   0.748   6.936 -0.6553  1.5733  1.9170
 8271SOL    HW236450   0.691   0.863   6.844  0.0069  1.2578  2.0822
 8272SOL     OW36451   0.573   1.358   6.538 -0.1712  0.2296  0.4931
 8272SOL    HW136452   0.562   1.448   6.570  0.4610 -0.0366  1.4660
 8272SOL    HW236453   0.566   1.309   6.620 -0.6124  0.0109  0.3284
 8273SOL     OW36454   3.704   3.640  11.747  0.1731  0.0228 -0.0291
 8273SOL    HW136455   3.734   3.658  11.658  0.2271  1.6164  0.2960
 8273SOL    HW236456   3.639   3.571  11.737  0.5321 -0.3049 -0.0799
 8274SOL     OW36457   3.028   0.067  15.260  0.4314 -0.3378  0.4441
 8274SOL    HW136458   3.062   0.156  15.251 -0.1689 -0.0010  1.5237
 8274SOL    HW236459   2.954   0.074  15.200  1.3957 -1.0455 -0.8421
 8275SOL     OW36460   2.217   4.341   7.072 -0.4423  0.4020  0.4999
 8275SOL    HW136461   2.216   4.248   7.095 -0.0412  0.9368  2.6218
 8275SOL    HW236462   2.147   4.371   7.130 -0.8541 -0.7903  0.6258
 8276SOL     OW36463   1.139   2.582   4.836 -0.1176  0.2303  0.3413
 8276SOL    HW136464   1.202   2.648   4.867  0.9825 -0.2815 -0.8211
 8276SOL    HW236465   1.205   2.513   4.833 -1.4506 -1.1481  2.8839
 8277SOL     OW36466   4.187   1.350   4.573 -0.7186 -0.4457 -0.2365
 8277SOL    HW136467   4.145   1.343   4.659  0.6112 -1.0655  0.3508
 8277SOL    HW236468   4.109   1.349   4.517 -1.6866 -1.2192  1.1470
 8278SOL     OW36469   1.054   1.583   9.942 -0.0472  0.1316  0.1350
 8278SOL    HW136470   1.057   1.665   9.991  1.5676 -0.7562  1.5291
 8278SOL    HW236471   1.139   1.548   9.969 -0.2783 -0.5065  0.0334
 8279SOL     OW36472   0.609   4.120  11.809  0.2296 -0.2371  0.4682
 8279SOL    HW136473   0.621   4.099  11.901  1.7890 -0.9852  0.0910
 8279SOL    HW236474   0.598   4.036  11.763 -2.8549 -0.5747  1.7544
 8280SOL     OW36475   0.329   0.038  16.765 -0.3242 -0.0471 -0.2484
 8280SOL    HW136476   0.381   0.114  16.740 -1.1513  1.0678  1.3970
 8280SOL    HW236477   0.240   0.074  16.770 -0.9179 -1.5717 -0.0363
 8281SOL     OW36478   1.777   1.084  13.134  0.1701 -0.2890  0.1129
 8281SOL    HW136479   1.865   1.056  13.111 -0.8039 -1.9383 -1.6064
 8281SOL    HW236480   1.724   1.095  13.055  0.3074  0.2445  0.0955
 8282SOL     OW36481   0.848   3.038   3.111 -0.0153  0.4337  0.0017
 8282SOL    HW136482   0.781   3.102   3.088  0.4611  0.4962 -1.1908
 8282SOL    HW236483   0.904   3.024   3.035  1.2401 -2.0599  1.3755
 8283SOL     OW36484   2.554   2.251   6.105  0.0918  0.0096  0.2865
 8283SOL    HW136485   2.505   2.294   6.175 -1.7723 -2.4012  0.4511
 8283SOL    HW236486   2.637   2.233   6.150  1.3657 -0.3676 -2.2036
 8284SOL     OW36487   2.349   4.235   7.954 -0.2090  0.1323  0.3498
 8284SOL    HW136488   2.443   4.243   7.971 -0.0801 -0.0894 -0.2386
 8284SOL    HW236489   2.310   4.319   7.978  0.6950  0.6162  0.1045
 8285SOL     OW36490   0.733   0.786   8.586 -0.4386 -0.0572  0.0310
 8285SOL    HW136491   0.801   0.731   8.547 -1.2176 -1.6760  0.9125
 8285SOL    HW236492   0.711   0.842   8.512 -0.7694 -0.5554 -0.2469
 8286SOL     OW36493   3.236   1.452   3.172  0.2749  0.3392 -0.0868
 8286SOL    HW136494   3.151   1.481   3.204 -0.4503 -2.4362  0.5833
 8286SOL    HW236495   3.247   1.367   3.216 -0.6942  1.1888  1.7754
 8287SOL     OW36496   1.601   4.355   5.527 -0.1626  0.0594 -0.2642
 8287SOL    HW136497   1.590   4.447   5.502 -0.4066 -0.2073 -1.1423
 8287SOL    HW236498   1.530   4.336   5.589  1.2576  1.4105  1.7711
 8288SOL     OW36499   2.122   4.476   2.264 -0.3505 -0.4522 -0.4064
 8288SOL    HW136500   2.195   4.485   2.202 -0.8554  0.6302 -0.8340
 8288SOL    HW236501   2.052   4.458   2.202 -0.4640  2.8699 -1.2698
 8289SOL     OW36502   2.756   4.023   6.631  0.2987  0.2286 -0.2402
 8289SOL    HW136503   2.711   3.956   6.682  1.5631 -0.4654 -0.0296
 8289SOL    HW236504   2.730   4.097   6.686  0.7124 -0.3172  0.6934
 8290SOL     OW36505   1.148   0.772   4.635 -0.5441  0.6937  0.3108
 8290SOL    HW136506   1.188   0.807   4.715 -2.4915  0.2872  1.4436
 8290SOL    HW236507   1.056   0.796   4.642 -0.6678  0.4961 -0.5952
 8291SOL     OW36508   0.093   2.584   9.206  0.0416  0.3285 -0.1153
 8291SOL    HW136509   0.093   2.500   9.160  0.4044  0.8496 -1.0841
 8291SOL    HW236510   0.039   2.562   9.282  0.9327 -0.9817  0.1318
 8292SOL     OW36511   0.852   4.476   2.166 -0.2101  0.3347  0.3308
 8292SOL    HW136512   0.947   4.480   2.170 -0.3030  1.5729  1.4762
 8292SOL    HW236513   0.849   4.383   2.144  1.2100  0.4626 -0.3715
 8293SOL     OW36514   3.948   4.036   5.304 -0.2361  0.2309 -0.1955
 8293SOL    HW136515   4.010   4.107   5.318 -0.1249  0.1175 -0.1145
 8293SOL    HW236516   4.011   3.964   5.303  1.3010  1.5638 -1.2411
 8294SOL     OW36517   0.627   3.719   8.775 -0.0044  0.1784  0.1184
 8294SOL    HW136518   0.711   3.745   8.737 -0.4097  2.1824  0.5516
 8294SOL    HW236519   0.635   3.624   8.784 -0.9103 -0.0010 -0.9433
 8295SOL     OW36520   1.583   3.856  13.039 -0.2871  0.4205  0.2528
 8295SOL    HW136521   1.494   3.862  13.073  0.2811  0.5127  1.7406
 8295SOL    HW236522   1.622   3.929  13.087 -0.5904  0.1910  0.8496
 8296SOL     OW36523   0.648   3.255   2.397  0.4228  0.1324  0.3331
 8296SOL    HW136524   0.668   3.329   2.455 -3.9664  0.6509  1.2422
 8296SOL    HW236525   0.576   3.217   2.447 -1.6783  0.1675 -2.6548
 8297SOL     OW36526   4.625   0.910   7.574  0.5028 -0.1021 -0.0398
 8297SOL    HW136527   4.669   0.902   7.490 -0.0989 -0.4041 -0.3227
 8297SOL    HW236528   4.691   0.860   7.622 -1.6891 -1.5684  1.4440
 8298SOL     OW36529   1.721   1.573   1.724 -0.5812  0.3463 -0.0868
 8298SOL    HW136530   1.763   1.528   1.651 -1.3228 -2.2204  1.0556
 8298SOL    HW236531   1.681   1.494   1.761  0.7792 -0.6184 -0.6422
 8299SOL     OW36532   1.165   3.251  13.086 -0.1194  0.5962 -0.2707
 8299SOL    HW136533   1.103   3.177  13.085  0.3348  0.2536 -2.0856
 8299SOL    HW236534   1.241   3.210  13.045  0.4378 -0.6296  1.9514
 8300SOL     OW36535   2.525   0.853   3.353  0.6688 -0.3851  0.8574
 8300SOL    HW136536   2.500   0.826   3.265  1.5036 -1.5365  0.9773
 8300SOL    HW236537   2.604   0.900   3.327  0.0005  0.7072  0.8081
 8301SOL     OW36538   2.266   2.606  12.794  0.6263 -0.3022  0.4519
 8301SOL    HW136539   2.227   2.651  12.869 -0.4662 -2.5009  1.2256
 8301SOL    HW236540   2.222   2.656  12.725  2.0135  2.8078  1.8355
 8302SOL     OW36541   0.343   0.907   8.958  0.3075 -0.6054 -0.2713
 8302SOL    HW136542   0.350   0.965   8.882  1.8133 -2.0720 -1.2488
 8302SOL    HW236543   0.294   0.836   8.915 -0.3986  1.1610 -2.3989
 8303SOL     OW36544   0.065   4.044   8.317  0.2331 -0.6296  0.6204
 8303SOL    HW136545   0.136   3.988   8.347 -0.9628 -1.7863  1.2690
 8303SOL    HW236546   0.108   4.126   8.294 -1.8503  0.4842  0.6985
 8304SOL     OW36547   3.429   3.023   3.239 -0.6357  0.3342  0.2198
 8304SOL    HW136548   3.434   3.076   3.160 -1.2264  0.0338 -0.0258
 8304SOL    HW236549   3.333   3.027   3.247 -0.5846  0.0857  0.9128
 8305SOL     OW36550   0.875   2.235   0.343  0.1934  0.0816  0.3161
 8305SOL    HW136551   0.818   2.297   0.387  0.6087  0.4619  0.3232
 8305SOL    HW236552   0.951   2.236   0.402  1.0439 -1.3565 -0.7368
 8306SOL     OW36553   0.084   0.563   7.018  0.0747 -0.3235  0.1712
 8306SOL    HW136554   0.022   0.624   6.976  2.3894  2.1307  0.3067
 8306SOL    HW236555   0.147   0.615   7.068 -0.1790 -1.1910  1.3738
 8307SOL     OW36556   4.483   3.303   8.131  0.1435  0.2759  0.0085
 8307SOL    HW136557   4.503   3.253   8.052  0.7880 -1.0268  1.0038
 8307SOL    HW236558   4.573   3.293   8.160  0.0860  1.5527  0.6475
 8308SOL     OW36559   1.021   0.289   4.284  0.3251  0.1918  0.2093
 8308SOL    HW136560   1.095   0.285   4.345 -0.5931 -2.6748  1.1657
 8308SOL    HW236561   0.960   0.338   4.338  2.4715 -0.2795  3.0893
 8309SOL     OW36562   0.484   3.301   0.248  0.0035  0.0861 -0.3200
 8309SOL    HW136563   0.517   3.321   0.160 -1.2917 -0.2541 -0.8867
 8309SOL    HW236564   0.547   3.239   0.286 -1.4153  0.3383  2.4480
 8310SOL     OW36565   0.350   0.249  15.331 -0.1274  0.0585  0.1116
 8310SOL    HW136566   0.356   0.327  15.275  2.0898  1.0258  1.7017
 8310SOL    HW236567   0.362   0.288  15.418  1.6869  0.5744 -0.3685
 8311SOL     OW36568   4.208   1.167  14.391  0.5120  0.4469 -0.0854
 8311SOL    HW136569   4.252   1.089  14.424 -0.6758  1.1922  3.3046
 8311SOL    HW236570   4.123   1.129  14.370  0.1171  0.8700  0.7614
 8312SOL     OW36571   2.439   4.307  11.845  0.5229  0.4124  0.2827
 8312SOL    HW136572   2.381   4.270  11.778  0.0428  0.9942  0.3747
 8312SOL    HW236573   2.525   4.298  11.804  0.1916  0.6891 -0.4763
 8313SOL     OW36574   1.978   0.777   5.093 -0.0464  0.6093 -0.1670
 8313SOL    HW136575   1.972   0.815   5.006  1.1336 -1.7186 -1.2556
 8313SOL    HW236576   1.933   0.694   5.076 -0.5193  0.4583  1.7555
 8314SOL     OW36577   3.063   0.688   5.601 -0.3207 -0.6986  0.4679
 8314SOL    HW136578   3.040   0.755   5.665  1.8316  0.5576 -0.0939
 8314SOL    HW236579   3.009   0.615   5.631 -2.4191  0.7839  0.3283
 8315SOL     OW36580   3.756   2.254   2.892 -0.1446  0.1986  0.3126
 8315SOL    HW136581   3.796   2.325   2.943  0.6483  0.5007 -0.7237
 8315SOL    HW236582   3.671   2.291   2.872 -1.8491 -2.2416  3.0697
 8316SOL     OW36583   4.219   4.651  17.617  0.4104  0.3118 -0.2221
 8316SOL    HW136584   4.213   4.641  17.712  0.4573  0.9467 -0.1514
 8316SOL    HW236585   4.250   0.005  17.603 -0.1139  0.3694 -1.0778
 8317SOL     OW36586   2.509   1.612   4.088  0.0461  0.1365  0.0755
 8317SOL    HW136587   2.483   1.594   3.998  2.5849  1.5058 -0.9334
 8317SOL    HW236588   2.426   1.594   4.131 -0.5923  0.9545 -0.8075
 8318SOL     OW36589   3.748   1.182   5.455  0.0646 -0.0507 -0.3523
 8318SOL    HW136590   3.748   1.200   5.548 -0.9648 -1.5228 -0.0537
 8318SOL    HW236591   3.781   1.093   5.466 -1.1594 -0.0265  3.2745
 8319SOL     OW36592   3.417   0.032   7.833  0.7789 -0.4107 -0.1221
 8319SOL    HW136593   3.411   0.104   7.896  2.7258  0.7279 -1.2522
 8319SOL    HW236594   3.444   0.072   7.751 -1.1988  3.4256  1.0989
 8320SOL     OW36595   1.820   0.624   1.296  0.2979  0.1153  0.0971
 8320SOL    HW136596   1.784   0.555   1.352 -0.5675 -1.1287 -1.9531
 8320SOL    HW236597   1.890   0.570   1.260  1.2943 -0.6620  3.2240
 8321SOL     OW36598   4.129   1.922   5.310 -0.2074 -0.2974 -0.4238
 8321SOL    HW136599   4.078   1.964   5.241 -0.1252  1.0178  0.3021
 8321SOL    HW236600   4.165   1.999   5.355  0.2708 -2.4619  2.8255
 8322SOL     OW36601   3.891   4.359   8.450  0.0026 -0.2260  0.5648
 8322SOL    HW136602   3.815   4.415   8.433 -1.8071 -2.1036  2.3513
 8322SOL    HW236603   3.901   4.372   8.544  0.2616 -0.8941  0.6283
 8323SOL     OW36604   2.435   1.239   3.266 -0.9753  0.3678  0.1440
 8323SOL    HW136605   2.502   1.287   3.217 -1.3671  0.1744 -0.5923
 8323SOL    HW236606   2.472   1.259   3.352  1.5402  0.2930 -0.9142
 8324SOL     OW36607   0.540   2.430  13.782 -0.2720  0.5631 -0.5546
 8324SOL    HW136608   0.483   2.355  13.769  0.9478 -0.3491 -0.6178
 8324SOL    HW236609   0.566   2.457  13.694 -1.7273 -0.7610 -1.3880
 8325SOL     OW36610   1.421   1.058   8.979 -0.2315 -0.3547  0.7926
 8325SOL    HW136611   1.386   1.146   8.963 -2.0939 -0.9598  1.5045
 8325SOL    HW236612   1.346   1.000   8.994 -0.3975 -0.7861 -1.7289
 8326SOL     OW36613   3.912   2.918   5.415  0.1690 -0.2966 -0.1270
 8326SOL    HW136614   3.887   2.985   5.479  1.0981  1.3344 -1.4891
 8326SOL    HW236615   3.862   2.946   5.339  0.3281  1.1255  0.2936
 8327SOL     OW36616   1.257   2.822   8.684 -0.1919  0.0089  0.4139
 8327SOL    HW136617   1.163   2.836   8.698 -0.7564 -0.7778 -2.6497
 8327SOL    HW236618   1.249   2.778   8.600  0.0030  0.2209  0.2861
 8328SOL     OW36619   3.537   4.169   4.187 -0.1913  0.1091 -0.3825
 8328SOL    HW136620   3.583   4.237   4.137 -0.2733 -1.2674 -2.3313
 8328SOL    HW236621   3.606   4.146   4.250 -1.0045 -0.1423  0.4078
 8329SOL     OW36622   2.386   2.987   7.676 -0.4476 -0.1962 -0.0664
 8329SOL    HW136623   2.391   2.960   7.768  1.4432  1.7309  0.3874
 8329SOL    HW236624   2.340   2.914   7.634  1.0749 -0.7116 -0.8332
 8330SOL     OW36625   4.393   2.841   5.075  0.0582  0.4170  0.6576
 8330SOL    HW136626   4.464   2.894   5.110  1.7342 -0.4992 -1.4065
 8330SOL    HW236627   4.319   2.881   5.121  1.0504  0.6931  2.0021
 8331SOL     OW36628   4.586   3.578  10.405 -0.3700 -0.1961  0.1847
 8331SOL    HW136629   4.513   3.609  10.353 -0.3911 -1.4547 -0.5467
 8331SOL    HW236630   4.601   3.645  10.472 -0.8624  0.3161 -0.2185
 8332SOL     OW36631   1.436   2.966   3.423 -0.1013  0.1052  0.1062
 8332SOL    HW136632   1.396   3.029   3.483 -1.6597  0.4359 -1.2725
 8332SOL    HW236633   1.439   2.883   3.470 -2.8523 -0.1511 -0.1485
 8333SOL     OW36634   1.218   1.749  13.319 -0.0824 -0.0735  0.2748
 8333SOL    HW136635   1.293   1.716  13.370  0.2952  1.4964  0.7399
 8333SOL    HW236636   1.158   1.683  13.355 -0.4963  0.1248 -0.0591
 8334SOL     OW36637   4.622   4.213  10.716  0.2141  0.0502 -0.7642
 8334SOL    HW136638   4.642   4.306  10.710 -2.0671  0.6878  1.5116
 8334SOL    HW236639   4.603   4.195  10.808 -1.6604  2.4962 -0.6699
 8335SOL     OW36640   4.237   2.108   7.965  0.7224 -0.0215 -0.1203
 8335SOL    HW136641   4.254   2.029   7.916  0.2306 -1.2642  1.7075
 8335SOL    HW236642   4.169   2.136   7.903 -0.0881  2.8507  2.0223
 8336SOL     OW36643   4.352   2.938  15.511  0.2347 -0.8146  0.3638
 8336SOL    HW136644   4.284   2.986  15.559 -2.2081 -2.0589 -1.8365
 8336SOL    HW236645   4.297   2.862  15.489  1.2505 -1.7192  0.9563
 8337SOL     OW36646   3.245   1.841   3.217 -0.3993 -0.2608  0.5867
 8337SOL    HW136647   3.163   1.791   3.222 -2.5469  3.0644 -1.8569
 8337SOL    HW236648   3.315   1.780   3.194 -0.1223  0.6601 -1.0252
 8338SOL     OW36649   0.482   3.568  17.703  0.4378 -0.1046  0.2145
 8338SOL    HW136650   0.499   3.480  17.737  0.4172 -0.0233  0.4348
 8338SOL    HW236651   0.492   3.566  17.608  0.9362 -0.3711  0.2759
 8339SOL     OW36652   4.385   2.834  17.276  0.1607  0.4552 -0.0109
 8339SOL    HW136653   4.447   2.794  17.337 -1.7654 -0.7153  1.1402
 8339SOL    HW236654   4.309   2.842  17.334  0.2282  1.2439 -0.0252
 8340SOL     OW36655   2.250   1.746  12.898  0.6750  0.2413 -0.7182
 8340SOL    HW136656   2.279   1.671  12.847  1.4707  0.0446  0.0241
 8340SOL    HW236657   2.183   1.792  12.848 -0.0519 -1.4653 -1.2997
 8341SOL     OW36658   3.171   4.490   3.438  0.1344  0.7526  0.0237
 8341SOL    HW136659   3.210   4.481   3.524 -0.7120 -0.2483  0.2979
 8341SOL    HW236660   3.165   4.585   3.422 -2.5562  0.9164  1.9941
 8342SOL     OW36661   4.732   4.557  12.497  0.0291 -0.3016 -0.1364
 8342SOL    HW136662   0.021   4.479  12.449  3.0512  1.0081 -0.7055
 8342SOL    HW236663   4.689   4.606  12.427 -0.2398  0.9924  0.9221
 8343SOL     OW36664   4.126   2.974   9.030  0.1990  0.5256  0.2401
 8343SOL    HW136665   4.131   2.971   8.935 -0.3329 -2.1313  0.3053
 8343SOL    HW236666   4.075   2.895   9.045  0.9914 -0.2097 -0.9618
 8344SOL     OW36667   0.700   4.114  15.568  0.3964 -0.1018  0.1431
 8344SOL    HW136668   0.770   4.160  15.521 -0.2640 -0.5576 -1.3017
 8344SOL    HW236669   0.744   4.093  15.650 -0.5149  0.1383  0.7013
 8345SOL     OW36670   2.923   4.269  15.853  0.0235  0.2108 -0.5303
 8345SOL    HW136671   2.889   4.180  15.852  0.3271  0.0549  1.8447
 8345SOL    HW236672   3.004   4.265  15.801  0.6989 -1.1065  0.6236
 8346SOL     OW36673   1.575   2.718   7.204  0.2407 -0.8216  0.2404
 8346SOL    HW136674   1.508   2.654   7.179 -0.3542 -0.7623  1.6657
 8346SOL    HW236675   1.634   2.710   7.129 -1.9026 -3.3385 -1.1889
 8347SOL     OW36676   4.075   2.563   8.147  0.1711  0.0608 -0.1335
 8347SOL    HW136677   4.136   2.496   8.119  1.4131  1.2177 -0.1980
 8347SOL    HW236678   4.128   2.640   8.168  1.9341 -1.3320  0.5669
 8348SOL     OW36679   3.625   3.686  14.249  0.5095  0.6401  0.1913
 8348SOL    HW136680   3.650   3.736  14.327 -4.7325 -0.5654  2.6210
 8348SOL    HW236681   3.678   3.720  14.177  0.2548  0.1820 -0.2159
 8349SOL     OW36682   2.141   1.406   7.001 -0.3684  0.3032 -0.1066
 8349SOL    HW136683   2.090   1.486   6.985 -0.9432 -0.5958 -2.7015
 8349SOL    HW236684   2.160   1.419   7.094  0.6491 -0.7466 -0.1727
 8350SOL     OW36685   1.635   3.613   5.812  0.3568 -0.0351  0.5825
 8350SOL    HW136686   1.694   3.612   5.737  1.4956 -0.0080  1.4711
 8350SOL    HW236687   1.666   3.690   5.860  0.7261 -0.4885  1.0698
 8351SOL     OW36688   3.728   1.150   5.719  0.2459  0.1749 -0.5261
 8351SOL    HW136689   3.682   1.222   5.763  0.0814 -0.0992 -0.2516
 8351SOL    HW236690   3.781   1.112   5.789 -0.3964  1.2485  0.5641
 8352SOL     OW36691   4.013   3.152   1.369 -0.2359 -0.3790 -0.5474
 8352SOL    HW136692   4.039   3.193   1.451 -1.0167  0.1125 -0.5427
 8352SOL    HW236693   3.947   3.093   1.404 -1.0047  2.2613  2.4584
 8353SOL     OW36694   0.676   2.598   4.646  0.0482 -0.3823 -0.6594
 8353SOL    HW136695   0.736   2.664   4.681  0.5255 -0.6379 -0.9945
 8353SOL    HW236696   0.679   2.531   4.714 -1.2785 -2.5946 -2.7893
 8354SOL     OW36697   3.338   0.387   3.323 -0.5767  0.3470  0.1175
 8354SOL    HW136698   3.318   0.390   3.417 -1.6911 -1.7410 -0.0528
 8354SOL    HW236699   3.281   0.312   3.304 -0.4998  0.1335  0.7247
 8355SOL     OW36700   1.424   1.083   5.547  0.1940  0.3745  0.2078
 8355SOL    HW136701   1.486   1.148   5.580  0.2244  0.2584  0.3778
 8355SOL    HW236702   1.445   1.078   5.454  0.6378  1.6277  0.2430
 8356SOL     OW36703   2.597   1.149   8.812 -0.2323  0.5944  0.0959
 8356SOL    HW136704   2.659   1.194   8.870  1.6447 -0.6587 -0.9543
 8356SOL    HW236705   2.654   1.106   8.749 -0.0701 -1.5280  1.6878
 8357SOL     OW36706   4.656   4.233   5.739  0.2940 -0.4104  0.7938
 8357SOL    HW136707   0.016   4.236   5.745  0.4080  0.1826 -1.4375
 8357SOL    HW236708   4.639   4.196   5.826 -1.1435  1.4012  1.2782
 8358SOL     OW36709   2.871   4.598   3.790 -0.2237  0.3259  0.3006
 8358SOL    HW136710   2.924   4.537   3.739 -0.7090  0.7131 -0.6729
 8358SOL    HW236711   2.945   4.653   3.816  0.4651 -0.3890 -0.1292
 8359SOL     OW36712   0.819   3.438   3.694  0.1841 -0.6712 -0.2371
 8359SOL    HW136713   0.806   3.347   3.667 -2.7734  0.1448 -1.6098
 8359SOL    HW236714   0.834   3.430   3.788 -1.2939  0.5802  0.1077
 8360SOL     OW36715   2.130   4.466  12.237 -0.5589  0.3950 -0.7049
 8360SOL    HW136716   2.117   4.376  12.267  3.3856  0.1869  0.4688
 8360SOL    HW236717   2.217   4.457  12.198 -0.1519  1.5137 -0.0289
 8361SOL     OW36718   2.005   2.064   5.229  0.2426 -0.4084 -0.3671
 8361SOL    HW136719   2.092   2.073   5.190  1.1163  1.8469  2.1374
 8361SOL    HW236720   1.948   2.105   5.165 -0.0197  0.5041  0.4605
 8362SOL     OW36721   4.444   4.271   2.285  0.3326  0.0888 -0.1509
 8362SOL    HW136722   4.393   4.351   2.296  1.6171  0.6444  1.6528
 8362SOL    HW236723   4.415   4.219   2.360  1.0223  2.4634  1.7640
 8363SOL     OW36724   1.222   1.540   2.124 -0.2817  0.0472 -0.1651
 8363SOL    HW136725   1.146   1.528   2.180 -0.6269  0.2407 -0.5949
 8363SOL    HW236726   1.292   1.549   2.188  0.4336  4.6973 -1.5931
 8364SOL     OW36727   1.615   3.063   9.047 -0.1333 -0.7714  0.5516
 8364SOL    HW136728   1.542   3.079   9.108 -0.7838  0.7160 -0.6185
 8364SOL    HW236729   1.595   2.978   9.008 -1.1164  0.0691 -0.7730
 8365SOL     OW36730   1.801   1.893  13.755  0.2772 -0.3247  0.0558
 8365SOL    HW136731   1.807   1.897  13.850 -2.2878  0.3115  0.1839
 8365SOL    HW236732   1.895   1.902  13.741  0.5475 -0.5435  1.7232
 8366SOL     OW36733   0.752   0.208  12.776 -0.2450  0.4478  0.8807
 8366SOL    HW136734   0.832   0.243  12.815  1.9552 -0.1114 -3.1363
 8366SOL    HW236735   0.741   0.133  12.834 -2.3355 -0.0473 -0.1725
 8367SOL     OW36736   3.485   2.955   8.357 -0.2589 -0.1572  0.6657
 8367SOL    HW136737   3.563   2.968   8.304  0.6100  1.1424  2.2399
 8367SOL    HW236738   3.521   2.937   8.444  0.1497 -0.8100  0.3598
 8368SOL     OW36739   4.419   1.944  16.896 -0.7081 -0.2601  0.4099
 8368SOL    HW136740   4.377   1.980  16.817  0.3204 -0.7328 -0.3570
 8368SOL    HW236741   4.481   1.882  16.859  0.4708  1.7167 -0.9706
 8369SOL     OW36742   1.222   4.632   8.933  0.0671 -0.0045  1.5255
 8369SOL    HW136743   1.296   4.693   8.930 -0.1927  0.1631 -0.8674
 8369SOL    HW236744   1.160   4.665   8.869  0.7261  1.6670  1.7577
 8370SOL     OW36745   0.912   0.580  13.606  0.1509 -0.4503  0.5795
 8370SOL    HW136746   0.860   0.502  13.625  0.2252 -0.4901  0.6206
 8370SOL    HW236747   0.970   0.592  13.682 -0.1459 -0.0210  0.7359
 8371SOL     OW36748   0.179   3.046  10.763 -0.1983  0.0411 -0.3968
 8371SOL    HW136749   0.235   3.012  10.693  0.7681  0.9102 -0.0563
 8371SOL    HW236750   0.235   3.114  10.801 -0.2447 -0.2739  0.2327
 8372SOL     OW36751   3.902   0.171   1.243 -0.0591  0.0175 -0.0746
 8372SOL    HW136752   3.970   0.196   1.305 -0.8249  0.4883  0.5714
 8372SOL    HW236753   3.845   0.110   1.291  0.9943 -1.9960 -1.3968
 8373SOL     OW36754   1.279   1.352   5.336 -0.0101  0.0449 -0.0378
 8373SOL    HW136755   1.219   1.426   5.334  0.9685  0.8334  0.0565
 8373SOL    HW236756   1.289   1.344   5.430  1.7665  2.0728 -0.0506
 8374SOL     OW36757   0.267   0.851   0.889 -0.0353  0.3789  0.1713
 8374SOL    HW136758   0.185   0.820   0.926  0.6216 -1.0492  0.4331
 8374SOL    HW236759   0.307   0.765   0.874  0.6425  0.2292  2.9193
 8375SOL     OW36760   0.204   3.119   7.378 -0.5819  0.2178  0.2196
 8375SOL    HW136761   0.286   3.115   7.429  0.2042 -1.3311 -1.1821
 8375SOL    HW236762   0.230   3.154   7.293 -0.2816 -1.4602 -0.3712
 8376SOL     OW36763   0.109   1.074   7.627  0.2002  0.3269 -0.2491
 8376SOL    HW136764   0.040   1.012   7.603  1.8114 -0.7235 -2.0662
 8376SOL    HW236765   0.070   1.138   7.687 -0.2129  0.2404 -0.4285
 8377SOL     OW36766   1.913   1.157   8.483 -0.4595  0.1103  0.2642
 8377SOL    HW136767   1.996   1.183   8.443  0.1290 -0.6115  1.0202
 8377SOL    HW236768   1.851   1.164   8.411  0.1999 -2.4415 -0.5356
 8378SOL     OW36769   0.078   0.713  12.828 -0.6884  0.4349 -0.2853
 8378SOL    HW136770   0.152   0.708  12.767 -1.0648  0.0698 -0.7146
 8378SOL    HW236771   0.004   0.682  12.775 -1.1996  3.4667 -1.3474
 8379SOL     OW36772   1.884   2.560   8.120  0.4934 -0.0812 -0.1343
 8379SOL    HW136773   1.970   2.530   8.090  0.5773 -1.3449  1.3499
 8379SOL    HW236774   1.912   2.597   8.204 -2.1811 -0.4447  0.8992
 8380SOL     OW36775   1.026   4.482   7.889 -0.2373  0.5799 -0.0099
 8380SOL    HW136776   1.069   4.400   7.864  3.7468  3.0178 -1.0749
 8380SOL    HW236777   0.954   4.442   7.937  1.0691 -1.8664 -0.0861
 8381SOL     OW36778   2.190   1.171   5.650  0.7706 -0.5720  0.1691
 8381SOL    HW136779   2.265   1.127   5.610 -0.2745 -1.7910 -0.4668
 8381SOL    HW236780   2.127   1.099   5.658 -0.8593  1.0006  1.6954
 8382SOL     OW36781   3.073   2.946   2.970  0.6150 -0.2267 -0.2697
 8382SOL    HW136782   3.086   2.851   2.975  0.8942 -0.2857 -2.2950
 8382SOL    HW236783   2.980   2.948   2.992  0.5490 -1.6272 -0.4166
 8383SOL     OW36784   1.289   0.123  17.633  0.4246  0.8156  0.1977
 8383SOL    HW136785   1.259   0.206  17.597  0.1865  1.1249  1.1002
 8383SOL    HW236786   1.265   0.070  17.557 -1.6767 -1.3313  2.3432
 8384SOL     OW36787   2.342   0.583   7.415  0.3370  0.3805  0.4677
 8384SOL    HW136788   2.363   0.524   7.342 -0.3882  1.0630 -0.2980
 8384SOL    HW236789   2.430   0.619   7.424  0.2471  0.5207  0.7925
 8385SOL     OW36790   0.272   0.218  13.962 -0.0487 -0.3356 -0.4944
 8385SOL    HW136791   0.325   0.260  13.895  0.6724 -0.4330  0.0223
 8385SOL    HW236792   0.186   0.221  13.920  0.0342 -1.5298 -0.7609
 8386SOL     OW36793   4.677   4.587   4.857 -0.4727  0.4805  0.0005
 8386SOL    HW136794   0.020   4.533   4.843 -2.2667 -2.0977 -0.1593
 8386SOL    HW236795   4.662   4.615   4.766  0.3146 -1.3042 -0.6873
 8387SOL     OW36796   1.253   2.860   4.317 -0.3773  0.4430  0.5633
 8387SOL    HW136797   1.261   2.948   4.280  0.9752  1.0917  2.4282
 8387SOL    HW236798   1.313   2.876   4.390 -0.4265 -0.1031  0.7236
 8388SOL     OW36799   4.635   0.190  15.394 -0.1631 -0.1184 -0.3572
 8388SOL    HW136800   4.719   0.216  15.433 -0.3794 -0.7066  0.4859
 8388SOL    HW236801   4.641   0.095  15.391  0.9116  0.0117 -2.8857
 8389SOL     OW36802   0.217   3.743  11.275  0.2078 -0.0594 -0.3432
 8389SOL    HW136803   0.176   3.663  11.243 -0.6015 -0.0398  0.6488
 8389SOL    HW236804   0.172   3.745  11.359 -2.0374  0.9449 -1.5819
 8390SOL     OW36805   0.826   4.128   6.804  0.2530  0.5903  0.5304
 8390SOL    HW136806   0.834   4.032   6.799  0.1022  0.5581  0.9211
 8390SOL    HW236807   0.897   4.148   6.743  1.6009  2.0815  2.5932
 8391SOL     OW36808   2.878   2.218  15.791 -0.0318 -1.1080 -0.0777
 8391SOL    HW136809   2.852   2.300  15.747  0.4933  0.2828  2.1938
 8391SOL    HW236810   2.870   2.154  15.721 -4.3074  1.9677 -2.3950
 8392SOL     OW36811   0.893   2.765   4.684  0.0360 -0.2131  0.3883
 8392SOL    HW136812   0.911   2.771   4.778 -0.9455  0.6969  0.5150
 8392SOL    HW236813   0.915   2.855   4.660 -1.3453 -0.5517 -2.1585
 8393SOL     OW36814   1.975   1.550   0.423  0.2348  0.2053  0.3880
 8393SOL    HW136815   2.030   1.472   0.426  0.3227  0.2299 -0.4423
 8393SOL    HW236816   2.048   1.608   0.443  2.2631 -1.7678 -1.2063
 8394SOL     OW36817   1.466   0.198   4.802  0.8187 -0.3602  0.1963
 8394SOL    HW136818   1.381   0.162   4.778 -0.1911  2.1083  0.0027
 8394SOL    HW236819   1.441   0.271   4.860  0.7078 -0.1884 -0.0664
 8395SOL     OW36820   3.449   2.228  15.824 -0.4075 -0.8751 -0.4115
 8395SOL    HW136821   3.398   2.271  15.755 -0.7693  1.8515  1.5671
 8395SOL    HW236822   3.489   2.164  15.764  0.1740 -1.4082  0.5480
 8396SOL     OW36823   2.746   0.175   8.175  0.0896 -0.3325 -0.0095
 8396SOL    HW136824   2.739   0.270   8.168 -0.2258 -0.3243  0.3852
 8396SOL    HW236825   2.684   0.147   8.107 -0.3767  0.1802  0.2051
 8397SOL     OW36826   3.538   3.851   8.188  0.8546  0.0868 -0.2809
 8397SOL    HW136827   3.528   3.944   8.165  1.0985  0.2157  0.1208
 8397SOL    HW236828   3.541   3.817   8.099 -0.0710 -0.2327 -0.1792
 8398SOL     OW36829   0.913   0.461  13.073  0.2064 -0.0344  0.1846
 8398SOL    HW136830   0.893   0.511  13.152  0.2160 -0.0454  0.1941
 8398SOL    HW236831   0.854   0.504  13.011  0.2946 -1.5055 -0.9405
 8399SOL     OW36832   0.435   2.579   5.765 -0.0822 -0.0087 -0.1314
 8399SOL    HW136833   0.443   2.495   5.720 -1.6776  0.4632 -1.2861
 8399SOL    HW236834   0.403   2.644   5.702 -0.5561 -1.6763 -1.6017
 8400SOL     OW36835   1.951   4.027   9.229 -0.7771  0.0474  0.1139
 8400SOL    HW136836   1.940   3.997   9.139  1.3565 -1.0159  0.2069
 8400SOL    HW236837   1.980   3.944   9.267 -1.6679  0.0382  0.7602
 8401SOL     OW36838   4.557   2.566   7.642 -0.6899  0.6575 -0.1018
 8401SOL    HW136839   4.567   2.478   7.680 -0.7454  0.1369 -1.2868
 8401SOL    HW236840   4.462   2.570   7.631 -1.0440 -2.6657  1.5967
 8402SOL     OW36841   2.462   3.152   9.142 -0.4579  0.0505  0.0063
 8402SOL    HW136842   2.437   3.228   9.194 -1.4898 -1.4664  1.7146
 8402SOL    HW236843   2.386   3.119   9.093  0.1106 -1.5737  0.2000
 8403SOL     OW36844   4.316   3.171  12.635 -0.5469 -0.4972  0.4201
 8403SOL    HW136845   4.362   3.177  12.552 -1.5758  2.1477  0.0216
 8403SOL    HW236846   4.268   3.253  12.621 -1.1316 -1.1225 -1.1212
 8404SOL     OW36847   1.326   3.894  13.143  0.1804  0.5405 -0.2846
 8404SOL    HW136848   1.250   3.916  13.197  0.5105 -1.6635  1.0878
 8404SOL    HW236849   1.292   3.900  13.054  0.3314 -1.4778 -0.4679
 8405SOL     OW36850   0.892   1.377   2.799 -0.1698  0.4886  0.1075
 8405SOL    HW136851   0.868   1.464   2.769 -1.6180  0.4148  1.0870
 8405SOL    HW236852   0.970   1.359   2.746  1.6551  4.1060  1.5334
 8406SOL     OW36853   1.673   2.325  12.230  0.4717 -0.6488  0.5698
 8406SOL    HW136854   1.765   2.298  12.232  0.6924 -0.1377 -2.3758
 8406SOL    HW236855   1.668   2.326  12.326  0.4819 -0.8103  0.5720
 8407SOL     OW36856   4.097   2.275  12.236 -0.3190  0.3637  0.1796
 8407SOL    HW136857   4.024   2.294  12.177 -0.0531  0.6496 -0.0576
 8407SOL    HW236858   4.125   2.364  12.256 -1.3731  0.8947 -0.6857
 8408SOL     OW36859   3.228   4.103   8.282 -0.4548  0.1033  0.4951
 8408SOL    HW136860   3.222   4.187   8.237  0.9029  0.3080  0.7076
 8408SOL    HW236861   3.190   4.036   8.226  0.1619 -0.8585  1.2359
 8409SOL     OW36862   0.682   1.240  11.251 -0.0253  0.4280  0.0975
 8409SOL    HW136863   0.722   1.252  11.337 -0.0850  1.3232  0.0012
 8409SOL    HW236864   0.726   1.162  11.217  0.0927 -0.6566  2.7373
 8410SOL     OW36865   4.350   2.980   6.762 -0.8663  0.1503  0.1406
 8410SOL    HW136866   4.401   2.908   6.800  1.4626  0.5489 -2.2508
 8410SOL    HW236867   4.334   2.944   6.675 -1.0899 -1.0669  0.6918
 8411SOL     OW36868   1.705   4.108   7.042  0.1660  0.0767  0.1976
 8411SOL    HW136869   1.702   4.021   7.081 -4.4991 -0.1917 -0.7147
 8411SOL    HW236870   1.799   4.105   7.026 -0.2395  1.3116 -2.4480
 8412SOL     OW36871   2.410   4.672   1.912  0.3924 -0.1041  0.1542
 8412SOL    HW136872   2.374   4.664   2.000 -1.3147  0.5251 -0.4857
 8412SOL    HW236873   2.500   4.640   1.925 -0.2957 -2.2469 -0.3145
 8413SOL     OW36874   2.802   2.672   5.820  0.2223  0.4890 -0.1965
 8413SOL    HW136875   2.881   2.633   5.782  0.8140  1.1411  0.3783
 8413SOL    HW236876   2.775   2.597   5.873 -0.8790  1.8544  1.1753
 8414SOL     OW36877   1.706   0.142   8.387  0.1780 -0.0993 -0.3739
 8414SOL    HW136878   1.731   0.206   8.454 -1.9330  0.1041  0.1974
 8414SOL    HW236879   1.626   0.099   8.415 -2.0902  1.9458 -3.6745
 8415SOL     OW36880   2.996   1.785   6.568 -0.0697 -0.4500 -0.2099
 8415SOL    HW136881   3.080   1.745   6.543 -1.2595 -1.7356 -2.1590
 8415SOL    HW236882   2.970   1.709   6.620 -2.1496 -0.8511 -1.8361
 8416SOL     OW36883   4.371   4.530  16.883 -0.4021 -0.5047  0.1609
 8416SOL    HW136884   4.387   4.502  16.973  2.8385 -2.6018 -1.0679
 8416SOL    HW236885   4.324   4.613  16.888 -0.7621 -0.6047 -1.6601
 8417SOL     OW36886   3.855   2.164   3.267 -0.2920 -0.3323  0.0824
 8417SOL    HW136887   3.785   2.178   3.331  0.0135  0.9413  0.1478
 8417SOL    HW236888   3.836   2.233   3.203 -0.2605  0.0594  0.4882
 8418SOL     OW36889   4.351   0.560  12.501 -0.2212 -0.2191 -0.9551
 8418SOL    HW136890   4.380   0.469  12.504  1.9889  0.5573  1.5401
 8418SOL    HW236891   4.366   0.591  12.591  2.2993  0.0383 -1.4771
 8419SOL     OW36892   3.077   4.064   2.556  0.2944 -0.8413  0.1459
 8419SOL    HW136893   3.011   4.133   2.561 -1.1722 -2.1827 -0.7520
 8419SOL    HW236894   3.081   4.026   2.644 -0.3372  0.5402  0.7599
 8420SOL     OW36895   2.494   1.858   3.069 -0.6522 -0.2212  0.5336
 8420SOL    HW136896   2.459   1.769   3.068  2.8596 -1.5689 -3.2419
 8420SOL    HW236897   2.471   1.897   2.984  0.6486 -0.7448 -0.0651
 8421SOL     OW36898   2.669   1.624   0.277  0.2847  0.3674 -0.1126
 8421SOL    HW136899   2.681   1.618   0.183 -1.1716  0.7497 -0.3280
 8421SOL    HW236900   2.738   1.688   0.294  1.8592 -1.5063  0.5517
 8422SOL     OW36901   3.224   0.463   8.521 -0.0290 -0.0823 -0.1982
 8422SOL    HW136902   3.203   0.556   8.534  3.3623  0.6950 -0.3814
 8422SOL    HW236903   3.312   0.464   8.558  0.5119 -0.7208 -1.4881
 8423SOL     OW36904   0.494   3.200   8.017  0.2555 -0.7413 -0.0387
 8423SOL    HW136905   0.584   3.177   8.037  1.0813  2.0613 -0.5889
 8423SOL    HW236906   0.501   3.178   7.924 -1.1868 -0.6369 -0.1854
 8424SOL     OW36907   0.653   2.171   2.153  0.1031  0.0293 -0.2343
 8424SOL    HW136908   0.718   2.216   2.100 -0.4181  1.0937  0.0290
 8424SOL    HW236909   0.645   2.087   2.107 -0.3428 -1.0812  1.8473
 8425SOL     OW36910   3.652   2.831   0.976 -0.1196 -0.1555 -0.1017
 8425SOL    HW136911   3.656   2.825   1.071  0.0644  2.8661  0.0873
 8425SOL    HW236912   3.665   2.924   0.955  0.2856 -0.1047  0.3775
 8426SOL     OW36913   2.437   4.408   2.675  0.1102  0.6585  0.6460
 8426SOL    HW136914   2.401   4.496   2.666  0.9201  1.0320  1.0589
 8426SOL    HW236915   2.529   4.435   2.683  0.1749  0.6412 -0.1250
 8427SOL     OW36916   1.278   3.309   1.090 -0.3930 -0.0397 -0.4249
 8427SOL    HW136917   1.238   3.358   1.018 -1.8355  2.2563  1.9220
 8427SOL    HW236918   1.266   3.372   1.161 -0.2446  0.2985 -0.6995
 8428SOL     OW36919   1.980   1.327   2.011  0.0960  0.2519 -0.1045
 8428SOL    HW136920   1.986   1.232   2.024 -2.5859 -0.0589 -1.0975
 8428SOL    HW236921   1.947   1.354   2.097  1.5229 -0.7887  0.7721
 8429SOL     OW36922   0.958   0.991   4.658 -0.3721 -0.0344  0.8913
 8429SOL    HW136923   0.999   1.059   4.604  0.7372 -0.6736  0.9099
 8429SOL    HW236924   0.924   1.052   4.724  0.3703 -1.7081  2.8139
 8430SOL     OW36925   3.798   1.439   5.727  0.7185  0.3898 -0.6946
 8430SOL    HW136926   3.839   1.373   5.672  0.9069 -0.1296  0.0767
 8430SOL    HW236927   3.879   1.466   5.771  0.6531  1.9924 -1.5245
 8431SOL     OW36928   1.046   3.830   1.774  0.3475 -0.1994 -0.0254
 8431SOL    HW136929   1.118   3.799   1.829  1.5388  1.9635 -0.3716
 8431SOL    HW236930   0.964   3.804   1.817  0.2958 -1.2821 -0.7652
 8432SOL     OW36931   2.250   3.741   9.394  0.3540  0.0541 -0.7778
 8432SOL    HW136932   2.297   3.772   9.317  0.5413 -2.6201 -1.7211
 8432SOL    HW236933   2.168   3.722   9.350  0.4640 -1.9369 -0.1163
 8433SOL     OW36934   1.188   3.716   1.980 -0.3047 -0.1857 -0.3923
 8433SOL    HW136935   1.095   3.700   1.996 -0.1825  0.2796  0.7744
 8433SOL    HW236936   1.193   3.805   2.013 -0.0648 -0.0757 -0.7223
 8434SOL     OW36937   3.481   1.635   7.711 -0.6486  0.7720 -0.0931
 8434SOL    HW136938   3.505   1.618   7.620 -1.7700 -2.0452  0.1231
 8434SOL    HW236939   3.534   1.578   7.766 -1.8834  0.5894  0.8940
 8435SOL     OW36940   0.970   1.899   0.091 -0.1405  0.3536 -0.3432
 8435SOL    HW136941   0.980   1.965   0.023 -0.5573  0.5002 -0.2650
 8435SOL    HW236942   0.875   1.911   0.100  0.2678  3.0496  0.6123
 8436SOL     OW36943   2.861   0.559  11.587 -0.2316 -0.2494  0.2353
 8436SOL    HW136944   2.843   0.602  11.670  1.3963 -0.1400  0.5203
 8436SOL    HW236945   2.923   0.492  11.614 -0.5191  0.2714  2.1806
 8437SOL     OW36946   3.885   2.194   9.047  0.0777  0.2069  0.4855
 8437SOL    HW136947   3.947   2.183   9.119  1.4896  1.2604 -0.5843
 8437SOL    HW236948   3.836   2.270   9.077  0.0577  1.1634 -1.9929
 8438SOL     OW36949   3.938   1.133   7.851  0.4683  0.3136 -0.3521
 8438SOL    HW136950   4.006   1.073   7.820 -1.3820 -1.3934 -1.1887
 8438SOL    HW236951   3.983   1.213   7.875 -0.0839  1.0906 -1.8748
 8439SOL     OW36952   4.197   1.563   2.835  0.0025  0.1128  0.1235
 8439SOL    HW136953   4.153   1.529   2.912 -2.2698 -0.5992 -1.4960
 8439SOL    HW236954   4.131   1.629   2.814 -0.7118 -0.4617  0.5714
 8440SOL     OW36955   3.486   1.542   4.383 -0.3171 -0.4135 -0.3991
 8440SOL    HW136956   3.418   1.507   4.326 -2.5193 -1.8196  3.0610
 8440SOL    HW236957   3.483   1.472   4.449 -0.1989 -2.1945 -2.3060
 8441SOL     OW36958   2.100   1.811   4.057 -0.1233  0.7015  0.0786
 8441SOL    HW136959   2.043   1.759   4.113 -1.8554  1.9311 -0.5570
 8441SOL    HW236960   2.176   1.754   4.070 -1.6088 -0.8488  1.9090
 8442SOL     OW36961   4.297   0.554   3.885  0.1528  0.5810  0.0585
 8442SOL    HW136962   4.279   0.514   3.970 -1.1893  1.6332  0.2785
 8442SOL    HW236963   4.231   0.624   3.881  0.8057  1.2362  0.9064
 8443SOL     OW36964   4.189   4.050   1.374  0.3692  0.2032 -0.0985
 8443SOL    HW136965   4.195   4.092   1.460  1.1238  1.1031 -0.6040
 8443SOL    HW236966   4.220   4.117   1.313  0.5567  1.8911  1.8604
 8444SOL     OW36967   1.229   4.362   8.916 -0.6865 -0.9913  0.0412
 8444SOL    HW136968   1.218   4.456   8.926 -2.5818 -1.1667 -0.2928
 8444SOL    HW236969   1.137   4.336   8.905 -0.9555 -0.6243  1.3072
 8445SOL     OW36970   0.043   3.197   7.088  0.3561 -0.3023  0.3780
 8445SOL    HW136971   0.135   3.184   7.066 -0.4101 -2.2467 -1.6627
 8445SOL    HW236972   0.005   3.178   7.002  0.9134 -1.3919  0.3770
 8446SOL     OW36973   2.934   0.024   1.559 -0.2186 -0.5455  0.2491
 8446SOL    HW136974   2.868   4.692   1.543  1.1118 -1.9217  0.5417
 8446SOL    HW236975   3.013   4.707   1.569 -0.4266 -0.6762  1.1624
 8447SOL     OW36976   3.793   3.709  14.031 -0.1492 -0.1030  0.2953
 8447SOL    HW136977   3.879   3.750  14.017 -0.0090 -0.4621  0.1045
 8447SOL    HW236978   3.738   3.756  13.967 -0.1244 -1.1441 -0.4857
 8448SOL     OW36979   2.542   0.485  14.798  0.2574  0.2469 -0.0518
 8448SOL    HW136980   2.564   0.571  14.833 -0.0257  0.1902  0.2731
 8448SOL    HW236981   2.506   0.434  14.871  0.4962 -0.6898 -0.5918
 8449SOL     OW36982   0.044   0.025   1.867  0.4840 -0.4977 -0.2872
 8449SOL    HW136983   0.048   0.071   1.951  1.6585 -0.7149 -0.2212
 8449SOL    HW236984   0.057   4.670   1.897 -2.7642 -1.9285 -3.1560
 8450SOL     OW36985   0.399   1.179   4.622 -0.0706 -0.2013  0.0577
 8450SOL    HW136986   0.345   1.121   4.676  2.0589 -0.4422  1.9329
 8450SOL    HW236987   0.358   1.265   4.614  1.5570  0.4263 -1.4571
 8451SOL     OW36988   4.424   0.190   6.840  0.0909 -0.2385  0.1663
 8451SOL    HW136989   4.331   0.171   6.850  0.0811 -0.6521 -0.6489
 8451SOL    HW236990   4.464   0.134   6.906  1.8979  0.8629 -0.0104
 8452SOL     OW36991   3.168   3.328  12.957  0.1607 -0.7026  0.3524
 8452SOL    HW136992   3.172   3.233  12.944 -1.2234 -0.5177 -1.3727
 8452SOL    HW236993   3.097   3.346  12.896  0.6911 -1.2211 -0.4253
 8453SOL     OW36994   4.236   0.705   8.358  0.1513 -0.2318 -0.0990
 8453SOL    HW136995   4.239   0.787   8.308  2.1870 -0.0368  0.3740
 8453SOL    HW236996   4.147   0.705   8.394  0.3367  2.0687  0.3280
 8454SOL     OW36997   3.306   1.349   8.621 -0.0801  0.6437 -0.5655
 8454SOL    HW136998   3.317   1.430   8.571 -0.4634 -0.4353 -2.3984
 8454SOL    HW236999   3.362   1.285   8.578 -0.3763 -0.2671  0.3952
 8455SOL     OW37000   3.585   2.127   3.069  0.4886 -0.2951  0.2270
 8455SOL    HW137001   3.665   2.164   3.033 -0.6513  1.4203 -0.5073
 8455SOL    HW237002   3.588   2.178   3.150  0.3254 -0.4048  0.3015
 8456SOL     OW37003   1.355   0.686  11.319 -0.0052  0.4343 -0.1186
 8456SOL    HW137004   1.302   0.649  11.390  0.7927 -2.3497 -0.9410
 8456SOL    HW237005   1.301   0.679  11.241  0.8523 -1.7406 -0.5472
 8457SOL     OW37006   4.448   4.241   4.345  0.2930  0.0193 -0.0982
 8457SOL    HW137007   4.441   4.250   4.440 -3.4338 -1.4003 -0.2424
 8457SOL    HW237008   4.513   4.308   4.321  0.9068 -1.3650 -2.2818
 8458SOL     OW37009   2.342   0.418   3.272 -0.4297 -0.0239  0.0524
 8458SOL    HW137010   2.364   0.505   3.240  1.3548 -0.2736  0.5851
 8458SOL    HW237011   2.348   0.358   3.198  0.0385  2.2167 -1.6909
 8459SOL     OW37012   4.195   3.138   6.112  0.4254 -0.0678 -0.4302
 8459SOL    HW137013   4.102   3.155   6.126  0.6196  1.2617 -0.7729
 8459SOL    HW237014   4.185   3.147   6.017  0.3693 -0.7583 -0.4918
 8460SOL     OW37015   3.049   3.134   1.945  0.4553  0.0258  0.5793
 8460SOL    HW137016   3.003   3.109   1.865 -1.4473  0.1691  1.6311
 8460SOL    HW237017   3.003   3.101   2.022 -1.5791 -1.4903 -1.2904
 8461SOL     OW37018   4.461   0.656   7.511 -0.1680  0.4917 -0.0764
 8461SOL    HW137019   4.408   0.670   7.433 -2.5924  0.6583  1.6209
 8461SOL    HW237020   4.462   0.747   7.541 -0.2489  0.2747  0.5808
 8462SOL     OW37021   1.406   3.755   4.866  0.0983  0.0788 -0.7603
 8462SOL    HW137022   1.317   3.719   4.865 -0.5269  1.5196  2.3567
 8462SOL    HW237023   1.400   3.787   4.777 -0.9655  0.2203 -0.6372
 8463SOL     OW37024   1.404   4.659   4.136  0.1857 -0.0811 -0.1614
 8463SOL    HW137025   1.490   4.701   4.140 -0.0586  0.7852 -3.3776
 8463SOL    HW237026   1.393   4.634   4.227  3.1053 -1.3299 -0.1308
 8464SOL     OW37027   4.146   3.558   0.983  1.1713 -0.5221  0.0025
 8464SOL    HW137028   4.054   3.585   0.975  1.1394 -0.8960 -0.7939
 8464SOL    HW237029   4.140   3.468   1.014 -0.9998 -0.9331 -1.5838
 8465SOL     OW37030   0.916   0.629  14.690 -0.3501 -0.2447  0.3187
 8465SOL    HW137031   0.926   0.643  14.596  0.5942 -2.0626  0.1455
 8465SOL    HW237032   0.861   0.705  14.708  0.2726  0.1775  0.4403
 8466SOL     OW37033   3.408   0.064   3.172  0.0778 -0.2582  0.6156
 8466SOL    HW137034   3.382   0.028   3.087 -2.5597 -0.4214  1.5208
 8466SOL    HW237035   3.471   0.132   3.148  0.0627 -0.9380 -1.4235
 8467SOL     OW37036   2.636   3.145   3.364  0.0712 -0.3499 -0.2669
 8467SOL    HW137037   2.706   3.168   3.425 -0.4689 -0.0017  0.2173
 8467SOL    HW237038   2.616   3.055   3.391 -1.5094  0.5173  1.4526
 8468SOL     OW37039   1.060   2.987   2.314  0.4708 -0.2631  0.2289
 8468SOL    HW137040   0.987   3.041   2.285  1.5912  1.3895  0.5162
 8468SOL    HW237041   1.077   2.936   2.234  0.3340  1.2969 -0.8000
 8469SOL     OW37042   0.312   3.637   1.531  0.1247 -0.3757 -0.2210
 8469SOL    HW137043   0.383   3.621   1.594  1.4414 -1.3988 -1.9668
 8469SOL    HW237044   0.346   3.598   1.451  1.3289  0.3288 -0.0624
 8470SOL     OW37045   2.839   1.081   4.987  0.0898  0.6710  0.0746
 8470SOL    HW137046   2.782   1.004   4.977 -1.9374  2.0529  0.8279
 8470SOL    HW237047   2.893   1.047   5.059  0.1317  2.4072  0.8500
 8471SOL     OW37048   4.637   1.498   7.688 -0.2295 -0.0002  0.1004
 8471SOL    HW137049   4.662   1.568   7.628  2.1084 -1.4954 -0.6427
 8471SOL    HW237050   4.695   1.514   7.762 -0.0620 -0.1222 -0.0060
 8472SOL     OW37051   1.600   0.792  15.832  0.6050  0.0969 -0.0040
 8472SOL    HW137052   1.567   0.702  15.832 -0.3609  0.4451  1.7814
 8472SOL    HW237053   1.543   0.840  15.773 -1.9516 -2.8239  0.0786
 8473SOL     OW37054   1.176   3.079   5.481  0.6727  0.1322 -1.0185
 8473SOL    HW137055   1.086   3.103   5.460  0.3796  1.4071  1.7110
 8473SOL    HW237056   1.198   3.139   5.552 -0.9481 -0.5678  0.0792
 8474SOL     OW37057   3.318   1.506   7.437  0.0077  0.0970 -0.1503
 8474SOL    HW137058   3.252   1.500   7.506  2.3246 -1.3810  1.9263
 8474SOL    HW237059   3.258   1.524   7.364 -0.3923 -1.5083 -0.2009
 8475SOL     OW37060   2.660   3.223  10.720  0.1175 -0.5636 -0.2777
 8475SOL    HW137061   2.634   3.274  10.643 -0.4769 -2.9274 -1.6344
 8475SOL    HW237062   2.649   3.137  10.678 -0.0140 -0.4213 -0.5385
 8476SOL     OW37063   1.466   0.974  10.196 -0.1561  0.4340  0.6271
 8476SOL    HW137064   1.547   0.926  10.178 -0.8402 -0.7868  0.8236
 8476SOL    HW237065   1.396   0.941  10.140 -2.4093 -1.1327  4.3953
 8477SOL     OW37066   3.577   0.296   5.953 -0.4532  0.2952  0.6863
 8477SOL    HW137067   3.547   0.283   5.863  0.4572  1.1254  0.2694
 8477SOL    HW237068   3.584   0.390   5.965  1.7817  0.1472  0.5062
 8478SOL     OW37069   3.429   1.382   7.099  0.1830  0.3983  0.0421
 8478SOL    HW137070   3.459   1.316   7.161  0.8252  0.2091 -0.4802
 8478SOL    HW237071   3.422   1.324   7.023  0.3529  0.8079 -0.2898
 8479SOL     OW37072   0.711   0.575   5.099  0.1726  0.3757 -0.0736
 8479SOL    HW137073   0.750   0.495   5.133 -0.9115  1.0217  2.6874
 8479SOL    HW237074   0.624   0.545   5.073 -0.9363  3.2169  0.3541
 8480SOL     OW37075   1.540   2.137   6.231  0.0906  0.3268 -0.0181
 8480SOL    HW137076   1.577   2.049   6.232  0.7602  0.6161  0.5961
 8480SOL    HW237077   1.607   2.202   6.253  0.9822 -0.4963 -0.3188
 8481SOL     OW37078   2.853   1.268   6.705  0.1204 -0.2050  0.3713
 8481SOL    HW137079   2.866   1.336   6.638 -0.0043  1.3244  1.9152
 8481SOL    HW237080   2.904   1.202   6.659  1.3465  0.0506  1.3806
 8482SOL     OW37081   2.199   3.542   1.869 -0.0790 -0.4846 -0.3808
 8482SOL    HW137082   2.132   3.598   1.830 -1.7815 -1.8256  0.6442
 8482SOL    HW237083   2.158   3.521   1.953 -0.1717 -2.1784 -0.8582
 8483SOL     OW37084   4.599   1.770  17.430  0.1784 -0.0379 -0.5071
 8483SOL    HW137085   4.573   1.701  17.370 -1.8925 -1.1557  1.6572
 8483SOL    HW237086   4.676   1.726  17.466  0.9201  1.5027 -0.2077
 8484SOL     OW37087   3.588   0.062   0.923  0.0766  0.0720 -0.6904
 8484SOL    HW137088   3.650   0.133   0.941 -1.3464  0.2984  3.2716
 8484SOL    HW237089   3.656   4.732   0.908  0.0611  0.8141 -4.2197
 8485SOL     OW37090   1.385   1.250  10.294  0.1150  0.2720 -0.2707
 8485SOL    HW137091   1.362   1.162  10.323  2.4747 -0.4150 -0.4543
 8485SOL    HW237092   1.480   1.249  10.304 -0.0012  0.7211  0.8426
 8486SOL     OW37093   4.343   2.759  13.212  0.0970  0.4233  0.1478
 8486SOL    HW137094   4.422   2.792  13.169 -0.8814  1.4906 -0.8761
 8486SOL    HW237095   4.381   2.692  13.267  1.6172  1.1489 -0.0207
 8487SOL     OW37096   4.304   2.621   6.403 -0.1502  0.0872 -0.1249
 8487SOL    HW137097   4.318   2.573   6.322  1.9432  0.7422 -0.1486
 8487SOL    HW237098   4.238   2.569   6.449  1.5488 -0.2824  1.9035
 8488SOL     OW37099   3.013   0.340  11.070  0.5445 -0.0506 -0.6865
 8488SOL    HW137100   3.062   0.349  10.988  0.4066 -2.0779 -0.9771
 8488SOL    HW237101   3.009   0.245  11.078  0.1008  0.1146  1.1402
 8489SOL     OW37102   3.926   1.989   3.063 -0.3709 -0.3744 -0.1318
 8489SOL    HW137103   3.948   1.901   3.093  0.8855  0.2191  0.7129
 8489SOL    HW237104   3.882   2.023   3.141  2.6006  2.7391  0.1952
 8490SOL     OW37105   2.153   4.712   3.601 -0.3879  0.5088  0.1863
 8490SOL    HW137106   2.220   0.011   3.660  1.4355 -0.7840 -1.1353
 8490SOL    HW237107   2.096   0.053   3.595  0.6410  1.1112 -2.0054
 8491SOL     OW37108   1.054   0.719  10.811  0.1979  0.4302 -0.2853
 8491SOL    HW137109   1.051   0.763  10.726  0.8978 -1.8926 -1.4984
 8491SOL    HW237110   1.123   0.657  10.786  0.3922 -0.0124  1.3599
 8492SOL     OW37111   1.917   0.571   1.658 -0.1134 -0.9098 -0.6893
 8492SOL    HW137112   1.894   0.489   1.702 -1.6517  0.1254  0.4185
 8492SOL    HW237113   1.841   0.582   1.602 -0.4815  0.2848  0.0480
 8493SOL     OW37114   1.223   4.402   3.648  0.4947 -0.0226  0.5117
 8493SOL    HW137115   1.150   4.353   3.686 -0.2949  2.6983  2.5080
 8493SOL    HW237116   1.191   4.491   3.662  0.5587  0.0093  0.4547
 8494SOL     OW37117   0.783   2.617   5.790  0.0499  0.0579 -0.0016
 8494SOL    HW137118   0.743   2.696   5.825 -1.4096 -0.3678 -0.6890
 8494SOL    HW237119   0.761   2.633   5.698 -0.9692  2.4920  0.6836
 8495SOL     OW37120   4.263   2.492   5.536 -0.1736 -0.5726 -0.0542
 8495SOL    HW137121   4.358   2.481   5.531 -0.0951  0.3748 -0.6588
 8495SOL    HW237122   4.234   2.519   5.449 -3.0306  0.8204  1.3354
 8496SOL     OW37123   1.394   0.287  16.800  0.4096  0.1823  0.1378
 8496SOL    HW137124   1.319   0.346  16.805  0.8011  0.5765  1.2161
 8496SOL    HW237125   1.414   0.257  16.889  0.1373 -2.5941 -0.7283
 8497SOL     OW37126   4.257   4.138  16.223  0.0602 -0.3688 -0.1293
 8497SOL    HW137127   4.274   4.056  16.270 -2.7752 -0.1568  1.2465
 8497SOL    HW237128   4.264   4.196  16.299 -1.1739  0.4089 -0.6255
 8498SOL     OW37129   2.717   3.503  14.148 -0.2031 -0.1869 -0.0059
 8498SOL    HW137130   2.806   3.538  14.145 -0.4802  0.3579 -1.7326
 8498SOL    HW237131   2.738   3.415  14.118  0.8907  0.3808 -0.8941
 8499SOL     OW37132   1.459   1.388   8.231  0.6941  0.1916  0.1050
 8499SOL    HW137133   1.374   1.395   8.274  0.9861  1.0092  0.5467
 8499SOL    HW237134   1.439   1.320   8.167 -0.6721 -0.2717  1.0345
 8500SOL     OW37135   1.127   0.956   2.049 -0.0232  0.0646 -0.1559
 8500SOL    HW137136   1.222   0.946   2.038  0.1336  0.2547  1.0538
 8500SOL    HW237137   1.107   1.049   2.063  0.1642 -0.2849  2.2545
 8501SOL     OW37138   2.944   4.198   6.596 -0.3804  0.5739 -0.0688
 8501SOL    HW137139   2.993   4.178   6.516 -0.2938 -1.5107  0.4818
 8501SOL    HW237140   2.876   4.132   6.583  0.3862 -0.0467 -1.0052
 8502SOL     OW37141   2.805   3.393   8.875  0.1942  0.1563  0.4996
 8502SOL    HW137142   2.780   3.336   8.947 -1.2037  0.1238 -0.0272
 8502SOL    HW237143   2.717   3.412   8.844  0.3725 -0.1094 -0.1746
 8503SOL     OW37144   2.911   2.688   8.550  0.6625  0.2115  0.4544
 8503SOL    HW137145   2.937   2.778   8.569  0.9595  0.5335 -1.4552
 8503SOL    HW237146   2.817   2.706   8.546  0.4001 -1.5511 -1.2504
 8504SOL     OW37147   0.066   0.706   6.413 -0.0544 -0.2492  0.2112
 8504SOL    HW137148   0.107   0.693   6.328 -2.4434 -1.4318 -0.7715
 8504SOL    HW237149   4.723   0.751   6.381 -0.1616 -1.0836 -0.7093
 8505SOL     OW37150   4.197   3.012  13.153  0.1007 -0.0364 -0.0706
 8505SOL    HW137151   4.247   2.940  13.193  2.3418  3.6111  3.6768
 8505SOL    HW237152   4.259   3.036  13.084 -0.2762  0.7218 -0.1379
 8506SOL     OW37153   4.238   3.972  17.370  0.4988 -0.5113  0.2065
 8506SOL    HW137154   4.198   4.043  17.420  0.1874  1.4999 -2.9031
 8506SOL    HW237155   4.214   3.995  17.280  0.2315 -3.2363 -0.4396
 8507SOL     OW37156   2.352   0.725   2.898 -0.8608  0.4838 -0.4255
 8507SOL    HW137157   2.302   0.653   2.860  0.5638 -1.4729  1.4284
 8507SOL    HW237158   2.439   0.700   2.866 -1.4875 -0.3502 -1.4557
 8508SOL     OW37159   2.474   0.730   5.014 -0.4132 -0.4363 -0.8576
 8508SOL    HW137160   2.470   0.652   5.069 -0.3163  1.0793  1.2932
 8508SOL    HW237161   2.490   0.698   4.925  0.4250 -1.3552 -0.3778
 8509SOL     OW37162   2.447   3.137   6.718 -0.1757 -0.2343  0.2199
 8509SOL    HW137163   2.484   3.208   6.770 -0.3845  1.8112 -2.3938
 8509SOL    HW237164   2.481   3.170   6.635 -0.7777 -1.3268 -0.4661
 8510SOL     OW37165   3.203   0.740   2.455 -0.6769 -0.4359  0.6223
 8510SOL    HW137166   3.221   0.698   2.372  1.0183  0.3899  0.5595
 8510SOL    HW237167   3.281   0.712   2.505 -0.2390  0.5919  0.5289
 8511SOL     OW37168   0.378   3.604   7.827 -0.2120  0.2959  0.2061
 8511SOL    HW137169   0.345   3.521   7.794  0.7882 -0.1894  0.4195
 8511SOL    HW237170   0.402   3.646   7.744 -2.3323  1.8984  0.4060
 8512SOL     OW37171   1.639   3.597   2.717  0.0022 -0.3197 -0.2076
 8512SOL    HW137172   1.596   3.626   2.797  0.1480  0.7201 -0.5092
 8512SOL    HW237173   1.674   3.512   2.746  0.0790 -0.2899 -0.2133
 8513SOL     OW37174   2.006   1.781   6.110  0.1903 -0.5075 -0.2090
 8513SOL    HW137175   1.935   1.773   6.047  1.4811 -2.7008 -1.3625
 8513SOL    HW237176   2.073   1.819   6.053  2.2851 -2.0825  1.2270
 8514SOL     OW37177   1.072   3.471  10.048 -0.3512 -0.2774 -0.2195
 8514SOL    HW137178   1.069   3.392   9.994 -1.8057 -0.4073  0.0530
 8514SOL    HW237179   1.007   3.524  10.001 -1.2018  3.5243  5.3171
 8515SOL     OW37180   0.594   0.159   6.398 -0.1333 -0.2371  0.0598
 8515SOL    HW137181   0.542   0.228   6.356 -0.3717 -1.6424 -1.9965
 8515SOL    HW237182   0.608   0.200   6.483  1.0995 -1.3229  0.3846
 8516SOL     OW37183   3.797   2.707   7.559  0.1093 -0.3998 -0.4056
 8516SOL    HW137184   3.880   2.748   7.580 -0.8435  0.9493  0.7387
 8516SOL    HW237185   3.752   2.742   7.637 -0.0413 -0.6779 -0.3678
 8517SOL     OW37186   2.042   2.072   0.178 -0.2606  0.0150 -0.0128
 8517SOL    HW137187   2.006   2.154   0.145 -0.0739 -0.2568 -0.8864
 8517SOL    HW237188   2.117   2.117   0.216 -0.8423  0.9322  0.0538
 8518SOL     OW37189   4.228   3.675   6.888 -0.6242 -0.5137  0.0359
 8518SOL    HW137190   4.259   3.720   6.809 -0.3989 -2.5635 -1.0223
 8518SOL    HW237191   4.302   3.616   6.901  0.3149  0.7761  0.5287
 8519SOL     OW37192   0.323   2.874   7.919 -0.3432  0.8710  0.3207
 8519SOL    HW137193   0.317   2.801   7.980  1.7929  0.7331  0.3706
 8519SOL    HW237194   0.255   2.932   7.954 -1.9747 -2.0378  1.9102
 8520SOL     OW37195   0.239   4.132   2.548  0.5454  0.1659  0.0466
 8520SOL    HW137196   0.254   4.085   2.630 -0.3023 -1.1003 -0.5239
 8520SOL    HW237197   0.207   4.214   2.586  0.5367  0.5373 -0.7641
 8521SOL     OW37198   2.304   4.601   6.759  0.1949 -0.0549 -0.2642
 8521SOL    HW137199   2.254   4.525   6.788 -2.2541  1.5891 -0.1728
 8521SOL    HW237200   2.345   4.629   6.840  1.5430 -2.2123 -0.1896
 8522SOL     OW37201   3.271   3.176   0.247 -0.2381 -0.0935 -0.8054
 8522SOL    HW137202   3.242   3.110   0.310  1.6198 -1.2658 -1.1603
 8522SOL    HW237203   3.347   3.209   0.295 -0.8736  1.2384 -0.7289
 8523SOL     OW37204   3.912   4.417   8.702 -0.0349  0.1443 -0.6242
 8523SOL    HW137205   4.006   4.430   8.687  0.1231  1.9062  1.8353
 8523SOL    HW237206   3.899   4.485   8.768 -4.1315  0.0167 -1.3187
 8524SOL     OW37207   2.393   1.603   6.504  0.1312 -0.1839  0.1051
 8524SOL    HW137208   2.341   1.584   6.582  2.6381  3.0680  2.5738
 8524SOL    HW237209   2.334   1.665   6.461 -0.5342 -0.6713  0.3349
 8525SOL     OW37210   2.742   1.780   6.199 -0.2917  0.1835  0.2605
 8525SOL    HW137211   2.687   1.857   6.192 -0.5697 -0.0409 -0.0374
 8525SOL    HW237212   2.718   1.735   6.118  2.1548  1.2564 -1.0440
 8526SOL     OW37213   4.663   0.208  13.541 -0.0410  0.4650  0.0747
 8526SOL    HW137214   4.684   0.201  13.448 -0.9861 -2.2719  0.0613
 8526SOL    HW237215   4.568   0.204  13.531 -0.1495  1.1422  0.8205
 8527SOL     OW37216   2.696   1.230   0.480  0.1976  0.5169  0.2516
 8527SOL    HW137217   2.652   1.176   0.546 -1.4697 -0.5988 -1.8069
 8527SOL    HW237218   2.644   1.309   0.497 -0.7640 -0.3925  1.5326
 8528SOL     OW37219   2.458   2.665  16.294  0.1166  0.6012  0.0762
 8528SOL    HW137220   2.422   2.673  16.206  0.1500 -0.2785 -0.0205
 8528SOL    HW237221   2.432   2.575  16.315  1.3101 -0.5479 -3.3404
 8529SOL     OW37222   1.287   0.063   3.907 -0.0752 -0.4878  0.5505
 8529SOL    HW137223   1.319   0.029   3.990 -0.8154 -2.2216  0.1478
 8529SOL    HW237224   1.350   0.134   3.901 -0.3516 -0.1738  1.4267
 8530SOL     OW37225   2.054   4.417  14.448  0.2693  0.7492  0.5334
 8530SOL    HW137226   2.065   4.496  14.502  0.3030  1.7967 -0.9883
 8530SOL    HW237227   2.019   4.350  14.506 -0.2096  0.3955 -0.1710
 8531SOL     OW37228   4.216   1.722  12.659 -0.0875  0.5196 -0.1891
 8531SOL    HW137229   4.129   1.758  12.642 -1.4270 -2.9697 -0.7785
 8531SOL    HW237230   4.241   1.686  12.575 -1.2324 -1.8026  0.4603
 8532SOL     OW37231   1.281   1.347   5.607 -0.0041  0.1422  0.5883
 8532SOL    HW137232   1.335   1.350   5.685 -0.1125 -1.7929  0.7452
 8532SOL    HW237233   1.214   1.413   5.624  0.7219  1.4846 -1.6819
 8533SOL     OW37234   2.157   2.172   1.569 -0.5871 -0.3989  0.4963
 8533SOL    HW137235   2.114   2.165   1.484 -1.8761  1.1585  1.0044
 8533SOL    HW237236   2.100   2.231   1.618 -1.4571 -0.5607 -0.3182
 8534SOL     OW37237   2.271   0.341  14.788 -0.6147 -0.3902 -0.4215
 8534SOL    HW137238   2.228   0.419  14.754 -0.1089  0.2311  0.3801
 8534SOL    HW237239   2.216   0.272  14.749 -0.0935 -1.3892  0.6162
 8535SOL     OW37240   0.628   2.731   3.512  0.3108 -0.0427  0.0050
 8535SOL    HW137241   0.543   2.695   3.538 -0.0006 -0.1879 -1.2014
 8535SOL    HW237242   0.647   2.778   3.593  0.2716 -1.1403  0.6570
 8536SOL     OW37243   2.527   1.104   7.758 -0.4609  0.0593 -0.2207
 8536SOL    HW137244   2.541   1.103   7.852 -0.1745 -0.5916 -0.2705
 8536SOL    HW237245   2.433   1.088   7.762 -0.8115  1.7898 -1.3804
 8537SOL     OW37246   2.943   4.408   2.858  0.0073 -0.1510  0.4521
 8537SOL    HW137247   2.954   4.434   2.766 -1.0324  3.9992  1.4985
 8537SOL    HW237248   2.976   4.318   2.857  0.8779  0.1773 -2.2404
 8538SOL     OW37249   3.055   4.581   6.570 -0.4654  0.1671 -0.0047
 8538SOL    HW137250   3.118   4.554   6.503  0.0920 -1.0934  1.0146
 8538SOL    HW237251   2.970   4.589   6.528 -0.7566 -0.6860  0.4368
 8539SOL     OW37252   1.952   2.687   1.753  0.6318 -0.2303  0.3525
 8539SOL    HW137253   1.873   2.737   1.733  1.1633  0.3716 -0.2289
 8539SOL    HW237254   1.974   2.655   1.666  1.0497 -0.3061  0.4871
 8540SOL     OW37255   4.327   1.710   7.825  0.1767  0.2709 -0.2510
 8540SOL    HW137256   4.367   1.638   7.874 -1.3877  0.3210  1.1005
 8540SOL    HW237257   4.393   1.778   7.840  0.0506  0.2114  0.5541
 8541SOL     OW37258   4.290   4.204   0.151 -0.5662  0.2326  0.1475
 8541SOL    HW137259   4.347   4.156   0.090 -0.0842  0.1913  0.6353
 8541SOL    HW237260   4.216   4.226   0.094 -0.0137 -1.4069 -1.2122
 8542SOL     OW37261   2.393   0.330   0.387 -0.3238  0.8690 -0.3524
 8542SOL    HW137262   2.303   0.297   0.398  0.4622 -0.1780  2.8342
 8542SOL    HW237263   2.416   0.364   0.473  1.9802  0.8211 -0.9627
 8543SOL     OW37264   2.001   2.420  10.151 -0.2954  0.1438 -0.1842
 8543SOL    HW137265   2.041   2.335  10.166  2.3746  1.5480  0.6052
 8543SOL    HW237266   2.076   2.467  10.115  0.5772  1.2384  3.0155
 8544SOL     OW37267   4.553   3.650   3.311 -0.1935  0.6181  0.3594
 8544SOL    HW137268   4.567   3.740   3.283 -0.3280  0.1713 -1.1040
 8544SOL    HW237269   4.618   3.610   3.253  0.2446 -0.5951  1.6741
 8545SOL     OW37270   2.215   1.802   8.559  0.4231  0.0664 -0.6969
 8545SOL    HW137271   2.237   1.739   8.490 -1.2155 -0.1691 -1.0032
 8545SOL    HW237272   2.217   1.878   8.501  0.1167 -0.0015 -0.7971
 8546SOL     OW37273   0.391   2.368   2.910  0.0248 -0.3870  0.4124
 8546SOL    HW137274   0.334   2.370   2.833  0.0234 -0.8838  0.4032
 8546SOL    HW237275   0.408   2.460   2.928 -0.6304 -0.4463  1.3331
 8547SOL     OW37276   3.215   1.077   4.975  0.0440 -0.3298 -0.0548
 8547SOL    HW137277   3.240   1.168   4.958  1.7046 -0.5586  1.2185
 8547SOL    HW237278   3.157   1.090   5.051 -2.3276 -1.1806 -1.7150
 8548SOL     OW37279   1.114   2.469   4.133 -0.5367 -0.4106  0.2022
 8548SOL    HW137280   1.130   2.529   4.206 -1.0935 -0.2633  0.2018
 8548SOL    HW237281   1.054   2.525   4.084  0.0975 -1.5042 -1.8041
 8549SOL     OW37282   3.726   2.260   1.371 -0.2872  0.3131 -0.0052
 8549SOL    HW137283   3.683   2.188   1.324  0.7932 -1.3649  1.5833
 8549SOL    HW237284   3.737   2.334   1.312  2.8182 -1.9670 -2.3332
 8550SOL     OW37285   2.583   0.760   4.310  0.1740  0.2635  0.6982
 8550SOL    HW137286   2.637   0.724   4.241 -1.0645 -1.7107  0.7825
 8550SOL    HW237287   2.513   0.696   4.322 -0.7285  1.3976  1.5737
 8551SOL     OW37288   4.711   3.836   1.111 -0.7195  0.2752  1.1258
 8551SOL    HW137289   4.681   3.756   1.069  1.4019  0.0132  0.0850
 8551SOL    HW237290   4.635   3.862   1.162 -1.3555 -1.0445  0.8309
 8552SOL     OW37291   1.419   2.742   3.575 -0.5740 -0.4462  0.0841
 8552SOL    HW137292   1.478   2.676   3.612 -0.1025  0.4238  0.8651
 8552SOL    HW237293   1.351   2.734   3.642  0.7920  0.2729  1.5526
 8553SOL     OW37294   1.792   2.406   8.584  0.3924  0.3082 -0.1747
 8553SOL    HW137295   1.810   2.321   8.626 -0.1943  1.2927  2.1051
 8553SOL    HW237296   1.877   2.449   8.585  0.6114 -0.0995 -1.5473
 8554SOL     OW37297   2.547   3.228  14.465 -0.1966 -0.2701 -0.1483
 8554SOL    HW137298   2.521   3.138  14.444 -0.0065 -0.5971  1.0065
 8554SOL    HW237299   2.516   3.273  14.387 -0.3902  0.2352  0.2242
 8555SOL     OW37300   0.186   3.715   5.323  0.1375  0.2684  0.3103
 8555SOL    HW137301   0.281   3.730   5.320  0.1744 -0.2025 -1.0104
 8555SOL    HW237302   0.150   3.797   5.289  0.6220  1.0344  1.6510
 8556SOL     OW37303   4.148   1.631   8.523 -0.0472 -0.2321 -0.0063
 8556SOL    HW137304   4.139   1.678   8.606  2.1389  1.5190 -0.7760
 8556SOL    HW237305   4.121   1.691   8.454  0.1835  0.6172  0.6368
 8557SOL     OW37306   2.316   2.294   7.263 -0.4485 -0.0445 -0.3326
 8557SOL    HW137307   2.263   2.367   7.295 -1.2537 -0.7381 -0.0703
 8557SOL    HW237308   2.256   2.220   7.276  0.3278 -0.8641 -1.3316
 8558SOL     OW37309   3.228   2.795   4.573  0.3332  0.2416  1.0775
 8558SOL    HW137310   3.146   2.806   4.621  1.9257  0.3967  3.7585
 8558SOL    HW237311   3.270   2.718   4.612  1.0292 -0.5796 -1.3055
 8559SOL     OW37312   0.564   0.951  13.446  0.3204  0.3484 -0.0715
 8559SOL    HW137313   0.491   0.915  13.395  1.3049  1.5302 -2.3012
 8559SOL    HW237314   0.561   1.034  13.399  0.7620  1.6493  2.2013
 8560SOL     OW37315   1.664   2.467   1.531 -0.1839  0.3660 -0.4251
 8560SOL    HW137316   1.676   2.383   1.486 -2.0442 -0.7566  1.1187
 8560SOL    HW237317   1.710   2.521   1.467 -0.1613  0.8814  0.0336
 8561SOL     OW37318   2.127   3.135   4.282  0.1961  0.1739 -0.1536
 8561SOL    HW137319   2.183   3.094   4.216 -1.1943 -0.2366 -1.0915
 8561SOL    HW237320   2.203   3.171   4.326 -0.7377  3.9959 -1.6361
 8562SOL     OW37321   1.410   1.686   4.336 -0.2202  0.1409 -0.2854
 8562SOL    HW137322   1.470   1.751   4.299  0.8945 -0.0286  1.2054
 8562SOL    HW237323   1.465   1.634   4.395 -0.2652 -2.3757 -2.4490
 8563SOL     OW37324   3.699   3.524   3.852  0.1246 -0.4692  0.0733
 8563SOL    HW137325   3.617   3.571   3.838 -0.5331 -1.2394  1.3197
 8563SOL    HW237326   3.757   3.593   3.820 -0.3368  0.1098  0.4988
 8564SOL     OW37327   0.363   2.768  15.847 -0.2992 -0.0468  0.0875
 8564SOL    HW137328   0.360   2.862  15.828 -0.6038  0.0679  0.7117
 8564SOL    HW237329   0.452   2.750  15.816 -0.8811 -1.8320 -0.4983
 8565SOL     OW37330   2.911   2.422   3.508 -0.5851  0.4237  0.0120
 8565SOL    HW137331   2.986   2.435   3.566 -0.4533 -0.3275  0.0138
 8565SOL    HW237332   2.835   2.451   3.558 -0.0813 -1.2164  1.7158
 8566SOL     OW37333   0.962   0.272   0.105  0.1640 -1.0327  0.0077
 8566SOL    HW137334   1.022   0.311   0.042 -0.5454 -1.3981 -0.8952
 8566SOL    HW237335   1.005   0.192   0.135  1.4650 -1.3236 -2.5934
 8567SOL     OW37336   0.170   3.733   6.926 -0.0681 -0.1644 -0.0611
 8567SOL    HW137337   0.213   3.818   6.926  0.8286 -0.6287  1.4171
 8567SOL    HW237338   0.201   3.698   6.843 -1.2031 -0.5321 -0.3261
 8568SOL     OW37339   1.851   1.569   9.495 -0.1121 -0.3426 -0.8876
 8568SOL    HW137340   1.905   1.493   9.477  0.5258 -0.4004  1.1968
 8568SOL    HW237341   1.843   1.602   9.406 -0.4828 -1.6981 -1.3504
 8569SOL     OW37342   0.390   0.420  15.537 -0.1750 -0.0708  0.1543
 8569SOL    HW137343   0.482   0.442  15.551 -0.6150  1.7695  0.1607
 8569SOL    HW237344   0.346   0.464  15.611  0.4386 -1.4601  1.3476
 8570SOL     OW37345   0.404   0.516  12.547 -0.6040  0.4440 -0.0190
 8570SOL    HW137346   0.425   0.440  12.601 -0.6408  1.2486  1.1235
 8570SOL    HW237347   0.352   0.476  12.477  0.0086 -0.7442  0.2051
 8571SOL     OW37348   0.502   3.002   5.023 -0.5468 -0.1326  0.0543
 8571SOL    HW137349   0.586   3.043   5.005 -0.1858 -1.2608 -0.8034
 8571SOL    HW237350   0.477   3.006   4.931  2.7576  0.8372 -0.7832
 8572SOL     OW37351   4.346   4.021   5.179 -0.1114  0.3230 -0.0499
 8572SOL    HW137352   4.353   3.945   5.122  2.0272 -2.1249  3.5005
 8572SOL    HW237353   4.297   3.978   5.249  0.9367  1.6512  1.5256
 8573SOL     OW37354   3.852   2.805   3.163  0.1709  0.1598  0.3561
 8573SOL    HW137355   3.918   2.777   3.100 -0.0572  2.6072 -0.9725
 8573SOL    HW237356   3.877   2.897   3.177 -1.6160  0.7976 -0.5601
 8574SOL     OW37357   3.901   0.465   2.985 -0.0764  0.5658 -0.7514
 8574SOL    HW137358   3.994   0.487   2.989  0.3674 -2.0345  2.9281
 8574SOL    HW237359   3.895   0.384   3.036  1.4899 -0.0183 -1.5079
 8575SOL     OW37360   3.042   3.122   7.840  0.3467  0.3413 -0.5015
 8575SOL    HW137361   3.026   3.143   7.748 -3.2300 -0.3645 -0.0466
 8575SOL    HW237362   3.031   3.027   7.836 -0.1767  0.3507  0.6182
 8576SOL     OW37363   4.142   2.609  13.050 -0.7665 -0.3888 -0.1724
 8576SOL    HW137364   4.141   2.520  13.085  0.6800 -1.5720 -3.1329
 8576SOL    HW237365   4.211   2.653  13.100 -2.7503  0.7078  1.5872
 8577SOL     OW37366   4.634   3.050  11.919  0.4008  0.3819 -0.6538
 8577SOL    HW137367   4.607   3.097  11.998 -0.6763  0.3134 -0.9815
 8577SOL    HW237368   4.566   2.985  11.903  0.1448  0.5034 -0.0631
 8578SOL     OW37369   4.569   3.183   5.988 -0.0323 -0.8138 -0.2303
 8578SOL    HW137370   4.543   3.104   5.940  0.0283 -0.6989 -0.4530
 8578SOL    HW237371   4.634   3.149   6.050  1.6919  2.0132 -0.4565
 8579SOL     OW37372   0.324   0.634   7.172 -0.3846  0.4003 -0.5655
 8579SOL    HW137373   0.347   0.664   7.260 -0.5415  0.9633 -0.7134
 8579SOL    HW237374   0.361   0.707   7.121 -0.5106 -1.1119 -2.8152
 8580SOL     OW37375   2.975   4.424  14.767  0.0999 -0.0217 -0.1694
 8580SOL    HW137376   2.960   4.436  14.673 -0.6002 -0.4266 -0.1116
 8580SOL    HW237377   3.005   4.333  14.766  0.5542  0.1159  0.9973
 8581SOL     OW37378   2.715   3.480   5.726  0.0614 -0.1766 -0.9434
 8581SOL    HW137379   2.727   3.522   5.641 -1.0966 -0.0326 -1.0311
 8581SOL    HW237380   2.676   3.396   5.702 -1.5002 -0.0630  1.2487
 8582SOL     OW37381   1.436   2.889   4.536  0.4962 -0.2368  0.2712
 8582SOL    HW137382   1.379   2.848   4.601  0.3865  1.2505  1.1153
 8582SOL    HW237383   1.476   2.954   4.593 -2.1233  0.6087  1.1599
 8583SOL     OW37384   1.894   1.442   8.992 -0.3551  0.3368  0.9773
 8583SOL    HW137385   1.823   1.407   8.938  2.1539 -1.0380 -1.4796
 8583SOL    HW237386   1.974   1.429   8.941 -2.0310  0.4799 -1.7353
 8584SOL     OW37387   3.729   1.553   1.439  0.4092 -0.4736  0.9792
 8584SOL    HW137388   3.659   1.493   1.463  1.3379 -2.3181 -0.9334
 8584SOL    HW237389   3.743   1.590   1.527  1.0699  0.2932  0.5578
 8585SOL     OW37390   2.555   2.147   0.964 -0.1569  0.2419  0.3368
 8585SOL    HW137391   2.539   2.121   1.054 -0.2832 -2.4273 -0.4373
 8585SOL    HW237392   2.611   2.082   0.920 -0.8900  1.2059 -2.0272
 8586SOL     OW37393   4.449   3.765  16.675 -0.1625  0.0580  0.1349
 8586SOL    HW137394   4.359   3.767  16.708  0.0060  2.1575  0.4330
 8586SOL    HW237395   4.484   3.852  16.695 -1.7060  0.8309 -0.5956
 8587SOL     OW37396   4.437   4.084  17.698  0.5576 -0.4733  0.2388
 8587SOL    HW137397   4.481   4.094  17.614 -1.6197  3.2811 -0.4617
 8587SOL    HW237398   4.438   3.992  17.725  1.8422  0.0228  1.8409
 8588SOL     OW37399   2.649   3.984  15.186  0.2799  0.1273 -0.2209
 8588SOL    HW137400   2.742   3.964  15.200  0.4320  0.2053 -1.1031
 8588SOL    HW237401   2.616   3.982  15.276  1.3192 -0.9513  0.1403
 8589SOL     OW37402   3.705   3.281   8.578  0.4641 -0.0582  0.0430
 8589SOL    HW137403   3.719   3.299   8.485  0.6194  1.8782  0.4314
 8589SOL    HW237404   3.703   3.365   8.624 -0.0517 -0.5660  0.9533
 8590SOL     OW37405   0.764   1.233   8.000 -0.3495  0.5264 -0.3181
 8590SOL    HW137406   0.714   1.176   7.942 -1.3954  1.6723 -0.5373
 8590SOL    HW237407   0.824   1.283   7.944 -1.5261  1.4924 -0.7176
 8591SOL     OW37408   0.992   4.391  15.800  0.2103  0.3286  0.0416
 8591SOL    HW137409   1.000   4.439  15.882  2.1587 -1.3485  0.8312
 8591SOL    HW237410   0.937   4.317  15.827 -0.4309  0.9377  0.3819
 8592SOL     OW37411   0.664   3.548   4.006  0.4495  0.2218 -0.5972
 8592SOL    HW137412   0.611   3.483   4.052  0.9009 -0.9225 -1.6874
 8592SOL    HW237413   0.747   3.503   3.989 -2.2109 -3.6934 -3.0679
 8593SOL     OW37414   0.439   2.447   4.614  0.5158 -0.5560 -0.0989
 8593SOL    HW137415   0.533   2.465   4.609 -0.1902  2.8274 -0.8073
 8593SOL    HW237416   0.418   2.442   4.521  0.9985  4.1695 -0.4749
 8594SOL     OW37417   4.114   4.712  16.965 -0.3864  0.2184  0.0856
 8594SOL    HW137418   4.188   4.732  17.022 -1.2072  1.1386  0.8248
 8594SOL    HW237419   4.041   0.023  17.007 -0.8502  0.2408 -0.7311
 8595SOL     OW37420   4.330   3.738  13.826 -0.0889 -0.4273  0.0546
 8595SOL    HW137421   4.399   3.776  13.771 -0.0073  0.4561  0.7728
 8595SOL    HW237422   4.279   3.697  13.756 -0.5547 -0.2340  0.2816
 8596SOL     OW37423   0.002   2.154   2.935  0.2967 -0.2957  0.2696
 8596SOL    HW137424   4.676   2.144   2.862  0.2445  0.7600  0.1644
 8596SOL    HW237425   0.026   2.245   2.916  0.7034 -0.1244  1.6244
 8597SOL     OW37426   1.182   0.003   7.920  0.0578  0.5851 -0.0285
 8597SOL    HW137427   1.232   4.658   7.934 -2.6733 -1.2469 -0.6034
 8597SOL    HW237428   1.096   4.713   7.885 -0.7615  0.9340  1.7465
 8598SOL     OW37429   3.231   2.519   1.623  0.3807  0.1162  0.0093
 8598SOL    HW137430   3.188   2.596   1.585  0.1314  1.4512  3.0326
 8598SOL    HW237431   3.197   2.445   1.572  3.4710 -1.2083 -0.1331
 8599SOL     OW37432   2.172   4.533  16.943  0.0143 -0.1057 -0.0382
 8599SOL    HW137433   2.173   4.628  16.950 -0.0823 -0.1222  0.2168
 8599SOL    HW237434   2.266   4.516  16.944  0.3216  1.5429 -1.4752
 8600SOL     OW37435   3.333   3.427  14.411  0.0401  0.6052  0.1726
 8600SOL    HW137436   3.417   3.452  14.449  0.8369 -1.9785  0.1149
 8600SOL    HW237437   3.271   3.489  14.449  0.0138 -0.2954  1.6172
 8601SOL     OW37438   1.965   1.769   5.228  0.0102 -0.1976 -0.0203
 8601SOL    HW137439   2.016   1.763   5.309  0.2717  0.6795 -0.1190
 8601SOL    HW237440   2.035   1.815   5.180  0.1501  0.7082  1.0543
 8602SOL     OW37441   4.313   1.118  10.595 -0.5093 -0.0506 -0.3731
 8602SOL    HW137442   4.326   1.067  10.515  0.2061  1.3575 -1.1583
 8602SOL    HW237443   4.374   1.076  10.655 -1.0140 -0.2228  0.0158
 8603SOL     OW37444   0.084   1.125   6.296  0.2557 -0.5641 -0.2925
 8603SOL    HW137445   0.067   1.107   6.388 -0.1430  0.8583 -0.0869
 8603SOL    HW237446   0.179   1.140   6.293  0.1246  0.7569  2.0110
 8604SOL     OW37447   3.350   1.175   6.933 -0.1124 -0.1029  0.4627
 8604SOL    HW137448   3.303   1.238   6.879 -2.3831 -2.0975  0.0772
 8604SOL    HW237449   3.282   1.108   6.938  0.2436 -0.6477 -2.3067
 8605SOL     OW37450   2.414   2.850  16.514  0.0707 -0.0829 -0.2702
 8605SOL    HW137451   2.422   2.790  16.440 -0.9300 -1.6539  0.8972
 8605SOL    HW237452   2.385   2.933  16.475  2.0936  1.1495  0.8430
 8606SOL     OW37453   4.400   1.908   7.176 -0.1014  0.5061 -0.4857
 8606SOL    HW137454   4.389   1.850   7.251  0.2865  0.5530 -0.3952
 8606SOL    HW237455   4.450   1.982   7.208 -1.7991  2.4461 -2.2781
 8607SOL     OW37456   2.930   1.678   0.357 -0.0120 -0.4229 -0.0761
 8607SOL    HW137457   3.006   1.652   0.305  0.0762  0.0962 -0.2029
 8607SOL    HW237458   2.946   1.650   0.447 -1.2106  0.2901  0.3517
 8608SOL     OW37459   2.530   2.022   6.834  0.2331  0.1728 -0.2592
 8608SOL    HW137460   2.476   1.962   6.783  0.3052  0.7482 -1.0100
 8608SOL    HW237461   2.467   2.048   6.901 -0.2629 -0.0847 -0.6337
 8609SOL     OW37462   3.660   1.376   3.238 -0.0753  0.1729  0.1016
 8609SOL    HW137463   3.699   1.326   3.310 -0.1939  1.7706  1.2876
 8609SOL    HW237464   3.615   1.437   3.297 -2.0603 -2.5258  1.3573
 8610SOL     OW37465   1.399   4.601   7.009 -0.2545  0.8521  0.0201
 8610SOL    HW137466   1.328   4.612   7.073 -1.6874 -2.7869 -0.9297
 8610SOL    HW237467   1.401   4.689   6.972 -1.3718  0.3385 -1.2836
 8611SOL     OW37468   1.139   3.331   2.103 -0.1708  0.4579  0.4083
 8611SOL    HW137469   1.151   3.257   2.043  1.3281 -1.3587  2.9176
 8611SOL    HW237470   1.228   3.366   2.108 -0.0663 -0.1470  2.6622
 8612SOL     OW37471   1.382   2.392  12.827 -0.3200  0.4307 -0.3747
 8612SOL    HW137472   1.340   2.357  12.748  2.4753 -0.9696 -1.2524
 8612SOL    HW237473   1.475   2.369  12.821 -0.0988  1.3000 -0.3471
 8613SOL     OW37474   3.645   4.557   1.296 -0.8101 -0.7082 -0.2626
 8613SOL    HW137475   3.557   4.594   1.311  0.0636  1.8289 -1.5135
 8613SOL    HW237476   3.702   4.620   1.341  1.8227 -3.1788 -0.1820
 8614SOL     OW37477   2.721   3.863   4.356 -1.0604  0.2687 -0.1457
 8614SOL    HW137478   2.638   3.895   4.391 -1.4069  2.3887 -2.8833
 8614SOL    HW237479   2.693   3.775   4.330  2.1399 -0.6778 -0.3771
 8615SOL     OW37480   1.381   0.967   2.602  0.0877  0.1003 -0.5733
 8615SOL    HW137481   1.287   0.975   2.589  0.0330 -0.4756 -0.5331
 8615SOL    HW237482   1.383   0.917   2.684  0.1046  0.8049 -0.1443
 8616SOL     OW37483   3.403   1.325   2.603 -0.3020 -0.0008  0.0740
 8616SOL    HW137484   3.333   1.332   2.668 -0.9712  0.5701 -0.7214
 8616SOL    HW237485   3.471   1.274   2.648 -0.3111  0.3471  0.4831
 8617SOL     OW37486   0.975   0.492   3.558  0.2657 -0.7553  0.3903
 8617SOL    HW137487   0.926   0.575   3.560 -1.4008 -1.6354 -2.4676
 8617SOL    HW237488   1.044   0.515   3.619 -0.9976 -2.6441  2.4917
 8618SOL     OW37489   0.293   4.499  16.209  0.1448 -1.0924 -0.1387
 8618SOL    HW137490   0.370   4.483  16.154 -0.3120 -0.6454 -0.9148
 8618SOL    HW237491   0.285   4.419  16.261 -0.3488 -2.2496 -2.0013
 8619SOL     OW37492   3.546   1.572   9.304  0.5867 -0.2041  0.3698
 8619SOL    HW137493   3.577   1.661   9.285  0.3723  0.2792  2.2207
 8619SOL    HW237494   3.632   1.530   9.298  0.9842  0.4990  1.0223
 8620SOL     OW37495   4.135   0.230   3.976 -0.2782 -0.5351  0.1305
 8620SOL    HW137496   4.059   0.250   3.921  0.8399  2.1435 -0.4235
 8620SOL    HW237497   4.175   0.158   3.927  0.7300  0.1620 -0.0579
 8621SOL     OW37498   1.479   4.459   2.008 -0.1316  0.0978  0.2294
 8621SOL    HW137499   1.472   4.544   2.051 -1.3398  0.0837  0.0720
 8621SOL    HW237500   1.567   4.438   2.038 -0.1938  0.2523  0.5187
 8622SOL     OW37501   2.636   3.994   6.394 -0.5897  0.5813 -0.0585
 8622SOL    HW137502   2.681   4.028   6.472 -0.9296 -0.2176  0.4882
 8622SOL    HW237503   2.662   3.902   6.393  2.4510  1.4378  0.9456
 8623SOL     OW37504   4.370   0.271  15.361 -0.3914  0.6293  0.1664
 8623SOL    HW137505   4.456   0.231  15.378 -0.4272  0.6083  0.2984
 8623SOL    HW237506   4.384   0.350  15.412 -0.1633  1.1682 -0.7297
 8624SOL     OW37507   4.623   1.690  11.970  0.3584  0.6009  0.0165
 8624SOL    HW137508   4.589   1.624  11.910  2.7578 -1.7593  1.2459
 8624SOL    HW237509   4.586   1.660  12.054 -0.3911 -1.8538 -1.1993
 8625SOL     OW37510   4.282   4.233   5.904  0.0096 -0.7114 -0.0758
 8625SOL    HW137511   4.312   4.318   5.872 -0.0614  0.3850  2.6873
 8625SOL    HW237512   4.190   4.256   5.916 -0.0879 -0.9338 -0.4119
 8626SOL     OW37513   4.305   2.759   9.790  0.5901  0.1941  0.3159
 8626SOL    HW137514   4.241   2.829   9.802  1.3050  1.1925 -1.7648
 8626SOL    HW237515   4.289   2.713   9.708 -0.9996  0.7691  0.3103
 8627SOL     OW37516   0.027   4.396   7.873 -0.3106 -0.0329  0.4964
 8627SOL    HW137517   4.670   4.390   7.899  0.3095 -1.2217  2.4354
 8627SOL    HW237518   0.067   4.328   7.928  0.5995 -0.8772 -1.2134
 8628SOL     OW37519   3.000   2.602   9.357  0.5765 -0.1643  0.1613
 8628SOL    HW137520   2.913   2.609   9.396  0.7381  0.0155  0.4888
 8628SOL    HW237521   3.030   2.519   9.394 -0.1880 -0.2529  0.5771
 8629SOL     OW37522   0.334   2.616  11.849 -0.3890  0.5002  0.3906
 8629SOL    HW137523   0.331   2.694  11.903  1.7459 -0.3243  1.6936
 8629SOL    HW237524   0.374   2.559  11.915 -2.7415 -2.3142 -0.6187
 8630SOL     OW37525   3.657   0.847   6.783  0.4559 -0.2393 -0.0261
 8630SOL    HW137526   3.641   0.933   6.822  0.1955 -1.2361  2.0511
 8630SOL    HW237527   3.751   0.854   6.799  0.8451 -2.8620 -1.1719
 8631SOL     OW37528   3.409   3.919  12.315 -0.1796  0.7552 -0.1198
 8631SOL    HW137529   3.387   3.882  12.401  2.4329 -0.0094  0.2010
 8631SOL    HW237530   3.444   3.847  12.262 -0.7425  0.4572 -0.0895
 8632SOL     OW37531   0.597   1.744   8.927 -0.5597  0.4248  0.2461
 8632SOL    HW137532   0.621   1.720   9.016  1.2603  2.8299  0.3765
 8632SOL    HW237533   0.666   1.802   8.896  0.1675 -1.1620 -1.0604
 8633SOL     OW37534   0.866   0.783   4.935  0.6841  0.2403  0.2274
 8633SOL    HW137535   0.946   0.734   4.920  0.1602 -1.8098  4.2063
 8633SOL    HW237536   0.808   0.711   4.960  0.7051 -0.1451 -0.8173
 8634SOL     OW37537   2.412   4.006   3.787 -0.4653 -0.1007  0.2216
 8634SOL    HW137538   2.432   3.949   3.713  0.2844 -1.6067  1.5766
 8634SOL    HW237539   2.341   4.064   3.760  0.0907 -0.2576 -1.6159
 8635SOL     OW37540   2.453   4.330   3.878  0.1676  0.1597  0.3093
 8635SOL    HW137541   2.403   4.283   3.811 -2.5592  1.6684  1.2887
 8635SOL    HW237542   2.458   4.413   3.831  0.3629 -0.1246 -0.1714
 8636SOL     OW37543   1.048   3.417   5.045 -0.1473  0.4822  0.2083
 8636SOL    HW137544   1.051   3.321   5.047 -1.6976  0.4627  1.0489
 8636SOL    HW237545   1.013   3.436   4.958 -0.9739 -1.9788  0.0008
 8637SOL     OW37546   3.205   2.781   1.526 -0.5651  0.1973 -0.1206
 8637SOL    HW137547   3.275   2.842   1.550  2.1481 -2.1034 -2.1940
 8637SOL    HW237548   3.160   2.780   1.611 -1.3555  1.1202 -0.5286
 8638SOL     OW37549   3.843   3.063   3.770  0.8457 -0.2636  0.0226
 8638SOL    HW137550   3.802   3.142   3.735 -2.1766 -1.7945  0.0901
 8638SOL    HW237551   3.887   3.096   3.848 -1.6404 -0.7170  1.6127
 8639SOL     OW37552   0.082   2.518   5.545  0.0673 -0.1245  1.0514
 8639SOL    HW137553   0.047   2.461   5.478 -1.0964  1.5463  0.2520
 8639SOL    HW237554   0.122   2.466   5.615 -0.5113 -0.4712  1.1187
 8640SOL     OW37555   3.380   2.581   7.072 -0.4644 -0.0962  0.4752
 8640SOL    HW137556   3.401   2.521   7.000 -2.1421 -0.6560  0.4588
 8640SOL    HW237557   3.298   2.612   7.033 -0.1425  1.7589  1.3155
 8641SOL     OW37558   3.618   3.381   8.066 -0.3865 -0.2257 -0.2430
 8641SOL    HW137559   3.603   3.397   7.973  1.4976 -2.0336 -0.8681
 8641SOL    HW237560   3.709   3.411   8.072 -1.0472  1.4940  1.1385
 8642SOL     OW37561   4.444   3.914   7.910  0.3838 -0.6174  0.1160
 8642SOL    HW137562   4.521   3.860   7.894  2.3092  0.8994  4.1761
 8642SOL    HW237563   4.402   3.920   7.824  0.1911 -0.0399  0.2546
 8643SOL     OW37564   3.283   0.462   1.070 -0.1820  0.4922 -0.1265
 8643SOL    HW137565   3.201   0.504   1.044 -1.1597 -1.1690  0.2572
 8643SOL    HW237566   3.322   0.538   1.114  2.4441 -1.9650  1.7180
 8644SOL     OW37567   4.252   4.273   1.802  0.3588 -0.0413  0.1243
 8644SOL    HW137568   4.202   4.293   1.880 -0.1117 -1.2879  0.1326
 8644SOL    HW237569   4.204   4.206   1.753 -1.4049 -0.1968  2.0854
 8645SOL     OW37570   4.212   0.447   4.122 -0.5525  0.2227 -0.0081
 8645SOL    HW137571   4.203   0.362   4.078  2.2902  0.4462 -1.0433
 8645SOL    HW237572   4.124   0.482   4.111 -2.0147 -3.0678  1.1117
 8646SOL     OW37573   2.865   1.022   0.468  0.0694 -0.0887  0.2080
 8646SOL    HW137574   2.930   1.046   0.402 -0.2478 -2.2962 -0.9021
 8646SOL    HW237575   2.807   1.098   0.459  1.1336  0.7615  0.5020
 8647SOL     OW37576   4.570   0.322   1.922  0.5294 -0.7353  0.0772
 8647SOL    HW137577   4.608   0.410   1.927 -1.7146  0.3724 -3.1135
 8647SOL    HW237578   4.617   0.270   1.988 -1.5561 -2.4950  0.1585
 8648SOL     OW37579   4.585   3.804   7.542  0.1478  0.0451  0.2659
 8648SOL    HW137580   4.588   3.736   7.475 -0.4421  1.2820 -1.0268
 8648SOL    HW237581   4.508   3.838   7.496  0.3588  0.9639  0.5997
 8649SOL     OW37582   3.958   1.031  15.724  0.5533  0.3128 -0.1130
 8649SOL    HW137583   3.903   1.063  15.652  1.9731  2.6688 -0.1345
 8649SOL    HW237584   4.003   1.105  15.765  1.1634 -0.4594  0.6014
 8650SOL     OW37585   2.607   1.866   4.193  0.1713 -0.0997 -0.2431
 8650SOL    HW137586   2.670   1.831   4.257  0.3275  1.4071  0.4321
 8650SOL    HW237587   2.575   1.786   4.152  0.6385  0.9501 -2.6874
 8651SOL     OW37588   2.837   3.422  16.006 -0.0159  0.4810 -0.8607
 8651SOL    HW137589   2.853   3.327  16.004 -2.1293  0.1255 -2.1280
 8651SOL    HW237590   2.910   3.446  15.949  0.7014 -2.0014 -1.0021
 8652SOL     OW37591   2.242   3.997  15.818  0.4757  0.4581 -0.0670
 8652SOL    HW137592   2.197   3.997  15.902  0.0070 -1.9546 -0.3257
 8652SOL    HW237593   2.305   4.066  15.838  0.7289  0.0571  0.5238
 8653SOL     OW37594   2.633   0.711   1.857  0.1945  0.1869 -0.2684
 8653SOL    HW137595   2.656   0.652   1.930  2.5717  1.8237  0.3007
 8653SOL    HW237596   2.649   0.795   1.900 -1.2273 -0.5057  1.6586
 8654SOL     OW37597   0.584   0.760   4.093  0.0115 -0.1242  0.4344
 8654SOL    HW137598   0.656   0.777   4.154 -1.2207  0.4954  1.7081
 8654SOL    HW237599   0.544   0.846   4.106  1.6709  0.6519  0.3703
 8655SOL     OW37600   2.990   3.530   5.851  0.5686 -0.1479  0.0397
 8655SOL    HW137601   2.905   3.488   5.835  0.4177  0.0551  0.3148
 8655SOL    HW237602   3.000   3.530   5.946  1.5255 -3.2957 -0.0703
 8656SOL     OW37603   4.329   3.550   7.521 -0.1800 -0.4804 -0.0382
 8656SOL    HW137604   4.302   3.504   7.601 -1.0857  1.6402  0.8971
 8656SOL    HW237605   4.244   3.559   7.478 -0.8572 -0.1931  1.3686
 8657SOL     OW37606   0.781   0.098   1.332 -0.0918  0.6502  0.0033
 8657SOL    HW137607   0.794   0.024   1.272 -1.8137  0.3429  0.0091
 8657SOL    HW237608   0.723   0.153   1.279  1.0022  1.6882 -0.1212
 8658SOL     OW37609   3.763   3.115   4.575  0.1134 -0.2734  0.6056
 8658SOL    HW137610   3.794   3.149   4.492  0.1914  2.4091  1.7480
 8658SOL    HW237611   3.833   3.050   4.585  1.5866  1.2982  0.4439
 8659SOL     OW37612   0.936   1.521   4.970 -0.6520 -0.2604  0.1095
 8659SOL    HW137613   0.997   1.457   4.932  0.2416  0.2774  0.6248
 8659SOL    HW237614   0.981   1.606   4.970 -3.4748  1.2284  1.5082
 8660SOL     OW37615   1.207   2.486  13.046 -0.0563 -0.1434  0.5650
 8660SOL    HW137616   1.238   2.490  12.955  0.0223 -1.0520  0.5533
 8660SOL    HW237617   1.292   2.455  13.078 -0.5612 -1.8318  0.2471
 8661SOL     OW37618   2.456   1.397   7.890  0.1647 -0.4872  0.0817
 8661SOL    HW137619   2.502   1.481   7.900 -1.4286  0.5699 -1.3786
 8661SOL    HW237620   2.488   1.367   7.805  1.3694  2.8657 -0.6934
 8662SOL     OW37621   2.983   3.552   7.125 -0.0588  0.2014 -0.0543
 8662SOL    HW137622   2.964   3.608   7.200  1.3132  2.5087 -1.4286
 8662SOL    HW237623   2.942   3.479   7.170 -0.8259 -0.3253 -1.6149
 8663SOL     OW37624   4.132   2.263   4.839  1.0102  0.1453  0.2426
 8663SOL    HW137625   4.091   2.347   4.860  1.6944  1.1273 -2.3097
 8663SOL    HW237626   4.206   2.259   4.900 -0.5853  1.1718  2.2456
 8664SOL     OW37627   4.187   2.805   7.903 -0.0714  0.2554 -0.2779
 8664SOL    HW137628   4.279   2.825   7.884  0.3810 -2.0653 -0.6316
 8664SOL    HW237629   4.186   2.713   7.874 -3.1334 -0.1619  1.1223
 8665SOL     OW37630   1.474   2.327  12.057 -0.4563 -0.0835  0.7840
 8665SOL    HW137631   1.421   2.272  12.114 -2.4476  0.4145 -0.5809
 8665SOL    HW237632   1.557   2.313  12.104 -0.7902 -1.7988  0.8756
 8666SOL     OW37633   2.436   3.885   9.218  0.0515 -0.0359  0.1723
 8666SOL    HW137634   2.518   3.921   9.182 -0.3534  1.4266  0.7194
 8666SOL    HW237635   2.419   3.810   9.161 -1.1492 -0.3754  1.0039
 8667SOL     OW37636   3.868   4.320  12.142 -0.5903 -0.1848 -0.3101
 8667SOL    HW137637   3.919   4.392  12.179 -1.8244  0.3732  0.2902
 8667SOL    HW237638   3.784   4.329  12.187  0.7631 -1.2972  2.4176
 8668SOL     OW37639   3.802   0.534   9.967 -0.0101  0.2121 -0.2292
 8668SOL    HW137640   3.858   0.485  10.028  0.1211  0.5621 -0.0657
 8668SOL    HW237641   3.723   0.481   9.980  0.0773  0.0458 -0.3765
 8669SOL     OW37642   4.466   4.195   3.093  0.4566  0.4565 -0.3059
 8669SOL    HW137643   4.444   4.280   3.131 -0.2846  0.4701 -0.7771
 8669SOL    HW237644   4.561   4.201   3.084  0.5650 -1.0616 -0.2111
 8670SOL     OW37645   4.558   0.490   6.462  0.1260 -0.2743  0.4292
 8670SOL    HW137646   4.631   0.548   6.483 -1.4426  1.7329  0.3929
 8670SOL    HW237647   4.487   0.529   6.513  0.1887  2.8523 -1.9100
 8671SOL     OW37648   3.693   1.608   6.121 -0.3425  0.6495 -0.2679
 8671SOL    HW137649   3.657   1.692   6.092 -1.0095  0.5340  0.2292
 8671SOL    HW237650   3.638   1.597   6.199 -0.0790 -2.8022 -0.5745
 8672SOL     OW37651   1.045   0.484   9.024  0.4599  0.1079 -0.4893
 8672SOL    HW137652   1.080   0.558   9.073  0.3975  0.1672 -0.5335
 8672SOL    HW237653   0.962   0.474   9.070  0.9416  1.2664  0.6297
 8673SOL     OW37654   3.250   3.445   7.148  0.3083 -0.4262  0.1864
 8673SOL    HW137655   3.281   3.511   7.210 -1.5754  0.4338  0.2131
 8673SOL    HW237656   3.159   3.469   7.129  0.6452  0.0506 -0.8176
 8674SOL     OW37657   1.620   1.945   9.890  0.2915  0.1131  0.2575
 8674SOL    HW137658   1.549   1.919   9.832 -0.3834 -0.2472  1.2434
 8674SOL    HW237659   1.701   1.932   9.840  0.4112  0.9484  0.2228
 8675SOL     OW37660   1.082   4.059  17.138  0.3218 -0.4065  0.2678
 8675SOL    HW137661   1.142   4.066  17.212  1.9649  1.3579 -1.2050
 8675SOL    HW237662   1.145   4.093  17.074  0.2894  1.4192  1.2127
 8676SOL     OW37663   1.372   0.427  13.467  0.2251 -0.3050 -0.5131
 8676SOL    HW137664   1.429   0.350  13.473  1.2913  0.4098 -1.4063
 8676SOL    HW237665   1.298   0.398  13.413 -1.4820 -2.4171  3.0326
 8677SOL     OW37666   3.287   1.903   0.363  0.3966 -0.8906  0.3980
 8677SOL    HW137667   3.380   1.887   0.380  0.1395 -1.3495  1.4023
 8677SOL    HW237668   3.259   1.917   0.454 -1.0650  2.2024 -0.5290
 8678SOL     OW37669   1.307   1.791   9.716  0.2416  0.1286 -0.1968
 8678SOL    HW137670   1.233   1.815   9.659  0.0401 -0.9201 -0.3692
 8678SOL    HW237671   1.381   1.839   9.678  0.4932 -1.0386 -1.1729
 8679SOL     OW37672   2.362   2.727  16.060  0.3418  0.4620  0.4330
 8679SOL    HW137673   2.345   2.788  15.988 -0.4300 -2.8772 -2.2646
 8679SOL    HW237674   2.343   2.647  16.010  0.2375 -0.0973  1.3732
 8680SOL     OW37675   3.925   4.232  16.157 -0.5654  0.1068  0.1878
 8680SOL    HW137676   3.848   4.250  16.102  0.1453  0.7063 -0.6026
 8680SOL    HW237677   3.941   4.305  16.216  1.0804  0.8406 -1.1728
 8681SOL     OW37678   0.436   2.913   2.879  0.2932 -0.3209  0.5446
 8681SOL    HW137679   0.500   2.984   2.889 -0.3984  0.1192  1.8368
 8681SOL    HW237680   0.350   2.949   2.900  0.4965  1.0663 -1.0497
 8682SOL     OW37681   1.252   4.320   5.640 -0.2881  0.2642  0.3772
 8682SOL    HW137682   1.242   4.260   5.566  1.6462 -0.3696  0.6312
 8682SOL    HW237683   1.174   4.375   5.639 -0.6487 -0.1968  3.0922
 8683SOL     OW37684   3.358   3.234   4.063 -0.3635  0.3722 -0.4088
 8683SOL    HW137685   3.450   3.217   4.042  0.3580  1.3703  1.9660
 8683SOL    HW237686   3.338   3.154   4.111 -1.7967  1.4408  0.7963
 8684SOL     OW37687   1.405   2.970   7.105  0.0103  0.0846  0.2722
 8684SOL    HW137688   1.344   2.923   7.048  0.6124  1.3732 -1.4354
 8684SOL    HW237689   1.490   2.932   7.085 -0.4669  0.4318 -2.3668
 8685SOL     OW37690   1.460   0.290  17.426 -0.1473  0.0745 -0.0774
 8685SOL    HW137691   1.511   0.332  17.495 -2.5017  0.6909  1.3031
 8685SOL    HW237692   1.495   0.320  17.342  2.0294 -1.3578  0.3345
 8686SOL     OW37693   1.350   0.470  15.556 -0.2424 -0.0964  0.3519
 8686SOL    HW137694   1.411   0.502  15.490 -0.1100 -0.1646  0.4424
 8686SOL    HW237695   1.343   0.377  15.533 -1.5956 -0.4100  2.0516
 8687SOL     OW37696   3.460   1.963   5.405  0.4328 -0.1542  0.1081
 8687SOL    HW137697   3.365   1.960   5.412  0.5375 -1.8187  1.0707
 8687SOL    HW237698   3.475   1.915   5.323 -1.7573 -0.0898 -0.3075
 8688SOL     OW37699   2.470   2.243   9.168 -0.5020 -0.2197  0.0513
 8688SOL    HW137700   2.437   2.320   9.122 -0.1491  0.3135  0.7001
 8688SOL    HW237701   2.435   2.171   9.115  0.6842  0.2366 -1.3736
 8689SOL     OW37702   0.662   4.650   5.963  0.6381 -0.3516 -0.2543
 8689SOL    HW137703   0.644   4.592   6.038 -0.3360 -0.0007 -0.2187
 8689SOL    HW237704   0.574   4.686   5.948  0.0806 -0.9389  1.5441
 8690SOL     OW37705   2.938   4.371   3.185  0.4320 -0.0204 -0.0083
 8690SOL    HW137706   2.864   4.429   3.165 -0.8455 -0.7984  2.3929
 8690SOL    HW237707   2.895   4.285   3.182  1.7392 -0.7088  0.8544
 8691SOL     OW37708   2.330   2.937  12.860  0.9521 -0.1934  0.2121
 8691SOL    HW137709   2.310   2.870  12.924  1.9775 -0.8482 -0.1678
 8691SOL    HW237710   2.359   3.008  12.917  0.8217  0.0701 -0.0451
 8692SOL     OW37711   4.001   4.523   0.455  0.1387 -0.5352 -0.2206
 8692SOL    HW137712   4.000   4.618   0.471  2.0061 -0.4878 -0.4038
 8692SOL    HW237713   3.933   4.505   0.390 -0.9514 -1.0257  1.0458
 8693SOL     OW37714   3.832   2.616   9.957 -0.1162 -0.1364 -0.1456
 8693SOL    HW137715   3.914   2.648   9.994  0.4207 -1.5020 -0.1292
 8693SOL    HW237716   3.854   2.537   9.908  0.3785 -0.4956  0.6405
 8694SOL     OW37717   1.521   4.057   6.468  0.0960 -0.0067 -0.1407
 8694SOL    HW137718   1.597   4.004   6.492 -0.3313 -0.4226  0.3013
 8694SOL    HW237719   1.506   4.028   6.378 -3.5743  1.5778 -0.0591
 8695SOL     OW37720   1.201   4.201  12.091 -0.0298  0.0480  0.4867
 8695SOL    HW137721   1.290   4.212  12.124  0.6505  1.1087 -1.6979
 8695SOL    HW237722   1.152   4.223  12.170  0.1819 -0.5675  0.7858
 8696SOL     OW37723   1.572   2.461   7.837 -0.4254  0.4672 -0.1516
 8696SOL    HW137724   1.611   2.537   7.880 -0.6588  1.1040 -1.0545
 8696SOL    HW237725   1.481   2.487   7.855 -0.8869 -0.7616 -0.7379
 8697SOL     OW37726   1.610   1.782   6.777  1.0710 -0.2640  0.3651
 8697SOL    HW137727   1.632   1.721   6.847  0.7430 -0.5855  0.1938
 8697SOL    HW237728   1.695   1.823   6.765  0.6380  0.4256 -0.3698
 8698SOL     OW37729   4.352   1.332   5.592 -0.1755 -0.4448 -0.0582
 8698SOL    HW137730   4.354   1.385   5.512 -2.4869 -3.1669 -1.9275
 8698SOL    HW237731   4.386   1.249   5.559  2.3848 -0.7345  3.2662
 8699SOL     OW37732   3.156   1.672   9.875  0.3330 -0.5931  0.2857
 8699SOL    HW137733   3.211   1.647   9.949  2.0328  1.3044 -0.3411
 8699SOL    HW237734   3.215   1.728   9.825  1.2951 -1.6503  0.2397
 8700SOL     OW37735   3.659   0.553   2.925 -0.7057 -0.9469  0.4628
 8700SOL    HW137736   3.687   0.608   2.851  0.0567 -2.6664 -0.5296
 8700SOL    HW237737   3.749   0.540   2.957 -0.6798 -1.6548  0.0955
 8701SOL     OW37738   2.921   1.485   5.478  0.2868  0.2697 -0.0417
 8701SOL    HW137739   2.865   1.425   5.528 -0.7021 -0.7788 -2.4354
 8701SOL    HW237740   2.851   1.534   5.435 -0.2535  0.2793  0.8589
 8702SOL     OW37741   1.053   4.462   2.492  0.4213 -0.3167  0.2194
 8702SOL    HW137742   1.139   4.491   2.459  0.3000 -1.4010 -1.0554
 8702SOL    HW237743   1.073   4.380   2.537  0.0370 -1.1985 -1.2118
 8703SOL     OW37744   0.817   4.401   9.139 -0.3121  0.1343  0.0718
 8703SOL    HW137745   0.873   4.436   9.208  0.4311 -0.4753 -0.2266
 8703SOL    HW237746   0.743   4.462   9.148 -0.2770 -0.1432  2.2909
 8704SOL     OW37747   0.127   3.563   0.775  0.1256 -0.4332 -0.8750
 8704SOL    HW137748   0.197   3.601   0.720  1.1001 -0.5580  0.2812
 8704SOL    HW237749   0.093   3.494   0.718 -0.8148  0.6169 -1.5960
 8705SOL     OW37750   0.622   1.422   6.267 -0.0707 -0.7026  0.0835
 8705SOL    HW137751   0.664   1.395   6.348 -1.7583  0.9205  1.4952
 8705SOL    HW237752   0.618   1.517   6.280 -0.8782 -0.8828  1.1780
 8706SOL     OW37753   2.985   4.675  14.194  0.0317  0.3454 -0.0631
 8706SOL    HW137754   2.908   4.659  14.138  0.6267 -1.6613 -0.3056
 8706SOL    HW237755   2.968   4.594  14.243 -0.8851  1.8384  2.0919
 8707SOL     OW37756   3.888   1.242   2.562  0.3488 -0.5942  0.0010
 8707SOL    HW137757   3.914   1.198   2.481 -1.1853  1.4629 -1.6059
 8707SOL    HW237758   3.940   1.196   2.629  0.1173  0.9715  1.2399
 8708SOL     OW37759   4.542   4.574   2.061  0.1097  0.2030  0.1814
 8708SOL    HW137760   4.633   4.548   2.075 -0.1188  0.0169  1.3026
 8708SOL    HW237761   4.507   4.503   2.007  0.7000 -0.4038  0.6041
 8709SOL     OW37762   3.982   2.965   1.033  0.3577 -0.5159 -0.4910
 8709SOL    HW137763   3.979   2.927   1.121  1.1650  0.8324  0.1306
 8709SOL    HW237764   4.057   2.917   0.999  1.3164 -0.8981  2.1194
 8710SOL     OW37765   1.809   2.162  11.357  0.1062  0.4327 -0.3816
 8710SOL    HW137766   1.728   2.126  11.391  0.2301  1.7422  1.2697
 8710SOL    HW237767   1.795   2.145  11.264 -0.8009 -1.3095  0.0707
 8711SOL     OW37768   1.919   2.592   5.815 -0.1266 -0.3704 -0.3406
 8711SOL    HW137769   1.982   2.659   5.792 -1.4028  0.5788 -1.0538
 8711SOL    HW237770   1.971   2.518   5.846 -1.6421 -0.3986  2.1737
 8712SOL     OW37771   1.967   3.671   6.222 -0.6028 -0.2517  0.2191
 8712SOL    HW137772   1.902   3.654   6.153  0.6101 -0.2859 -0.9182
 8712SOL    HW237773   2.011   3.744   6.179 -1.2785 -1.1438 -2.0072
 8713SOL     OW37774   0.099   3.057  13.179 -0.3738 -0.1710  0.0550
 8713SOL    HW137775   0.192   3.079  13.186 -0.7027  0.5949  2.1317
 8713SOL    HW237776   0.080   3.083  13.089 -0.0547 -1.9453 -0.5229
 8714SOL     OW37777   3.698   3.621   3.010 -0.3579 -0.3393 -0.0299
 8714SOL    HW137778   3.607   3.638   3.033 -0.6108 -0.9451 -0.5913
 8714SOL    HW237779   3.718   3.699   2.958 -0.7398 -0.0794  0.2143
 8715SOL     OW37780   3.559   1.487   3.777 -0.4137 -0.1814  0.4341
 8715SOL    HW137781   3.601   1.432   3.844  0.7283 -2.3655 -2.0824
 8715SOL    HW237782   3.567   1.438   3.696  0.8894  0.6559  0.0632
 8716SOL     OW37783   4.290   2.023  13.768 -0.2534 -0.1183 -0.1748
 8716SOL    HW137784   4.264   2.103  13.813 -1.9948 -1.3430  0.9944
 8716SOL    HW237785   4.203   1.985  13.752  0.1932  0.6128 -4.5262
 8717SOL     OW37786   3.129   3.951   8.003 -0.5743 -0.2819 -0.0294
 8717SOL    HW137787   3.104   4.036   7.966 -0.6306 -0.2876 -0.0032
 8717SOL    HW237788   3.205   3.934   7.946  0.6931  0.9776  1.2607
 8718SOL     OW37789   0.666   2.038   3.796  0.0209 -0.0253  0.3905
 8718SOL    HW137790   0.747   2.007   3.835  0.4231 -1.3805 -1.5025
 8718SOL    HW237791   0.633   2.111   3.849  0.9694  0.5037  0.2463
 8719SOL     OW37792   4.646   1.613   4.974 -0.1379  0.3109  0.1452
 8719SOL    HW137793   4.573   1.559   5.002 -0.2928  1.0279  1.0837
 8719SOL    HW237794   4.722   1.555   4.964 -1.4095 -0.9649 -2.2296
 8720SOL     OW37795   3.437   1.129   5.972  0.5973  0.0136  0.0291
 8720SOL    HW137796   3.436   1.214   5.929  2.1997  0.0300 -0.0015
 8720SOL    HW237797   3.465   1.075   5.898  0.4866  0.2235 -0.1630
 8721SOL     OW37798   1.995   0.347   8.233 -0.0223 -0.3353  0.4800
 8721SOL    HW137799   2.078   0.300   8.230 -0.5654 -1.1784 -1.8744
 8721SOL    HW237800   2.011   0.427   8.282  1.1115 -0.1964 -0.1140
 8722SOL     OW37801   0.177   3.139   6.669  0.3538 -0.6441 -0.3675
 8722SOL    HW137802   0.260   3.186   6.674  1.0841 -2.2201  2.8496
 8722SOL    HW237803   0.166   3.124   6.575  0.8805 -3.6043  0.0248
 8723SOL     OW37804   4.206   3.846  10.241  0.2618  0.5188  0.6271
 8723SOL    HW137805   4.251   3.910  10.186  0.4489 -0.2905 -0.1592
 8723SOL    HW237806   4.121   3.888  10.254  0.8109  1.0000  2.6187
 8724SOL     OW37807   3.609   0.701   0.521  0.3381 -0.3886 -0.1469
 8724SOL    HW137808   3.672   0.640   0.484  2.2676  0.9781  0.8716
 8724SOL    HW237809   3.678   0.754   0.561  0.9933  0.0338 -1.8263
 8725SOL     OW37810   2.366   1.532   0.210  0.3527  0.2501 -0.0766
 8725SOL    HW137811   2.359   1.474   0.286 -0.4857  1.3820  0.7126
 8725SOL    HW237812   2.444   1.498   0.166 -0.3316 -0.3440 -0.8535
 8726SOL     OW37813   0.363   4.523   6.657  0.3224  0.3467 -0.5668
 8726SOL    HW137814   0.411   4.572   6.590  1.3766  1.5703  1.0738
 8726SOL    HW237815   0.407   4.550   6.738 -0.1454  0.8292 -0.4758
 8727SOL     OW37816   4.355   1.882  12.326  0.0981  0.5416  0.4711
 8727SOL    HW137817   4.396   1.891  12.240  0.3171  0.0984  0.5277
 8727SOL    HW237818   4.271   1.920  12.301  1.6446  4.8458  1.7285
 8728SOL     OW37819   3.586   1.168   7.671  0.1587  0.1907 -0.3771
 8728SOL    HW137820   3.555   1.124   7.592 -0.2879 -2.6525  1.3771
 8728SOL    HW237821   3.599   1.090   7.726  0.5407  2.0232  2.1578
 8729SOL     OW37822   2.311   0.584   5.441  0.2052 -0.1740 -0.1380
 8729SOL    HW137823   2.401   0.602   5.413  0.2436  1.1224  0.8521
 8729SOL    HW237824   2.284   0.534   5.364 -0.9875  0.5881 -0.2165
 8730SOL     OW37825   1.351   1.621   5.120 -0.3289  0.0137 -0.0419
 8730SOL    HW137826   1.428   1.656   5.163 -0.4411 -1.4769  1.3634
 8730SOL    HW237827   1.311   1.696   5.077 -0.9767 -0.0788  0.3913
 8731SOL     OW37828   0.786   2.490  13.921  0.3964  0.1024  0.6174
 8731SOL    HW137829   0.695   2.476  13.896  0.6079 -1.7025  0.8176
 8731SOL    HW237830   0.819   2.550  13.854  1.9952  0.1278  1.4329
 8732SOL     OW37831   2.724   3.190   6.058  0.1548 -0.0935 -0.0791
 8732SOL    HW137832   2.634   3.181   6.026 -0.6096  0.6137  1.8995
 8732SOL    HW237833   2.718   3.148   6.144 -0.4358 -1.8232 -0.9595
 8733SOL     OW37834   3.990   1.447   3.999 -0.1788  0.1269  0.0942
 8733SOL    HW137835   3.932   1.493   3.939  0.1486  0.7995  0.2943
 8733SOL    HW237836   4.051   1.406   3.937 -0.4856 -0.4138  0.1530
 8734SOL     OW37837   1.215   0.610  11.544  1.1022 -0.1101 -0.8699
 8734SOL    HW137838   1.142   0.609  11.605  2.9411 -0.5616  1.3003
 8734SOL    HW237839   1.276   0.551  11.588  0.5716  0.2394  0.3161
 8735SOL     OW37840   1.907   2.112   2.669  0.0222 -0.2181 -0.2604
 8735SOL    HW137841   1.892   2.164   2.590 -1.0722  2.1111  1.4739
 8735SOL    HW237842   1.898   2.181   2.735  1.3302  0.7466 -1.0940
 8736SOL     OW37843   0.876   3.620  11.257  0.0668  0.8107 -0.5798
 8736SOL    HW137844   0.911   3.608  11.346 -0.0238  0.3530 -0.6074
 8736SOL    HW237845   0.806   3.682  11.281  0.3537  0.2503  1.7813
 8737SOL     OW37846   2.268   3.185   3.731 -0.1396 -0.1696 -0.4084
 8737SOL    HW137847   2.201   3.188   3.798  0.7012 -1.7923  0.4864
 8737SOL    HW237848   2.267   3.274   3.693  1.8034 -0.1948 -0.5446
 8738SOL     OW37849   3.142   2.319  16.818 -0.4173 -0.3737 -0.5727
 8738SOL    HW137850   3.078   2.389  16.829  0.2032  0.2316 -0.7480
 8738SOL    HW237851   3.093   2.246  16.855 -0.7091 -0.5395 -1.2859
 8739SOL     OW37852   1.086   0.219  14.493 -0.9116  0.2429  0.5875
 8739SOL    HW137853   1.149   0.291  14.484  1.3184 -1.5474  1.9623
 8739SOL    HW237854   1.014   0.260  14.540 -0.6818  2.0142 -0.5966
 8740SOL     OW37855   4.641   2.849   8.140  0.1393 -1.1572 -0.2792
 8740SOL    HW137856   4.552   2.882   8.147  0.9247  1.2921 -1.8922
 8740SOL    HW237857   4.664   2.818   8.228  3.0942 -1.7392 -1.2376
 8741SOL     OW37858   2.005   4.560   6.506  0.0450 -0.4739  0.5708
 8741SOL    HW137859   1.985   4.646   6.470 -1.7977 -0.5210  1.4465
 8741SOL    HW237860   2.042   4.586   6.591  0.9805 -0.5928  0.2011
 8742SOL     OW37861   1.334   0.603   8.817 -0.1657  0.0659  0.2402
 8742SOL    HW137862   1.324   0.578   8.909  0.4305  0.0065  0.2873
 8742SOL    HW237863   1.420   0.645   8.823  1.1247 -2.3612 -1.8289
 8743SOL     OW37864   2.739   3.641  17.061 -0.1010 -0.1326 -0.6477
 8743SOL    HW137865   2.781   3.589  17.130  1.3492 -0.2748 -1.6232
 8743SOL    HW237866   2.730   3.584  16.984  1.2570  0.3954 -1.2098
 8744SOL     OW37867   3.778   0.093   7.642  0.0252  0.5041 -0.0884
 8744SOL    HW137868   3.784   0.179   7.598 -0.3571  0.9949  0.8147
 8744SOL    HW237869   3.688   0.067   7.619 -0.1148  0.7365  0.1876
 8745SOL     OW37870   0.975   4.136  16.634 -0.0252 -0.1267 -0.3395
 8745SOL    HW137871   0.963   4.070  16.702 -1.3989  0.3763 -0.0927
 8745SOL    HW237872   0.898   4.190  16.653  1.6486  2.6989 -1.6067
 8746SOL     OW37873   0.513   1.890   6.812  0.8603 -0.2697  0.1718
 8746SOL    HW137874   0.540   1.973   6.772 -3.2094  0.5174 -0.9093
 8746SOL    HW237875   0.583   1.875   6.876  0.3654  1.2945  1.0914
 8747SOL     OW37876   4.253   1.563  15.531  0.1350  0.4009 -0.0722
 8747SOL    HW137877   4.344   1.592  15.527  0.5086 -0.7327  0.1682
 8747SOL    HW237878   4.227   1.520  15.450  1.0738  1.9119 -1.1589
 8748SOL     OW37879   1.982   0.093  15.752 -0.2050  0.3388  0.2873
 8748SOL    HW137880   1.974   4.733  15.755 -2.0526  0.4416 -1.4077
 8748SOL    HW237881   2.046   0.114  15.685 -1.3405  1.5176 -0.4207
 8749SOL     OW37882   1.462   4.293   3.566  0.1249  0.1842  0.6625
 8749SOL    HW137883   1.506   4.332   3.642 -0.6122 -0.2108  1.2837
 8749SOL    HW237884   1.374   4.308   3.600 -0.7389  0.7380 -1.8632
 8750SOL     OW37885   1.123   0.168   1.411 -0.7687 -0.8530 -0.7792
 8750SOL    HW137886   1.039   0.145   1.449  0.0924  0.0845  1.6874
 8750SOL    HW237887   1.101   0.255   1.378  1.7586  1.0167  2.4747
 8751SOL     OW37888   2.784   3.007   4.516 -0.5529  0.1934  0.0503
 8751SOL    HW137889   2.832   3.022   4.435 -1.6039  0.3517 -0.5509
 8751SOL    HW237890   2.854   2.994   4.579 -0.7325 -0.0886  0.1906
 8752SOL     OW37891   4.622   4.717  13.063  0.1368  0.4580 -0.3018
 8752SOL    HW137892   4.675   4.709  12.985  0.9740 -0.4116  0.3534
 8752SOL    HW237893   4.676   4.670  13.127  0.8793 -0.4926 -1.6312
 8753SOL     OW37894   0.115   0.783   2.420 -0.4888 -0.2556  0.3524
 8753SOL    HW137895   0.170   0.760   2.346  0.3723  1.0767  0.5714
 8753SOL    HW237896   0.032   0.761   2.377 -0.6749  2.8763 -0.9015
 8754SOL     OW37897   0.117   0.545   5.362  0.1077 -1.0954 -0.0817
 8754SOL    HW137898   0.090   0.619   5.416  1.6767 -1.1956  0.8388
 8754SOL    HW237899   0.142   0.488   5.434 -2.2919 -0.1144  1.5374
 8755SOL     OW37900   0.650   3.821   7.372 -0.3353  0.0439  0.0323
 8755SOL    HW137901   0.566   3.778   7.353  0.1832 -0.6502 -0.6638
 8755SOL    HW237902   0.660   3.793   7.463 -1.2492  0.6347  0.3227
 8756SOL     OW37903   1.925   0.328   7.115 -0.7806  0.4495 -0.3783
 8756SOL    HW137904   1.945   0.381   7.192 -0.1197 -0.0003 -0.2394
 8756SOL    HW237905   1.999   0.268   7.124 -0.5681  0.3897 -2.6185
 8757SOL     OW37906   1.727   2.529   3.964 -0.0331  0.0164  0.4048
 8757SOL    HW137907   1.816   2.536   3.999  1.8382 -0.6644 -4.1612
 8757SOL    HW237908   1.693   2.455   4.015 -1.5135  0.4238  0.0210
 8758SOL     OW37909   4.371   1.354  10.734 -0.3604  0.3937 -0.0636
 8758SOL    HW137910   4.325   1.290  10.679  0.8479  0.0661 -0.6860
 8758SOL    HW237911   4.371   1.315  10.821  0.9807 -5.2571 -2.5655
 8759SOL     OW37912   3.309   3.120   2.965 -0.1357  0.1258 -0.1652
 8759SOL    HW137913   3.384   3.114   2.906 -0.0997 -0.1010 -0.0935
 8759SOL    HW237914   3.237   3.095   2.906 -0.2054 -0.5385  0.2038
 8760SOL     OW37915   3.831   4.027   1.858  0.2382  0.3368 -0.2221
 8760SOL    HW137916   3.864   3.948   1.901 -0.7205 -0.4663 -0.9457
 8760SOL    HW237917   3.739   3.999   1.849  0.5508 -1.4404  2.0371
 8761SOL     OW37918   1.846   3.106  11.071  0.1288  0.2555 -0.2932
 8761SOL    HW137919   1.848   3.113  11.167 -0.6542  1.1147 -0.3383
 8761SOL    HW237920   1.816   3.196  11.053  1.0216  0.7259  0.5236
 8762SOL     OW37921   2.924   2.300  16.534 -0.4333  0.0516  0.4439
 8762SOL    HW137922   2.943   2.241  16.460 -0.5335 -1.9933  2.0487
 8762SOL    HW237923   2.993   2.366  16.539 -2.0238  1.7652 -0.4325
 8763SOL     OW37924   3.996   3.231   6.543  0.5379 -0.1290  0.7098
 8763SOL    HW137925   4.011   3.324   6.525 -0.8159 -0.1935 -0.7324
 8763SOL    HW237926   3.900   3.229   6.538  0.6456 -1.5124 -0.6436
 8764SOL     OW37927   1.561   2.310   3.708 -0.1060 -0.7677  0.2883
 8764SOL    HW137928   1.510   2.274   3.780 -0.3212 -2.2563 -0.6018
 8764SOL    HW237929   1.544   2.401   3.731  1.8599 -0.2936 -0.0815
 8765SOL     OW37930   3.694   2.020  12.534  0.2086 -0.3746  0.0933
 8765SOL    HW137931   3.742   1.942  12.561  0.5029 -0.0996  0.3583
 8765SOL    HW237932   3.742   2.088  12.580 -0.3424  1.2183 -1.7140
 8766SOL     OW37933   1.171   1.656  12.824  0.3239  0.0955  0.5182
 8766SOL    HW137934   1.137   1.583  12.875  1.4274 -2.0121 -1.7400
 8766SOL    HW237935   1.130   1.731  12.868 -0.0102  1.4535 -2.0925
 8767SOL     OW37936   2.761   2.378  15.549  0.4537 -0.2259 -0.2100
 8767SOL    HW137937   2.822   2.450  15.566 -0.4085  0.6600 -0.8266
 8767SOL    HW237938   2.735   2.409  15.462 -1.7141  0.4682  0.6783
 8768SOL     OW37939   3.224   3.598   1.907 -0.0180  0.6986 -0.2484
 8768SOL    HW137940   3.283   3.582   1.980 -0.9804  1.1019  0.6110
 8768SOL    HW237941   3.251   3.524   1.852 -1.5422 -0.1431  0.1225
 8769SOL     OW37942   4.191   2.165   5.491 -0.6767 -0.1311  0.0071
 8769SOL    HW137943   4.163   2.113   5.566  2.2785 -1.2615  0.3176
 8769SOL    HW237944   4.140   2.246   5.492 -0.5333 -0.0502  0.9196
 8770SOL     OW37945   2.788   2.059   5.034 -0.3618 -0.2291  0.0019
 8770SOL    HW137946   2.837   1.989   5.075  0.1505  0.1606  0.0526
 8770SOL    HW237947   2.839   2.136   5.060 -0.1180 -0.4551  0.1860
 8771SOL     OW37948   0.996   1.205   2.038 -0.6935  0.0916  0.3103
 8771SOL    HW137949   1.007   1.292   2.001 -2.0016  0.8737  1.7745
 8771SOL    HW237950   0.902   1.190   2.031 -0.6343 -0.0866 -0.1525
 8772SOL     OW37951   0.607   1.980  11.047  0.0445  0.0926 -0.4447
 8772SOL    HW137952   0.696   2.008  11.067  0.6357 -0.3911 -2.5030
 8772SOL    HW237953   0.616   1.911  10.982 -1.6474 -0.5986  0.0524
 8773SOL     OW37954   1.333   2.413   4.643  0.1509  0.1741  0.2803
 8773SOL    HW137955   1.384   2.437   4.721  2.1910 -2.1084 -0.3710
 8773SOL    HW237956   1.272   2.345   4.673  1.7621 -1.2764  0.2302
 8774SOL     OW37957   0.643   3.567   3.530 -0.0065  0.8393  0.0127
 8774SOL    HW137958   0.564   3.543   3.579  0.7971  0.4415  1.1233
 8774SOL    HW237959   0.707   3.518   3.582  0.9134  3.8699  1.7617
 8775SOL     OW37960   2.265   3.094   8.506  0.4166 -0.3124  0.1937
 8775SOL    HW137961   2.186   3.145   8.526 -1.7264 -3.9579  1.1256
 8775SOL    HW237962   2.238   3.008   8.539  1.8439 -0.9979 -0.4255
 8776SOL     OW37963   2.355   1.869   4.720  0.0553  0.0774  0.1402
 8776SOL    HW137964   2.368   1.780   4.686 -1.5028 -1.0814  2.5024
 8776SOL    HW237965   2.360   1.921   4.640  0.1251 -0.1857 -0.0266
 8777SOL     OW37966   1.228   3.302  10.472  0.2383 -0.1542  0.2732
 8777SOL    HW137967   1.322   3.298  10.456  0.3484 -0.6748  1.0518
 8777SOL    HW237968   1.217   3.261  10.558  2.4514 -1.2988 -0.0069
 8778SOL     OW37969   3.586   2.965  15.758  0.2892  0.1033  0.6971
 8778SOL    HW137970   3.498   2.938  15.784  0.4300 -1.9627 -0.9538
 8778SOL    HW237971   3.612   2.885  15.711  0.5830 -0.7173  2.2660
 8779SOL     OW37972   1.762   3.364  16.593 -0.1386 -0.2427  0.7952
 8779SOL    HW137973   1.816   3.441  16.606 -1.0532  0.9181 -2.4126
 8779SOL    HW237974   1.768   3.332  16.683 -0.5400  1.3888  1.3955
 8780SOL     OW37975   2.396   3.593   7.790 -0.2652  1.0629 -0.8289
 8780SOL    HW137976   2.397   3.628   7.879  1.0219 -3.2475  0.8281
 8780SOL    HW237977   2.305   3.565   7.786 -0.9027  3.2931 -1.9552
 8781SOL     OW37978   3.213   3.076   0.889 -0.0934 -0.1303  0.4166
 8781SOL    HW137979   3.210   2.982   0.902  2.0219 -0.3921 -0.9649
 8781SOL    HW237980   3.119   3.095   0.880  0.1295  0.6868 -0.2166
 8782SOL     OW37981   0.459   2.192   5.445 -0.0937 -0.7337 -0.2937
 8782SOL    HW137982   0.373   2.210   5.484 -0.0047 -0.4648 -0.2220
 8782SOL    HW237983   0.517   2.262   5.476 -0.1253 -0.9782  0.3115
 8783SOL     OW37984   4.546   1.969   9.558 -0.3081  0.5459  0.4545
 8783SOL    HW137985   4.542   1.891   9.503 -2.6608  0.3966  0.8594
 8783SOL    HW237986   4.604   1.932   9.625 -0.5023  0.2987  0.4855
 8784SOL     OW37987   1.569   3.912   5.698  0.2804  0.1156  0.1500
 8784SOL    HW137988   1.619   3.911   5.780  1.3630  1.3613 -0.4925
 8784SOL    HW237989   1.540   4.003   5.693  4.3857  1.4288  0.1572
 8785SOL     OW37990   1.697   0.001   4.087  0.6773 -0.5627 -0.6066
 8785SOL    HW137991   1.760   0.044   4.028  0.5755 -2.7282 -2.2988
 8785SOL    HW237992   1.647   0.076   4.119 -0.9971 -2.2466  0.6999
 8786SOL     OW37993   1.168   3.220  15.276  0.3148  0.7393 -0.0328
 8786SOL    HW137994   1.118   3.142  15.254  0.8954  0.4591 -0.3853
 8786SOL    HW237995   1.177   3.271  15.195 -3.1807 -1.7839 -1.9964
 8787SOL     OW37996   3.421   2.092  13.610  0.2558 -0.7783  0.6819
 8787SOL    HW137997   3.467   2.022  13.656  1.3566  0.1009  0.9071
 8787SOL    HW237998   3.346   2.124  13.660 -0.1753  1.0658 -1.1132
 8788SOL     OW37999   2.757   1.507   4.154 -0.6900 -0.9783 -0.3684
 8788SOL    HW138000   2.802   1.588   4.132 -0.5072 -0.4811  1.8238
 8788SOL    HW238001   2.665   1.525   4.132 -0.4820  1.5080  0.7959
 8789SOL     OW38002   3.842   3.176   0.955 -0.2849  0.2437  0.3067
 8789SOL    HW138003   3.896   3.108   0.997  0.4399  1.2133  0.9378
 8789SOL    HW238004   3.846   3.154   0.862 -0.4295  0.2388  0.3030
 8790SOL     OW38005   2.493   1.759   7.201 -0.5693  1.1021  0.2314
 8790SOL    HW138006   2.570   1.810   7.175 -0.3775  0.2496 -0.9357
 8790SOL    HW238007   2.417   1.817   7.200  0.2775  2.1826 -1.0438
 8791SOL     OW38008   2.509   0.801  17.258 -0.4869  0.3494  0.2006
 8791SOL    HW138009   2.425   0.794  17.213  1.0695  0.6523 -2.7830
 8791SOL    HW238010   2.554   0.725  17.221  0.3110  1.2363 -0.6542
 8792SOL     OW38011   4.234   0.309   2.843 -0.1970  0.1914  0.3615
 8792SOL    HW138012   4.292   0.373   2.802  0.8668 -0.2736  1.1801
 8792SOL    HW238013   4.208   0.363   2.918  0.2711 -0.9355  1.3277
 8793SOL     OW38014   0.514   3.624   1.720  0.2432 -0.9088  0.5265
 8793SOL    HW138015   0.495   3.578   1.801 -0.5251 -0.5505  0.5549
 8793SOL    HW238016   0.536   3.710   1.756 -0.6132 -1.9605  3.5378
 8794SOL     OW38017   0.940   3.308   3.407  0.4304 -0.3429 -0.4222
 8794SOL    HW138018   1.013   3.308   3.345 -0.5614 -1.6434 -1.5918
 8794SOL    HW238019   0.973   3.236   3.461  0.0558 -0.1544  0.0571
 8795SOL     OW38020   1.700   4.323   4.865  0.1070 -0.3405 -0.6366
 8795SOL    HW138021   1.655   4.344   4.783  1.3061 -0.3457 -1.2909
 8795SOL    HW238022   1.673   4.398   4.917  0.1638 -1.7549  1.4160
 8796SOL     OW38023   3.348   2.303   5.667  0.2389 -0.1027 -0.5079
 8796SOL    HW138024   3.395   2.382   5.693  1.0830 -1.4505  2.0678
 8796SOL    HW238025   3.408   2.280   5.596 -0.4623 -2.8608 -0.2064
 8797SOL     OW38026   2.620   3.101  14.127  0.2638  0.3880  0.1146
 8797SOL    HW138027   2.701   3.144  14.100 -1.2024  2.7924 -0.4258
 8797SOL    HW238028   2.564   3.173  14.153  0.9199  1.6602 -1.9820
 8798SOL     OW38029   4.033   4.065  11.501  0.0919 -0.0435 -0.5365
 8798SOL    HW138030   4.110   4.120  11.517  0.3534 -0.8603  1.0010
 8798SOL    HW238031   4.034   4.066  11.405  0.9556 -2.1708 -0.5327
 8799SOL     OW38032   2.870   4.619   5.178  1.2821 -0.5039  0.1529
 8799SOL    HW138033   2.786   4.659   5.154  0.8651 -2.6608 -1.9772
 8799SOL    HW238034   2.871   4.542   5.122  4.0873 -0.4754  0.1667
 8800SOL     OW38035   0.525   2.606  14.223  0.2045  0.4111 -0.5083
 8800SOL    HW138036   0.443   2.558  14.209  0.6912 -1.0971  1.6197
 8800SOL    HW238037   0.585   2.534  14.242 -1.7354 -1.1079 -0.0922
 8801SOL     OW38038   1.353   2.154  12.234  0.4039 -0.1899 -0.2692
 8801SOL    HW138039   1.408   2.085  12.198  3.0407  2.6183 -1.5709
 8801SOL    HW238040   1.297   2.114  12.301 -1.1190  1.7133 -0.4000
 8802SOL     OW38041   3.456   2.130  16.285 -0.3432  0.0639 -0.1993
 8802SOL    HW138042   3.446   2.037  16.262 -0.7406 -0.3353  1.6346
 8802SOL    HW238043   3.401   2.180  16.224 -0.4432 -0.1490 -0.2863
 8803SOL     OW38044   4.264   0.247   4.705 -0.2744 -0.7355 -0.3353
 8803SOL    HW138045   4.181   0.290   4.684  1.3958  0.5671 -4.2377
 8803SOL    HW238046   4.227   0.201   4.780  0.8011 -0.9325  0.0683
 8804SOL     OW38047   0.193   3.965   3.798  0.7823  0.2370 -0.0825
 8804SOL    HW138048   0.151   4.039   3.842  3.2415  2.2617 -1.1027
 8804SOL    HW238049   0.129   3.953   3.728 -0.4726  2.0385  0.7462
 8805SOL     OW38050   0.266   2.393   5.301 -0.2669 -0.4631 -0.6787
 8805SOL    HW138051   0.257   2.326   5.368 -2.3200  0.0967 -0.3749
 8805SOL    HW238052   0.177   2.405   5.266 -0.5479  1.1191  0.5604
 8806SOL     OW38053   4.481   1.442  14.487  0.3059 -0.1467  0.0358
 8806SOL    HW138054   4.534   1.479  14.416  1.2897  2.0072  1.8486
 8806SOL    HW238055   4.552   1.398  14.534  0.0381 -0.8816 -0.2619
 8807SOL     OW38056   1.748   0.080  15.580 -0.1924 -0.3712 -0.0451
 8807SOL    HW138057   1.717   4.731  15.547 -2.6140  0.2640  0.6186
 8807SOL    HW238058   1.826   0.060  15.632  0.4490  2.1130 -0.0428
 8808SOL     OW38059   2.118   4.178  14.301  0.1580 -0.4592  0.2518
 8808SOL    HW138060   2.055   4.241  14.335 -0.8753 -1.8118  0.8522
 8808SOL    HW238061   2.202   4.223  14.313 -0.2489  0.4359 -0.2934
 8809SOL     OW38062   0.232   0.445   5.139 -0.1391  0.5149 -0.7254
 8809SOL    HW138063   0.196   0.463   5.226  1.3116  2.5694 -0.5593
 8809SOL    HW238064   0.217   0.351   5.127  0.1582  0.1211  2.1100
 8810SOL     OW38065   0.956   1.020   9.311  0.1173 -0.1263 -0.2396
 8810SOL    HW138066   1.028   1.043   9.253 -1.3686  1.3437 -1.4981
 8810SOL    HW238067   0.944   0.926   9.295 -2.5921  0.2422 -0.4787
 8811SOL     OW38068   3.126   1.673  14.274 -0.5537  0.0478 -0.4166
 8811SOL    HW138069   3.145   1.692  14.366  0.6465 -0.5137 -0.5385
 8811SOL    HW238070   3.041   1.714  14.261 -2.0312 -1.9823  2.7540
 8812SOL     OW38071   4.191   4.589   0.146  0.1454 -0.6708  0.2672
 8812SOL    HW138072   4.132   4.601   0.220 -0.0212 -0.2595  0.0697
 8812SOL    HW238073   4.239   4.507   0.161  0.2838 -0.5248  0.6268
 8813SOL     OW38074   4.382   0.597   6.016 -0.5996 -0.9981 -0.2258
 8813SOL    HW138075   4.408   0.526   6.074 -0.2364 -1.7990 -1.3511
 8813SOL    HW238076   4.312   0.633   6.070 -1.3044 -1.4749 -0.8160
 8814SOL     OW38077   0.960   3.333  13.685  0.4045 -0.1541 -0.2151
 8814SOL    HW138078   0.877   3.358  13.724  2.0168  2.5748  1.4399
 8814SOL    HW238079   0.954   3.375  13.600  0.4007  3.1321  1.4262
 8815SOL     OW38080   4.386   0.967  11.575 -0.1718 -1.1200 -0.1796
 8815SOL    HW138081   4.407   0.941  11.485 -1.5938 -0.6765 -0.6383
 8815SOL    HW238082   4.446   0.903  11.615 -0.4558 -1.6220 -0.5568
 8816SOL     OW38083   2.188   0.210   7.951  0.7964 -0.2167  0.6964
 8816SOL    HW138084   2.201   0.184   8.043 -0.2668 -2.0389  0.3231
 8816SOL    HW238085   2.097   0.240   7.947  0.4964 -1.0281  1.4032
 8817SOL     OW38086   4.524   4.548   7.693  0.4481 -0.6376  0.1675
 8817SOL    HW138087   4.518   4.512   7.782  0.2425 -0.5643  0.1837
 8817SOL    HW238088   4.618   4.565   7.694  0.2395  0.4711  0.0807
 8818SOL     OW38089   3.246   2.399   3.520  0.7376  0.1538 -0.0244
 8818SOL    HW138090   3.299   2.450   3.459  0.6731 -1.7372 -1.6467
 8818SOL    HW238091   3.305   2.324   3.529  0.1043 -0.3618 -0.2229
 8819SOL     OW38092   1.863   4.266   9.282  0.5636 -0.0664 -0.3065
 8819SOL    HW138093   1.902   4.181   9.259  0.5449 -0.1551 -0.0112
 8819SOL    HW238094   1.771   4.242   9.289  0.0258  1.7975 -0.8965
 8820SOL     OW38095   3.702   0.794   8.227 -0.1550 -0.0051  0.2041
 8820SOL    HW138096   3.638   0.773   8.294  0.0588  0.7495  0.6446
 8820SOL    HW238097   3.651   0.764   8.151 -0.4219  1.2538 -0.1232
 8821SOL     OW38098   2.074   3.079   1.651  0.2179 -0.0385 -0.2832
 8821SOL    HW138099   2.085   2.990   1.684 -2.1321  0.1357  0.9859
 8821SOL    HW238100   1.981   3.091   1.674 -0.0218  2.1770 -2.5412
 8822SOL     OW38101   1.689   0.413  12.403 -0.1917  0.0749  0.3033
 8822SOL    HW138102   1.703   0.494  12.355  1.0460 -0.3888 -0.1011
 8822SOL    HW238103   1.766   0.370  12.368 -0.3622  0.6233 -0.7258
 8823SOL     OW38104   2.634   4.335   5.102  0.2668 -0.0915 -0.1738
 8823SOL    HW138105   2.586   4.320   5.020 -0.9190  1.3660  0.2590
 8823SOL    HW238106   2.708   4.391   5.079 -0.0221  0.9737  1.5011
 8824SOL     OW38107   3.850   1.998   7.927 -0.2173 -0.6870 -0.2449
 8824SOL    HW138108   3.896   1.990   7.844  0.8667  0.8999  0.2121
 8824SOL    HW238109   3.885   1.936   7.992  0.1160 -0.2079  0.0322
 8825SOL     OW38110   3.832   2.444   7.311  0.0242 -0.8876  0.2399
 8825SOL    HW138111   3.768   2.380   7.341 -1.9001  0.5484 -0.8269
 8825SOL    HW238112   3.771   2.517   7.307  0.7445 -0.3925 -1.7270
 8826SOL     OW38113   3.714   3.243   6.528  0.1778 -0.3893 -0.0741
 8826SOL    HW138114   3.718   3.337   6.546  1.5217  0.0586 -2.7155
 8826SOL    HW238115   3.625   3.232   6.495  0.0950 -1.4873  0.5154
 8827SOL     OW38116   0.156   3.127   6.377 -0.1622 -0.8079  0.0737
 8827SOL    HW138117   0.200   3.201   6.337  0.2831  0.4430  2.8333
 8827SOL    HW238118   0.075   3.178   6.379  0.5529  0.3050  0.1372
 8828SOL     OW38119   2.306   2.442   6.962  0.8812 -0.1413 -0.0072
 8828SOL    HW138120   2.328   2.512   7.023 -1.6825  0.8492 -0.2270
 8828SOL    HW238121   2.370   2.454   6.892  0.4176  1.1991 -0.1974
 8829SOL     OW38122   0.925   2.066   5.504  0.3532 -0.2949 -0.5032
 8829SOL    HW138123   0.833   2.043   5.488  0.8507 -1.4669 -1.7638
 8829SOL    HW238124   0.928   2.152   5.545  0.0037 -0.1998 -0.6720
 8830SOL     OW38125   0.082   0.462   1.998  0.2110 -0.2540  0.1393
 8830SOL    HW138126   0.159   0.438   2.051 -0.1773  0.6037  1.0922
 8830SOL    HW238127   0.134   0.479   1.920 -0.4540  0.0548 -0.2359
 8831SOL     OW38128   2.828   1.774  14.485 -0.5088  0.6766 -0.1349
 8831SOL    HW138129   2.838   1.796  14.393  0.1120  0.8835 -0.0180
 8831SOL    HW238130   2.808   1.681  14.475  1.7997  0.2362 -0.7976
 8832SOL     OW38131   2.341   1.897   6.674 -0.0946 -0.0202  0.5315
 8832SOL    HW138132   2.284   1.948   6.616  0.1396  0.6211  0.8656
 8832SOL    HW238133   2.287   1.819   6.686 -0.7000  0.1979 -0.7955
 8833SOL     OW38134   4.615   2.155  16.500 -0.5096 -0.2559  0.1266
 8833SOL    HW138135   4.687   2.198  16.453  0.5816 -1.5317  0.6000
 8833SOL    HW238136   4.664   2.089  16.550 -0.6234 -0.7949 -0.4805
 8834SOL     OW38137   2.282   3.116   1.076 -0.7195 -0.0229 -0.2575
 8834SOL    HW138138   2.325   3.049   1.023  1.5070  0.3923  0.9915
 8834SOL    HW238139   2.329   3.121   1.160  1.2934 -2.8861 -1.2456
 8835SOL     OW38140   1.698   2.598   6.016  0.2101 -0.2080 -0.3405
 8835SOL    HW138141   1.767   2.589   5.950  1.8020  0.6169  1.2122
 8835SOL    HW238142   1.722   2.534   6.083  2.1499  0.2882 -0.5710
 8836SOL     OW38143   4.552   1.600   0.017 -0.6327 -0.4510 -0.4033
 8836SOL    HW138144   4.501   1.586   0.097 -2.6083 -1.0072 -1.7515
 8836SOL    HW238145   4.560   1.507  17.734 -0.5997  0.5354 -4.3534
 8837SOL     OW38146   1.026   1.918   2.272 -0.1226  0.0477  0.5999
 8837SOL    HW138147   0.978   1.895   2.192 -0.7389  0.5898  0.8124
 8837SOL    HW238148   1.091   1.850   2.283  0.3158  0.6382  1.6207
 8838SOL     OW38149   3.586   2.283   6.101 -0.3567 -0.7628  0.4879
 8838SOL    HW138150   3.579   2.358   6.160  1.3061  0.5017 -0.9010
 8838SOL    HW238151   3.663   2.242   6.140 -0.8627 -0.1756  2.0936
 8839SOL     OW38152   2.286   2.770   7.522  0.1953 -0.6723  0.1902
 8839SOL    HW138153   2.367   2.719   7.517  1.9028  2.2526 -1.6716
 8839SOL    HW238154   2.284   2.806   7.433 -0.1373 -2.7784 -0.6762
 8840SOL     OW38155   0.115   4.244  17.584 -0.0698 -0.3035 -0.6233
 8840SOL    HW138156   0.155   4.177  17.530 -1.5210  0.2027 -2.3154
 8840SOL    HW238157   0.046   4.268  17.523  1.3346 -1.2203 -2.5495
 8841SOL     OW38158   2.675   2.656   1.286  0.4235  0.3622  0.5682
 8841SOL    HW138159   2.612   2.669   1.216  1.0438 -1.0284 -0.2325
 8841SOL    HW238160   2.684   2.561   1.293 -0.2747  0.3269  1.0142
 8842SOL     OW38161   4.113   2.492   6.146 -0.6433 -0.7241 -0.5383
 8842SOL    HW138162   4.034   2.477   6.093 -1.2832 -2.0211  0.7825
 8842SOL    HW238163   4.072   2.562   6.197 -0.3937 -1.5652  0.8150
 8843SOL     OW38164   1.270   1.372  16.354  0.3448  0.3516  0.1664
 8843SOL    HW138165   1.178   1.361  16.330  1.1207  0.1224 -2.6782
 8843SOL    HW238166   1.296   1.425  16.279  0.8326 -2.6930 -1.7976
 8844SOL     OW38167   3.220   1.831   4.316  0.6157 -0.1373  0.0195
 8844SOL    HW138168   3.276   1.813   4.391 -0.3892  0.6989  0.9715
 8844SOL    HW238169   3.279   1.890   4.269  1.6728  1.7429  3.7449
 8845SOL     OW38170   2.499   2.501   6.777  0.0289  0.5048 -0.8480
 8845SOL    HW138171   2.582   2.547   6.764  0.5928  0.0853  1.3306
 8845SOL    HW238172   2.522   2.415   6.740  0.5580  0.9425 -1.5339
 8846SOL     OW38173   0.230   4.029  17.456  0.3054  0.4486  0.5515
 8846SOL    HW138174   0.308   3.974  17.459  1.0030  1.2826 -1.9322
 8846SOL    HW238175   0.166   3.960  17.438  0.4586  0.6403 -0.7351
 8847SOL     OW38176   3.165   3.383   5.334 -0.1036  0.1265  0.1774
 8847SOL    HW138177   3.093   3.367   5.395 -1.0586  0.3883 -0.8899
 8847SOL    HW238178   3.227   3.435   5.386 -1.0553 -1.3431  2.7820
 8848SOL     OW38179   4.595   2.134   2.710 -0.0458 -0.4416 -0.3152
 8848SOL    HW138180   4.556   2.053   2.676 -1.2888 -0.3175  0.8153
 8848SOL    HW238181   4.538   2.203   2.676  1.4079  1.0541  0.2596
 8849SOL     OW38182   3.966   3.201   6.244 -0.2412 -0.1390 -0.2389
 8849SOL    HW138183   3.960   3.288   6.204  0.5761  0.2847  0.5748
 8849SOL    HW238184   3.947   3.221   6.335 -0.7432  0.0560 -0.3844
 8850SOL     OW38185   4.386   1.570  11.176  0.4777  0.0527  0.0519
 8850SOL    HW138186   4.450   1.563  11.105 -1.1333 -1.4097 -1.2566
 8850SOL    HW238187   4.433   1.631  11.233 -0.5860  0.7208  0.2257
 8851SOL     OW38188   2.460   0.988   8.280  0.0529 -0.3160 -0.1570
 8851SOL    HW138189   2.496   0.907   8.317 -0.2303 -0.6118 -0.5245
 8851SOL    HW238190   2.371   0.976   8.313 -0.4312 -0.5355 -1.5389
 8852SOL     OW38191   0.366   1.670   7.886 -0.6148  0.2336 -0.0132
 8852SOL    HW138192   0.438   1.730   7.867 -0.5000  0.2338  0.4218
 8852SOL    HW238193   0.325   1.714   7.960 -0.3238  0.1535  0.1951
 8853SOL     OW38194   4.224   0.253   6.531  0.4949 -0.3952  0.0915
 8853SOL    HW138195   4.196   0.185   6.469  0.8707  1.2259 -1.8757
 8853SOL    HW238196   4.153   0.258   6.595 -0.3204 -0.6359 -0.7963
 8854SOL     OW38197   4.575   1.278  14.847 -0.6417 -0.2842 -0.2819
 8854SOL    HW138198   4.634   1.331  14.794  0.9100 -1.9052 -0.1870
 8854SOL    HW238199   4.503   1.248  14.792  0.1033  0.5773 -1.7305
 8855SOL     OW38200   0.466   0.453   7.828 -0.4764  0.1635 -0.1945
 8855SOL    HW138201   0.557   0.442   7.802 -0.0158  2.5142  0.4218
 8855SOL    HW238202   0.472   0.548   7.842 -0.2054 -0.3224  3.0047
 8856SOL     OW38203   3.230   2.737   8.270  0.9144  0.3444  0.2955
 8856SOL    HW138204   3.208   2.741   8.176 -0.3190 -1.1947  0.5112
 8856SOL    HW238205   3.237   2.827   8.302  1.8671 -0.0279  1.1307
 8857SOL     OW38206   0.128   0.140  13.344  0.2416  0.2171  0.3830
 8857SOL    HW138207   0.083   0.057  13.357 -0.0052  0.5584  1.7150
 8857SOL    HW238208   0.199   0.127  13.407  0.6069  0.0257 -0.0683
 8858SOL     OW38209   0.006   2.441  12.215  0.3446  0.9763 -0.1795
 8858SOL    HW138210   0.083   2.468  12.266 -1.2114 -0.9526  3.1958
 8858SOL    HW238211   4.679   2.509  12.241 -0.4738 -0.7809  2.4267
 8859SOL     OW38212   1.862   4.535   7.328 -0.1934 -0.5628 -0.4292
 8859SOL    HW138213   1.869   4.624   7.295  0.5510 -0.0677  1.0416
 8859SOL    HW238214   1.951   4.502   7.319 -0.5195 -2.1272  1.9110
 8860SOL     OW38215   3.134   0.791   3.731  0.4456 -0.2520 -0.1904
 8860SOL    HW138216   3.088   0.720   3.687  0.4816 -1.5413  1.8892
 8860SOL    HW238217   3.215   0.790   3.679  0.1067  0.8551 -0.7306
 8861SOL     OW38218   3.972   3.978   6.165 -0.4010 -0.2420 -0.4358
 8861SOL    HW138219   4.055   3.938   6.191  0.4100  3.7860  3.2078
 8861SOL    HW238220   4.002   4.068   6.182 -1.8570  0.0805  0.4182
 8862SOL     OW38221   4.320   0.936  14.518  0.3805 -0.2525  0.1553
 8862SOL    HW138222   4.349   0.869  14.457  0.8839 -0.3721  0.5260
 8862SOL    HW238223   4.381   0.917  14.589  0.4758  0.8751  0.3798
 8863SOL     OW38224   0.225   1.022   3.374 -0.1633 -0.4490  0.7907
 8863SOL    HW138225   0.277   0.998   3.297  0.0968  0.9557  0.5358
 8863SOL    HW238226   0.168   0.945   3.379 -2.1335  0.9574 -0.4653
 8864SOL     OW38227   2.938   1.883   5.175  0.0250 -0.0142  0.5327
 8864SOL    HW138228   2.972   1.854   5.259 -1.5278  0.5978  1.3725
 8864SOL    HW238229   2.963   1.802   5.130 -0.9336  0.9436 -1.7421
 8865SOL     OW38230   3.741   2.625  14.757 -0.2570  0.6959 -0.0533
 8865SOL    HW138231   3.784   2.636  14.841  2.3451  0.4104 -1.3529
 8865SOL    HW238232   3.809   2.659  14.699 -0.6298 -0.1432 -0.9847
 8866SOL     OW38233   0.387   2.116  17.416  0.2643  0.3750  0.1584
 8866SOL    HW138234   0.384   2.208  17.391  2.1460  0.4650  0.2166
 8866SOL    HW238235   0.447   2.129  17.490 -0.2088  2.1368  0.2272
 8867SOL     OW38236   3.353   0.710  14.360 -0.6159  0.4646 -0.0546
 8867SOL    HW138237   3.319   0.796  14.333 -1.8141  0.6759  2.1215
 8867SOL    HW238238   3.329   0.712  14.452 -0.2021 -1.7170  0.0934
 8868SOL     OW38239   4.484   3.006   2.864  0.1511  0.4545 -0.1389
 8868SOL    HW138240   4.419   3.061   2.909  2.0635  0.9594  2.0291
 8868SOL    HW238241   4.433   2.983   2.786  1.2387  2.7515 -1.5262
 8869SOL     OW38242   3.008   1.610   4.415 -0.2688  1.1577  0.9841
 8869SOL    HW138243   3.054   1.674   4.362 -1.9008  1.1726 -0.4254
 8869SOL    HW238244   3.075   1.572   4.472 -1.0682 -0.3573  0.9317
 8870SOL     OW38245   0.825   4.619   2.467 -0.1032  0.4273 -0.0842
 8870SOL    HW138246   0.910   4.575   2.472  0.6229  1.9712  1.0616
 8870SOL    HW238247   0.810   4.620   2.373  1.6772  0.1319 -0.3783
 8871SOL     OW38248   0.041   0.790   6.869  0.1060 -0.1683 -0.1461
 8871SOL    HW138249   4.723   0.846   6.812 -0.1910 -1.1139 -0.8154
 8871SOL    HW238250   0.086   0.726   6.813 -0.7926 -0.4491 -0.5598
 8872SOL     OW38251   0.479   0.696   3.683  0.1485 -0.2899  0.0283
 8872SOL    HW138252   0.458   0.775   3.732  1.6524 -0.0515  0.2816
 8872SOL    HW238253   0.395   0.652   3.667  1.2759 -2.5537  0.3277
 8873SOL     OW38254   1.805   1.637   2.224  0.2209  0.2403 -0.4138
 8873SOL    HW138255   1.896   1.649   2.198  0.6054  0.4033  0.9942
 8873SOL    HW238256   1.764   1.675   2.147  2.5682  2.5845 -0.5095
 8874SOL     OW38257   0.258   3.977   5.112  0.1421  0.5585 -0.3530
 8874SOL    HW138258   0.222   4.009   5.194 -0.2819  2.5964 -1.3312
 8874SOL    HW238259   0.180   3.946   5.067  0.5264  0.3681 -0.8895
 8875SOL     OW38260   4.389   3.400   8.559 -0.5263  0.1482  0.2823
 8875SOL    HW138261   4.442   3.430   8.484 -0.3689  2.3221  1.2718
 8875SOL    HW238262   4.393   3.482   8.608 -1.6707  1.0931 -1.1988
 8876SOL     OW38263   3.303   0.259   9.377  0.6464 -0.4685  0.1590
 8876SOL    HW138264   3.290   0.320   9.450  0.8700  0.4435 -0.5598
 8876SOL    HW238265   3.368   0.310   9.328  0.8200  0.0270  0.9081
 8877SOL     OW38266   3.225   0.041   9.584 -0.1859  0.3349 -0.2845
 8877SOL    HW138267   3.276   0.059   9.505 -0.4718  0.6333 -0.3996
 8877SOL    HW238268   3.149   0.098   9.576 -0.1902  0.2153 -1.0712
 8878SOL     OW38269   4.288   4.318  16.404  0.1003  0.9260 -0.4003
 8878SOL    HW138270   4.261   4.389  16.346 -0.8744  0.2947 -0.7015
 8878SOL    HW238271   4.366   4.362  16.441  2.0673 -1.6160 -1.5606
 8879SOL     OW38272   2.799   0.095   7.610  0.1750 -0.0251  0.2092
 8879SOL    HW138273   2.866   0.121   7.673  0.4853  2.4479 -1.1464
 8879SOL    HW238274   2.835   0.012   7.580  3.1263  0.1053  3.4352
 8880SOL     OW38275   2.029   3.959   3.380  1.0647 -0.2378  0.2721
 8880SOL    HW138276   2.106   3.918   3.420  0.2487 -1.6083  0.4142
 8880SOL    HW238277   1.968   3.886   3.377  0.2539  0.4463  0.1929
 8881SOL     OW38278   4.202   3.167  11.252  0.6693  0.3811 -0.4986
 8881SOL    HW138279   4.252   3.107  11.195  0.6140  1.0723 -1.2642
 8881SOL    HW238280   4.275   3.220  11.284  0.2258 -1.4312  3.5158
 8882SOL     OW38281   3.733   0.180   7.043  0.4228  0.4635  0.0664
 8882SOL    HW138282   3.730   0.173   6.947 -0.9636  3.1150 -0.0841
 8882SOL    HW238283   3.795   0.249   7.067 -0.0655  0.8303  0.2702
 8883SOL     OW38284   2.082   3.305   6.366 -0.2986 -0.0360 -0.4061
 8883SOL    HW138285   2.096   3.385   6.418  2.1367 -1.1599  0.6720
 8883SOL    HW238286   2.113   3.237   6.426 -1.4914 -1.9767 -2.0069
 8884SOL     OW38287   1.801   4.106   1.872 -0.3790  0.3478  0.4958
 8884SOL    HW138288   1.850   4.188   1.870 -0.8074  0.5370 -1.5897
 8884SOL    HW238289   1.822   4.084   1.963 -1.6729 -0.5693  0.5779
 8885SOL     OW38290   0.777   0.591  12.881 -0.3098  0.3264 -0.3679
 8885SOL    HW138291   0.706   0.555  12.829  0.9281  0.4353 -2.1346
 8885SOL    HW238292   0.847   0.597  12.816 -0.6137 -1.2242 -0.8387
 8886SOL     OW38293   0.239   2.017   3.386  0.4857 -0.5391 -0.1373
 8886SOL    HW138294   0.193   1.957   3.328 -0.3248 -1.2619  1.2731
 8886SOL    HW238295   0.328   2.011   3.350  0.4500 -1.5210 -0.0470
 8887SOL     OW38296   3.018   3.329   6.734  0.0770 -0.3232  0.1876
 8887SOL    HW138297   3.010   3.411   6.782 -0.6908 -0.3496  0.1097
 8887SOL    HW238298   2.982   3.267   6.798 -2.7433  2.5321  1.3838
 8888SOL     OW38299   2.659   2.039   8.007  0.2815 -0.4860 -0.1240
 8888SOL    HW138300   2.690   2.113   7.955  0.2833 -2.1575 -2.5038
 8888SOL    HW238301   2.604   1.989   7.946  0.0173 -1.6020  1.0334
 8889SOL     OW38302   1.754   3.839   7.876  0.1703  0.2429 -0.1639
 8889SOL    HW138303   1.714   3.895   7.942 -0.9079 -0.1775 -0.4457
 8889SOL    HW238304   1.736   3.889   7.796 -1.5617  0.3651  0.2994
 8890SOL     OW38305   3.066   4.570   7.803 -0.0735  0.3054 -0.0554
 8890SOL    HW138306   3.154   4.563   7.842  0.9447 -0.3042 -2.4410
 8890SOL    HW238307   3.078   4.608   7.716 -1.7852  2.6050  0.7451
 8891SOL     OW38308   0.133   4.514  12.154 -0.6021  0.4964  0.0232
 8891SOL    HW138309   0.094   4.457  12.220  0.5021 -0.4493 -0.1558
 8891SOL    HW238310   0.227   4.519  12.169 -0.5399 -0.3206 -0.0642
 8892SOL     OW38311   2.461   2.648   4.403  0.2633  0.0499  0.2916
 8892SOL    HW138312   2.440   2.702   4.327 -1.8976 -1.1007  0.0706
 8892SOL    HW238313   2.374   2.613   4.423 -0.1492  0.3466 -0.9979
 8893SOL     OW38314   0.755   2.174   7.828  0.2048  0.1665 -0.1152
 8893SOL    HW138315   0.821   2.123   7.876 -0.1235  0.4590  0.6601
 8893SOL    HW238316   0.688   2.165   7.896 -0.0649  1.6552 -0.1827
 8894SOL     OW38317   0.901   3.163   2.580  0.1955  0.1167 -0.0159
 8894SOL    HW138318   0.855   3.199   2.656  0.1274 -0.1577  0.0713
 8894SOL    HW238319   0.865   3.075   2.575  0.2761  0.0914 -0.1411
 8895SOL     OW38320   1.845   0.520  15.894  0.1313  0.3152 -0.7806
 8895SOL    HW138321   1.762   0.493  15.855  0.6336 -0.0240 -1.6115
 8895SOL    HW238322   1.897   0.526  15.814  0.1040 -0.7218 -0.8780
 8896SOL     OW38323   2.443   3.155  16.938 -0.1606 -0.5840 -0.6877
 8896SOL    HW138324   2.453   3.079  16.995 -0.4255 -0.1668 -0.0801
 8896SOL    HW238325   2.428   3.122  16.849  2.0367 -0.8525 -0.9616
 8897SOL     OW38326   2.194   2.182  15.801 -0.2155 -0.2353  0.0336
 8897SOL    HW138327   2.214   2.096  15.838  0.9466 -1.0741 -2.5601
 8897SOL    HW238328   2.192   2.242  15.876  0.2591 -1.4902  1.0485
 8898SOL     OW38329   1.628   2.113  13.108 -0.2279 -0.0422  0.1686
 8898SOL    HW138330   1.563   2.052  13.145 -0.1978 -0.9615 -1.3080
 8898SOL    HW238331   1.622   2.181  13.175 -1.2546  0.7428 -0.7104
 8899SOL     OW38332   2.581   1.481  17.214  0.1189  0.4633 -0.3770
 8899SOL    HW138333   2.632   1.401  17.230  0.8543  0.6854 -1.6466
 8899SOL    HW238334   2.638   1.526  17.151  0.5221  3.5426  2.1642
 8900SOL     OW38335   2.859   2.854  15.877 -0.1974 -0.1089 -0.3171
 8900SOL    HW138336   2.800   2.806  15.934 -0.0491 -1.0572 -0.9605
 8900SOL    HW238337   2.938   2.847  15.930 -0.4555 -1.6835 -0.1295
 8901SOL     OW38338   1.484   1.804   1.687  0.0941 -0.4592 -0.1408
 8901SOL    HW138339   1.428   1.749   1.741  0.4491 -1.3116 -0.6425
 8901SOL    HW238340   1.533   1.740   1.635  0.5846  1.0549 -1.5341
 8902SOL     OW38341   0.182   1.007   2.564 -0.1411  0.0807  0.5617
 8902SOL    HW138342   0.169   0.919   2.528  1.7438 -0.5595  1.4505
 8902SOL    HW238343   0.247   1.054   2.512  0.0120  0.4671  1.0987
 8903SOL     OW38344   3.496   0.286   1.176  0.3130  0.2721 -0.1140
 8903SOL    HW138345   3.545   0.237   1.110 -1.0251 -1.6973  0.3438
 8903SOL    HW238346   3.436   0.337   1.122  0.1218 -0.4698 -0.6120
 8904SOL     OW38347   2.163   0.633   9.023 -0.1211  0.0303  0.0286
 8904SOL    HW138348   2.073   0.625   8.993  0.0178 -0.3977 -0.2902
 8904SOL    HW238349   2.176   0.725   9.045 -0.8663  0.0679  0.3064
 8905SOL     OW38350   3.335   0.739   8.605  0.5518 -0.0037 -0.3628
 8905SOL    HW138351   3.411   0.743   8.663  0.3824 -1.3883 -0.0265
 8905SOL    HW238352   3.266   0.768   8.664  1.3268  1.2897 -0.0976
 8906SOL     OW38353   1.894   4.124   1.102 -0.4484  0.8542 -0.3176
 8906SOL    HW138354   1.908   4.034   1.073  0.1181  0.6179  0.6946
 8906SOL    HW238355   1.986   4.151   1.110  0.2374 -0.9352 -2.1419
 8907SOL     OW38356   0.125   2.802   6.623 -0.1822  0.6927  0.4401
 8907SOL    HW138357   0.176   2.825   6.546 -2.1542 -0.4039 -1.1808
 8907SOL    HW238358   0.056   2.865   6.600 -1.3450 -0.6159  0.3572
 8908SOL     OW38359   2.905   3.827   2.942  0.6894  0.4795  0.0107
 8908SOL    HW138360   2.818   3.845   2.907  0.2669 -2.3768 -0.4789
 8908SOL    HW238361   2.930   3.739   2.913 -2.3146 -0.3947  0.0639
 8909SOL     OW38362   4.227   1.887   5.674 -0.6208 -0.3857  0.2076
 8909SOL    HW138363   4.201   1.827   5.604 -2.9274  1.0227 -0.1137
 8909SOL    HW238364   4.317   1.905   5.647 -0.8688 -1.0906 -1.1024
 8910SOL     OW38365   4.212   0.647  13.040  0.0892 -0.1635  0.0873
 8910SOL    HW138366   4.153   0.722  13.044 -1.8473 -1.7076  0.6340
 8910SOL    HW238367   4.160   0.566  13.034  2.2277 -1.5386  0.3034
 8911SOL     OW38368   0.797   4.655   4.506 -0.1142 -0.4276 -0.0239
 8911SOL    HW138369   0.831   4.676   4.593 -1.8931  1.0225  0.3204
 8911SOL    HW238370   0.846   4.713   4.449 -2.4806  1.0534 -0.5773
 8912SOL     OW38371   2.274   0.545   1.404  0.1173 -0.2423 -0.0610
 8912SOL    HW138372   2.337   0.497   1.458 -1.0305 -3.0029 -1.1764
 8912SOL    HW238373   2.194   0.495   1.423 -0.1091  0.0678 -0.2042
 8913SOL     OW38374   3.187   0.648   6.697 -0.6739  0.6415  0.7774
 8913SOL    HW138375   3.210   0.573   6.752 -0.6058 -0.2890 -0.5363
 8913SOL    HW238376   3.200   0.717   6.762  0.4365  1.1306  0.0299
 8914SOL     OW38377   3.505   0.083   1.988  0.2908 -0.3313  0.3144
 8914SOL    HW138378   3.521   0.070   1.895  2.7026  1.2137  0.5221
 8914SOL    HW238379   3.434   0.018   1.996 -0.0953  0.2783  1.8469
 8915SOL     OW38380   0.718   3.216   4.995 -1.1732  0.5321  0.0758
 8915SOL    HW138381   0.809   3.247   4.998 -0.0306 -2.6273 -1.4305
 8915SOL    HW238382   0.678   3.303   4.996  0.0785  1.1260 -1.3394
 8916SOL     OW38383   3.568   2.258   9.495 -0.3069  0.1142  0.3497
 8916SOL    HW138384   3.632   2.228   9.560 -0.4395 -0.3245  0.2792
 8916SOL    HW238385   3.485   2.237   9.539  0.5742  1.4208  2.6294
 8917SOL     OW38386   1.788   4.330  12.231 -0.0463 -0.0548 -0.0809
 8917SOL    HW138387   1.771   4.302  12.321  0.1043 -1.6221 -0.5447
 8917SOL    HW238388   1.744   4.415  12.243 -0.8083 -0.6209  1.1235
 8918SOL     OW38389   3.208   0.886  17.532 -0.1206 -0.2747  0.9030
 8918SOL    HW138390   3.164   0.958  17.576 -1.3483 -0.7418  0.4334
 8918SOL    HW238391   3.219   0.916  17.442 -0.0525  2.1547  1.7261
 8919SOL     OW38392   4.664   2.887   7.852  0.2524  0.5139  0.3798
 8919SOL    HW138393   4.644   2.893   7.945  0.8710 -0.1180  0.5462
 8919SOL    HW238394   4.709   2.971   7.841 -0.9855  0.9856 -1.2312
 8920SOL     OW38395   1.623   1.076  15.314 -0.9088 -0.5113  0.1373
 8920SOL    HW138396   1.635   1.002  15.254 -0.2070  0.8516 -1.4045
 8920SOL    HW238397   1.711   1.113  15.319 -0.5563 -1.4932  1.2842
 8921SOL     OW38398   3.898   1.066  11.945 -0.4987  0.3809  0.0358
 8921SOL    HW138399   3.895   1.004  11.872  3.3609  0.7020 -0.3771
 8921SOL    HW238400   3.951   1.136  11.907  1.9214 -0.0590  2.6011
 8922SOL     OW38401   1.822   1.751   6.310 -0.2368 -0.4520  0.2966
 8922SOL    HW138402   1.845   1.660   6.330  2.5644  0.0024 -0.9638
 8922SOL    HW238403   1.874   1.762   6.231 -1.1276  1.6876  0.0300
 8923SOL     OW38404   2.439   3.843  16.474 -0.0461 -0.7333 -0.0832
 8923SOL    HW138405   2.527   3.830  16.438 -0.2472 -0.2794 -0.7413
 8923SOL    HW238406   2.457   3.847  16.568  0.5477  0.7012 -0.2532
 8924SOL     OW38407   1.228   1.768   2.376 -0.2594 -0.3402  0.1831
 8924SOL    HW138408   1.299   1.802   2.322  1.9102 -1.7075  2.2258
 8924SOL    HW238409   1.275   1.713   2.438  0.4374  2.4221  2.0915
 8925SOL     OW38410   4.227   0.864   2.690 -0.2372 -0.4493  0.2739
 8925SOL    HW138411   4.254   0.913   2.768 -0.0474 -1.4939  0.8623
 8925SOL    HW238412   4.313   0.827   2.673 -1.2723 -1.7864 -1.9394
 8926SOL     OW38413   2.844   4.106   0.537  0.6727  0.1259 -0.4818
 8926SOL    HW138414   2.890   4.161   0.473 -0.5475  0.6889 -0.8844
 8926SOL    HW238415   2.906   4.108   0.610  1.2413 -0.3912 -0.9617
 8927SOL     OW38416   2.992   2.736   4.017 -0.4274  0.0897 -0.8723
 8927SOL    HW138417   3.083   2.706   4.008  0.4709  2.3480  0.5699
 8927SOL    HW238418   2.972   2.729   4.110 -0.2778 -0.7096 -0.9056
 8928SOL     OW38419   0.903   1.519  10.183  0.3047 -0.1208 -0.0821
 8928SOL    HW138420   0.913   1.435  10.227 -0.5245  0.7680  1.7997
 8928SOL    HW238421   0.979   1.514  10.124 -0.0430 -1.3446 -0.4197
 8929SOL     OW38422   2.776   1.766   4.368 -0.1540 -0.4004  0.7020
 8929SOL    HW138423   2.860   1.721   4.376 -0.5942 -1.0735  1.4360
 8929SOL    HW238424   2.766   1.791   4.459 -3.0091  1.4721 -0.1291
 8930SOL     OW38425   3.416   1.229  17.000  0.1540 -0.1394  0.0380
 8930SOL    HW138426   3.490   1.169  17.003 -1.2385 -1.7568  1.7064
 8930SOL    HW238427   3.416   1.263  16.910  1.6786 -0.2763 -0.0196
 8931SOL     OW38428   3.829   2.941  11.686 -0.0515 -0.6829 -0.5645
 8931SOL    HW138429   3.781   2.999  11.626 -0.2982 -0.8629 -0.5400
 8931SOL    HW238430   3.809   2.976  11.772 -0.8258 -1.2164 -0.5325
 8932SOL     OW38431   1.250   1.666   7.742  0.4836 -0.0655 -0.1254
 8932SOL    HW138432   1.299   1.733   7.789 -0.6034  0.4668  0.2437
 8932SOL    HW238433   1.276   1.592   7.797  2.3017 -0.8506 -2.0264
 8933SOL     OW38434   1.883   4.057   2.333  0.0969 -0.4515  0.3608
 8933SOL    HW138435   1.837   4.029   2.254 -0.0624  0.2153  0.2222
 8933SOL    HW238436   1.970   4.019   2.319 -0.5933 -0.8912 -2.6892
 8934SOL     OW38437   1.788   4.294   7.478  0.3627  0.0763  0.0387
 8934SOL    HW138438   1.805   4.362   7.413 -1.4936  0.2582 -0.2560
 8934SOL    HW238439   1.822   4.340   7.555  1.0543 -2.1655  1.0554
 8935SOL     OW38440   3.581   1.528   5.599 -0.5392  0.5616  0.9139
 8935SOL    HW138441   3.668   1.512   5.636 -1.2910 -0.5554  2.1822
 8935SOL    HW238442   3.609   1.594   5.535  1.4341 -0.6113  0.5682
 8936SOL     OW38443   3.575   4.489  11.628  0.2157 -0.3853  0.0646
 8936SOL    HW138444   3.593   4.486  11.722  2.0367 -1.1985 -0.3082
 8936SOL    HW238445   3.622   4.414  11.590 -0.7240 -0.8757 -0.1148
 8937SOL     OW38446   0.806   1.842   7.228  0.1983  0.3199 -0.3899
 8937SOL    HW138447   0.885   1.895   7.236  0.2826  0.1007  0.1694
 8937SOL    HW238448   0.818   1.764   7.282  0.7106  0.1314 -0.7792
 8938SOL     OW38449   2.216   3.530   6.870 -0.0095  0.1473 -0.3772
 8938SOL    HW138450   2.148   3.506   6.807 -1.9608  1.1014  1.3655
 8938SOL    HW238451   2.205   3.625   6.874 -1.1159  0.0583 -1.2407
 8939SOL     OW38452   0.245   0.348   2.879  0.6329  0.0318 -0.7595
 8939SOL    HW138453   0.233   0.276   2.941  1.0127  0.5153 -0.1250
 8939SOL    HW238454   0.207   0.421   2.927  0.0625  0.3969 -1.7661
 8940SOL     OW38455   1.966   3.451   2.557 -0.2355 -0.3765 -0.2264
 8940SOL    HW138456   1.912   3.399   2.616 -2.9642  0.2148 -2.2211
 8940SOL    HW238457   2.006   3.381   2.505  1.5426  1.9688 -2.0163
 8941SOL     OW38458   3.669   1.380   6.448  0.1842  0.9630 -0.0358
 8941SOL    HW138459   3.657   1.295   6.490  1.7610  0.9355  0.3282
 8941SOL    HW238460   3.753   1.377   6.404  0.7072 -2.4335  1.2244
 8942SOL     OW38461   0.140   0.320   2.619 -0.1417  0.6888 -0.6364
 8942SOL    HW138462   0.207   0.331   2.551 -0.3909  1.1678 -0.7971
 8942SOL    HW238463   0.184   0.321   2.704 -1.3667 -0.0125 -0.0051
 8943SOL     OW38464   0.445   0.349  16.930 -0.1027 -0.8275  0.0234
 8943SOL    HW138465   0.409   0.437  16.933  1.3290 -0.2808  1.4403
 8943SOL    HW238466   0.461   0.341  16.836 -3.7906 -2.6347 -0.4315
 8944SOL     OW38467   3.495   3.603  14.847 -0.6160 -0.4703 -0.4463
 8944SOL    HW138468   3.482   3.509  14.856  1.3577 -0.5620  1.6265
 8944SOL    HW238469   3.590   3.606  14.837 -0.4613  0.1160  1.1953
 8945SOL     OW38470   4.545   0.755   4.334  1.3572  0.0435  0.3095
 8945SOL    HW138471   4.470   0.703   4.362  1.0329 -0.2766 -1.1216
 8945SOL    HW238472   4.617   0.704   4.372  0.9473  0.0680  1.1128
 8946SOL     OW38473   2.503   4.431  11.429 -1.1249 -0.4514  0.1265
 8946SOL    HW138474   2.492   4.378  11.507 -1.1083  0.4115  0.7149
 8946SOL    HW238475   2.525   4.515  11.469  2.0452 -0.5181 -1.4618
 8947SOL     OW38476   2.094   4.397   0.100 -0.2176  0.6017 -0.6962
 8947SOL    HW138477   1.998   4.402   0.108 -0.0687 -0.2952  1.5478
 8947SOL    HW238478   2.112   4.431   0.012 -2.2215  0.9740 -0.9651
 8948SOL     OW38479   2.148   1.052  12.849 -0.1559  0.7485 -0.1110
 8948SOL    HW138480   2.080   1.059  12.915 -0.0880  0.4537 -0.0097
 8948SOL    HW238481   2.219   0.997  12.885  0.6277  0.7903 -1.5672
 8949SOL     OW38482   1.270   3.484   1.331  0.1461 -0.1369  0.3557
 8949SOL    HW138483   1.234   3.491   1.419 -1.2154 -2.6150 -0.0007
 8949SOL    HW238484   1.359   3.517   1.346  1.0919 -2.2832 -0.5200
 8950SOL     OW38485   3.522   2.770   8.582  0.2307  0.3174  0.3845
 8950SOL    HW138486   3.427   2.776   8.598 -0.0311  0.8506 -1.4110
 8950SOL    HW238487   3.550   2.752   8.672  0.5997 -1.1603 -0.0427
 8951SOL     OW38488   3.292   2.110   6.288  0.0750  0.3438 -0.7192
 8951SOL    HW138489   3.381   2.077   6.297 -0.1442  0.4218  1.8978
 8951SOL    HW238490   3.245   2.058   6.354 -2.2063  0.4264 -2.2566
 8952SOL     OW38491   0.772   2.459   6.870  0.2172 -0.1968 -0.1532
 8952SOL    HW138492   0.689   2.414   6.885  0.0502 -0.3925 -1.7349
 8952SOL    HW238493   0.813   2.434   6.953  1.2715  0.4963 -0.4726
 8953SOL     OW38494   0.319   2.493   8.761  0.1261 -0.1029 -0.5640
 8953SOL    HW138495   0.236   2.524   8.798 -0.0455 -0.1308 -0.9289
 8953SOL    HW238496   0.289   2.484   8.671  0.8195 -0.2456 -0.7859
 8954SOL     OW38497   2.537   2.244   7.430  0.1837 -0.3642  0.0328
 8954SOL    HW138498   2.523   2.307   7.501 -1.9030  0.2379 -0.9338
 8954SOL    HW238499   2.468   2.250   7.364 -0.4799 -1.4827  0.6246
 8955SOL     OW38500   2.281   4.690  11.330  0.3018 -0.0777 -0.5100
 8955SOL    HW138501   2.288   4.621  11.265 -0.9400 -0.2442 -0.4665
 8955SOL    HW238502   2.206   4.666  11.384 -1.0146  2.2987 -1.2816
 8956SOL     OW38503   2.936   1.167   2.443 -0.8196 -0.1956  0.3024
 8956SOL    HW138504   2.965   1.255   2.468  0.3445 -0.9263  1.5072
 8956SOL    HW238505   2.951   1.173   2.349 -0.0285  1.9541  0.5490
 8957SOL     OW38506   0.353   1.898   4.011 -0.4883  0.1067  0.3193
 8957SOL    HW138507   0.447   1.890   4.027 -0.6684 -1.5401  0.4790
 8957SOL    HW238508   0.332   1.811   3.978  0.2704  0.6753 -1.6796
 8958SOL     OW38509   0.746   4.385   6.286  0.7105 -0.4339 -0.3883
 8958SOL    HW138510   0.705   4.312   6.333  0.5670 -0.2214 -0.1832
 8958SOL    HW238511   0.814   4.408   6.350  1.3174 -1.0352 -0.8085
 8959SOL     OW38512   4.363   3.455   3.021  0.1809  0.4150 -0.0895
 8959SOL    HW138513   4.291   3.516   3.009  1.1456  1.7551  1.0618
 8959SOL    HW238514   4.396   3.441   2.931  2.4800 -0.4902  0.8802
 8960SOL     OW38515   2.171   0.005   9.940  0.7376  0.1627  0.0249
 8960SOL    HW138516   2.101   4.698   9.991  0.7708  1.6641  1.3371
 8960SOL    HW238517   2.116   0.049   9.875 -0.0545 -0.9590 -0.0752
 8961SOL     OW38518   3.291   1.337  12.475  0.2312 -0.2901  0.2659
 8961SOL    HW138519   3.203   1.304  12.489 -0.1732 -0.0521 -1.6642
 8961SOL    HW238520   3.337   1.289  12.543  0.6736  1.4902  1.2221
 8962SOL     OW38521   2.075   0.829   9.375 -0.4490 -0.1401 -0.0819
 8962SOL    HW138522   2.012   0.851   9.444  1.4745  2.2911  0.9075
 8962SOL    HW238523   2.161   0.824   9.417 -1.0153 -1.6784  0.8981
 8963SOL     OW38524   4.087   2.974   8.222  0.3040 -0.3394 -0.1009
 8963SOL    HW138525   3.999   2.990   8.254  0.5028 -0.0242  0.2801
 8963SOL    HW238526   4.132   3.048   8.262 -0.1150  0.6699 -1.5153
 8964SOL     OW38527   1.879   0.755   2.745  0.0122  0.1059 -0.0654
 8964SOL    HW138528   1.840   0.835   2.712  1.4583  0.7864 -0.1164
 8964SOL    HW238529   1.932   0.736   2.668  1.4831 -1.1455  1.2388
 8965SOL     OW38530   0.895   1.017   5.047 -0.2415  0.7221  0.0376
 8965SOL    HW138531   0.822   1.071   5.018 -0.2525  1.0567  0.6736
 8965SOL    HW238532   0.894   0.940   4.990  0.0535  1.5761 -1.1093
 8966SOL     OW38533   4.435   2.212   2.481  0.1506 -0.7272 -0.6234
 8966SOL    HW138534   4.473   2.168   2.406 -1.3099 -2.5638 -0.2771
 8966SOL    HW238535   4.353   2.212   2.434  0.5748  0.0432 -1.3590
 8967SOL     OW38536   0.040   3.128   1.435  0.4170 -0.5489 -0.2832
 8967SOL    HW138537   0.113   3.187   1.415 -0.6834  1.2641  1.1050
 8967SOL    HW238538   0.090   3.048   1.417  0.6202 -0.8103  1.4430
 8968SOL     OW38539   3.472   1.610   1.956 -0.1943 -0.1371  0.0548
 8968SOL    HW138540   3.427   1.526   1.945 -2.9598  1.1752  1.7373
 8968SOL    HW238541   3.499   1.613   1.864  0.8810 -0.7263  0.3405
 8969SOL     OW38542   0.895   0.835   6.690 -0.1637  0.6350  0.1316
 8969SOL    HW138543   0.956   0.868   6.624  0.5393 -0.0897  0.4171
 8969SOL    HW238544   0.951   0.783   6.747 -1.1117 -1.3096 -0.7130
 8970SOL     OW38545   0.766   0.031  12.987  0.5037  0.1739  0.0950
 8970SOL    HW138546   0.745   0.053  13.077  1.6647 -0.1569  0.4435
 8970SOL    HW238547   0.813   4.685  13.005  1.1375  1.0191  2.1688
 8971SOL     OW38548   1.761   0.151  11.518 -0.8387 -0.1853  0.6086
 8971SOL    HW138549   1.752   0.241  11.548 -0.1804  0.0920 -0.0434
 8971SOL    HW238550   1.700   0.145  11.444  0.0958  0.4628 -0.2017
 8972SOL     OW38551   3.670   1.798   5.485  0.0685 -0.1847 -0.3720
 8972SOL    HW138552   3.658   1.750   5.403  2.9690  1.0598 -1.5136
 8972SOL    HW238553   3.601   1.864   5.472 -1.6426 -2.0133 -0.5166
 8973SOL     OW38554   3.227   1.884   7.622 -0.1825  0.0570  0.3036
 8973SOL    HW138555   3.167   1.814   7.594  0.9798  0.3443 -2.8099
 8973SOL    HW238556   3.258   1.852   7.707  2.4956  1.4195 -0.1689
 8974SOL     OW38557   4.514   4.447   7.962 -0.1421 -0.4311 -0.0321
 8974SOL    HW138558   4.483   4.356   7.953  0.7206 -0.8187  0.8866
 8974SOL    HW238559   4.434   4.496   7.976  0.3629 -0.8531  4.3934
 8975SOL     OW38560   0.397   2.222   2.258 -0.3094  0.1058  0.2278
 8975SOL    HW138561   0.392   2.127   2.268 -0.2285 -0.0217 -0.9376
 8975SOL    HW238562   0.489   2.228   2.232 -0.0386 -2.2161  0.6100
 8976SOL     OW38563   1.637   1.606  10.653 -0.2145 -0.5529 -0.2756
 8976SOL    HW138564   1.703   1.618  10.585  1.1916  1.9654  1.5226
 8976SOL    HW238565   1.682   1.665  10.714  1.7327 -1.0676 -1.2082
 8977SOL     OW38566   3.833   2.880   2.669  0.7350 -0.2413 -0.0220
 8977SOL    HW138567   3.898   2.902   2.736 -0.2120  2.0371  0.1484
 8977SOL    HW238568   3.877   2.899   2.586  1.3187 -1.8120 -0.0793
 8978SOL     OW38569   0.272   4.704   8.722  0.0289  0.3327  0.2232
 8978SOL    HW138570   0.187   0.012   8.712  0.1217  0.5776  0.4745
 8978SOL    HW238571   0.271   4.676   8.814 -0.1504 -0.3988 -0.0016
 8979SOL     OW38572   3.213   4.232   1.290  0.2342  0.0589 -0.2090
 8979SOL    HW138573   3.269   4.183   1.349 -0.9121 -1.6397 -0.5298
 8979SOL    HW238574   3.128   4.212   1.329  0.0160  0.7960 -0.2922
 8980SOL     OW38575   3.341   3.152   3.496 -0.5666  0.4502  0.1224
 8980SOL    HW138576   3.425   3.144   3.451 -1.5551 -2.9584 -1.1986
 8980SOL    HW238577   3.332   3.060   3.522 -1.6079 -0.1340 -2.2616
 8981SOL     OW38578   2.724   1.560   1.188  0.3220  0.2584 -0.0994
 8981SOL    HW138579   2.726   1.510   1.106 -0.1477  2.5241 -1.5044
 8981SOL    HW238580   2.816   1.583   1.199  0.3789  1.1373 -2.2434
 8982SOL     OW38581   0.309   2.287   6.424  1.0805 -0.0719 -1.0610
 8982SOL    HW138582   0.309   2.375   6.388 -0.1787 -0.0340 -0.9552
 8982SOL    HW238583   0.371   2.294   6.497 -0.8820  0.0023  0.5853
 8983SOL     OW38584   3.692   2.072   6.628 -0.2199 -0.2226 -0.5448
 8983SOL    HW138585   3.640   2.094   6.705  1.1755  0.8840  0.0665
 8983SOL    HW238586   3.694   2.146   6.567  0.0759  1.0423  0.9913
 8984SOL     OW38587   3.268   1.910  14.814 -0.5947  0.1759  0.3329
 8984SOL    HW138588   3.207   1.971  14.774 -2.1778 -2.0461 -0.6278
 8984SOL    HW238589   3.211   1.855  14.868  0.2653 -1.4657 -0.4220
 8985SOL     OW38590   0.011   1.017   1.489 -0.2957  0.3273  0.3255
 8985SOL    HW138591   0.038   1.049   1.575 -1.8399  1.8547  0.2306
 8985SOL    HW238592   0.089   1.047   1.442  0.5863  0.4690  1.8896
 8986SOL     OW38593   3.399   0.108   6.048 -0.2941 -0.6001 -0.5584
 8986SOL    HW138594   3.461   0.174   6.018  0.5624 -0.3537  1.7560
 8986SOL    HW238595   3.347   0.156   6.112  0.8555  0.8598 -0.7341
 8987SOL     OW38596   1.065   0.830  17.085  0.0095 -0.5780 -0.2961
 8987SOL    HW138597   1.034   0.775  17.157  0.2212 -1.0241 -0.5459
 8987SOL    HW238598   1.061   0.918  17.122  0.6119  0.2728 -2.2723
 8988SOL     OW38599   0.687   4.208   5.526  0.3551  0.2173 -0.5912
 8988SOL    HW138600   0.701   4.274   5.458  0.6438 -1.0731 -1.7893
 8988SOL    HW238601   0.770   4.216   5.573  1.0576 -0.4671 -1.7335
 8989SOL     OW38602   4.515   2.090   3.308  0.6328  0.2595  0.1995
 8989SOL    HW138603   4.588   2.123   3.255  1.3822  0.4193  1.3512
 8989SOL    HW238604   4.481   2.018   3.254  1.1650 -0.9919  1.5481
 8990SOL     OW38605   1.231   2.524   9.100  0.6653 -0.5704  0.0344
 8990SOL    HW138606   1.149   2.573   9.093  1.0566  0.2590  1.3186
 8990SOL    HW238607   1.254   2.543   9.009  1.5727 -1.4406  0.0782
 8991SOL     OW38608   3.730   3.749   7.660 -0.6895  0.0600  0.1100
 8991SOL    HW138609   3.651   3.702   7.686 -1.2159  0.4732 -0.7429
 8991SOL    HW238610   3.697   3.815   7.599 -0.8782 -1.6952 -1.6453
 8992SOL     OW38611   3.450   2.100   0.731 -0.6171  0.0074 -0.1111
 8992SOL    HW138612   3.493   2.106   0.646 -1.3673  0.2583 -0.4711
 8992SOL    HW238613   3.493   2.173   0.776  0.8529 -1.9145  1.6392
 8993SOL     OW38614   2.068   0.587   8.343  0.4434 -0.3156 -0.3334
 8993SOL    HW138615   2.135   0.571   8.410 -1.6735 -0.0521  1.8300
 8993SOL    HW238616   2.019   0.663   8.374 -0.5168 -1.1577  0.1884
 8994SOL     OW38617   0.446   2.266  13.070  0.0964 -0.4491  0.1482
 8994SOL    HW138618   0.390   2.245  12.995  1.0087 -0.7966 -0.4375
 8994SOL    HW238619   0.532   2.255  13.029 -0.1334 -0.1697 -0.4165
 8995SOL     OW38620   0.462   1.124   4.936  0.6932  0.5352  0.0578
 8995SOL    HW138621   0.410   1.189   4.889  0.0364  1.3179  1.8736
 8995SOL    HW238622   0.408   1.046   4.926  0.7447  0.6934 -1.4829
 8996SOL     OW38623   3.497   3.205  15.630  0.1511  0.7369  0.0671
 8996SOL    HW138624   3.511   3.124  15.680 -0.2006  0.7991  0.2678
 8996SOL    HW238625   3.474   3.161  15.548 -0.9691  0.7469  0.3807
 8997SOL     OW38626   0.142   1.472  14.229 -0.3801 -0.0944 -0.1114
 8997SOL    HW138627   0.190   1.395  14.198  0.4006 -0.1895  1.3471
 8997SOL    HW238628   0.194   1.494  14.306  0.2699  0.0534 -0.5919
 8998SOL     OW38629   3.873   1.950  17.146 -0.3142 -0.1264  0.3151
 8998SOL    HW138630   3.844   1.866  17.111 -0.2415  1.1447 -2.7779
 8998SOL    HW238631   3.895   1.932  17.237 -0.3014  3.0013  0.9190
 8999SOL     OW38632   1.490   2.578   3.160  0.0524  0.2858  0.6643
 8999SOL    HW138633   1.541   2.573   3.079  0.5179  0.6158  0.9311
 8999SOL    HW238634   1.415   2.527   3.131  0.2826 -0.0332  0.6246
 9000SOL     OW38635   3.205   3.132   6.658 -0.2552 -0.2280 -0.5473
 9000SOL    HW138636   3.175   3.222   6.655  1.1624  0.2391 -0.6700
 9000SOL    HW238637   3.172   3.101   6.574 -1.4168  0.6124 -0.3994
 9001SOL     OW38638   0.733   2.021   2.681  0.2989  0.1033 -0.7852
 9001SOL    HW138639   0.708   2.064   2.600  2.2071  0.0049 -1.4230
 9001SOL    HW238640   0.720   2.090   2.746  0.7795  0.5810 -1.1958
 9002SOL     OW38641   0.829   1.991   6.579 -0.1459 -0.3354 -0.1317
 9002SOL    HW138642   0.880   2.024   6.652 -1.3561  3.7207 -1.0925
 9002SOL    HW238643   0.843   2.062   6.515 -2.2678  1.7477  1.7390
 9003SOL     OW38644   3.160   3.621  12.948 -0.3539 -0.4277  0.1547
 9003SOL    HW138645   3.210   3.634  12.867  0.0842  0.7529  0.6146
 9003SOL    HW238646   3.166   3.527  12.965  0.4379 -0.2194  1.0320
 9004SOL     OW38647   1.781   2.518   0.702  0.7844 -0.3016 -0.7324
 9004SOL    HW138648   1.779   2.448   0.768  0.6435  0.2096 -0.1907
 9004SOL    HW238649   1.689   2.539   0.690  0.2944 -1.4892  0.8698
 9005SOL     OW38650   1.824   0.443  11.274  0.4094  0.0675 -0.4380
 9005SOL    HW138651   1.739   0.487  11.272  0.3689  0.0377  0.4202
 9005SOL    HW238652   1.856   0.458  11.185  0.0098  0.3524 -0.5348
 9006SOL     OW38653   3.464   1.728   2.616 -0.0506 -0.1329  0.1214
 9006SOL    HW138654   3.491   1.680   2.537  1.5132 -0.9329  1.1306
 9006SOL    HW238655   3.503   1.813   2.598  0.2913  0.0714  1.8827
 9007SOL     OW38656   3.211   2.033   5.031  0.3293  0.0208 -0.3796
 9007SOL    HW138657   3.176   2.028   5.121 -1.7004  0.6347 -1.1284
 9007SOL    HW238658   3.166   2.111   4.997  1.7672 -0.3144 -2.9923
 9008SOL     OW38659   2.634   3.483   3.690 -0.4261  0.1029  0.2028
 9008SOL    HW138660   2.721   3.444   3.702  0.0950  1.0171 -0.6338
 9008SOL    HW238661   2.605   3.437   3.612 -0.3180 -1.2569  0.9547
 9009SOL     OW38662   1.481   2.085   7.987 -0.0278  0.4058  0.1133
 9009SOL    HW138663   1.516   2.038   8.063 -1.1371  0.4308  0.6410
 9009SOL    HW238664   1.402   2.125   8.023  0.9580  2.1509  0.2990
 9010SOL     OW38665   1.893   1.028  15.758 -0.1108 -0.0264  0.5511
 9010SOL    HW138666   1.797   1.021  15.761  0.1323 -2.5900  2.1977
 9010SOL    HW238667   1.908   1.108  15.808 -0.3653  1.4367 -1.7299
 9011SOL     OW38668   1.251   1.029   8.551 -0.1619  0.3403  0.4322
 9011SOL    HW138669   1.172   0.988   8.586 -0.5327 -0.4497 -1.2867
 9011SOL    HW238670   1.209   1.072   8.476 -1.1490 -0.4847  0.5102
 9012SOL     OW38671   1.236   2.069   2.060  0.1675 -0.1439 -0.4159
 9012SOL    HW138672   1.200   2.148   2.019 -0.5339 -0.2702 -0.0516
 9012SOL    HW238673   1.188   2.055   2.142  0.4908 -1.1839 -0.4076
 9013SOL     OW38674   2.354   3.855   8.736 -0.1724 -0.3719  0.3520
 9013SOL    HW138675   2.301   3.776   8.729 -4.4876  2.2540  3.2294
 9013SOL    HW238676   2.280   3.917   8.737  1.0406  1.0825  0.8026
 9014SOL     OW38677   2.241   0.534   7.688  0.4945 -0.0218  0.5174
 9014SOL    HW138678   2.235   0.440   7.669  0.0881 -0.2092  1.5396
 9014SOL    HW238679   2.269   0.568   7.603 -1.4625 -0.6055 -0.3634
 9015SOL     OW38680   2.830   1.304   7.279  0.0423 -0.3979 -0.2706
 9015SOL    HW138681   2.761   1.349   7.231  1.0628  2.7095  1.1890
 9015SOL    HW238682   2.908   1.316   7.226 -0.3954  3.4447 -0.0486
 9016SOL     OW38683   2.315   1.351   1.260  0.0480 -0.3450  0.3830
 9016SOL    HW138684   2.403   1.336   1.296  1.4348 -1.0000 -3.3014
 9016SOL    HW238685   2.326   1.344   1.165  0.7819  0.6012  0.3913
 9017SOL     OW38686   0.890   3.873   6.781 -0.3807  0.3633 -0.4476
 9017SOL    HW138687   0.916   3.814   6.852  2.1352  2.4094  0.3455
 9017SOL    HW238688   0.933   3.836   6.704 -1.3223 -1.0058 -0.3111
 9018SOL     OW38689   3.549   3.635   9.933 -0.0593  0.1801  0.1023
 9018SOL    HW138690   3.555   3.542   9.912 -0.1319  0.7300 -2.3813
 9018SOL    HW238691   3.514   3.632  10.022 -1.2146 -1.5224 -0.4341
 9019SOL     OW38692   1.567   0.358   7.581 -0.5002  0.0886  0.9248
 9019SOL    HW138693   1.548   0.452   7.574 -1.4315 -0.2914 -1.8399
 9019SOL    HW238694   1.506   0.343   7.652 -0.9759 -2.4746 -0.0213
 9020SOL     OW38695   3.178   0.284  11.599 -0.0801  0.2515 -0.4826
 9020SOL    HW138696   3.273   0.294  11.596 -0.0044  0.0032  1.3590
 9020SOL    HW238697   3.166   0.334  11.518  0.7764 -0.1756 -0.8641
 9021SOL     OW38698   2.138   1.685   1.393 -0.2821  0.0119  0.6079
 9021SOL    HW138699   2.048   1.705   1.367 -0.7911 -0.6958  1.8079
 9021SOL    HW238700   2.165   1.750   1.459 -0.5689  3.2489 -2.4559
 9022SOL     OW38701   2.484   2.959  14.432  0.1086 -0.4615  0.2340
 9022SOL    HW138702   2.410   2.900  14.448 -0.7213  0.4328 -0.2917
 9022SOL    HW238703   2.512   2.921  14.349 -0.0236  0.5461 -0.2675
 9023SOL     OW38704   2.544   0.499   5.925  0.1283  0.0669  0.2730
 9023SOL    HW138705   2.569   0.560   5.995 -0.7326  0.1109  0.5424
 9023SOL    HW238706   2.498   0.562   5.870  0.5982  0.5040  0.3754
 9024SOL     OW38707   3.114   3.061  12.975  0.1558  0.0821 -0.0340
 9024SOL    HW138708   3.162   3.026  13.050  1.4301 -0.3497 -1.0485
 9024SOL    HW238709   3.028   3.078  13.012  1.3697 -0.0015  2.8041
 9025SOL     OW38710   4.705   1.600   1.864 -0.2210  0.5390 -0.2091
 9025SOL    HW138711   4.621   1.606   1.909 -0.9653  1.3738 -1.6866
 9025SOL    HW238712   0.034   1.600   1.935 -1.1167  0.6417  0.6029
 9026SOL     OW38713   0.173   0.380   7.241  0.1785 -0.3987 -0.6344
 9026SOL    HW138714   0.181   0.442   7.168  1.6229  0.9647  0.6919
 9026SOL    HW238715   0.125   0.440   7.298  1.5852 -0.4679  0.6290
 9027SOL     OW38716   1.351   4.325   8.257  0.2923  0.4255  0.5112
 9027SOL    HW138717   1.362   4.420   8.252  1.0582  0.3813  1.4085
 9027SOL    HW238718   1.433   4.310   8.210 -0.1282 -0.1348 -0.0354
 9028SOL     OW38719   0.495   1.244  13.434 -0.1524  0.0752  0.2494
 9028SOL    HW138720   0.572   1.300  13.424 -1.4621  1.7785 -0.2301
 9028SOL    HW238721   0.495   1.244  13.530 -4.2073  1.1318  0.2472
 9029SOL     OW38722   2.753   2.966   3.036  0.4195  0.2049  0.3624
 9029SOL    HW138723   2.698   2.912   3.093 -0.6691 -2.0964 -2.8734
 9029SOL    HW238724   2.746   2.926   2.949 -1.5784  2.9071 -0.7569
 9030SOL     OW38725   3.199   2.953   3.788 -0.0638  0.3731  0.4698
 9030SOL    HW138726   3.243   2.923   3.709 -1.5689 -0.8542  0.0927
 9030SOL    HW238727   3.266   2.949   3.857 -0.9468  1.0869  1.3744
 9031SOL     OW38728   4.521   3.974   4.328 -0.1090 -0.4099  0.1409
 9031SOL    HW138729   4.539   4.066   4.347 -0.0291 -0.6919  1.4568
 9031SOL    HW238730   4.575   3.951   4.252 -0.7847  0.0850 -0.4927
 9032SOL     OW38731   0.018   3.460   9.252  0.0971  0.2361  0.4192
 9032SOL    HW138732   4.722   3.539   9.206  2.4154  1.0740  0.2688
 9032SOL    HW238733   0.047   3.496   9.336  0.6211 -1.2774  0.8899
 9033SOL     OW38734   2.486   4.587  10.508 -0.2477  0.1452 -0.0903
 9033SOL    HW138735   2.448   4.593  10.420  0.0959  1.5318 -0.1429
 9033SOL    HW238736   2.479   4.681  10.526  0.2592 -0.3954  2.9132
 9034SOL     OW38737   3.372   1.207   5.414  0.0647  0.3057  0.1147
 9034SOL    HW138738   3.299   1.146   5.421  1.4224 -1.2884  0.4326
 9034SOL    HW238739   3.448   1.151   5.429  0.4910  1.0840  0.8391
 9035SOL     OW38740   1.228   4.682   2.102  0.3796 -0.2709  0.2019
 9035SOL    HW138741   1.320   4.697   2.122  0.5858 -0.2764 -0.7333
 9035SOL    HW238742   1.229   4.715   2.012 -0.4624  0.9807  0.6558
 9036SOL     OW38743   3.488   2.516   5.739 -0.1340  0.2087  0.5058
 9036SOL    HW138744   3.477   2.589   5.678 -1.3728  2.2509  3.1988
 9036SOL    HW238745   3.522   2.560   5.817 -0.5814  1.7158 -0.1638
 9037SOL     OW38746   1.305   2.009   2.992  0.7720 -0.1151 -0.1524
 9037SOL    HW138747   1.325   1.919   2.965  0.6838 -0.5821  1.3261
 9037SOL    HW238748   1.271   2.000   3.081  0.1116 -0.1966 -0.4091
 9038SOL     OW38749   2.251   1.436   3.227  0.1522 -0.2785 -0.0288
 9038SOL    HW138750   2.166   1.432   3.271 -0.1753 -1.1278 -0.7466
 9038SOL    HW238751   2.288   1.357   3.267  0.3277 -0.9170 -1.4833
 9039SOL     OW38752   0.099   0.383   2.258  0.2047 -0.2486  0.1658
 9039SOL    HW138753   0.019   0.365   2.209 -1.3683  3.6056  1.3203
 9039SOL    HW238754   0.069   0.445   2.324  0.5388  0.7478 -0.6317
 9040SOL     OW38755   2.353   2.049  17.431 -0.0855  0.1581 -0.1023
 9040SOL    HW138756   2.344   2.056  17.336 -0.2898  0.8261 -0.0308
 9040SOL    HW238757   2.305   1.972  17.461  1.4172 -0.0031  1.8831
 9041SOL     OW38758   2.054   3.292  13.145 -0.0264  0.1927 -0.6112
 9041SOL    HW138759   2.108   3.346  13.202  1.8703 -0.7272 -1.5253
 9041SOL    HW238760   2.078   3.325  13.059 -0.3836  1.8349 -0.0750
 9042SOL     OW38761   3.106   4.293  13.778  0.0166  0.4946 -0.1625
 9042SOL    HW138762   3.120   4.223  13.842  1.8574  0.3051 -0.8016
 9042SOL    HW238763   3.172   4.360  13.788 -0.8581  1.1476  1.2746
 9043SOL     OW38764   1.585   1.307   7.704  0.9257  0.4905 -0.1952
 9043SOL    HW138765   1.670   1.341   7.674  0.2169  1.4660 -1.1189
 9043SOL    HW238766   1.595   1.342   7.792  0.1137 -1.2963  0.6022
 9044SOL     OW38767   3.092   2.107   9.306 -0.5494 -0.1704  0.2448
 9044SOL    HW138768   3.017   2.148   9.349  0.9746  0.1252  2.6430
 9044SOL    HW238769   3.123   2.050   9.377 -0.2089 -0.5631 -0.2185
 9045SOL     OW38770   0.785   4.113   4.881  0.0413  0.0814 -0.2726
 9045SOL    HW138771   0.767   4.147   4.793 -2.2513 -1.7433 -0.4990
 9045SOL    HW238772   0.724   4.040   4.891  4.0551 -3.0228  1.6005
 9046SOL     OW38773   1.132   3.385  15.497 -0.2776 -0.2915  0.1541
 9046SOL    HW138774   1.141   3.323  15.424  1.9566  1.0296 -0.7008
 9046SOL    HW238775   1.046   3.417  15.471  1.1703  0.3580 -3.8209
 9047SOL     OW38776   1.416   2.650   9.802 -0.0713 -0.6385  0.0494
 9047SOL    HW138777   1.385   2.674   9.714 -2.7164 -1.9426  0.6356
 9047SOL    HW238778   1.351   2.583   9.821 -0.0563 -1.5659 -3.1510
 9048SOL     OW38779   1.799   2.783  12.920  0.1247  0.2599 -0.0537
 9048SOL    HW138780   1.838   2.709  12.967 -1.4666 -1.3751 -1.3113
 9048SOL    HW238781   1.788   2.847  12.991 -0.9801  0.2669 -0.2246
 9049SOL     OW38782   1.442   3.279   6.427 -0.1135 -0.1728  0.0941
 9049SOL    HW138783   1.536   3.280   6.441 -0.1902  3.1432  0.3480
 9049SOL    HW238784   1.416   3.305   6.515 -1.0972 -0.5731 -0.0725
 9050SOL     OW38785   0.835   3.354   2.826  0.5057  0.4800 -0.1364
 9050SOL    HW138786   0.908   3.413   2.808  1.4571 -0.8367 -0.6158
 9050SOL    HW238787   0.852   3.341   2.920  1.7029 -0.8494 -0.5335
 9051SOL     OW38788   0.894   0.556   3.222 -0.1125  0.4305 -0.7456
 9051SOL    HW138789   0.896   0.484   3.285  0.7067  0.8128 -0.3425
 9051SOL    HW238790   0.966   0.613   3.247 -2.0601  2.2701  0.6893
 9052SOL     OW38791   4.592   3.897   3.175  0.8708 -0.2728  0.5000
 9052SOL    HW138792   4.628   3.953   3.106  1.3351 -0.2829  0.7386
 9052SOL    HW238793   4.600   3.957   3.250  0.9348 -1.0630  1.1208
 9053SOL     OW38794   1.414   2.447   4.914 -0.1159  0.0668 -0.2971
 9053SOL    HW138795   1.442   2.355   4.919 -1.2320 -0.1505  1.9992
 9053SOL    HW238796   1.408   2.466   5.008 -1.8124  1.2661 -0.6589
 9054SOL     OW38797   3.308   1.410   3.454  0.0178  0.3748 -0.4532
 9054SOL    HW138798   3.279   1.347   3.520  1.7050  0.4724  0.3750
 9054SOL    HW238799   3.255   1.489   3.469 -1.4745 -0.1965 -2.7213
 9055SOL     OW38800   0.200   0.069  17.331 -0.0795 -0.1961  0.3216
 9055SOL    HW138801   0.143   4.731  17.352 -1.2044  0.3939 -0.6946
 9055SOL    HW238802   0.249   0.022  17.263 -0.5885 -1.6241  0.9561
 9056SOL     OW38803   2.584   2.310   7.031 -0.4143  0.4359  0.0971
 9056SOL    HW138804   2.591   2.308   6.936  1.7085 -0.9052  0.2885
 9056SOL    HW238805   2.490   2.322   7.045 -0.6607 -1.1497 -0.1915
 9057SOL     OW38806   3.276   3.987   4.736  0.1429 -0.2594 -0.4727
 9057SOL    HW138807   3.230   4.006   4.818  1.4750 -1.0050  0.4499
 9057SOL    HW238808   3.248   3.896   4.726 -1.7763  0.3441 -0.4599
 9058SOL     OW38809   2.210   1.336   3.997  0.3154  0.4168 -0.9687
 9058SOL    HW138810   2.301   1.307   3.995 -0.0916 -0.9006 -0.3025
 9058SOL    HW238811   2.182   1.301   3.913 -0.0010  1.9019 -1.4784
 9059SOL     OW38812   1.757   3.002   9.662  0.4367  0.4889  0.0456
 9059SOL    HW138813   1.700   3.073   9.632  0.7741  0.3997 -0.8002
 9059SOL    HW238814   1.694   2.953   9.715 -0.7658  2.1219  0.1346
 9060SOL     OW38815   1.921   2.027   3.035 -0.1539 -0.5002 -0.0209
 9060SOL    HW138816   1.884   1.990   3.115  1.1279  0.6060  1.0654
 9060SOL    HW238817   1.839   2.061   2.999 -1.1564 -2.1018  0.7401
 9061SOL     OW38818   1.274   3.961   2.717  0.2415 -0.0855  0.0274
 9061SOL    HW138819   1.250   4.008   2.637 -1.0105  0.1085  0.5179
 9061SOL    HW238820   1.258   3.868   2.700 -2.6070  0.5359 -0.6548
 9062SOL     OW38821   0.145   0.843   9.778 -0.2931 -0.1571  0.0174
 9062SOL    HW138822   0.050   0.849   9.786 -0.2150 -1.2185  1.8355
 9062SOL    HW238823   0.170   0.880   9.863 -0.9944  0.2131  0.0600
 9063SOL     OW38824   1.684   3.475  11.828  0.0726 -0.1587  1.0637
 9063SOL    HW138825   1.724   3.505  11.747  0.0079  0.2206  1.1735
 9063SOL    HW238826   1.593   3.495  11.808  0.4439  0.7644  0.2931
 9064SOL     OW38827   0.331   2.112   4.295 -0.6933  0.0606  0.3362
 9064SOL    HW138828   0.376   2.029   4.309 -0.5519 -0.0067 -0.5371
 9064SOL    HW238829   0.250   2.106   4.347 -0.0233  1.5828  1.5642
 9065SOL     OW38830   0.910   4.029   3.955 -0.6398 -0.4792  0.5073
 9065SOL    HW138831   0.873   4.106   3.998  2.2245  0.7174  0.8232
 9065SOL    HW238832   0.997   4.047   3.989 -0.8959 -0.2150  1.0169
 9066SOL     OW38833   2.382   4.633   3.479 -0.2220  0.3394  0.5496
 9066SOL    HW138834   2.408   4.701   3.417  0.3504  0.1386  0.5680
 9066SOL    HW238835   2.297   4.668   3.506 -0.5912  1.0828 -1.6429
 9067SOL     OW38836   0.750   3.491   4.511  0.0387 -0.3786 -0.2535
 9067SOL    HW138837   0.691   3.503   4.586  0.8031 -0.4894  0.3633
 9067SOL    HW238838   0.693   3.464   4.439 -2.6206 -1.1818  2.1371
 9068SOL     OW38839   0.046   2.755   5.283  0.0083 -0.0808  0.3250
 9068SOL    HW138840   0.051   2.847   5.306 -0.4634 -0.2318  1.0405
 9068SOL    HW238841   0.138   2.731   5.291  0.0630 -0.5664 -1.6039
 9069SOL     OW38842   0.527   0.284   2.752 -0.7280  0.5637 -0.2297
 9069SOL    HW138843   0.475   0.364   2.755 -1.0748  0.4140 -1.9567
 9069SOL    HW238844   0.587   0.305   2.824 -0.5236 -0.9300  0.0367
 9070SOL     OW38845   1.562   3.847   9.214 -0.0735 -0.0904  0.1168
 9070SOL    HW138846   1.483   3.818   9.168  0.9313 -0.2884 -1.4873
 9070SOL    HW238847   1.637   3.809   9.168  0.7986 -1.1577  2.4444
 9071SOL     OW38848   3.611   1.284   0.868 -0.2253  0.3220  0.0358
 9071SOL    HW138849   3.676   1.227   0.828 -1.1114  0.1660 -1.1939
 9071SOL    HW238850   3.570   1.309   0.785  0.2627  0.4788 -0.1574
 9072SOL     OW38851   4.130   0.188   4.425  0.1698  0.3882 -0.4490
 9072SOL    HW138852   4.091   0.266   4.465 -1.9457 -0.4776 -0.8159
 9072SOL    HW238853   4.220   0.221   4.426  0.0753  0.6055  0.6392
 9073SOL     OW38854   0.174   2.109   7.979 -0.4603 -0.1361  0.2237
 9073SOL    HW138855   0.191   2.023   7.940  0.3882  0.4513 -0.7158
 9073SOL    HW238856   0.115   2.087   8.050 -0.8499  0.7789  0.1879
 9074SOL     OW38857   3.521   3.835   3.587 -0.0670 -0.1665  0.3324
 9074SOL    HW138858   3.479   3.837   3.501 -0.5808 -0.3055  0.5802
 9074SOL    HW238859   3.479   3.764   3.635  0.9222  0.0132  1.4768
 9075SOL     OW38860   2.153   2.428   6.309  0.0652  0.2902 -0.1396
 9075SOL    HW138861   2.166   2.391   6.396 -0.3521  0.5718  0.0410
 9075SOL    HW238862   2.115   2.514   6.330 -1.4343 -0.8245  1.6966
 9076SOL     OW38863   3.216   1.659   2.611  0.1587 -0.7461  0.0709
 9076SOL    HW138864   3.213   1.638   2.704 -0.0601  2.5994  0.8230
 9076SOL    HW238865   3.310   1.666   2.600  0.1398 -0.1119  0.2902
 9077SOL     OW38866   0.824   0.364   5.424  0.0361  0.2555 -0.3222
 9077SOL    HW138867   0.844   0.401   5.510  1.4358  0.0246 -0.5517
 9077SOL    HW238868   0.730   0.378   5.416  0.0393  0.5591  0.1617
 9078SOL     OW38869   3.596   0.953  11.894 -0.1484 -0.5206 -0.1419
 9078SOL    HW138870   3.648   1.017  11.847  1.0958 -1.2239  0.2903
 9078SOL    HW238871   3.521   1.008  11.917  0.4882 -0.1176  0.9225
 9079SOL     OW38872   1.084   1.657   7.982  0.2417 -0.2648  0.3424
 9079SOL    HW138873   1.169   1.644   7.941  1.4080 -0.2107  2.7668
 9079SOL    HW238874   1.104   1.698   8.066 -2.0242  1.8376 -0.1304
 9080SOL     OW38875   2.781   0.227   4.402 -0.3407  1.0510  0.4423
 9080SOL    HW138876   2.860   0.195   4.357 -1.2617  2.0482 -1.8587
 9080SOL    HW238877   2.773   0.171   4.479 -0.7824 -1.0307 -1.1181
 9081SOL     OW38878   4.085   2.647  17.250  0.5226 -0.6087 -0.1254
 9081SOL    HW138879   4.056   2.730  17.288  2.1455  0.5292 -1.3869
 9081SOL    HW238880   4.114   2.670  17.162  1.1598  0.4711  0.3659
 9082SOL     OW38881   1.901   2.218   5.771 -0.0616 -0.4530 -0.5526
 9082SOL    HW138882   1.841   2.227   5.845 -1.4258  1.3917 -1.8467
 9082SOL    HW238883   1.841   2.194   5.700 -0.9128  0.5017 -0.1694
 9083SOL     OW38884   3.283   2.107   3.271 -0.4104 -0.4108 -0.5590
 9083SOL    HW138885   3.252   2.075   3.356  0.4519 -1.3554 -0.5995
 9083SOL    HW238886   3.276   2.023   3.225  1.0595 -0.0136 -1.5075
 9084SOL     OW38887   4.220   0.844   7.427  0.2192  0.6422  0.2808
 9084SOL    HW138888   4.228   0.818   7.336  2.0741  0.5837  0.4606
 9084SOL    HW238889   4.151   0.910   7.430  2.3300  2.7870  1.8217
 9085SOL     OW38890   1.903   1.167   6.173 -0.6005 -0.4181  0.4219
 9085SOL    HW138891   1.953   1.244   6.198 -0.5466 -0.0725 -0.7303
 9085SOL    HW238892   1.839   1.163   6.244  0.2752  3.4715  1.4032
 9086SOL     OW38893   1.917   1.695  14.323 -0.1260 -0.7112 -0.4743
 9086SOL    HW138894   1.868   1.771  14.291  0.8876  0.7364  1.4593
 9086SOL    HW238895   1.876   1.672  14.406 -0.2850  2.2075  0.2585
 9087SOL     OW38896   0.506   3.156  16.837 -0.1218 -0.0095  0.5038
 9087SOL    HW138897   0.491   3.194  16.923  1.0016 -0.3338  0.8392
 9087SOL    HW238898   0.485   3.224  16.772  3.4032  0.3309 -0.2810
 9088SOL     OW38899   2.899   3.945  13.115  0.2502  0.2869 -0.4727
 9088SOL    HW138900   2.884   3.915  13.025  0.1221 -1.5932  0.1724
 9088SOL    HW238901   2.808   3.969  13.130  0.6633  0.6433  1.5169
 9089SOL     OW38902   3.057   0.095   6.254  0.2091  0.6563 -0.2642
 9089SOL    HW138903   2.995   0.124   6.187  0.9800 -1.2729 -1.8205
 9089SOL    HW238904   3.123   0.164   6.256 -0.6151  1.4253  0.2480
 9090SOL     OW38905   3.591   2.172   7.750 -0.0011  0.5205  0.4858
 9090SOL    HW138906   3.508   2.144   7.713 -0.3681  0.0410  1.6703
 9090SOL    HW238907   3.557   2.198   7.836  4.5411  2.8600  1.5657
 9091SOL     OW38908   3.186   1.799  15.590  0.5749  0.0769 -0.3796
 9091SOL    HW138909   3.245   1.763  15.657  0.6015  0.6984 -0.0743
 9091SOL    HW238910   3.179   1.885  15.632 -0.6079 -0.8242  1.2978
 9092SOL     OW38911   1.957   1.316   3.669 -0.6148  0.0302  0.1507
 9092SOL    HW138912   1.931   1.357   3.751  0.4399 -0.2164  0.6077
 9092SOL    HW238913   2.047   1.287   3.680 -1.4245 -1.9666  1.5565
 9093SOL     OW38914   0.456   3.148   1.627 -0.3950  0.5512  0.2242
 9093SOL    HW138915   0.513   3.149   1.703  0.1688  1.0620 -0.2098
 9093SOL    HW238916   0.490   3.211   1.563 -0.7217  1.9350  1.4200
 9094SOL     OW38917   4.474   2.150  17.072  0.3237  0.5372  0.0213
 9094SOL    HW138918   4.479   2.078  17.008 -2.8176 -1.4101  1.9784
 9094SOL    HW238919   4.555   2.143  17.123  1.0298 -1.0183 -1.3169
 9095SOL     OW38920   1.861   1.510   5.166 -0.2440 -0.8578  0.2728
 9095SOL    HW138921   1.884   1.602   5.152 -1.7126 -0.5346 -0.0473
 9095SOL    HW238922   1.923   1.478   5.231  0.7568 -1.7741 -1.1652
 9096SOL     OW38923   3.210   4.505   4.879  0.0320 -0.0946  0.2937
 9096SOL    HW138924   3.238   4.595   4.863 -0.7711 -0.1237 -1.3370
 9096SOL    HW238925   3.173   4.476   4.795 -1.4542 -0.3753  1.0400
 9097SOL     OW38926   0.566   0.300  17.219 -0.4112  0.0158  0.1107
 9097SOL    HW138927   0.475   0.329  17.217 -0.3142  0.1683 -2.2690
 9097SOL    HW238928   0.584   0.311  17.312 -1.5258 -1.1313  0.4714
 9098SOL     OW38929   4.622   3.891   2.817 -0.3396  0.1613 -0.2838
 9098SOL    HW138930   4.697   3.852   2.771 -0.1858 -1.7438  1.6292
 9098SOL    HW238931   4.659   3.965   2.865 -0.5844 -0.3419  0.6791
 9099SOL     OW38932   0.111   1.549   5.867  0.0156  0.6191 -0.6905
 9099SOL    HW138933   0.067   1.466   5.849 -2.1014  1.0801  2.2691
 9099SOL    HW238934   0.168   1.517   5.937 -0.9554  0.5732  0.0792
 9100SOL     OW38935   4.405   3.919   7.400 -0.1684 -0.2636 -0.5536
 9100SOL    HW138936   4.334   3.878   7.351  1.3318 -0.7328 -2.3416
 9100SOL    HW238937   4.439   3.987   7.341  0.2045 -1.3309 -1.5624
 9101SOL     OW38938   2.765   2.421   5.927 -0.2582  0.1529 -0.1863
 9101SOL    HW138939   2.799   2.339   5.890 -0.0990  0.8894 -1.6917
 9101SOL    HW238940   2.817   2.434   6.006 -1.3030 -1.3593  0.7541
 9102SOL     OW38941   1.628   4.251   2.661  0.1277  0.2709 -0.1259
 9102SOL    HW138942   1.618   4.164   2.701 -0.9027 -0.6891 -2.4383
 9102SOL    HW238943   1.642   4.292   2.746  1.0932 -1.1092  0.3903
 9103SOL     OW38944   4.442   2.567   8.263 -0.8360  0.3117 -0.6266
 9103SOL    HW138945   4.446   2.577   8.168  0.9901 -1.6289 -0.7762
 9103SOL    HW238946   4.354   2.593   8.289 -0.8930  0.9881 -1.5089
 9104SOL     OW38947   1.927   4.228   6.276 -0.1347  0.2071 -0.0896
 9104SOL    HW138948   1.837   4.232   6.244 -0.2392  2.7945  0.5527
 9104SOL    HW238949   1.952   4.315   6.247  1.6003 -0.1290  0.3561
 9105SOL     OW38950   3.065   2.881  16.745  0.3605 -0.3443 -0.2223
 9105SOL    HW138951   2.996   2.923  16.795 -0.9054 -0.8073 -1.5746
 9105SOL    HW238952   3.034   2.800  16.704 -0.7379 -0.3573  0.6330
 9106SOL     OW38953   2.937   4.641   1.836  0.4181  0.1767  0.5284
 9106SOL    HW138954   3.012   4.584   1.852  1.2245  0.4391 -2.3744
 9106SOL    HW238955   2.919   4.630   1.743 -1.5744 -0.4313  0.9904
 9107SOL     OW38956   2.984   0.736   2.608  0.3676  0.1519  0.6472
 9107SOL    HW138957   3.056   0.726   2.546 -0.5337 -2.1272 -0.0445
 9107SOL    HW238958   3.007   0.824   2.637  0.4147  1.1131 -2.3136
 9108SOL     OW38959   2.654   1.263   5.926 -0.3156  0.1142 -0.0223
 9108SOL    HW138960   2.572   1.261   5.878  0.8818 -0.4470 -2.0615
 9108SOL    HW238961   2.630   1.322   5.997 -0.8867 -0.2063  0.0520
 9109SOL     OW38962   3.183   2.045  15.698  0.0305 -0.0092 -0.0092
 9109SOL    HW138963   3.093   2.070  15.682  0.3779  0.9159 -0.4953
 9109SOL    HW238964   3.212   2.131  15.729  2.3976 -1.0786  0.7807
 9110SOL     OW38965   3.724   0.989   1.078 -0.1152  0.0355 -0.2363
 9110SOL    HW138966   3.663   0.975   1.005 -0.9118  0.7531  0.2869
 9110SOL    HW238967   3.745   1.082   1.071  1.1720 -0.3500 -1.6054
 9111SOL     OW38968   2.053   2.692  13.618 -0.2385 -0.9704 -0.7930
 9111SOL    HW138969   1.993   2.714  13.547  1.1937  0.0772 -1.6566
 9111SOL    HW238970   2.137   2.700  13.575 -0.2912  2.8328 -0.1528
 9112SOL     OW38971   0.330   1.099   3.613  0.0760  0.1512 -0.0211
 9112SOL    HW138972   0.424   1.083   3.626  0.1983  1.1249  0.3609
 9112SOL    HW238973   0.326   1.054   3.528  0.7526 -0.8110  0.4638
 9113SOL     OW38974   2.851   2.063  16.646  0.1429 -0.6262  0.1994
 9113SOL    HW138975   2.876   2.048  16.737  0.6171  2.4511  0.5797
 9113SOL    HW238976   2.888   2.149  16.626 -1.5342  0.0184 -0.1551
 9114SOL     OW38977   3.410   1.937   1.142  0.2095  0.0400  0.3051
 9114SOL    HW138978   3.407   1.846   1.171  0.0715 -0.3676 -0.9745
 9114SOL    HW238979   3.466   1.927   1.064 -0.4249 -1.3726  0.0488
 9115SOL     OW38980   4.493   4.328   4.994  0.4789  0.0206 -0.2211
 9115SOL    HW138981   4.483   4.392   4.924  0.9327 -0.8199 -1.0643
 9115SOL    HW238982   4.506   4.247   4.945  4.1445 -1.5571  3.4122
 9116SOL     OW38983   0.663   4.648   7.575  0.5541  0.0210 -0.0199
 9116SOL    HW138984   0.690   4.582   7.640  0.3105  0.8445  0.9161
 9116SOL    HW238985   0.626   4.596   7.503 -0.2526 -0.9157  1.0583
 9117SOL     OW38986   0.513   1.190  14.719  0.3533 -0.1438  0.2167
 9117SOL    HW138987   0.431   1.190  14.768  1.3607 -1.3460  1.8833
 9117SOL    HW238988   0.493   1.110  14.671  1.0946  0.6927 -1.4968
 9118SOL     OW38989   3.393   0.677   6.483  0.3310 -0.0805 -0.2971
 9118SOL    HW138990   3.464   0.681   6.546 -1.0451  1.1180  1.1851
 9118SOL    HW238991   3.350   0.599   6.518  0.4635 -0.6349 -1.3691
 9119SOL     OW38992   2.968   1.529   2.887 -0.0376  0.2522  0.1890
 9119SOL    HW138993   3.061   1.548   2.876  0.0826  0.6196  1.8542
 9119SOL    HW238994   2.979   1.452   2.943  0.2794 -1.3787 -2.1127
 9120SOL     OW38995   0.326   0.320   0.734  0.5278 -0.5113 -0.5449
 9120SOL    HW138996   0.354   0.307   0.824  1.6387  1.8570 -0.5685
 9120SOL    HW238997   0.369   0.246   0.691  1.1397  1.0593 -2.6158
 9121SOL     OW38998   4.342   3.918  15.823  0.5638  0.1102 -0.3631
 9121SOL    HW138999   4.328   3.932  15.917 -1.9581  1.1349 -0.9125
 9121SOL    HW239000   4.410   3.850  15.831 -0.3221 -0.7924 -0.5428
 9122SOL     OW39001   2.688   3.847   3.298  0.6432  0.0143  0.3224
 9122SOL    HW139002   2.764   3.803   3.337  1.9367  2.4629  0.5611
 9122SOL    HW239003   2.692   3.825   3.205 -2.2512  3.1133 -0.5075
 9123SOL     OW39004   0.405   1.471   0.356  0.5972 -0.4510 -0.5206
 9123SOL    HW139005   0.366   1.539   0.302  1.0512  1.2682  1.3375
 9123SOL    HW239006   0.330   1.441   0.408  0.5019 -0.2021 -0.5165
 9124SOL     OW39007   3.688   4.051  14.341 -0.4870  0.3742 -0.1154
 9124SOL    HW139008   3.732   3.973  14.376 -0.0530  1.5550  1.9711
 9124SOL    HW239009   3.608   4.041  14.391 -0.2513 -0.6551  0.0617
 9125SOL     OW39010   0.336   4.091  16.234  0.0883  0.5622  0.1798
 9125SOL    HW139011   0.320   4.011  16.285  1.4206  0.0520 -0.2174
 9125SOL    HW239012   0.403   4.069  16.169 -0.7616  1.3747 -0.9787
 9126SOL     OW39013   3.111   0.430   7.536 -0.1514  0.0328 -0.4364
 9126SOL    HW139014   3.137   0.392   7.620 -0.5120 -0.6606 -0.6400
 9126SOL    HW239015   3.019   0.405   7.541  0.2572 -0.9336  2.7066
 9127SOL     OW39016   3.053   0.558   0.950  0.6987 -0.5078  0.1111
 9127SOL    HW139017   2.997   0.495   0.904  0.8031 -0.3041 -0.2956
 9127SOL    HW239018   3.070   0.624   0.883 -0.5795  0.2763  0.5799
 9128SOL     OW39019   1.815   1.888   9.724 -0.3509  0.2472  0.9061
 9128SOL    HW139020   1.872   1.965   9.717 -1.4508  1.0055  0.1231
 9128SOL    HW239021   1.874   1.822   9.689 -0.4282  1.2659 -1.1125
 9129SOL     OW39022   4.376   3.889   8.160 -0.4554 -0.6268 -0.3193
 9129SOL    HW139023   4.396   3.901   8.068  1.6410 -1.2334  0.0636
 9129SOL    HW239024   4.286   3.857   8.155  0.1399 -2.3882 -0.0042
 9130SOL     OW39025   3.583   3.488  14.469  0.2997 -0.3070 -0.1489
 9130SOL    HW139026   3.661   3.511  14.519 -0.1561  0.0783  0.3788
 9130SOL    HW239027   3.594   3.553  14.399  1.6422 -1.7298 -1.2694
 9131SOL     OW39028   4.356   2.570   7.143 -0.0335 -0.0787 -0.1934
 9131SOL    HW139029   4.340   2.532   7.057  1.2910 -1.5427  0.2164
 9131SOL    HW239030   4.382   2.496   7.196  0.7714 -0.4500 -1.1105
 9132SOL     OW39031   1.576   1.369  10.579 -0.5030 -0.4589 -0.2588
 9132SOL    HW139032   1.588   1.460  10.603  1.3354 -0.3293 -1.6823
 9132SOL    HW239033   1.559   1.365  10.485 -0.4430  0.0177 -0.2862
 9133SOL     OW39034   0.840   0.846  13.010 -0.2193 -0.5504  0.3588
 9133SOL    HW139035   0.829   0.761  12.968  0.9667 -0.3280 -0.4039
 9133SOL    HW239036   0.832   0.821  13.102 -0.2160 -0.1033  0.4833
 9134SOL     OW39037   1.193   4.056   2.099  0.1113 -0.3397 -0.0294
 9134SOL    HW139038   1.200   4.136   2.047 -1.3968 -0.1002  0.1485
 9134SOL    HW239039   1.171   4.085   2.188 -2.9260  0.8178 -1.1711
 9135SOL     OW39040   1.567   0.323   6.618 -0.7853 -0.1148 -0.0796
 9135SOL    HW139041   1.641   0.294   6.671 -0.1100  1.2377 -0.3088
 9135SOL    HW239042   1.601   0.402   6.576  0.2693 -0.5438 -0.0247
 9136SOL     OW39043   3.989   2.739   4.309 -0.0663  0.0792 -0.0136
 9136SOL    HW139044   3.896   2.762   4.306 -0.1906 -0.3604  0.5081
 9136SOL    HW239045   3.989   2.658   4.257 -0.2423 -1.5004  2.4822
 9137SOL     OW39046   4.158   1.961  10.209  0.7025  0.0997 -0.0090
 9137SOL    HW139047   4.251   1.960  10.230  0.3374 -1.1652  1.5601
 9137SOL    HW239048   4.122   1.957  10.297 -0.1538  0.5420 -0.3347
 9138SOL     OW39049   3.817   1.804  12.654  0.3824  0.3271  0.3305
 9138SOL    HW139050   3.834   1.715  12.686  0.0012 -0.5169 -1.7798
 9138SOL    HW239051   3.836   1.852  12.734 -1.6038  1.6856 -0.0102
 9139SOL     OW39052   3.197   2.661  11.942  0.0286  0.6983  0.2002
 9139SOL    HW139053   3.172   2.578  11.901  2.7026 -0.7397  1.5187
 9139SOL    HW239054   3.150   2.726  11.890  3.0734  1.6591 -1.3291
 9140SOL     OW39055   1.033   1.799   6.063  0.0411  0.0478 -0.3886
 9140SOL    HW139056   1.000   1.733   6.002 -0.8990 -0.0546  0.2262
 9140SOL    HW239057   1.121   1.770   6.086  0.7158  2.0197 -0.4250
 9141SOL     OW39058   2.199   3.324   7.840 -0.3565  0.1509  0.4720
 9141SOL    HW139059   2.113   3.325   7.797 -0.6981  1.7010  1.2095
 9141SOL    HW239060   2.259   3.298   7.770  0.4666 -0.3078  1.3629
 9142SOL     OW39061   0.585   3.059   5.615 -0.1960  0.0596 -0.4327
 9142SOL    HW139062   0.547   3.081   5.700 -2.1033  1.2672 -1.5996
 9142SOL    HW239063   0.506   3.060   5.560  1.0329 -1.1420 -2.1970
 9143SOL     OW39064   2.607   4.558   9.960 -0.4123  0.2705 -0.1602
 9143SOL    HW139065   2.681   4.580   9.904 -0.4037 -0.9067 -0.6102
 9143SOL    HW239066   2.536   4.586   9.902  0.4977  1.9466 -0.4679
 9144SOL     OW39067   2.408   0.528   9.035  0.9690 -0.1278  0.0744
 9144SOL    HW139068   2.331   0.584   9.042 -0.5072 -2.3679  1.5934
 9144SOL    HW239069   2.460   0.564   9.107 -1.6590  1.8020  0.9804
 9145SOL     OW39070   4.526   0.149   5.192 -0.0802  0.3604 -0.0959
 9145SOL    HW139071   4.580   0.201   5.251 -0.4827  0.2221  0.3870
 9145SOL    HW239072   4.580   0.071   5.173  1.5311  1.5290 -0.3115
 9146SOL     OW39073   3.237   2.634  12.630 -0.7147  0.2699  0.0751
 9146SOL    HW139074   3.328   2.662  12.618 -0.0392 -1.2646  1.6193
 9146SOL    HW239075   3.192   2.715  12.605  1.6948  0.4529 -3.6174
 9147SOL     OW39076   2.138   2.491  15.727  0.0788 -0.2539 -0.4917
 9147SOL    HW139077   2.070   2.513  15.662 -2.5265  1.3712  2.8131
 9147SOL    HW239078   2.099   2.542  15.798 -1.7960 -0.0906 -1.6154
 9148SOL     OW39079   4.188   4.091   8.054  0.7434  0.3892  0.0639
 9148SOL    HW139080   4.177   4.003   8.090 -0.3885 -0.3227 -2.0508
 9148SOL    HW239081   4.130   4.138   8.114 -1.6719 -1.6649 -0.6815
 9149SOL     OW39082   3.633   1.394  12.361  0.2031  0.1274  0.1448
 9149SOL    HW139083   3.726   1.377  12.353  0.2993  0.5282  0.3793
 9149SOL    HW239084   3.631   1.486  12.389 -3.5590 -0.4740  1.8313
 9150SOL     OW39085   3.877   2.805  10.655 -0.3592  0.5385 -0.2368
 9150SOL    HW139086   3.899   2.732  10.713 -0.4504  0.4573 -0.3026
 9150SOL    HW239087   3.934   2.871  10.693 -1.5033  0.9088  0.8389
 9151SOL     OW39088   1.633   3.145   2.229 -0.1980  0.9010  0.5461
 9151SOL    HW139089   1.690   3.068   2.227 -0.5978  0.6858 -2.3943
 9151SOL    HW239090   1.552   3.112   2.268 -0.7370  1.5514 -0.0435
 9152SOL     OW39091   1.011   1.982  12.802 -0.1816 -0.9444 -0.5911
 9152SOL    HW139092   1.010   1.930  12.722  0.0417 -0.0260 -1.1905
 9152SOL    HW239093   1.030   1.920  12.873 -1.4261  1.1782  1.6117
 9153SOL     OW39094   0.970   2.900   5.155 -0.2991  0.0700  0.0873
 9153SOL    HW139095   0.963   2.841   5.081 -0.6519  0.7564 -0.4261
 9153SOL    HW239096   1.041   2.867   5.210  0.0188  1.1244  0.3103
 9154SOL     OW39097   0.701   4.403   5.343  0.4197 -0.4215 -0.7305
 9154SOL    HW139098   0.753   4.368   5.271  0.5091  0.7107 -1.2213
 9154SOL    HW239099   0.762   4.464   5.384 -2.2205  1.3372  0.6247
 9155SOL     OW39100   1.804   1.945   1.496 -0.2248  0.2896 -0.5098
 9155SOL    HW139101   1.841   1.886   1.562 -0.2595  0.0053 -0.7443
 9155SOL    HW239102   1.717   1.908   1.487 -0.3998  0.3250  0.9550
 9156SOL     OW39103   3.511   4.192  12.631  0.3111 -0.3306  0.4454
 9156SOL    HW139104   3.601   4.195  12.600 -0.2667  2.6280 -0.9277
 9156SOL    HW239105   3.517   4.219  12.723 -0.3057  0.3679  0.2841
 9157SOL     OW39106   4.266   3.587   4.054  0.4586 -0.2887 -0.0592
 9157SOL    HW139107   4.182   3.619   4.087 -0.4411 -1.1441 -1.5064
 9157SOL    HW239108   4.325   3.624   4.120 -0.5382 -1.2060  1.3374
 9158SOL     OW39109   1.577   2.193   7.769 -0.2699 -0.2832 -0.0652
 9158SOL    HW139110   1.547   2.160   7.854  0.6891  0.8287  0.6873
 9158SOL    HW239111   1.585   2.285   7.793 -0.4231  0.5477 -3.1505
 9159SOL     OW39112   0.837   1.439  16.138  0.0517 -0.4731  0.1776
 9159SOL    HW139113   0.758   1.443  16.191  0.1123  0.0109  0.2269
 9159SOL    HW239114   0.802   1.476  16.057 -1.4350 -3.0158 -0.3389
 9160SOL     OW39115   3.043   1.763   4.886 -0.1117 -0.3151 -0.0047
 9160SOL    HW139116   3.027   1.759   4.792 -0.4520  1.6066 -0.0415
 9160SOL    HW239117   3.122   1.817   4.896 -0.0395 -0.4665  0.2408
 9161SOL     OW39118   1.714   2.952   6.126 -0.0930  0.1115 -0.2168
 9161SOL    HW139119   1.796   2.934   6.173  0.6756  1.2688 -1.0839
 9161SOL    HW239120   1.668   2.868   6.121 -1.7726  0.8766  2.5727
 9162SOL     OW39121   0.669   4.112   1.856  0.3648  0.1784 -0.1622
 9162SOL    HW139122   0.750   4.127   1.808  1.1626 -0.1825  1.1000
 9162SOL    HW239123   0.686   4.171   1.929 -0.0529  0.2919 -0.1576
 9163SOL     OW39124   0.394   4.518   0.638 -0.1053 -0.6585  0.5690
 9163SOL    HW139125   0.409   4.427   0.613 -1.7130 -0.5624 -0.7199
 9163SOL    HW239126   0.328   4.546   0.576 -0.4487  1.0930  1.7315
 9164SOL     OW39127   4.041   0.205   7.917 -0.0330 -0.4120 -0.6369
 9164SOL    HW139128   4.090   0.260   7.978 -0.3508  0.1589 -0.8924
 9164SOL    HW239129   3.957   0.251   7.913 -0.5992 -1.5264 -1.5599
 9165SOL     OW39130   3.240   3.855   8.964  0.0523 -0.5386  0.7691
 9165SOL    HW139131   3.217   3.947   8.948 -0.1433 -0.9684 -1.4373
 9165SOL    HW239132   3.287   3.840   8.882 -0.1315 -1.8143  0.9043
 9166SOL     OW39133   2.858   0.472   5.928  0.4609 -0.4561 -0.7446
 9166SOL    HW139134   2.930   0.534   5.943  0.6799 -1.2765  1.6901
 9166SOL    HW239135   2.790   0.534   5.953  1.4996  2.3395 -4.8023
 9167SOL     OW39136   0.816   2.316   7.333 -0.4464 -0.3933 -0.3436
 9167SOL    HW139137   0.866   2.274   7.403 -0.2025  1.3183  0.5060
 9167SOL    HW239138   0.725   2.295   7.350 -0.0449 -0.2604  1.9325
 9168SOL     OW39139   4.619   4.128   3.364 -0.5449 -0.2965  0.1293
 9168SOL    HW139140   4.690   4.186   3.392  0.3281 -1.4545  0.3037
 9168SOL    HW239141   4.545   4.180   3.333 -0.8990 -2.1055 -2.0944
 9169SOL     OW39142   2.739   0.168   2.127  0.3796  0.2365 -0.1572
 9169SOL    HW139143   2.771   0.222   2.199 -0.4296  1.1496 -0.4740
 9169SOL    HW239144   2.717   0.088   2.173 -2.2190  0.3013 -1.2873
 9170SOL     OW39145   1.406   3.345  10.018 -0.2774 -0.5334 -0.6731
 9170SOL    HW139146   1.353   3.388  10.086  2.2534 -1.7658  2.0972
 9170SOL    HW239147   1.360   3.364   9.936 -0.9494  1.6326  0.1983
 9171SOL     OW39148   2.044   1.054   8.733 -0.3010 -0.2152  0.0382
 9171SOL    HW139149   2.129   1.016   8.711  0.4932  0.3160  2.1778
 9171SOL    HW239150   2.048   1.118   8.662 -1.0979  1.2935  1.3621
 9172SOL     OW39151   2.505   0.614   3.516  0.1389  0.5351  0.0231
 9172SOL    HW139152   2.412   0.613   3.492 -0.1069 -0.4084  0.9914
 9172SOL    HW239153   2.534   0.702   3.492  0.7925 -0.3720 -2.4336
 9173SOL     OW39154   1.600   1.025   6.707  0.2084  0.0062 -0.1471
 9173SOL    HW139155   1.574   0.953   6.650  1.0126  0.6613 -1.3151
 9173SOL    HW239156   1.537   1.092   6.680  0.4386 -0.3266 -1.4897
 9174SOL     OW39157   1.068   0.006   2.673 -0.7030  0.9443  0.5311
 9174SOL    HW139158   1.129   0.019   2.600 -0.7589 -0.0872  0.3003
 9174SOL    HW239159   0.995   0.067   2.659 -1.0126  0.4163 -0.1509
 9175SOL     OW39160   3.386   1.993   6.579  0.5440  0.4350 -0.1492
 9175SOL    HW139161   3.439   2.025   6.506  1.9520  0.0180  0.6795
 9175SOL    HW239162   3.420   1.904   6.592  0.4935  0.6673  1.5811
 9176SOL     OW39163   1.973   2.566   4.105 -0.3410  0.6667 -0.5885
 9176SOL    HW139164   2.044   2.629   4.119 -0.6064  0.6850  0.6308
 9176SOL    HW239165   2.015   2.502   4.048  0.1378 -0.3174  0.8904
 9177SOL     OW39166   4.620   4.291  17.035  0.3800  0.2258  0.5319
 9177SOL    HW139167   4.683   4.236  17.082  0.4842  1.3018  1.6125
 9177SOL    HW239168   4.647   4.264  16.947 -1.4002  0.7629 -0.1811
 9178SOL     OW39169   4.090   2.940   1.942 -0.0051 -0.3771 -0.1403
 9178SOL    HW139170   4.050   2.912   1.859 -2.7620  0.6061  0.8298
 9178SOL    HW239171   4.015   2.990   1.976  0.1214 -0.0448 -0.3467
 9179SOL     OW39172   3.771   2.720   3.780 -0.1607 -0.5004 -0.1489
 9179SOL    HW139173   3.768   2.701   3.874  1.3718  0.3138  0.0678
 9179SOL    HW239174   3.737   2.635   3.751  0.3338 -0.5667 -0.5308
 9180SOL     OW39175   4.050   1.992   4.363  0.5052 -0.1036  0.2741
 9180SOL    HW139176   4.066   2.038   4.446  1.7493 -0.8846  0.4588
 9180SOL    HW239177   4.116   2.038   4.313  1.5186 -1.3177  0.5054
 9181SOL     OW39178   4.154   0.121   7.698  0.1948 -0.4094 -0.1965
 9181SOL    HW139179   4.102   0.146   7.775 -1.0541  0.1239 -1.2128
 9181SOL    HW239180   4.166   0.028   7.720  0.6157 -0.3738 -0.2872
 9182SOL     OW39181   1.192   3.389   7.983 -0.2722  0.1763 -0.3645
 9182SOL    HW139182   1.261   3.452   7.963  0.8542 -1.0529 -0.4211
 9182SOL    HW239183   1.215   3.318   7.922 -1.5971 -0.3053 -0.2909
 9183SOL     OW39184   4.445   1.878   2.269 -0.6517  0.0324  0.1802
 9183SOL    HW139185   4.508   1.810   2.293 -0.4936 -0.3019 -1.1929
 9183SOL    HW239186   4.500   1.955   2.265  0.2209 -0.7132 -2.1273
 9184SOL     OW39187   0.673   2.758   0.682 -0.6310 -0.1571 -0.6087
 9184SOL    HW139188   0.727   2.830   0.650  0.2979 -0.2047  0.8441
 9184SOL    HW239189   0.626   2.798   0.755  0.1510  1.8286 -1.2134
 9185SOL     OW39190   2.316   2.148   5.968  0.4894 -0.1714  0.1896
 9185SOL    HW139191   2.403   2.147   6.009  0.3856 -0.0216  0.4144
 9185SOL    HW239192   2.323   2.211   5.896  1.1754  0.5411  0.8724
 9186SOL     OW39193   4.686   0.886   8.002 -0.1731 -0.1272 -0.3089
 9186SOL    HW139194   4.686   0.841   7.918 -0.5988  1.0811 -0.9423
 9186SOL    HW239195   4.667   0.817   8.067  1.9576 -1.9565 -1.6144
 9187SOL     OW39196   2.080   0.353  14.347 -0.1164  0.4154 -0.4814
 9187SOL    HW139197   2.160   0.363  14.295 -0.6086  1.9054 -0.9551
 9187SOL    HW239198   2.048   0.265  14.326  0.3232 -0.0693  0.8854
 9188SOL     OW39199   4.048   2.361  13.547  0.2277 -0.1087  0.1963
 9188SOL    HW139200   4.133   2.362  13.502  0.2548  1.4270  0.2600
 9188SOL    HW239201   3.999   2.336  13.470  1.2413 -0.2385 -0.4076
 9189SOL     OW39202   4.069   4.193  16.861  0.0325  0.2347  0.4284
 9189SOL    HW139203   4.067   4.200  16.765  3.0916  0.7509  0.3986
 9189SOL    HW239204   4.065   4.288  16.876  0.1700  0.5234 -1.2714
 9190SOL     OW39205   1.625   2.802   4.882  0.4543  0.0266 -0.3372
 9190SOL    HW139206   1.693   2.850   4.931 -1.2788  2.7545 -0.6007
 9190SOL    HW239207   1.667   2.716   4.877 -0.2685 -0.3995  1.0601
 9191SOL     OW39208   4.200   1.830   4.995 -0.6059 -0.1106  0.5588
 9191SOL    HW139209   4.166   1.742   5.010  1.1292 -1.0892 -1.1757
 9191SOL    HW239210   4.120   1.879   5.012 -1.3566 -1.1202 -0.1078
 9192SOL     OW39211   0.655   0.099   7.074  0.0376 -0.2209 -0.7228
 9192SOL    HW139212   0.583   0.148   7.114 -0.5038 -1.7617  0.1922
 9192SOL    HW239213   0.597   0.027   7.050  0.2898 -1.2726  1.8970
 9193SOL     OW39214   2.946   0.602   4.336 -0.6719 -0.0934  0.5498
 9193SOL    HW139215   2.984   0.515   4.347 -0.0546  0.4587  2.7168
 9193SOL    HW239216   2.928   0.606   4.242  2.3794  3.1517  0.1520
 9194SOL     OW39217   3.445   4.701  10.738  0.5003 -1.0399 -0.3038
 9194SOL    HW139218   3.459   4.653  10.820 -2.0431 -1.2022  0.0230
 9194SOL    HW239219   3.429   4.632  10.673 -0.8475 -1.6623  0.6979
 9195SOL     OW39220   1.520   4.094  14.811  0.0993 -0.1500  0.2501
 9195SOL    HW139221   1.594   4.037  14.790 -1.0650 -0.4521 -3.0126
 9195SOL    HW239222   1.449   4.031  14.802  0.2672 -0.1608 -1.0547
 9196SOL     OW39223   0.954   1.446   9.750  0.1243  0.1149  0.0447
 9196SOL    HW139224   0.888   1.442   9.819  0.2168 -0.9254  0.0817
 9196SOL    HW239225   1.023   1.496   9.794  2.5102 -0.6760 -2.8134
 9197SOL     OW39226   0.761   0.074   4.935 -0.4989 -0.3641  0.1089
 9197SOL    HW139227   0.802   0.033   5.011  1.3326  0.6270 -0.3743
 9197SOL    HW239228   0.673   0.100   4.962  1.0130  2.3831  2.3364
 9198SOL     OW39229   3.462   3.977   2.194  0.5003  0.2540  0.0143
 9198SOL    HW139230   3.366   3.981   2.190  0.4703 -0.2900  0.1349
 9198SOL    HW239231   3.476   3.961   2.288  1.0162  0.6073 -0.0106
 9199SOL     OW39232   1.273   3.661   3.518 -0.4916 -0.2214 -0.1106
 9199SOL    HW139233   1.239   3.612   3.593  0.0398 -1.6083 -0.7650
 9199SOL    HW239234   1.267   3.599   3.445  0.0215 -0.1939 -0.1730
 9200SOL     OW39235   1.702   0.707   2.948 -0.3625 -0.4011 -0.5593
 9200SOL    HW139236   1.649   0.770   2.899  0.3320 -0.8140 -1.8565
 9200SOL    HW239237   1.777   0.711   2.889 -1.2694 -0.9503 -1.7627
 9201SOL     OW39238   3.267   1.892  10.786 -0.1058 -0.2510  0.1827
 9201SOL    HW139239   3.245   1.801  10.764 -1.2980  0.2781 -0.7747
 9201SOL    HW239240   3.230   1.896  10.874  2.3217 -3.1186  1.3544
 9202SOL     OW39241   2.549   0.127   7.205  0.2785  0.0880  0.5019
 9202SOL    HW139242   2.585   0.156   7.289  0.0523  1.6377  0.0479
 9202SOL    HW239243   2.627   0.140   7.151 -0.8145  2.1752 -0.5769
 9203SOL     OW39244   0.826   1.819   2.485 -0.2134  0.5625 -0.0686
 9203SOL    HW139245   0.898   1.867   2.443  0.4208 -0.3130 -0.0008
 9203SOL    HW239246   0.871   1.770   2.554 -1.6892  0.2135  0.6500
 9204SOL     OW39247   2.864   1.663  12.946  0.1712  0.3114  0.3799
 9204SOL    HW139248   2.876   1.757  12.932  2.6809  0.3515  2.8250
 9204SOL    HW239249   2.848   1.652  13.040 -1.1545 -0.3217  0.0806
 9205SOL     OW39250   0.367   4.314  14.013 -0.3687 -0.3955  0.5337
 9205SOL    HW139251   0.298   4.331  13.948  2.3661 -2.7600 -3.0150
 9205SOL    HW239252   0.437   4.351  13.959  0.4779  1.2067  2.7379
 9206SOL     OW39253   2.979   1.988  12.256 -0.5879  0.4199 -0.0174
 9206SOL    HW139254   3.036   2.062  12.274 -0.4742  0.2121  0.5016
 9206SOL    HW239255   3.046   1.919  12.262 -0.6926  0.1483 -2.2132
 9207SOL     OW39256   2.056   0.235   4.686  0.4526 -0.1946 -0.0331
 9207SOL    HW139257   2.058   0.144   4.657  0.1683 -0.2794  0.2180
 9207SOL    HW239258   1.969   0.267   4.663  0.1007  0.7786  2.6761
 9208SOL     OW39259   0.674   1.415   7.729 -0.1639 -0.0237 -0.7373
 9208SOL    HW139260   0.670   1.414   7.633 -1.8349  0.1507 -0.6578
 9208SOL    HW239261   0.715   1.498   7.756  1.4038 -1.2609  0.6900
 9209SOL     OW39262   1.474   4.257   8.917  0.3166 -0.4682 -0.3633
 9209SOL    HW139263   1.388   4.299   8.918  1.0207  0.9780 -1.1373
 9209SOL    HW239264   1.507   4.319   8.983 -0.0921  0.5278 -1.1051
 9210SOL     OW39265   1.138   2.910  14.973  0.0420 -0.9500 -0.4768
 9210SOL    HW139266   1.092   2.834  14.937 -0.3078 -0.8824 -0.1744
 9210SOL    HW239267   1.076   2.978  14.948 -0.4240 -1.5488 -0.9568
 9211SOL     OW39268   1.901   2.678  13.388 -0.1060  0.2554  0.0878
 9211SOL    HW139269   1.827   2.665  13.446 -1.1190  2.6076 -0.6795
 9211SOL    HW239270   1.868   2.642  13.306 -2.9727  0.2144  1.2709
 9212SOL     OW39271   3.643   1.896   4.278  0.0232 -0.0516  0.1680
 9212SOL    HW139272   3.675   1.880   4.367 -0.1800 -0.9420  0.0777
 9212SOL    HW239273   3.549   1.882   4.295 -0.1153  0.6914  0.0468
 9213SOL     OW39274   2.638   4.187  17.248 -0.4624  0.2612  0.3442
 9213SOL    HW139275   2.707   4.242  17.212  0.6054 -1.1823  0.1840
 9213SOL    HW239276   2.569   4.202  17.183 -0.4423 -0.0256  0.2552
 9214SOL     OW39277   0.250   1.180  14.523 -0.4500  0.5272  0.1849
 9214SOL    HW139278   0.324   1.119  14.533 -0.7659  0.3227  1.2269
 9214SOL    HW239279   0.262   1.195  14.429  0.6181 -1.6079 -0.0441
 9215SOL     OW39280   2.582   1.918   1.669 -0.4827  0.2603  0.0892
 9215SOL    HW139281   2.507   1.975   1.653 -1.0859 -0.1136  1.5726
 9215SOL    HW239282   2.621   1.896   1.584  0.1565  3.9017 -0.5494
 9216SOL     OW39283   0.971   3.190  16.651  0.2944 -0.1704 -0.6207
 9216SOL    HW139284   0.902   3.191  16.718  0.7741  1.5624 -0.1550
 9216SOL    HW239285   1.046   3.172  16.708 -0.1355 -1.1700 -0.3528
 9217SOL     OW39286   1.444   1.821  17.055  0.0626  0.1182 -0.0126
 9217SOL    HW139287   1.431   1.747  16.995 -1.0753  0.5153 -0.2691
 9217SOL    HW239288   1.392   1.885  17.006  0.6282  0.2170 -0.4880
 9218SOL     OW39289   0.855   4.542  15.014 -0.0115 -0.0499 -0.3236
 9218SOL    HW139290   0.933   4.583  14.976 -0.9375  1.9734 -0.0283
 9218SOL    HW239291   0.800   4.526  14.937 -1.4119  0.6240  0.5531
 9219SOL     OW39292   0.977   4.539   6.894  0.8128 -0.0440  0.2092
 9219SOL    HW139293   1.042   4.476   6.864  0.3007 -1.4513  2.0395
 9219SOL    HW239294   0.947   4.573   6.810  1.7973 -0.1763 -0.1997
 9220SOL     OW39295   1.609   0.311   0.007 -0.0693  0.3030 -0.1483
 9220SOL    HW139296   1.528   0.308   0.059  0.9719  0.9118  1.4903
 9220SOL    HW239297   1.591   0.394  17.702  0.5902  0.0285 -0.8928
 9221SOL     OW39298   2.170   3.718   1.372 -0.1189  0.6167  0.4186
 9221SOL    HW139299   2.164   3.744   1.280 -0.1486 -1.1678 -0.0868
 9221SOL    HW239300   2.118   3.637   1.373 -0.0536  0.5705  0.1905
 9222SOL     OW39301   2.609   2.129   9.791 -0.2110  0.4708  0.0718
 9222SOL    HW139302   2.531   2.078   9.768 -0.3356  0.6735  0.0406
 9222SOL    HW239303   2.571   2.214   9.813 -0.5288  0.4316 -0.3237
 9223SOL     OW39304   3.417   1.785   4.475 -0.9177 -0.2323  0.0325
 9223SOL    HW139305   3.461   1.776   4.559 -3.3164  2.5807  1.5994
 9223SOL    HW239306   3.457   1.711   4.430  0.9784  0.5364  0.4481
 9224SOL     OW39307   0.088   0.192  11.948 -0.3875  0.1089  0.2068
 9224SOL    HW139308   0.070   0.098  11.943 -0.1150  0.1501 -1.4359
 9224SOL    HW239309   4.732   0.222  11.956  0.2390  2.0818 -0.0351
 9225SOL     OW39310   0.048   3.882   3.442 -0.0809  0.3757  0.2070
 9225SOL    HW139311   0.021   3.905   3.531  0.2887  1.1179  0.1276
 9225SOL    HW239312   4.713   3.931   3.398  0.0755  0.7419  0.3669
 9226SOL     OW39313   2.259   1.794   6.347  0.4204 -0.0647  0.2730
 9226SOL    HW139314   2.339   1.832   6.312  1.2445 -0.3024  1.8972
 9226SOL    HW239315   2.202   1.872   6.350  0.7769  0.2005  0.0475
 9227SOL     OW39316   4.609   1.466   8.376 -0.5207 -0.1590  0.1710
 9227SOL    HW139317   4.663   1.471   8.455  0.6712 -1.1942 -0.5752
 9227SOL    HW239318   4.525   1.469   8.421 -1.3831  2.1148 -1.5916
 9228SOL     OW39319   3.098   0.869   9.584  0.2480  0.5371  0.1850
 9228SOL    HW139320   3.184   0.878   9.624 -0.1333  3.8554  0.2837
 9228SOL    HW239321   3.074   0.960   9.598 -0.1381  0.6875 -1.4607
 9229SOL     OW39322   1.743   3.923   6.540  0.2332 -0.8745  0.5177
 9229SOL    HW139323   1.774   3.832   6.537  0.5659 -0.7639  0.6002
 9229SOL    HW239324   1.815   3.970   6.581 -0.5738  0.1062  0.8198
 9230SOL     OW39325   1.966   1.312   4.150 -0.7706  0.6583  0.4790
 9230SOL    HW139326   2.052   1.280   4.121 -0.7210 -0.4256  1.7873
 9230SOL    HW239327   1.975   1.289   4.243 -2.8826 -2.1857 -0.0351
 9231SOL     OW39328   1.106   2.637   6.965  0.0383 -0.3898  0.4189
 9231SOL    HW139329   1.066   2.628   7.051  0.8849  1.5898  1.0205
 9231SOL    HW239330   1.040   2.674   6.907 -1.5678 -1.6748  1.4428
 9232SOL     OW39331   2.652   2.450   5.344 -0.1442 -0.4264 -0.5973
 9232SOL    HW139332   2.627   2.368   5.385 -3.0311 -0.1217 -1.7372
 9232SOL    HW239333   2.710   2.482   5.413 -1.0227 -1.0827  0.4326
 9233SOL     OW39334   0.347   3.967   8.658  0.2438 -0.2209 -0.3581
 9233SOL    HW139335   0.407   3.940   8.728 -1.8669 -0.4697  1.3625
 9233SOL    HW239336   0.331   4.057   8.684  0.6250 -0.2006 -0.1964
 9234SOL     OW39337   0.328   0.462   4.692 -0.8036 -0.7119  0.2002
 9234SOL    HW139338   0.413   0.504   4.686 -1.1727 -0.2125 -1.8676
 9234SOL    HW239339   0.290   0.484   4.607 -1.1034 -0.3556  0.4276
 9235SOL     OW39340   3.792   1.893  16.172 -0.0170  0.5914 -0.3322
 9235SOL    HW139341   3.752   1.906  16.258  3.5605  0.3794  1.3690
 9235SOL    HW239342   3.876   1.936  16.185  0.0562 -0.2979  2.2046
 9236SOL     OW39343   0.256   0.150   3.838 -0.6160  0.2283 -0.1319
 9236SOL    HW139344   0.212   0.233   3.823 -0.6869 -0.3229 -2.9237
 9236SOL    HW239345   0.337   0.192   3.868  0.0265  0.1221 -1.7377
 9237SOL     OW39346   3.459   4.069   7.203 -0.4602  0.0585  0.2527
 9237SOL    HW139347   3.437   4.008   7.132  2.0301  2.7208 -2.8070
 9237SOL    HW239348   3.520   4.129   7.159  0.0286 -1.1471 -0.7236
 9238SOL     OW39349   4.334   3.779   2.135  0.5609 -0.8301  0.7273
 9238SOL    HW139350   4.334   3.875   2.129  0.8942 -0.8771 -0.1129
 9238SOL    HW239351   4.386   3.757   2.057 -1.0015  0.1434 -0.5848
 9239SOL     OW39352   2.454   3.214   5.992  0.3345  0.3532 -0.1733
 9239SOL    HW139353   2.419   3.142   5.939 -0.0323  0.8447 -0.6067
 9239SOL    HW239354   2.404   3.205   6.073  1.4044 -0.7358  0.3701
 9240SOL     OW39355   4.080   1.445   3.074  0.5028 -0.3307 -0.3492
 9240SOL    HW139356   4.041   1.484   3.152  0.4124 -2.0802  0.4748
 9240SOL    HW239357   4.003   1.421   3.022 -0.0358  0.5702  0.0459
 9241SOL     OW39358   4.500   2.943   7.435 -0.8247 -0.1254  0.0347
 9241SOL    HW139359   4.573   2.964   7.493  1.3613 -1.0812 -2.3784
 9241SOL    HW239360   4.497   3.018   7.374  1.4812  1.2650  1.6385
 9242SOL     OW39361   1.668   2.362  12.509 -0.2650  0.2817 -0.1783
 9242SOL    HW139362   1.744   2.362  12.568 -1.5701 -0.5180  1.4939
 9242SOL    HW239363   1.614   2.318  12.574 -0.7763 -3.4494 -3.0937
 9243SOL     OW39364   1.752   2.827   3.664  0.4880 -0.1372 -0.3646
 9243SOL    HW139365   1.836   2.784   3.679 -0.0193 -1.5015 -1.4719
 9243SOL    HW239366   1.727   2.785   3.582 -0.7358  1.6078 -0.8756
 9244SOL     OW39367   0.700   2.029   0.348  0.2246  0.2862  0.1577
 9244SOL    HW139368   0.773   1.970   0.367 -0.0919  0.3044  1.4294
 9244SOL    HW239369   0.743   2.111   0.374 -1.7606  1.8657 -1.5251
 9245SOL     OW39370   3.268   0.702   9.097  0.1231  0.7290 -0.3507
 9245SOL    HW139371   3.253   0.608   9.105 -0.5199  0.9075  0.5221
 9245SOL    HW239372   3.359   0.706   9.067 -0.1235  2.9642 -0.8091
 9246SOL     OW39373   4.202   1.058   8.872 -0.2100 -0.0329  0.1555
 9246SOL    HW139374   4.123   1.110   8.858  0.6836  1.4872  0.7086
 9246SOL    HW239375   4.210   1.012   8.789 -3.1070 -0.6026  0.1932
 9247SOL     OW39376   1.978   1.177   2.519 -0.0496  0.1979  0.2388
 9247SOL    HW139377   2.069   1.147   2.516 -0.4982 -0.9375 -1.8724
 9247SOL    HW239378   1.996   1.267   2.546  2.4805 -0.4156  0.6482
 9248SOL     OW39379   3.549   0.318   5.673 -0.3474 -0.7458 -0.2124
 9248SOL    HW139380   3.614   0.248   5.662  1.1904  0.6428  0.0130
 9248SOL    HW239381   3.591   0.382   5.617  1.0056 -0.4583  1.1204
 9249SOL     OW39382   0.714   1.412   6.880  0.4349  0.2754 -0.0719
 9249SOL    HW139383   0.628   1.445   6.856  0.8020  0.0974 -1.6251
 9249SOL    HW239384   0.696   1.341   6.941  1.2860  0.8165  0.8222
 9250SOL     OW39385   3.204   3.726   9.186 -1.3830 -0.3448  0.1682
 9250SOL    HW139386   3.238   3.770   9.107  0.4788 -1.8591  0.1190
 9250SOL    HW239387   3.242   3.641   9.165 -2.8425 -0.7534 -0.8170
 9251SOL     OW39388   2.789   4.368  17.137 -0.0940 -0.2700  0.1429
 9251SOL    HW139389   2.740   4.449  17.154  0.7441  0.1961  0.3254
 9251SOL    HW239390   2.849   4.399  17.069 -0.8503 -0.4395 -0.6123
 9252SOL     OW39391   0.230   1.094   2.857 -0.4837  0.7282  0.1587
 9252SOL    HW139392   0.192   1.178   2.831 -2.0043  0.1108  0.3420
 9252SOL    HW239393   0.230   1.049   2.773 -1.6263  1.7376 -0.3809
 9253SOL     OW39394   1.104   0.788   8.709 -0.4060 -0.1990 -0.5153
 9253SOL    HW139395   1.095   0.770   8.616 -0.7448 -0.1718 -0.4886
 9253SOL    HW239396   1.150   0.713   8.746 -2.0295 -0.8565  0.1756
 9254SOL     OW39397   3.848   3.955  13.567 -0.5932 -0.1798 -0.7110
 9254SOL    HW139398   3.919   3.896  13.594 -0.4149  1.6701  2.8959
 9254SOL    HW239399   3.796   3.897  13.513  1.8869 -2.5960 -0.5269
 9255SOL     OW39400   1.628   0.212  16.389  0.3064  0.4375  0.0067
 9255SOL    HW139401   1.700   0.261  16.351  1.8764 -2.8989 -1.2769
 9255SOL    HW239402   1.582   0.278  16.441  1.0419  0.8034  0.1935
 9256SOL     OW39403   2.454   1.410   2.060 -0.4391  0.3811  0.1516
 9256SOL    HW139404   2.468   1.450   1.974  0.3327  1.0806  0.6130
 9256SOL    HW239405   2.363   1.441   2.066  0.0181  1.0520  3.2440
 9257SOL     OW39406   0.989   1.084   8.000  0.6214  0.8312 -0.0367
 9257SOL    HW139407   1.042   1.147   7.951 -0.2455  3.4806  2.4185
 9257SOL    HW239408   0.904   1.127   8.012 -0.0979 -0.7451  0.6030
 9258SOL     OW39409   2.325   0.837  15.813 -0.2314  0.9105 -0.9007
 9258SOL    HW139410   2.273   0.880  15.745 -0.9202 -1.8700 -2.1736
 9258SOL    HW239411   2.251   0.824  15.871  0.4530  0.1601 -0.1848
 9259SOL     OW39412   3.252   3.623  16.109 -0.2080 -0.4021  0.4332
 9259SOL    HW139413   3.276   3.554  16.170  0.8432 -2.0989 -1.8847
 9259SOL    HW239414   3.158   3.636  16.126 -0.5553 -3.0741  0.6469
 9260SOL     OW39415   0.792   4.490   7.068  0.3256  0.1139  0.1123
 9260SOL    HW139416   0.859   4.507   7.002  0.6683 -2.0826 -0.0915
 9260SOL    HW239417   0.802   4.570   7.119  0.3438 -0.6590  1.3117
 9261SOL     OW39418   1.290   2.238  12.628  0.2332  0.3715  0.2880
 9261SOL    HW139419   1.273   2.163  12.572 -0.6612  0.6513  0.1953
 9261SOL    HW239420   1.297   2.302  12.557 -4.7106  2.3278  1.5375
 9262SOL     OW39421   4.103   2.124  16.702  0.5111  0.1320  0.1401
 9262SOL    HW139422   4.123   2.170  16.784  1.4464 -1.3699  0.7470
 9262SOL    HW239423   4.189   2.119  16.661 -0.2090 -2.3108 -1.0893
 9263SOL     OW39424   1.031   3.931   5.792 -0.3248 -0.5432  0.1942
 9263SOL    HW139425   1.097   3.997   5.775 -0.6024 -0.0170  1.1421
 9263SOL    HW239426   0.982   3.986   5.854  1.1834  1.5067 -0.4389
 9264SOL     OW39427   3.781   3.786  17.240  0.0980 -0.2805  0.1411
 9264SOL    HW139428   3.729   3.805  17.163 -0.5505 -0.4636  0.5383
 9264SOL    HW239429   3.847   3.856  17.234  1.3409 -1.7767 -3.3174
 9265SOL     OW39430   1.065   0.813   9.764 -0.2975 -0.0901  0.1739
 9265SOL    HW139431   0.986   0.772   9.798 -0.9650 -2.0929 -3.7634
 9265SOL    HW239432   1.030   0.867   9.693 -0.6099  0.2913  0.6205
 9266SOL     OW39433   1.272   1.141   5.178  0.0086 -0.2299 -0.2180
 9266SOL    HW139434   1.270   1.227   5.222 -4.0067 -1.2356  1.5487
 9266SOL    HW239435   1.342   1.162   5.117  0.0259  2.7661  0.8139
 9267SOL     OW39436   0.628   1.926   4.562  0.0005  0.2414 -0.0587
 9267SOL    HW139437   0.687   1.970   4.501  0.8905  0.0529  0.6539
 9267SOL    HW239438   0.564   1.890   4.501 -0.5793  1.7536 -0.3373
 9268SOL     OW39439   1.206   3.919   7.599 -0.2534  0.3411 -0.1615
 9268SOL    HW139440   1.291   3.960   7.617  0.7029 -0.5928 -2.5712
 9268SOL    HW239441   1.221   3.887   7.510  2.3943 -2.7517  1.4007
 9269SOL     OW39442   0.045   3.360   2.179  0.1321 -0.3235 -0.0606
 9269SOL    HW139443   4.719   3.422   2.219  1.9329 -0.3466  2.6670
 9269SOL    HW239444   0.121   3.395   2.226  0.5227  0.3931 -1.2114
 9270SOL     OW39445   1.560   2.297   1.176 -0.5164  0.6767  0.2596
 9270SOL    HW139446   1.634   2.239   1.156 -2.2452 -1.5066  0.1915
 9270SOL    HW239447   1.549   2.261   1.264 -0.8540  0.5991  0.1869
 9271SOL     OW39448   4.168   2.887   6.253 -0.2098 -0.5890 -0.6902
 9271SOL    HW139449   4.246   2.847   6.216  1.1143  2.3831 -1.1574
 9271SOL    HW239450   4.177   2.978   6.224 -0.3130 -1.3480 -3.0521
 9272SOL     OW39451   2.735   4.702   2.337  0.3782  0.3396  0.9144
 9272SOL    HW139452   2.729   4.607   2.322 -2.3399  0.4325  1.5335
 9272SOL    HW239453   2.644   4.716   2.360  0.8344  0.9211  2.3276
 9273SOL     OW39454   0.895   0.568   6.115 -0.5792 -0.2187 -0.4368
 9273SOL    HW139455   0.866   0.519   6.038  0.5505  0.5947 -1.3761
 9273SOL    HW239456   0.810   0.590   6.154 -0.9291 -3.1824  0.4812
 9274SOL     OW39457   3.707   1.933   5.151  0.2859  0.6380 -0.1826
 9274SOL    HW139458   3.713   1.926   5.056 -0.7884 -0.7866 -0.1507
 9274SOL    HW239459   3.642   2.002   5.165 -0.4090  0.0475 -0.4984
 9275SOL     OW39460   2.203   0.322  15.171 -0.0580  0.0540 -0.2547
 9275SOL    HW139461   2.162   0.272  15.242  0.5715 -0.5864 -0.3517
 9275SOL    HW239462   2.250   0.389  15.221  0.1270  1.8003 -2.7835
 9276SOL     OW39463   3.503   2.825   4.549 -0.1139 -0.2588 -0.5917
 9276SOL    HW139464   3.510   2.901   4.606  0.6727 -0.8946  0.1640
 9276SOL    HW239465   3.409   2.831   4.533  0.1914  1.2023 -1.8356
 9277SOL     OW39466   1.034   0.640   7.298 -0.1381 -0.5099  0.7909
 9277SOL    HW139467   1.125   0.617   7.315  0.5962  1.4754 -0.4107
 9277SOL    HW239468   0.995   0.580   7.234  0.3010 -1.2323  1.2082
 9278SOL     OW39469   4.298   2.571   7.535  0.5628 -0.2181 -0.5220
 9278SOL    HW139470   4.319   2.490   7.488 -1.1248  0.0573 -1.7193
 9278SOL    HW239471   4.214   2.587   7.493  1.3298 -0.4309 -2.1111
 9279SOL     OW39472   0.968   3.360   7.135 -0.0535 -0.0292 -0.9908
 9279SOL    HW139473   1.002   3.351   7.046  1.0452  1.6791 -0.7449
 9279SOL    HW239474   0.920   3.279   7.151  0.4469 -0.1478 -0.1082
 9280SOL     OW39475   4.297   1.614  12.425 -0.1170 -0.1410 -0.2342
 9280SOL    HW139476   4.331   1.698  12.396  0.6131  0.2368  1.6757
 9280SOL    HW239477   4.307   1.567  12.343 -1.8276 -1.2208  0.1820
 9281SOL     OW39478   2.560   1.584   7.410  0.3249  0.5521 -0.2493
 9281SOL    HW139479   2.545   1.490   7.406 -0.3767  0.7496 -1.9320
 9281SOL    HW239480   2.577   1.616   7.321 -0.0994  2.1087  0.2250
 9282SOL     OW39481   0.543   4.151   6.249  0.4099 -0.8061 -0.0634
 9282SOL    HW139482   0.586   4.092   6.311  0.1517 -0.5570  0.3507
 9282SOL    HW239483   0.532   4.092   6.175  1.9818  0.9146 -1.6792
 9283SOL     OW39484   2.753   4.394  10.138 -0.1889  0.2010  0.2980
 9283SOL    HW139485   2.688   4.440  10.086  0.8663 -0.3810 -1.5071
 9283SOL    HW239486   2.832   4.441  10.113 -0.7680 -0.5929 -2.9215
 9284SOL     OW39487   0.303   0.748   2.234 -0.2250  0.4777  0.2013
 9284SOL    HW139488   0.263   0.698   2.163 -0.4762 -1.0863  1.4545
 9284SOL    HW239489   0.367   0.804   2.190  0.0429 -2.5066 -3.1514
 9285SOL     OW39490   2.752   4.032  15.764  0.0137  0.2666  0.5142
 9285SOL    HW139491   2.758   3.939  15.744  0.8487  0.2567  0.7955
 9285SOL    HW239492   2.803   4.072  15.694  0.5823 -0.7386  0.3531
 9286SOL     OW39493   1.123   3.480   9.595  0.2753 -0.0548  0.2177
 9286SOL    HW139494   1.081   3.471   9.510 -0.0587  1.8571  0.1815
 9286SOL    HW239495   1.078   3.559   9.627  1.9370  1.5440 -1.3791
 9287SOL     OW39496   3.415   4.519  12.021 -0.5209 -0.1077 -0.1853
 9287SOL    HW139497   3.472   4.444  12.002 -2.4798 -2.0763  1.6583
 9287SOL    HW239498   3.382   4.501  12.109  1.2482  1.5835  0.8258
 9288SOL     OW39499   1.854   2.057  14.520 -0.1503 -0.3678  0.1319
 9288SOL    HW139500   1.910   2.009  14.580  0.2653 -0.7677 -0.5776
 9288SOL    HW239501   1.812   2.123  14.576 -0.5186  0.6408 -1.3218
 9289SOL     OW39502   3.354   0.077   6.992 -0.6960 -0.2461  0.4169
 9289SOL    HW139503   3.402   4.733   7.013  0.4498  0.1625 -0.6302
 9289SOL    HW239504   3.387   0.069   6.902  0.2917 -0.5538  0.8129
 9290SOL     OW39505   1.427   2.319   0.825 -0.2651 -0.2246 -0.7640
 9290SOL    HW139506   1.388   2.240   0.862 -0.7942  0.6973  0.6736
 9290SOL    HW239507   1.453   2.298   0.736 -0.9463  0.6186 -1.1623
 9291SOL     OW39508   4.191   3.350  10.434 -0.1406  0.4070 -0.0482
 9291SOL    HW139509   4.152   3.268  10.406  0.8530  0.8369 -2.6639
 9291SOL    HW239510   4.279   3.325  10.406 -0.1290 -0.3204  0.6353
 9292SOL     OW39511   0.149   2.022  13.881  0.3853  0.1224  0.2366
 9292SOL    HW139512   0.208   1.984  13.816 -1.3151 -1.0295 -0.6665
 9292SOL    HW239513   0.117   1.947  13.932  2.7432 -0.2381  1.1792
 9293SOL     OW39514   2.206   3.430  16.164  0.2191 -0.3318 -0.0409
 9293SOL    HW139515   2.185   3.523  16.168  1.6456  0.0650 -1.7807
 9293SOL    HW239516   2.289   3.424  16.116  0.7583  1.4667  0.6720
 9294SOL     OW39517   2.137   3.743   4.574 -0.3138  0.1166  0.7621
 9294SOL    HW139518   2.050   3.710   4.593  0.0943 -1.2585  0.2141
 9294SOL    HW239519   2.165   3.785   4.655  0.2515 -0.7192  0.9948
 9295SOL     OW39520   2.608   0.262   5.853 -0.2983 -0.4294  0.8209
 9295SOL    HW139521   2.548   0.328   5.888 -2.6444 -1.8377 -0.5737
 9295SOL    HW239522   2.683   0.314   5.881 -0.2527 -1.1241  1.9467
 9296SOL     OW39523   3.006   3.652   8.749 -0.2970  0.6009  0.0573
 9296SOL    HW139524   3.091   3.629   8.712 -0.5476 -1.7343  0.9211
 9296SOL    HW239525   2.997   3.575   8.805 -1.5624 -0.9684 -2.3028
 9297SOL     OW39526   2.227   1.533  12.338 -0.0063  0.5313 -0.9280
 9297SOL    HW139527   2.302   1.553  12.283  1.8954 -0.9578  1.1287
 9297SOL    HW239528   2.158   1.574  12.285 -2.5835 -0.2300  1.8526
 9298SOL     OW39529   2.036   1.728   6.556 -0.1000  0.0559  0.5067
 9298SOL    HW139530   2.100   1.680   6.609 -1.3801  0.0225  2.0159
 9298SOL    HW239531   2.078   1.740   6.470 -2.1492  1.3024 -0.3237
 9299SOL     OW39532   3.190   4.312   9.706  0.2813 -0.6871 -0.5015
 9299SOL    HW139533   3.146   4.229   9.684  1.1993 -1.3027  0.0029
 9299SOL    HW239534   3.163   4.356   9.625 -1.6000 -0.0109  0.4783
 9300SOL     OW39535   3.451   3.315   5.642  0.4523  0.2266 -0.4270
 9300SOL    HW139536   3.450   3.405   5.674  1.8667  0.7559 -1.8383
 9300SOL    HW239537   3.373   3.281   5.685  0.9870 -1.4696 -0.7946
 9301SOL     OW39538   1.252   1.453   8.410 -0.4085  0.6830  0.0522
 9301SOL    HW139539   1.191   1.447   8.484 -0.9896  1.8830 -0.3259
 9301SOL    HW239540   1.183   1.448   8.345 -0.9111  0.3042  0.6144
 9302SOL     OW39541   2.109   2.302   4.571 -0.6065 -0.4731  0.3479
 9302SOL    HW139542   2.161   2.258   4.504  0.8620  0.2782  0.9932
 9302SOL    HW239543   2.038   2.334   4.517  0.4981 -1.7070 -1.8424
 9303SOL     OW39544   0.790   0.679   3.443  0.4269 -0.3412 -0.5496
 9303SOL    HW139545   0.807   0.654   3.352 -0.2108  0.2892 -0.8371
 9303SOL    HW239546   0.695   0.692   3.447  0.8627  1.9035  2.4578
 9304SOL     OW39547   1.681   1.566   8.532  0.1859  0.2980  0.3908
 9304SOL    HW139548   1.652   1.653   8.558 -0.1929 -0.2018  1.6138
 9304SOL    HW239549   1.777   1.572   8.537  0.4022 -2.1892 -0.3955
 9305SOL     OW39550   3.005   0.612  14.332  0.3489  0.0702 -0.5220
 9305SOL    HW139551   3.034   0.552  14.400  2.4349  0.8022 -0.7485
 9305SOL    HW239552   2.961   0.678  14.387  0.3458 -0.2214 -0.1769
 9306SOL     OW39553   1.573   0.740   3.429 -0.8853  0.5966  0.0520
 9306SOL    HW139554   1.607   0.751   3.341  1.7944 -0.1000  1.0008
 9306SOL    HW239555   1.605   0.818   3.473 -1.5709  1.9511 -1.8762
 9307SOL     OW39556   3.640   3.756   4.601  0.5654 -0.1272  0.3897
 9307SOL    HW139557   3.686   3.825   4.649  0.5610  0.2839 -0.1988
 9307SOL    HW239558   3.568   3.739   4.662 -0.2373  2.1825  0.0812
 9308SOL     OW39559   0.364   3.972   6.905 -0.5937  0.3267  0.2140
 9308SOL    HW139560   0.416   4.052   6.891  0.4597 -0.5449 -0.8493
 9308SOL    HW239561   0.413   3.942   6.981  0.0984  1.6984  0.3149
 9309SOL     OW39562   0.377   3.202  12.514 -0.0410  0.2378 -0.2063
 9309SOL    HW139563   0.309   3.179  12.576 -0.6301  0.2308 -0.8544
 9309SOL    HW239564   0.439   3.246  12.572  0.5134 -0.2811 -0.4027
 9310SOL     OW39565   1.637   0.951   7.173 -0.2743  0.1835 -0.9388
 9310SOL    HW139566   1.541   0.953   7.181 -0.3060  1.5124 -1.6310
 9310SOL    HW239567   1.647   0.926   7.082  1.6980 -1.0263 -0.3773
 9311SOL     OW39568   1.240   1.130   6.735 -0.3619 -0.6215 -0.7266
 9311SOL    HW139569   1.281   1.185   6.802 -1.2574  1.1074 -1.6211
 9311SOL    HW239570   1.302   1.141   6.663  1.0688 -0.7084  0.4867
 9312SOL     OW39571   1.803   3.896   2.533  0.2091 -0.1968  0.0574
 9312SOL    HW139572   1.821   3.933   2.447  1.8833  1.1377  0.9678
 9312SOL    HW239573   1.856   3.817   2.547  0.1374  0.0026  1.4413
 9313SOL     OW39574   2.745   1.339   5.085  0.1791  0.0498 -0.1620
 9313SOL    HW139575   2.662   1.300   5.112 -1.7233  1.2839 -4.3101
 9313SOL    HW239576   2.781   1.278   5.021  0.6667  1.4802 -1.2553
 9314SOL     OW39577   1.778   0.595  16.712  0.1362 -0.2335  0.0475
 9314SOL    HW139578   1.722   0.662  16.751 -0.3602 -0.6048 -0.0163
 9314SOL    HW239579   1.865   0.632  16.697  0.1219 -0.1374  0.2079
 9315SOL     OW39580   4.416   0.561   4.769 -0.1411  0.1858 -0.0447
 9315SOL    HW139581   4.483   0.496   4.747  0.1949  0.5670 -0.1464
 9315SOL    HW239582   4.466   0.632   4.809  0.3592 -0.5456  0.6246
 9316SOL     OW39583   2.015   2.047   9.738  0.0229 -0.6574 -0.1493
 9316SOL    HW139584   2.040   2.099   9.815  2.4743 -0.6413 -0.9808
 9316SOL    HW239585   2.091   2.051   9.680  1.1796 -4.2809  1.1179
 9317SOL     OW39586   2.772   4.549   1.613  0.2769  0.0070 -0.0597
 9317SOL    HW139587   2.802   4.472   1.564 -1.8892  1.1657 -3.2044
 9317SOL    HW239588   2.677   4.537   1.624  0.1898  1.8513  1.2305
 9318SOL     OW39589   1.368   0.753   8.526  0.0884 -0.3279 -0.1210
 9318SOL    HW139590   1.327   0.838   8.541  0.6973 -0.0658  0.0786
 9318SOL    HW239591   1.345   0.755   8.434 -2.6743  1.2654  0.6131
 9319SOL     OW39592   0.404   0.947   3.142  0.1586  0.8952  0.0509
 9319SOL    HW139593   0.418   0.914   3.054 -0.2269  0.9303 -0.0245
 9319SOL    HW239594   0.489   0.913   3.170  0.3697  1.0637 -0.3858
 9320SOL     OW39595   0.189   4.393   7.091  0.7416 -0.5425 -0.3854
 9320SOL    HW139596   0.169   4.487   7.091  3.7052  0.0860 -1.2210
 9320SOL    HW239597   0.143   4.356   7.167 -0.4842 -0.4543 -1.0844
 9321SOL     OW39598   0.763   0.162   9.267 -0.5954 -0.4891 -0.0897
 9321SOL    HW139599   0.790   0.119   9.185  1.5221  0.8383 -0.0687
 9321SOL    HW239600   0.811   0.244   9.270 -1.8487  0.2448 -0.3374
 9322SOL     OW39601   0.899   3.023   0.296  0.3943 -0.4995 -0.5596
 9322SOL    HW139602   0.873   3.021   0.204 -2.4102 -1.2862  0.2427
 9322SOL    HW239603   0.946   2.940   0.301 -0.1306 -0.7299  0.5430
 9323SOL     OW39604   3.900   2.302   7.971 -0.1331 -0.4421  0.2006
 9323SOL    HW139605   3.914   2.219   8.016 -1.9411 -1.2548 -0.7446
 9323SOL    HW239606   3.967   2.292   7.904  0.1300  2.7982 -0.0054
 9324SOL     OW39607   0.587   3.498   8.253 -0.0585  0.0335 -0.7987
 9324SOL    HW139608   0.561   3.535   8.338  1.7302 -2.3580  0.8188
 9324SOL    HW239609   0.549   3.562   8.194 -0.3881 -0.4544 -1.1190
 9325SOL     OW39610   4.657   0.220   6.458  0.0399  0.5635 -0.4364
 9325SOL    HW139611   4.611   0.162   6.518  1.2404 -0.6068 -0.6583
 9325SOL    HW239612   4.624   0.303   6.494 -2.0359 -0.9677  1.1662
 9326SOL     OW39613   2.326   4.236  11.615 -0.0556 -0.0875  0.0386
 9326SOL    HW139614   2.280   4.193  11.542 -1.0649  0.1098  0.5632
 9326SOL    HW239615   2.273   4.313  11.632  0.4386  0.1831  0.3403
 9327SOL     OW39616   4.518   0.351   5.901  0.4732  0.5452  0.4212
 9327SOL    HW139617   4.564   0.392   5.975  1.8272  0.1798 -0.2222
 9327SOL    HW239618   4.439   0.404   5.912 -0.3829 -0.2777 -1.8803
 9328SOL     OW39619   2.911   4.362   1.452  0.4901  0.1133 -0.1332
 9328SOL    HW139620   2.900   4.292   1.388  2.1155 -1.1142  0.9557
 9328SOL    HW239621   2.926   4.432   1.388 -0.7116 -0.4214 -1.0086
 9329SOL     OW39622   1.433   0.974   5.989  0.2195 -0.0119 -0.4633
 9329SOL    HW139623   1.527   0.977   5.972 -0.1851 -0.0816 -2.7119
 9329SOL    HW239624   1.401   1.042   5.930 -0.7040 -2.8642 -3.2623
 9330SOL     OW39625   3.356   4.518   7.909  0.3859 -0.4163 -0.1236
 9330SOL    HW139626   3.383   4.610   7.899 -1.9823  0.0718 -2.1344
 9330SOL    HW239627   3.443   4.494   7.940  1.3245  1.3883 -1.3009
 9331SOL     OW39628   3.843   1.091   3.001 -0.3513  0.3460  0.2119
 9331SOL    HW139629   3.827   1.185   2.993 -0.4263  0.1653 -1.5788
 9331SOL    HW239630   3.820   1.070   2.911 -1.2071 -0.3665  0.5968
 9332SOL     OW39631   0.073   2.414   6.048 -0.0297 -0.1618 -0.4378
 9332SOL    HW139632   0.091   2.327   6.082 -6.1190 -1.6600 -1.0414
 9332SOL    HW239633   0.043   2.456   6.129 -1.7302  0.1667 -1.2280
 9333SOL     OW39634   0.031   4.109   4.005 -0.1128  0.4001  0.1196
 9333SOL    HW139635   0.052   4.155   4.087 -0.2487 -0.3023  0.5427
 9333SOL    HW239636   0.015   4.021   4.037  0.1168 -0.2629 -1.6142
 9334SOL     OW39637   2.704   2.503   3.630  0.1807  0.5050 -0.2357
 9334SOL    HW139638   2.712   2.561   3.706  0.9160 -0.0184  0.0826
 9334SOL    HW239639   2.622   2.538   3.596  0.1495  0.2479 -0.4303
 9335SOL     OW39640   0.925   4.483   2.962  0.3583  1.0027  0.3247
 9335SOL    HW139641   0.856   4.501   3.027  0.9668  1.3343  0.8840
 9335SOL    HW239642   0.881   4.524   2.887 -1.2367 -1.7600 -0.2563
 9336SOL     OW39643   1.458   2.492   9.526  0.1827  0.1097 -0.3289
 9336SOL    HW139644   1.476   2.476   9.619 -2.4910  2.4387  0.5984
 9336SOL    HW239645   1.531   2.453   9.479 -0.0718 -0.2975 -0.3837
 9337SOL     OW39646   0.857   2.050   8.568 -0.8518 -0.0410 -0.1919
 9337SOL    HW139647   0.949   2.044   8.544 -1.0032 -0.4089 -0.6725
 9337SOL    HW239648   0.865   2.100   8.649  1.2832 -1.0701  0.2174
 9338SOL     OW39649   4.478   3.108   3.605  0.0075 -0.1770 -0.3351
 9338SOL    HW139650   4.513   3.193   3.577 -1.4221  0.8043  0.8322
 9338SOL    HW239651   4.502   3.045   3.537  0.6685  0.5779 -0.8027
 9339SOL     OW39652   2.150   4.416  15.636 -0.3386 -0.1441 -0.6326
 9339SOL    HW139653   2.240   4.426  15.605  0.5903 -1.4197  1.5847
 9339SOL    HW239654   2.141   4.330  15.596  0.5735  0.4352 -2.0552
 9340SOL     OW39655   0.960   0.029  14.762 -0.2255  0.0296  0.4568
 9340SOL    HW139656   0.935   0.118  14.737 -0.1136 -0.3170 -0.8953
 9340SOL    HW239657   1.017   0.053  14.835 -0.6546 -0.1240  0.8428
 9341SOL     OW39658   2.606   2.155   8.548 -0.3994 -0.3854 -0.4098
 9341SOL    HW139659   2.636   2.191   8.632  0.1047 -2.4859  0.3104
 9341SOL    HW239660   2.688   2.163   8.499  0.1072 -0.7965  0.3570
 9342SOL     OW39661   1.820   0.828   6.376  0.1178 -0.6543  0.5131
 9342SOL    HW139662   1.839   0.764   6.307  0.0212  0.3380 -0.4344
 9342SOL    HW239663   1.907   0.864   6.393 -0.1743  0.2613  0.0996
 9343SOL     OW39664   0.415   4.453  16.560  0.4576  0.0314 -0.2393
 9343SOL    HW139665   0.347   4.431  16.623  1.0857 -1.2765 -0.0174
 9343SOL    HW239666   0.382   4.410  16.481 -1.4455 -0.4058  0.7853
 9344SOL     OW39667   4.118   4.481  10.951  0.5686  0.2747  0.5209
 9344SOL    HW139668   4.088   4.391  10.945  1.4067  0.1277 -1.3635
 9344SOL    HW239669   4.068   4.512  10.876 -0.1654  0.6892  1.1791
 9345SOL     OW39670   0.571   1.866  17.559  0.0235  0.0111 -0.5586
 9345SOL    HW139671   0.627   1.943  17.567  0.9277 -0.7739  0.5829
 9345SOL    HW239672   0.649   1.813  17.573 -0.5675 -1.0832 -1.3583
 9346SOL     OW39673   3.197   2.423   8.521 -0.3274  0.2935 -0.1937
 9346SOL    HW139674   3.225   2.441   8.610  1.5639  1.5531 -1.0330
 9346SOL    HW239675   3.264   2.473   8.475  1.8441  0.7250  3.4896
 9347SOL     OW39676   2.657   1.406   2.239 -0.2574  0.5448  0.4622
 9347SOL    HW139677   2.598   1.384   2.167 -0.9482  3.8747  0.0081
 9347SOL    HW239678   2.728   1.348   2.211 -1.9724 -0.8514 -0.9830
 9348SOL     OW39679   1.712   3.787   4.806  0.2229 -0.5341  0.1107
 9348SOL    HW139680   1.715   3.871   4.852 -1.0504 -0.5696  0.2605
 9348SOL    HW239681   1.622   3.779   4.774 -0.2056 -0.0588  1.1824
 9349SOL     OW39682   4.622   0.152  17.029 -0.2400  0.9631 -0.2047
 9349SOL    HW139683   4.528   0.154  17.013 -0.4523 -0.3891  0.9244
 9349SOL    HW239684   4.633   0.189  17.117  1.3566  0.2609 -0.1118
 9350SOL     OW39685   2.810   0.253   0.494 -0.0906  0.1599 -0.4095
 9350SOL    HW139686   2.772   0.337   0.468 -0.5384 -0.4192 -1.6169
 9350SOL    HW239687   2.876   0.243   0.426  2.0429 -1.1869  1.8333
 9351SOL     OW39688   0.471   0.488   1.406  0.0193 -0.2636  0.5197
 9351SOL    HW139689   0.561   0.454   1.396 -0.5706 -1.7147  0.1620
 9351SOL    HW239690   0.466   0.486   1.501  0.3914  0.8247  0.5593
 9352SOL     OW39691   1.299   3.394  13.779  0.4079  0.7108  0.5657
 9352SOL    HW139692   1.213   3.428  13.804 -0.0660 -0.3461  0.3640
 9352SOL    HW239693   1.307   3.438  13.694 -0.6355  0.9301  0.5813
 9353SOL     OW39694   3.129   0.445   5.010  0.1335 -0.2232  0.2460
 9353SOL    HW139695   3.108   0.401   5.092 -1.9131 -0.1165 -0.2271
 9353SOL    HW239696   3.071   0.398   4.950 -0.2678  1.4161 -0.6658
 9354SOL     OW39697   3.933   4.088  11.945  0.1067  0.4690  0.0852
 9354SOL    HW139698   3.876   4.152  11.988 -0.8929 -1.0332  1.0064
 9354SOL    HW239699   4.002   4.141  11.905  1.5737 -1.9889 -0.6556
 9355SOL     OW39700   1.899   2.294   1.621 -0.3036 -0.0344  0.5865
 9355SOL    HW139701   1.815   2.284   1.665  0.1172  1.3492  1.6918
 9355SOL    HW239702   1.891   2.386   1.596  0.9677 -0.0426  0.1283
 9356SOL     OW39703   2.631   0.405   7.651  0.1313  0.0091  0.0173
 9356SOL    HW139704   2.586   0.490   7.656  0.9799  0.4677 -0.1630
 9356SOL    HW239705   2.620   0.380   7.743  1.0792  1.8349  0.6411
 9357SOL     OW39706   1.144   3.134  16.871 -0.0761 -0.3396 -0.7044
 9357SOL    HW139707   1.150   3.040  16.885 -0.7146 -0.4004 -0.8438
 9357SOL    HW239708   1.234   3.146  16.843  0.1775 -1.9582 -0.5800
 9358SOL     OW39709   0.266   4.608  14.549  0.1149 -0.2575  0.2896
 9358SOL    HW139710   0.279   4.624  14.456  2.3974  0.1641  0.6936
 9358SOL    HW239711   0.242   4.516  14.549  0.7090 -0.4083  0.0720
 9359SOL     OW39712   0.733   2.244  15.614 -0.6355 -0.3400  0.9967
 9359SOL    HW139713   0.673   2.292  15.557  1.0918  0.3371 -0.2458
 9359SOL    HW239714   0.727   2.291  15.697  0.7230 -1.3473  1.6617
 9360SOL     OW39715   2.072   0.585  17.013 -0.3435 -0.0480  0.1842
 9360SOL    HW139716   2.052   0.665  16.964  0.0124 -0.8918 -1.3475
 9360SOL    HW239717   2.113   0.530  16.947 -0.7708 -1.1543  0.8490
 9361SOL     OW39718   1.083   3.137  10.031  0.7694  0.4959 -0.2592
 9361SOL    HW139719   1.094   3.090   9.949  1.2429  0.4681 -0.1826
 9361SOL    HW239720   1.020   3.082  10.077  1.2444 -0.6952 -1.0600
 9362SOL     OW39721   1.841   0.157   3.908  0.1109  0.5243  0.3326
 9362SOL    HW139722   1.846   0.142   3.814 -1.3125  0.8346  0.2044
 9362SOL    HW239723   1.931   0.173   3.936  0.7766 -1.3031 -0.7194
 9363SOL     OW39724   1.641   0.082  13.829 -0.0601  0.4117  0.3318
 9363SOL    HW139725   1.668   0.141  13.899  1.2322  1.0295 -0.6944
 9363SOL    HW239726   1.688   0.126  13.758 -0.1427 -0.5749 -0.3360
 9364SOL     OW39727   3.164   0.986  16.957  0.4316 -0.3646  0.6712
 9364SOL    HW139728   3.181   0.942  16.873 -0.2105 -0.1213  0.4189
 9364SOL    HW239729   3.203   1.072  16.945  0.1954 -0.5272 -1.3574
 9365SOL     OW39730   0.221   0.825  12.376 -0.0411  0.8800 -0.1526
 9365SOL    HW139731   0.146   0.773  12.347  1.1695 -0.5309 -0.7214
 9365SOL    HW239732   0.246   0.867  12.294 -0.5632 -0.9699 -1.2588
 9366SOL     OW39733   3.752   1.724  13.513  0.6366  0.0182 -0.1517
 9366SOL    HW139734   3.741   1.644  13.463  0.1890  0.3666 -0.6086
 9366SOL    HW239735   3.797   1.701  13.594 -1.5437 -1.0274  0.7378
 9367SOL     OW39736   1.453   1.341   7.459 -1.0335 -0.3091 -0.7509
 9367SOL    HW139737   1.489   1.324   7.546 -0.9405  1.2656 -0.4849
 9367SOL    HW239738   1.458   1.436   7.457 -2.1781 -0.2196  0.8228
 9368SOL     OW39739   2.542   3.352  17.649 -0.3275  0.4925 -0.3446
 9368SOL    HW139740   2.487   3.288  17.692 -0.0312  1.5195  1.5484
 9368SOL    HW239741   2.599   3.372  17.723 -0.0337 -1.0563 -0.1604
 9369SOL     OW39742   4.344   3.860  13.132  0.2527 -0.0818 -0.2702
 9369SOL    HW139743   4.318   3.939  13.085  0.5218  0.0116 -0.2628
 9369SOL    HW239744   4.382   3.894  13.213  1.1757  0.1665 -0.8071
 9370SOL     OW39745   3.890   1.942   7.633 -0.5185 -0.3193  0.4625
 9370SOL    HW139746   3.895   2.022   7.581  2.5380 -1.9278 -1.7134
 9370SOL    HW239747   3.805   1.911   7.602  0.2639  0.6053 -2.5648
 9371SOL     OW39748   0.363   4.500   4.581  0.5722  0.5160  0.0830
 9371SOL    HW139749   0.413   4.559   4.525 -2.4207  0.0898 -3.0825
 9371SOL    HW239750   0.429   4.464   4.639  0.0389  0.8961  0.9138
 9372SOL     OW39751   2.250   1.384   7.544 -0.5476  0.1698 -0.0742
 9372SOL    HW139752   2.172   1.364   7.596 -1.4074  1.3861 -0.8984
 9372SOL    HW239753   2.282   1.455   7.599  2.8790 -1.8443  0.5763
 9373SOL     OW39754   3.607   0.643   5.126 -0.5193  0.3788 -0.9915
 9373SOL    HW139755   3.643   0.731   5.134  2.2450 -0.7552 -1.0293
 9373SOL    HW239756   3.533   0.645   5.187 -0.6705  1.6477 -1.2238
 9374SOL     OW39757   0.421   1.080  10.746 -0.2129  0.3365  0.4200
 9374SOL    HW139758   0.385   1.042  10.826 -0.9922  1.0548  0.4113
 9374SOL    HW239759   0.385   1.017  10.684  1.6475 -1.4721  1.1908
 9375SOL     OW39760   2.025   1.330   9.470 -0.7562 -0.2548  0.2597
 9375SOL    HW139761   2.099   1.293   9.519 -0.8346  0.4688  0.9019
 9375SOL    HW239762   2.067   1.361   9.390 -1.4016 -0.6218 -0.2240
 9376SOL     OW39763   2.721   0.739  12.767  0.0956 -0.3772  0.0068
 9376SOL    HW139764   2.694   0.778  12.684 -0.8833 -3.2543 -1.0339
 9376SOL    HW239765   2.699   0.812  12.824  1.7407  1.2210 -1.3972
 9377SOL     OW39766   3.567   1.950   3.532 -0.3094  0.1741  0.4754
 9377SOL    HW139767   3.582   1.985   3.444  0.3626 -1.8612 -0.2230
 9377SOL    HW239768   3.501   1.885   3.507 -1.6490  1.8839 -0.5203
 9378SOL     OW39769   4.045   2.718   0.841 -0.3499 -0.2173  0.2843
 9378SOL    HW139770   4.084   2.785   0.786  1.6490 -1.6546 -0.0619
 9378SOL    HW239771   4.114   2.724   0.907 -1.8434 -2.6569  2.0988
 9379SOL     OW39772   0.422   2.882  16.867  0.5194  0.2994  0.7303
 9379SOL    HW139773   0.447   2.970  16.839 -0.6670  0.7030  0.9477
 9379SOL    HW239774   0.426   2.832  16.785 -0.6474  0.9397  0.2748
 9380SOL     OW39775   2.833   0.830   1.582 -0.0430 -0.4736  0.1988
 9380SOL    HW139776   2.867   0.821   1.671 -1.1771  0.7462  0.7579
 9380SOL    HW239777   2.813   0.923   1.581  0.8609 -0.2942 -0.5265
 9381SOL     OW39778   3.782   1.093  17.238  0.1833  0.0919 -0.2011
 9381SOL    HW139779   3.737   1.067  17.318 -0.9830  1.4219 -0.4285
 9381SOL    HW239780   3.858   1.036  17.248 -0.5938 -0.8837  0.0713
 9382SOL     OW39781   2.100   4.451   1.878  0.3919 -0.7268  0.3517
 9382SOL    HW139782   2.052   4.529   1.850  0.8815 -1.2391 -1.8894
 9382SOL    HW239783   2.082   4.399   1.801  1.2243  0.8429 -0.9011
 9383SOL     OW39784   0.369   1.647   5.297 -0.1384  0.4303 -0.2060
 9383SOL    HW139785   0.334   1.672   5.212 -0.2712 -0.5878 -0.4490
 9383SOL    HW239786   0.294   1.636   5.356 -0.6030  1.6384 -0.5713
 9384SOL     OW39787   1.199   0.141   4.755  0.3138 -0.2703  0.4866
 9384SOL    HW139788   1.117   0.182   4.727  2.9061  4.4515 -0.1287
 9384SOL    HW239789   1.207   0.087   4.677 -0.2698 -2.9510  2.2809
 9385SOL     OW39790   3.849   0.601   6.935  0.2702  0.2258 -0.2126
 9385SOL    HW139791   3.861   0.617   6.842 -1.5375 -3.1618 -1.0113
 9385SOL    HW239792   3.757   0.623   6.951 -0.1265 -1.5152 -0.0250
 9386SOL     OW39793   3.128   4.096  15.783  0.3415 -0.1629 -0.4866
 9386SOL    HW139794   3.153   4.129  15.696  2.3327 -1.2177 -0.3113
 9386SOL    HW239795   3.073   4.021  15.763 -0.7159  0.3745  0.4171
 9387SOL     OW39796   2.768   2.368   5.567 -0.2537 -0.3772 -0.2777
 9387SOL    HW139797   2.747   2.308   5.639  1.3076  0.5938  1.0171
 9387SOL    HW239798   2.863   2.355   5.575 -0.6626 -2.4356  1.1981
 9388SOL     OW39799   1.287   0.456   7.722  0.5939  0.3905 -0.2938
 9388SOL    HW139800   1.310   0.390   7.787 -1.5981 -1.8512 -1.7873
 9388SOL    HW239801   1.212   0.413   7.682  1.1405  0.2096 -1.1154
 9389SOL     OW39802   1.002   3.543   8.117  0.3282  0.0580  0.1926
 9389SOL    HW139803   1.079   3.503   8.075 -1.2720  0.3856 -3.0267
 9389SOL    HW239804   0.946   3.469   8.139  2.2536 -1.6575 -0.6198
 9390SOL     OW39805   0.674   4.221   6.544 -0.2697  0.1728  0.3577
 9390SOL    HW139806   0.663   4.315   6.555  1.3467  0.7759 -3.3467
 9390SOL    HW239807   0.687   4.191   6.634  2.0642 -0.7657 -0.2793
 9391SOL     OW39808   4.292   4.144  11.566 -0.0945 -0.0091 -0.2295
 9391SOL    HW139809   4.336   4.073  11.612  1.0863  0.0416 -1.2865
 9391SOL    HW239810   4.333   4.130  11.481  1.4120  1.6990  0.2385
 9392SOL     OW39811   0.622   0.314   6.604 -0.4017  0.7015  0.5987
 9392SOL    HW139812   0.711   0.349   6.601 -0.0140 -0.2264  1.3027
 9392SOL    HW239813   0.585   0.392   6.647 -1.7324  1.2934 -1.6491
 9393SOL     OW39814   1.774   4.616   5.072 -0.1969 -0.3759 -0.0158
 9393SOL    HW139815   1.823   4.696   5.088 -0.2411 -0.4958  0.7137
 9393SOL    HW239816   1.691   4.642   5.112 -1.0193 -1.0686 -1.2738
 9394SOL     OW39817   2.540   2.120   3.884  0.2092 -0.2865 -0.5359
 9394SOL    HW139818   2.626   2.130   3.924  0.1479  0.4307 -0.5714
 9394SOL    HW239819   2.553   2.185   3.815  1.0785 -1.3662 -1.3790
 9395SOL     OW39820   2.483   2.693   1.119 -0.3249  0.4257  0.2394
 9395SOL    HW139821   2.443   2.780   1.127  0.3523  0.9127 -1.4793
 9395SOL    HW239822   2.412   2.631   1.131  1.4745 -1.6198  0.2012
 9396SOL     OW39823   2.928   0.837   9.821 -0.0715  0.0058  0.1911
 9396SOL    HW139824   2.873   0.759   9.819  0.4447 -0.2763 -4.3051
 9396SOL    HW239825   2.971   0.829   9.736  0.3093  2.3798  0.1549
 9397SOL     OW39826   1.454   3.296   2.551  0.1773 -0.5911 -0.3132
 9397SOL    HW139827   1.363   3.326   2.556  0.7567  1.0534  0.7676
 9397SOL    HW239828   1.462   3.258   2.639  1.2511 -3.0470 -1.4848
 9398SOL     OW39829   4.334   4.359   6.226  0.1488 -0.0064 -0.0901
 9398SOL    HW139830   4.303   4.327   6.310 -0.3087 -1.8007 -0.9272
 9398SOL    HW239831   4.251   4.371   6.180  0.8035 -0.5735 -1.4267
 9399SOL     OW39832   3.479   1.007   5.711  0.3233  0.2646 -0.8638
 9399SOL    HW139833   3.552   1.067   5.700  1.1628 -1.0764 -2.4843
 9399SOL    HW239834   3.525   0.924   5.698 -0.0717 -0.1002  0.0207
 9400SOL     OW39835   0.929   3.579  11.533  0.0960  0.1880  0.3040
 9400SOL    HW139836   0.933   3.621  11.619 -3.4142 -0.7183  0.9115
 9400SOL    HW239837   0.841   3.542  11.533  0.4159 -0.5764  0.4112
 9401SOL     OW39838   4.007   4.137   6.941 -0.3457 -0.1803  0.6178
 9401SOL    HW139839   4.075   4.071   6.928  0.6589  0.8805  0.4872
 9401SOL    HW239840   4.036   4.166   7.028  0.2301 -1.9448  1.0121
 9402SOL     OW39841   3.442   4.158   7.740  0.0956 -0.8584  0.3926
 9402SOL    HW139842   3.508   4.221   7.767 -0.5543 -0.6248  1.4517
 9402SOL    HW239843   3.446   4.174   7.646  0.1300 -2.4578  0.1200
 9403SOL     OW39844   2.511   3.853   9.503 -0.2414 -0.1511 -0.1976
 9403SOL    HW139845   2.458   3.782   9.541  0.3233  0.2896  1.4395
 9403SOL    HW239846   2.462   3.892   9.431  1.7971  1.3280 -0.7498
 9404SOL     OW39847   1.888   1.351   8.707 -0.2962  0.0637  0.2480
 9404SOL    HW139848   1.890   1.298   8.627  3.0325 -2.1781  1.8382
 9404SOL    HW239849   1.800   1.332   8.739  0.8622 -1.3768  2.5536
 9405SOL     OW39850   1.223   3.294   9.048 -0.0314  0.4500 -0.2867
 9405SOL    HW139851   1.290   3.271   9.112 -1.7912  1.6004  1.9717
 9405SOL    HW239852   1.166   3.217   9.044  1.9880 -1.1273  1.0314
 9406SOL     OW39853   4.508   4.013   5.521  0.0227 -0.6175  0.0025
 9406SOL    HW139854   4.424   4.047   5.550 -0.0661 -1.4686  0.7307
 9406SOL    HW239855   4.566   4.087   5.541 -1.0875 -0.4635  2.5952
 9407SOL     OW39856   4.074   2.720   4.914 -0.0418 -0.1569 -0.1945
 9407SOL    HW139857   4.035   2.805   4.894  0.1877  0.1296  0.5452
 9407SOL    HW239858   4.053   2.705   5.006 -1.6834  0.5977 -0.4407
 9408SOL     OW39859   1.337   0.474   8.465 -0.1427 -0.1071 -0.0243
 9408SOL    HW139860   1.373   0.559   8.491 -0.3165  0.1430 -0.6022
 9408SOL    HW239861   1.277   0.496   8.394 -0.7144  1.2170  0.8668
 9409SOL     OW39862   4.668   0.506  11.694 -0.4825  0.2727  0.4021
 9409SOL    HW139863   0.007   0.447  11.678  0.1369  1.5629 -1.4316
 9409SOL    HW239864   4.717   0.587  11.708  0.8585 -0.5755  0.7249
 9410SOL     OW39865   3.362   1.930   8.988  0.1984  0.0929 -0.4674
 9410SOL    HW139866   3.314   1.983   8.924 -1.0503 -0.6360 -0.1409
 9410SOL    HW239867   3.371   1.999   9.053 -0.4411 -0.8139  0.5773
 9411SOL     OW39868   2.717   2.656   2.223  0.1213  0.5565  0.1848
 9411SOL    HW139869   2.755   2.697   2.145  0.6249  0.1307  0.2072
 9411SOL    HW239870   2.799   2.661   2.271  0.9307  1.4966 -1.3069
 9412SOL     OW39871   4.227   1.045   4.072 -0.5916 -0.6863  0.4702
 9412SOL    HW139872   4.173   1.102   4.126 -1.4369  0.0145 -1.1029
 9412SOL    HW239873   4.197   1.064   3.983  1.1512 -1.7981 -0.3674
 9413SOL     OW39874   2.267   1.516   8.676 -0.3115  0.2332  0.3095
 9413SOL    HW139875   2.352   1.519   8.720 -0.5511  0.7902  0.7434
 9413SOL    HW239876   2.285   1.437   8.625  1.4019  1.2715 -0.6715
 9414SOL     OW39877   1.151   2.606   2.062  0.0859 -0.0271  0.1633
 9414SOL    HW139878   1.160   2.638   2.152 -1.7654  0.6161  0.1313
 9414SOL    HW239879   1.061   2.628   2.037  0.9719 -0.1473 -3.0949
 9415SOL     OW39880   2.478   1.332  11.876  0.2514  0.2851  0.0433
 9415SOL    HW139881   2.570   1.321  11.900  0.3120  0.8324  0.0633
 9415SOL    HW239882   2.484   1.327  11.781 -0.9815 -0.6951  0.0010
 9416SOL     OW39883   1.743   3.784   1.877 -0.1580 -0.1699 -0.6658
 9416SOL    HW139884   1.743   3.699   1.920  0.7590 -0.1435 -0.6103
 9416SOL    HW239885   1.807   3.775   1.806  2.8074 -1.4567  2.2076
 9417SOL     OW39886   1.006   2.934   7.113  0.8568 -0.2630  0.0420
 9417SOL    HW139887   1.000   2.850   7.159 -0.4211  0.2967  0.9158
 9417SOL    HW239888   0.965   3.005   7.164 -0.2666 -0.3818 -0.6899
 9418SOL     OW39889   3.683   0.210  11.257  0.3257  0.1195 -0.1892
 9418SOL    HW139890   3.676   0.204  11.352  0.5921  1.8018 -0.0645
 9418SOL    HW239891   3.775   0.188  11.241 -0.1975 -1.6971 -0.7487
 9419SOL     OW39892   2.349   0.823   2.068  0.5786 -0.0382 -0.1167
 9419SOL    HW139893   2.340   0.887   1.998 -0.5016  1.8916  1.7908
 9419SOL    HW239894   2.438   0.834   2.100  1.4784  1.1080 -3.0799
 9420SOL     OW39895   2.237   1.189   9.618 -0.5095 -0.2729  0.7942
 9420SOL    HW139896   2.169   1.140   9.665 -0.0932  0.5785  2.2805
 9420SOL    HW239897   2.278   1.114   9.576 -0.3799 -1.4168  2.9493
 9421SOL     OW39898   0.750   2.625   3.270 -0.1176  0.2563 -0.1462
 9421SOL    HW139899   0.661   2.593   3.255 -0.4312  0.8117  0.5318
 9421SOL    HW239900   0.735   2.663   3.357 -1.7305 -0.2935 -0.1971
 9422SOL     OW39901   2.891   2.409   2.940 -0.0550 -0.2656  0.0973
 9422SOL    HW139902   2.848   2.347   2.999 -0.9306 -0.6830 -0.9984
 9422SOL    HW239903   2.972   2.366   2.912  0.3991  0.4173  0.3708
 9423SOL     OW39904   3.490   1.800   4.770  0.1044  0.1227 -0.0548
 9423SOL    HW139905   3.473   1.826   4.860  0.8276  2.2546 -0.5340
 9423SOL    HW239906   3.472   1.707   4.779  0.8646 -0.0191 -0.0088
 9424SOL     OW39907   3.101   3.951   2.810 -0.7173  0.0763  0.0431
 9424SOL    HW139908   3.030   3.912   2.860  0.7693 -2.2311  0.3485
 9424SOL    HW239909   3.165   3.880   2.808 -1.5970 -0.7288  0.5419
 9425SOL     OW39910   0.529   0.805   5.172 -0.0612  0.6877 -0.3787
 9425SOL    HW139911   0.609   0.757   5.151  0.4018  1.5048 -0.4846
 9425SOL    HW239912   0.472   0.737   5.209 -0.3806 -0.1290 -2.3846
 9426SOL     OW39913   4.233   3.283   7.447 -0.2849  0.6535 -0.2172
 9426SOL    HW139914   4.159   3.232   7.415  1.4834 -1.2313 -1.2770
 9426SOL    HW239915   4.300   3.252   7.386  0.3047 -0.0129  0.7803
 9427SOL     OW39916   1.560   3.701  16.214 -0.7002 -0.0074  0.3300
 9427SOL    HW139917   1.468   3.715  16.236 -1.1107 -0.4426 -1.0614
 9427SOL    HW239918   1.556   3.718  16.119  0.4103 -0.6289  0.1707
 9428SOL     OW39919   4.128   3.999   4.218  0.3578  0.7881 -0.5792
 9428SOL    HW139920   4.186   4.013   4.293 -1.5624 -0.9897  1.2207
 9428SOL    HW239921   4.117   4.088   4.186  1.2891  1.0719 -0.0970
 9429SOL     OW39922   1.774   1.588   6.623  0.5469  0.1980  0.0830
 9429SOL    HW139923   1.697   1.620   6.670  0.4947 -0.7078  0.6160
 9429SOL    HW239924   1.819   1.668   6.595  0.8199  0.3115  0.8332
 9430SOL     OW39925   2.733   2.636  12.057  0.2452  0.7066 -0.2044
 9430SOL    HW139926   2.714   2.695  12.130 -0.1270 -0.3799  0.5764
 9430SOL    HW239927   2.825   2.622  12.079  0.0726 -0.7281 -0.3927
 9431SOL     OW39928   1.061   0.988   7.591  0.1578 -0.1802  0.0927
 9431SOL    HW139929   1.009   1.064   7.564  0.9831  0.8891  1.4900
 9431SOL    HW239930   1.008   0.957   7.665  0.3200 -0.4193  0.1099
 9432SOL     OW39931   2.102   2.696  16.991 -0.0079 -0.1808 -0.4800
 9432SOL    HW139932   2.121   2.787  17.012  1.6870 -0.3710 -1.2457
 9432SOL    HW239933   2.163   2.680  16.919 -0.2428  0.9480 -0.9356
 9433SOL     OW39934   3.099   1.527   6.882  0.6462  0.1400 -0.3021
 9433SOL    HW139935   3.180   1.575   6.865  0.1884  0.8251 -0.5270
 9433SOL    HW239936   3.032   1.595   6.883  0.7649  0.2490  0.4577
 9434SOL     OW39937   3.083   1.681   7.538 -0.0081 -0.3997  0.1530
 9434SOL    HW139938   3.035   1.626   7.476  1.7195 -1.4201 -0.2659
 9434SOL    HW239939   3.107   1.616   7.604  0.5293 -0.8843 -0.5255
 9435SOL     OW39940   0.400   3.701   2.244  0.4132 -0.1706 -0.6830
 9435SOL    HW139941   0.353   3.690   2.161  0.4993 -0.9261 -0.6320
 9435SOL    HW239942   0.333   3.732   2.306  0.5830 -2.5151  0.6742
 9436SOL     OW39943   3.154   1.731   0.155 -0.2779 -0.1354  0.0625
 9436SOL    HW139944   3.117   1.784   0.084  2.1544  1.0292 -0.3400
 9436SOL    HW239945   3.191   1.796   0.214  3.9999 -0.3005 -2.4202
 9437SOL     OW39946   3.365   0.899   4.522 -0.6849 -0.1402 -0.1838
 9437SOL    HW139947   3.273   0.908   4.498 -0.5416 -1.9821 -1.4484
 9437SOL    HW239948   3.360   0.837   4.594  0.1939  1.2297  1.0659
 9438SOL     OW39949   0.964   4.524   5.376  0.3519  0.0852  0.3944
 9438SOL    HW139950   0.970   4.440   5.421  1.4600  0.1002  0.2550
 9438SOL    HW239951   1.019   4.505   5.300 -0.2113 -0.8248  0.2108
 9439SOL     OW39952   0.303   2.632   4.787  0.1382 -0.5490  0.3166
 9439SOL    HW139953   0.336   2.560   4.734 -2.5112 -0.9982 -0.7425
 9439SOL    HW239954   0.317   2.609   4.879  1.0383 -0.7494  0.1282
 9440SOL     OW39955   1.898   1.008  10.831 -0.1683  0.2821  1.0707
 9440SOL    HW139956   1.888   0.943  10.900 -1.0939 -2.2062 -1.3974
 9440SOL    HW239957   1.837   0.992  10.759  0.9372 -0.3789  0.2919
 9441SOL     OW39958   4.629   0.907   6.654  0.2116  0.3663 -0.4660
 9441SOL    HW139959   4.564   0.927   6.587 -0.8374  0.7779  0.6867
 9441SOL    HW239960   4.623   0.812   6.664  2.6288  0.4881  2.1076
 9442SOL     OW39961   4.715   2.735   6.885 -0.1869  0.0643 -0.3428
 9442SOL    HW139962   0.058   2.725   6.939 -0.4603 -0.3099 -0.0232
 9442SOL    HW239963   0.017   2.726   6.797 -1.1345 -1.3344 -0.6080
 9443SOL     OW39964   3.942   4.706   8.033 -0.2585  0.7221  0.0412
 9443SOL    HW139965   3.999   4.733   8.105  2.3185  0.3280 -1.8390
 9443SOL    HW239966   3.944   0.051   7.980 -1.3078  1.1818  0.6977
 9444SOL     OW39967   3.826   1.944   3.795 -0.4885 -0.1713 -0.0376
 9444SOL    HW139968   3.894   1.964   3.859  0.2453 -1.6827 -0.3404
 9444SOL    HW239969   3.863   1.970   3.711 -0.0542  0.4700  0.3519
 9445SOL     OW39970   1.104   1.356  15.412  0.2006 -0.4154 -0.0328
 9445SOL    HW139971   1.116   1.318  15.499 -0.9304  1.4407  0.9170
 9445SOL    HW239972   1.114   1.277  15.358  2.1268  1.0298 -1.7669
 9446SOL     OW39973   1.500   1.153   2.457 -0.3895  0.7184  0.5181
 9446SOL    HW139974   1.455   1.087   2.511 -0.8210 -0.7884 -1.7046
 9446SOL    HW239975   1.511   1.221   2.524 -0.2383  0.7105  0.5010
 9447SOL     OW39976   4.534   2.151   3.578  0.1671 -0.4108  0.3425
 9447SOL    HW139977   4.550   2.134   3.485 -2.2060  1.5158 -0.4102
 9447SOL    HW239978   4.626   2.140   3.604  0.9464  0.3376 -2.0816
 9448SOL     OW39979   4.403   1.049   4.341  0.8497  0.7530 -0.2468
 9448SOL    HW139980   4.335   1.052   4.409  0.7517  0.8292 -0.3470
 9448SOL    HW239981   4.419   0.955   4.338 -1.6660  0.2775  0.7400
 9449SOL     OW39982   4.177   3.447   7.737  0.1318 -0.3124  0.2194
 9449SOL    HW139983   4.141   3.360   7.757  1.7056 -0.0435  4.1425
 9449SOL    HW239984   4.100   3.492   7.703  0.9539 -1.9320 -3.7991
 9450SOL     OW39985   2.169   1.018   2.222 -0.2731 -0.4294  0.3419
 9450SOL    HW139986   2.223   0.991   2.296  0.7674  4.7399  1.4585
 9450SOL    HW239987   2.204   0.951   2.163  2.9833  1.6296 -0.0797
 9451SOL     OW39988   1.361   1.035   3.758 -0.0244 -0.0184 -0.4399
 9451SOL    HW139989   1.388   1.086   3.835 -1.9060  1.1717 -0.5723
 9451SOL    HW239990   1.390   1.090   3.685  0.0159  0.7600  0.1581
 9452SOL     OW39991   3.892   1.672  17.531  0.0035  0.4774 -0.1146
 9452SOL    HW139992   3.986   1.667  17.547 -0.3432  0.3772  1.8200
 9452SOL    HW239993   3.882   1.606  17.462 -0.4519 -0.3069  0.6942
 9453SOL     OW39994   1.512   3.232  14.850 -0.2430 -0.0320 -0.2804
 9453SOL    HW139995   1.486   3.324  14.841 -2.4533 -0.5619  0.5628
 9453SOL    HW239996   1.594   3.244  14.802 -0.3408 -0.0496 -0.4523
 9454SOL     OW39997   1.889   4.290   5.504  0.0177 -0.7483 -0.5192
 9454SOL    HW139998   1.879   4.373   5.458  0.7854 -0.8317 -0.8417
 9454SOL    HW239999   1.806   4.298   5.551  0.3195 -0.7933  0.0135
 9455SOL     OW40000   4.413   3.958  11.709  0.0830 -0.2126 -0.5512
 9455SOL    HW140001   4.366   3.900  11.769 -0.1135 -0.7978 -1.2710
 9455SOL    HW240002   4.474   4.001  11.769 -0.2569 -2.5247  1.4891
 9456SOL     OW40003   3.212   3.660  17.286  0.1288  0.4957  0.0993
 9456SOL    HW140004   3.244   3.645  17.198 -3.4569  1.2923 -1.3394
 9456SOL    HW240005   3.125   3.701  17.278 -0.0232  0.7667  2.8595
 9457SOL     OW40006   2.678   2.462  15.818  0.0088 -0.1872  0.5112
 9457SOL    HW140007   2.721   2.541  15.850  0.2208 -0.5975  1.2343
 9457SOL    HW240008   2.682   2.474  15.723  1.5136 -1.5951  0.3859
 9458SOL     OW40009   2.920   0.171   6.500  0.1570 -0.1538 -0.4142
 9458SOL    HW140010   2.891   0.080   6.510 -0.7944  0.5057  2.7018
 9458SOL    HW240011   2.934   0.172   6.405  0.0221  0.0012 -0.4313
 9459SOL     OW40012   3.585   2.439   7.915 -0.1703 -0.1046  0.5670
 9459SOL    HW140013   3.661   2.496   7.905 -0.1466 -0.1533  0.4731
 9459SOL    HW240014   3.584   2.389   7.833  0.6520  0.1790  0.3817
 9460SOL     OW40015   0.755   2.004   5.120  0.3480 -0.2837  0.3175
 9460SOL    HW140016   0.717   1.934   5.067 -1.1905  0.9041 -0.1756
 9460SOL    HW240017   0.832   1.968   5.163  0.4472  0.3704  0.6849
 9461SOL     OW40018   0.004   1.272   5.952  0.0515 -0.0609  0.2111
 9461SOL    HW140019   0.095   1.263   5.981 -0.3570 -1.1659  1.0988
 9461SOL    HW240020   4.681   1.257   6.026  1.6886 -1.7475  1.1569
 9462SOL     OW40021   2.063   4.711   8.419  0.5129  0.5143  0.6548
 9462SOL    HW140022   1.984   4.700   8.367  2.5512 -0.3134 -2.2651
 9462SOL    HW240023   2.069   4.626   8.463 -1.1144 -0.0269 -0.1524
 9463SOL     OW40024   4.477   3.626   5.921  0.1649 -0.0717 -0.4241
 9463SOL    HW140025   4.398   3.590   5.881 -0.7761  1.9137 -0.3471
 9463SOL    HW240026   4.437   3.707   5.952 -2.0161 -1.1690 -0.3508
 9464SOL     OW40027   1.840   1.788   5.630  0.0141 -0.2852 -0.5775
 9464SOL    HW140028   1.870   1.873   5.597  0.0836 -0.7287 -1.6841
 9464SOL    HW240029   1.746   1.805   5.626  0.2930  0.7511 -2.5340
 9465SOL     OW40030   3.989   4.712   6.179  0.1412 -0.4303 -0.0176
 9465SOL    HW140031   3.921   4.727   6.245 -0.7762  1.3685 -1.4062
 9465SOL    HW240032   4.062   4.733   6.239  1.7213 -1.1153 -1.6933
 9466SOL     OW40033   0.403   1.711  17.737 -0.6038  0.1126  0.0772
 9466SOL    HW140034   0.455   1.753  17.669 -0.3585  0.4950  0.4956
 9466SOL    HW240035   0.321   1.693  17.691  0.8239 -3.8840 -0.8695
 9467SOL     OW40036   1.490   0.002   2.133  0.3674  0.1967  0.1810
 9467SOL    HW140037   1.502   0.093   2.105  3.3847 -0.1518  0.3054
 9467SOL    HW240038   1.570   4.726   2.185 -0.6701  0.2584  1.7766
 9468SOL     OW40039   2.112   0.890  10.177 -0.3680  0.1024  0.1145
 9468SOL    HW140040   2.081   0.973  10.215 -0.2570 -0.2150  0.8835
 9468SOL    HW240041   2.070   0.830  10.238  0.3710 -0.6084 -0.0828
 9469SOL     OW40042   4.676   2.099  13.706  0.1543  0.4611 -0.6981
 9469SOL    HW140043   4.675   2.179  13.757 -2.8667  1.2574 -1.9994
 9469SOL    HW240044   0.025   2.063  13.733 -0.1378  0.8739  0.7645
 9470SOL     OW40045   0.109   2.041   7.080  0.1210  0.9101 -0.5675
 9470SOL    HW140046   0.172   1.991   7.132 -4.0349 -3.1404  0.5823
 9470SOL    HW240047   0.097   1.978   7.008  0.0257 -0.2277  0.4368
 9471SOL     OW40048   1.297   3.879   6.163 -0.3490 -0.2916  0.4598
 9471SOL    HW140049   1.216   3.878   6.215  0.1389 -0.5169  1.2107
 9471SOL    HW240050   1.273   3.828   6.086  1.8934  0.5927 -0.8182
 9472SOL     OW40051   2.584   2.476   7.893  0.0248 -0.4160  0.6220
 9472SOL    HW140052   2.490   2.495   7.884  0.3159  0.0254 -1.4643
 9472SOL    HW240053   2.611   2.517   7.975  1.3655 -0.4014  0.1728
 9473SOL     OW40054   4.639   4.308  17.394 -0.1305  0.1647  0.1385
 9473SOL    HW140055   4.662   4.247  17.323  3.2241  0.3317  1.0799
 9473SOL    HW240056   4.545   4.292  17.407  0.0646 -0.4414  0.8222
 9474SOL     OW40057   3.558   3.400   2.884 -0.0783  0.4895 -0.0892
 9474SOL    HW140058   3.484   3.407   2.944  0.6358  0.1727  0.8237
 9474SOL    HW240059   3.631   3.451   2.919 -1.6413  2.2784  0.5847
 9475SOL     OW40060   1.169   2.529  14.414 -0.0594 -0.6006  0.7855
 9475SOL    HW140061   1.169   2.536  14.319  1.2639 -1.5249  0.7107
 9475SOL    HW240062   1.147   2.620  14.431 -0.2181 -0.5076  0.0703
 9476SOL     OW40063   0.908   3.496   7.838 -0.2992  0.2485  0.1983
 9476SOL    HW140064   0.920   3.511   7.931  1.0473  1.5776 -0.1783
 9476SOL    HW240065   0.904   3.401   7.838 -1.2569  0.2887 -0.2592
 9477SOL     OW40066   4.296   4.724  10.334  0.0258 -0.3826  0.1247
 9477SOL    HW140067   4.389   4.712  10.354 -0.5551 -3.7558  0.8966
 9477SOL    HW240068   4.259   4.684  10.413  1.2193  0.2809  1.0201
 9478SOL     OW40069   0.354   4.416   5.576 -0.1829  0.4863 -0.2860
 9478SOL    HW140070   0.411   4.340   5.561 -0.7705 -0.2440  1.1906
 9478SOL    HW240071   0.328   4.426   5.484 -1.3766 -1.5999 -0.1774
 9479SOL     OW40072   0.538   1.219  17.035 -0.2485 -0.8072  0.2298
 9479SOL    HW140073   0.626   1.180  17.043 -0.2692 -1.1223 -1.0850
 9479SOL    HW240074   0.549   1.261  16.950  1.6429  1.5452  1.6405
 9480SOL     OW40075   0.690   4.412   4.500 -0.0405 -0.1560 -0.0807
 9480SOL    HW140076   0.714   4.505   4.504  0.8156 -0.4040  0.6253
 9480SOL    HW240077   0.683   4.391   4.593 -1.2762 -0.0899 -0.1604
 9481SOL     OW40078   2.767   1.009   7.674 -0.2786  0.5075  0.2329
 9481SOL    HW140079   2.767   1.028   7.581 -0.7062  0.4805  0.2292
 9481SOL    HW240080   2.677   1.024   7.702 -0.6137 -1.7865  0.3514
 9482SOL     OW40081   1.261   0.223   6.287  0.7965 -0.4831  0.2009
 9482SOL    HW140082   1.298   0.216   6.199  0.3656 -0.0756 -0.0091
 9482SOL    HW240083   1.185   0.279   6.276 -0.2764 -2.0146 -0.1547
 9483SOL     OW40084   0.540   1.755   3.107  0.1135 -0.2783 -0.0198
 9483SOL    HW140085   0.558   1.810   3.031  0.8775 -0.8088 -0.2245
 9483SOL    HW240086   0.468   1.799   3.152 -0.4621 -0.4878 -0.7312
 9484SOL     OW40087   4.121   2.090   1.399 -0.9206  0.2458 -0.0619
 9484SOL    HW140088   4.091   2.129   1.317  0.2658  3.8998  1.2691
 9484SOL    HW240089   4.155   2.007   1.364  0.6481  1.0146 -0.3765
 9485SOL     OW40090   0.702   4.437   4.969  0.0734  0.1822  0.3244
 9485SOL    HW140091   0.763   4.471   4.904 -0.9534 -0.7730 -1.1298
 9485SOL    HW240092   0.756   4.396   5.037  0.6169  3.7763  2.0946
 9486SOL     OW40093   4.281   2.201   6.023  0.2546  0.6378 -0.7331
 9486SOL    HW140094   4.287   2.239   6.110 -0.3962 -1.8008  0.3520
 9486SOL    HW240095   4.324   2.268   5.969  1.6341  0.8292  0.6057
 9487SOL     OW40096   0.229   1.146   1.322  0.0172 -0.1233 -0.8447
 9487SOL    HW140097   0.221   1.207   1.248  0.0441 -0.3147 -1.0077
 9487SOL    HW240098   0.221   1.217   1.386  0.5791 -1.9531  1.2416
 9488SOL     OW40099   0.157   0.037  15.270  0.1450  0.0669 -0.4352
 9488SOL    HW140100   0.207   0.118  15.263  1.7477 -0.8910 -0.3007
 9488SOL    HW240101   0.197   4.710  15.209  1.0714  0.9598 -0.7356
 9489SOL     OW40102   4.721   2.593  10.309  0.3084 -0.0498 -0.6444
 9489SOL    HW140103   4.709   2.598  10.214 -1.9703  2.0764 -0.2401
 9489SOL    HW240104   4.669   2.513  10.319 -0.3951  0.1899 -2.3780
 9490SOL     OW40105   0.456   1.010  14.184  0.4543  0.1082 -0.0178
 9490SOL    HW140106   0.432   0.918  14.175 -2.0710  0.8355 -0.6536
 9490SOL    HW240107   0.551   1.007  14.196  0.3687 -1.9698  0.1147
 9491SOL     OW40108   2.992   0.370   3.154 -0.0259  0.2297 -0.0321
 9491SOL    HW140109   3.054   0.420   3.102  1.5073  0.0734  1.6451
 9491SOL    HW240110   3.046   0.296   3.182 -0.7053 -0.6354 -0.9851
 9492SOL     OW40111   4.311   1.150   5.072 -0.3196 -0.0696  0.0883
 9492SOL    HW140112   4.255   1.133   4.997 -1.3174 -0.1572  0.8617
 9492SOL    HW240113   4.392   1.150   5.021  0.7928  2.4953  1.8044
 9493SOL     OW40114   1.807   1.941  13.020 -0.3500  0.2808 -0.2031
 9493SOL    HW140115   1.827   1.891  13.099 -0.1084 -0.6491 -0.8394
 9493SOL    HW240116   1.762   2.015  13.061  1.4688  0.3976  1.5655
 9494SOL     OW40117   4.406   0.042   3.511 -0.0884  0.8406 -0.0108
 9494SOL    HW140118   4.471   0.024   3.578 -1.9923 -2.3211  0.9999
 9494SOL    HW240119   4.440   4.731   3.435 -1.5137 -0.5471  0.1993
 9495SOL     OW40120   2.776   2.703   7.985 -0.0395  0.1252 -0.6524
 9495SOL    HW140121   2.806   2.680   8.073  0.8179 -1.4168 -1.3386
 9495SOL    HW240122   2.702   2.757   8.012 -1.9775 -2.5421 -0.5958
 9496SOL     OW40123   2.159   3.531   9.579 -1.0705  0.3985  0.1183
 9496SOL    HW140124   2.207   3.602   9.536  2.2525 -1.4685  0.7993
 9496SOL    HW240125   2.122   3.483   9.506 -1.4807  0.6108  0.1830
 9497SOL     OW40126   4.311   2.004  12.845  0.1269 -0.8030  0.1003
 9497SOL    HW140127   4.336   1.995  12.753 -1.7023 -0.3593 -0.4644
 9497SOL    HW240128   4.333   1.917  12.876 -3.1769 -2.0729 -1.0474
 9498SOL     OW40129   2.043   4.299   2.498 -0.0377 -0.1021  0.1991
 9498SOL    HW140130   2.049   4.372   2.560 -0.1683 -0.1703  0.2926
 9498SOL    HW240131   2.029   4.353   2.420 -0.6321  1.4487  1.3616
 9499SOL     OW40132   2.709   1.077   1.535 -0.6765 -0.0771  0.3822
 9499SOL    HW140133   2.634   1.031   1.497 -1.0112  0.9221 -0.1750
 9499SOL    HW240134   2.767   1.103   1.463 -0.0137 -0.1656  0.8897
 9500SOL     OW40135   3.882   1.204   1.890  0.5082  0.5542 -0.4658
 9500SOL    HW140136   3.833   1.121   1.891 -0.4437  1.1193 -0.2110
 9500SOL    HW240137   3.817   1.265   1.856  0.2130 -0.2409 -1.3048
 9501SOL     OW40138   0.752   2.412   4.109 -0.3300  0.0727  0.2643
 9501SOL    HW140139   0.664   2.380   4.128 -0.8967  2.1886  1.2221
 9501SOL    HW240140   0.783   2.419   4.199 -0.3055  0.5197  0.2207
 9502SOL     OW40141   1.994   1.634  16.499 -0.7450  0.0152  0.2612
 9502SOL    HW140142   2.005   1.548  16.458 -2.0163  0.2214 -0.5239
 9502SOL    HW240143   1.953   1.682  16.427 -0.7007 -0.8166 -0.3197
 9503SOL     OW40144   3.260   1.049   1.315 -0.0294  0.3528  0.0040
 9503SOL    HW140145   3.295   1.132   1.282  1.3790 -0.2750 -0.0805
 9503SOL    HW240146   3.332   0.987   1.317 -0.7416 -0.4702  0.2679
 9504SOL     OW40147   0.094   4.239   4.225  0.7415 -0.5270  0.0254
 9504SOL    HW140148   0.184   4.264   4.204  0.5301  2.4030  2.5394
 9504SOL    HW240149   0.095   4.281   4.311  0.4556 -0.4966  0.0125
 9505SOL     OW40150   3.056   3.299   1.506  0.0514  0.4221  0.0661
 9505SOL    HW140151   3.041   3.312   1.599  2.7040  1.0809  0.4075
 9505SOL    HW240152   3.143   3.259   1.506 -0.3778 -0.5143  1.3161
 9506SOL     OW40153   3.721   1.717   9.082 -0.2228  0.2869  0.5946
 9506SOL    HW140154   3.665   1.646   9.052  1.8184 -1.4734  0.9190
 9506SOL    HW240155   3.788   1.717   9.013 -1.5040 -2.5414 -0.6243
 9507SOL     OW40156   0.261   3.228   3.509 -0.4261 -0.4586  0.0348
 9507SOL    HW140157   0.173   3.239   3.473 -1.5257 -1.6833  2.3604
 9507SOL    HW240158   0.298   3.316   3.510  0.6312 -0.8904 -0.7749
 9508SOL     OW40159   2.112   4.701   8.759 -0.2405 -0.0348  0.1116
 9508SOL    HW140160   2.081   4.617   8.724 -0.1849  0.6892 -1.6993
 9508SOL    HW240161   2.205   4.701   8.735 -0.8107  1.0459 -2.0587
 9509SOL     OW40162   1.420   2.033  12.852  0.4983  0.8569 -0.5610
 9509SOL    HW140163   1.365   2.095  12.901  1.5538  2.7916 -1.8102
 9509SOL    HW240164   1.403   2.066  12.764 -0.2957 -0.3187 -0.8483
 9510SOL     OW40165   0.630   4.403   0.372 -0.2272 -0.3609  0.0014
 9510SOL    HW140166   0.555   4.455   0.343  1.0880  1.0899 -0.7740
 9510SOL    HW240167   0.608   4.375   0.461 -1.4771 -1.2526 -0.5832
 9511SOL     OW40168   1.516   1.359   3.357 -0.3874  0.0841  0.5609
 9511SOL    HW140169   1.599   1.352   3.309 -1.3182  1.5650 -1.3196
 9511SOL    HW240170   1.493   1.449   3.331 -1.3168 -0.6804 -1.2978
 9512SOL     OW40171   1.658   0.945   3.578  0.1185  0.3950  0.1968
 9512SOL    HW140172   1.738   0.996   3.578 -0.3525  1.1689  3.0152
 9512SOL    HW240173   1.602   1.012   3.538  0.9657  1.2823  0.4887
 9513SOL     OW40174   3.463   0.186  14.235 -0.3557 -0.0142 -0.2092
 9513SOL    HW140175   3.377   0.145  14.222 -0.0939 -0.4938 -0.4414
 9513SOL    HW240176   3.455   0.233  14.318  0.0035 -0.8033  0.2784
 9514SOL     OW40177   1.655   0.078   0.921  0.3078 -0.1538 -0.4608
 9514SOL    HW140178   1.667   0.171   0.940  3.2811 -0.1443 -2.3962
 9514SOL    HW240179   1.578   0.082   0.863 -0.5671 -0.3256  0.6856
 9515SOL     OW40180   4.512   0.900  14.718  0.0020 -0.6161 -0.5146
 9515SOL    HW140181   4.546   0.927  14.804 -0.5346  0.3229 -0.5902
 9515SOL    HW240182   4.590   0.858  14.682  1.4781  0.9959  0.7592
 9516SOL     OW40183   0.314   1.546  14.401  0.4085 -0.7344  0.0485
 9516SOL    HW140184   0.388   1.514  14.453 -0.4766 -1.9495  0.5623
 9516SOL    HW240185   0.296   1.629  14.444 -0.7228 -0.2869 -1.2828
 9517SOL     OW40186   0.572   4.395   3.066 -0.2600  0.3517  0.4519
 9517SOL    HW140187   0.524   4.470   3.031  0.8212 -0.0524 -1.8896
 9517SOL    HW240188   0.604   4.428   3.150 -0.3554  2.4117 -0.3401
 9518SOL     OW40189   0.483   1.414   8.419  0.5277 -0.5321 -0.3898
 9518SOL    HW140190   0.412   1.461   8.463  0.6169 -1.0024  0.2614
 9518SOL    HW240191   0.441   1.395   8.335  1.9979  0.6685 -1.3972
 9519SOL     OW40192   2.689   0.597   1.597  0.2840 -0.2243  0.5980
 9519SOL    HW140193   2.663   0.615   1.687  0.2576 -1.9013  0.9303
 9519SOL    HW240194   2.745   0.669   1.568  0.2365 -0.6950 -0.6794
 9520SOL     OW40195   4.038   4.613  17.323 -0.1608 -0.0990 -1.0402
 9520SOL    HW140196   4.090   4.693  17.334 -1.5673  0.6661 -0.0574
 9520SOL    HW240197   3.983   4.627  17.246 -2.6237 -0.0645  0.7384
 9521SOL     OW40198   3.351   0.099   4.490 -0.2829  0.4045  0.0470
 9521SOL    HW140199   3.306   0.100   4.575 -0.1467  3.4403  0.0712
 9521SOL    HW240200   3.322   0.184   4.458  0.3997 -0.0094 -1.6186
 9522SOL     OW40201   1.637   2.180  14.638 -0.1681  0.6773 -0.2880
 9522SOL    HW140202   1.612   2.198  14.729  0.4116  0.4709 -0.0917
 9522SOL    HW240203   1.572   2.112  14.618 -0.6776  1.0674  0.0180
 9523SOL     OW40204   2.463   2.685   2.942  0.4908  0.2764 -0.5984
 9523SOL    HW140205   2.544   2.708   2.896  0.3458 -0.6590 -1.3290
 9523SOL    HW240206   2.490   2.703   3.032 -1.8579 -0.3320  0.2065
 9524SOL     OW40207   3.114   0.001   7.077 -0.0892 -0.1217 -0.2296
 9524SOL    HW140208   3.183   0.031   7.017 -1.4850  1.0719 -1.2342
 9524SOL    HW240209   3.113   4.643   7.055  1.9337  0.3292 -2.2870
 9525SOL     OW40210   3.728   4.711  10.568 -0.1164 -0.0587 -0.3418
 9525SOL    HW140211   3.774   0.028  10.502  0.7543 -0.2842  0.0877
 9525SOL    HW240212   3.721   0.043  10.635  0.2209  1.4782 -1.8520
 9526SOL     OW40213   0.777   1.509  17.715 -0.4426  0.1033  0.4024
 9526SOL    HW140214   0.703   1.451  17.732 -1.1925  1.0976  0.5426
 9526SOL    HW240215   0.780   1.568   0.050 -1.6335  0.5662  0.0963
 9527SOL     OW40216   2.827   4.103   7.000  0.0546 -0.2049 -0.1018
 9527SOL    HW140217   2.847   4.010   7.010 -0.7696 -0.3731 -0.0247
 9527SOL    HW240218   2.880   4.141   7.070 -1.9374 -0.8007  1.7457
 9528SOL     OW40219   0.445   4.146   3.058 -0.3006 -0.4435 -0.1013
 9528SOL    HW140220   0.493   4.229   3.056  0.8190 -1.0782  0.1159
 9528SOL    HW240221   0.493   4.104   3.129  0.4092 -1.1473 -0.9902
 9529SOL     OW40222   3.358   4.572   6.325 -0.2321 -0.1425  0.1308
 9529SOL    HW140223   3.395   4.574   6.237  0.0211  0.7977  0.2622
 9529SOL    HW240224   3.269   4.541   6.306 -0.3411  0.2238  0.0505
 9530SOL     OW40225   2.291   1.165   4.909  0.5928 -0.2345  0.3303
 9530SOL    HW140226   2.299   1.098   4.976 -1.3739 -0.2530  0.5601
 9530SOL    HW240227   2.246   1.239   4.949  1.1562  0.8365 -1.0133
 9531SOL     OW40228   4.708   2.726   4.128 -0.8809 -0.2310 -0.2935
 9531SOL    HW140229   4.684   2.690   4.214 -0.9604  0.4594 -0.0251
 9531SOL    HW240230   0.067   2.735   4.143 -0.8763 -1.1214  0.2249
 9532SOL     OW40231   2.321   2.144   5.608  0.5147 -0.3041  0.3338
 9532SOL    HW140232   2.287   2.158   5.520 -0.1361 -3.0690  0.1322
 9532SOL    HW240233   2.308   2.235   5.633  0.2107 -0.6065  1.2731
 9533SOL     OW40234   1.788   4.728   7.691 -0.0919 -0.2633 -0.5207
 9533SOL    HW140235   1.760   0.065   7.746 -2.5548 -1.6062 -0.0364
 9533SOL    HW240236   1.714   4.728   7.631  0.1794 -1.1505 -0.8562
 9534SOL     OW40237   3.972   2.372   5.497  0.0369  0.4024 -0.3480
 9534SOL    HW140238   3.894   2.332   5.534  1.1351 -0.3747  1.1164
 9534SOL    HW240239   4.003   2.438   5.560  0.2427  0.7346 -0.7887
 9535SOL     OW40240   4.255   4.329   7.743  0.1830 -0.3157 -0.1415
 9535SOL    HW140241   4.313   4.349   7.669  0.8043 -2.8958 -0.3450
 9535SOL    HW240242   4.312   4.269   7.790 -0.3257 -0.4680  0.2849
 9536SOL     OW40243   4.598   3.736  10.644  0.1039 -0.5217  0.3056
 9536SOL    HW140244   4.666   3.742  10.712 -0.1787  2.1755  0.3579
 9536SOL    HW240245   4.581   3.830  10.645 -0.2928 -0.5950  0.3027
 9537SOL     OW40246   4.155   3.432   3.850 -0.3345 -1.2665  0.7173
 9537SOL    HW140247   4.196   3.346   3.843 -0.1274 -1.0840 -0.1976
 9537SOL    HW240248   4.212   3.476   3.914 -1.3496  0.1090  0.6872
 9538SOL     OW40249   3.417   4.532  10.074  0.4148 -0.0344 -0.0751
 9538SOL    HW140250   3.494   4.545  10.018  0.0435  1.2053 -0.3042
 9538SOL    HW240251   3.405   4.612  10.125 -0.4696 -0.5728  0.5614
 9539SOL     OW40252   2.701   2.044   1.912 -0.6062 -0.6314 -0.5694
 9539SOL    HW140253   2.632   1.998   1.864  1.5979 -3.2254 -1.2787
 9539SOL    HW240254   2.777   2.026   1.858  0.0196 -1.1092  0.4697
 9540SOL     OW40255   3.150   0.117   5.010  0.7124 -0.0786 -0.0687
 9540SOL    HW140256   3.072   0.078   4.970  0.9569  0.8751 -1.4648
 9540SOL    HW240257   3.162   0.073   5.094 -0.7302 -2.2600 -1.0173
 9541SOL     OW40258   3.025   3.141   7.563 -0.0341 -0.5403 -0.5190
 9541SOL    HW140259   3.047   3.090   7.485  4.1505  0.2417  0.1483
 9541SOL    HW240260   2.965   3.201   7.518 -2.0788 -1.9300  0.3317
 9542SOL     OW40261   0.201   3.298   9.145 -0.1501  0.7101 -0.2839
 9542SOL    HW140262   0.147   3.372   9.173 -1.9391 -1.1378  1.1592
 9542SOL    HW240263   0.191   3.303   9.050  0.6742  1.1512 -0.3534
 9543SOL     OW40264   4.242   1.966   6.228 -0.6372 -0.7104 -0.0700
 9543SOL    HW140265   4.217   2.058   6.223 -1.2457 -0.8030  1.4177
 9543SOL    HW240266   4.338   1.968   6.235 -0.5177  0.0955 -1.9050
 9544SOL     OW40267   4.270   3.138   7.041 -0.0247 -0.6278  0.5962
 9544SOL    HW140268   4.196   3.080   7.024  1.5176 -1.6310 -2.7901
 9544SOL    HW240269   4.348   3.085   7.023 -0.4510 -0.9240 -0.3848
 9545SOL     OW40270   3.006   0.096   4.275  0.1566 -0.0619  0.1401
 9545SOL    HW140271   2.973   0.044   4.202  2.8946  0.5581 -1.5358
 9545SOL    HW240272   3.075   0.035   4.303  0.1757 -0.4945 -0.8266
 9546SOL     OW40273   3.509   1.580  13.026  0.4508 -0.4802  0.7841
 9546SOL    HW140274   3.602   1.578  13.003  0.5354  1.7087  0.8578
 9546SOL    HW240275   3.476   1.498  12.991 -0.9537  0.2596  0.3393
 9547SOL     OW40276   4.725   3.454   1.256  0.3128 -0.6442 -0.0178
 9547SOL    HW140277   4.729   3.511   1.179  0.1652 -0.7564 -0.1086
 9547SOL    HW240278   0.077   3.468   1.293 -0.1373  0.5391  0.5941
 9548SOL     OW40279   3.337   3.074   4.364  0.3829  0.2885  0.5740
 9548SOL    HW140280   3.304   3.019   4.293  1.4348  1.1069 -0.5509
 9548SOL    HW240281   3.268   3.139   4.382 -1.8121 -2.1441  0.9480
 9549SOL     OW40282   4.090   0.835   3.214 -0.4625 -0.0273 -0.0780
 9549SOL    HW140283   4.118   0.755   3.259 -0.5521  0.4115  0.7692
 9549SOL    HW240284   4.160   0.898   3.233 -0.7894  0.8578 -1.7646
 9550SOL     OW40285   0.618   0.696   7.901  0.0377  0.3184  0.5754
 9550SOL    HW140286   0.672   0.747   7.840 -1.5009  1.7406  0.4150
 9550SOL    HW240287   0.664   0.724   7.980 -0.7463 -0.3080  1.2435
 9551SOL     OW40288   2.697   0.461   6.511  0.3312 -0.1097 -0.4871
 9551SOL    HW140289   2.787   0.459   6.542  0.2147 -0.3428 -0.1567
 9551SOL    HW240290   2.659   0.533   6.562 -2.7232 -2.2462  0.2506
 9552SOL     OW40291   3.805   1.762   9.593  0.7015 -0.3392 -0.2695
 9552SOL    HW140292   3.721   1.725   9.620 -0.3892  1.8019 -0.7613
 9552SOL    HW240293   3.783   1.791   9.505  0.0870 -0.2401 -0.0802
 9553SOL     OW40294   0.425   1.444   4.344  0.0292  0.6522 -0.3283
 9553SOL    HW140295   0.396   1.486   4.263  0.5201 -0.8530 -1.2949
 9553SOL    HW240296   0.493   1.389   4.305 -1.1996 -1.0417 -0.1078
 9554SOL     OW40297   2.879   2.181  10.193 -0.0524 -0.0382  0.6080
 9554SOL    HW140298   2.907   2.188  10.101 -0.5670 -2.0684  0.2982
 9554SOL    HW240299   2.891   2.269  10.228 -1.4242  0.5199 -0.2996
 9555SOL     OW40300   2.158   4.472   1.035  0.2458  0.0423  0.2365
 9555SOL    HW140301   2.198   4.559   1.023 -0.8418  0.3665 -1.0191
 9555SOL    HW240302   2.102   4.466   0.958 -2.5234 -3.2080  2.5178
 9556SOL     OW40303   0.596   2.418   5.521  0.6700 -0.6544 -0.6849
 9556SOL    HW140304   0.661   2.419   5.591 -1.2689  1.3842  1.0811
 9556SOL    HW240305   0.578   2.507   5.493 -0.3751 -0.0276  1.9798
 9557SOL     OW40306   2.615   2.032  16.509  0.0481  0.1946 -0.6571
 9557SOL    HW140307   2.696   2.071  16.543 -0.3574 -0.2749  0.7931
 9557SOL    HW240308   2.646   1.975  16.438 -1.5330 -0.7101 -0.6128
 9558SOL     OW40309   0.585   4.688  10.977  0.3505 -0.1699  0.0546
 9558SOL    HW140310   0.599   4.685  11.072  3.1693 -0.4833 -0.3707
 9558SOL    HW240311   0.671   4.656  10.948 -0.7841 -3.5325  0.4683
 9559SOL     OW40312   2.708   2.449   5.073 -0.4546 -0.3879 -0.3945
 9559SOL    HW140313   2.701   2.450   5.168  0.5911  0.6836 -0.3297
 9559SOL    HW240314   2.704   2.543   5.054 -0.5907 -0.2873  0.1275
 9560SOL     OW40315   0.053   3.236   3.021 -0.2519  0.4721 -0.2900
 9560SOL    HW140316   0.058   3.312   2.963  0.5259 -0.1588 -1.0568
 9560SOL    HW240317   4.696   3.239   3.046 -0.3612  0.9800 -0.7519
 9561SOL     OW40318   1.513   3.241   7.795  0.2347  0.0239 -0.3148
 9561SOL    HW140319   1.592   3.222   7.846 -0.7672 -0.8381  0.9221
 9561SOL    HW240320   1.533   3.319   7.743  3.4553 -1.0772 -0.7228
 9562SOL     OW40321   3.134   4.238   6.011  0.1695 -0.4578  0.6648
 9562SOL    HW140322   3.146   4.316   5.956  0.3180 -1.7606 -1.1762
 9562SOL    HW240323   3.078   4.189   5.950  1.5618 -0.3897 -0.6875
 9563SOL     OW40324   2.215   1.718  14.635 -0.3229 -0.2318 -0.2611
 9563SOL    HW140325   2.191   1.654  14.567 -2.3435 -2.3767  2.4865
 9563SOL    HW240326   2.265   1.781  14.583 -1.6969  1.0767  0.0216
 9564SOL     OW40327   0.468   2.331   6.155  0.3783  0.3368  0.1802
 9564SOL    HW140328   0.515   2.322   6.073  1.1799  3.0132  0.3590
 9564SOL    HW240329   0.399   2.390   6.124  0.6658  0.8925  0.5813
 9565SOL     OW40330   3.175   3.250   3.819 -0.1838 -0.0424 -0.2307
 9565SOL    HW140331   3.184   3.155   3.817 -3.4311 -0.3952  1.7551
 9565SOL    HW240332   3.240   3.275   3.885  0.0571 -1.5895  0.1149
 9566SOL     OW40333   3.721   2.802   4.268  0.3000  0.0290  0.1249
 9566SOL    HW140334   3.676   2.810   4.352 -1.1986  0.1224 -0.6993
 9566SOL    HW240335   3.655   2.784   4.201  1.3592  0.1721 -0.9580
 9567SOL     OW40336   3.609   2.336  13.433 -0.0632  0.4656 -0.0510
 9567SOL    HW140337   3.618   2.383  13.516 -1.2060 -1.9414  1.4411
 9567SOL    HW240338   3.686   2.364  13.384 -0.3719 -1.1077 -1.4519
 9568SOL     OW40339   0.165   0.055   6.594  0.1103 -0.1800  0.2986
 9568SOL    HW140340   0.215   4.716   6.560 -0.3172  0.5544 -1.9055
 9568SOL    HW240341   0.076   0.038   6.563  1.8262 -1.0313 -4.1563
 9569SOL     OW40342   3.837   3.100   2.963 -0.1541  0.7822  0.6063
 9569SOL    HW140343   3.910   3.063   2.913 -0.8822 -0.0689  0.1540
 9569SOL    HW240344   3.889   3.136   3.034  1.4220 -1.2550  0.4879
   4.73533   4.73533  17.74010
