Membrane in water
40344
    1TMC1    C1    1   3.163   4.393  11.921 -0.8910 -0.5149  0.3344
    1TMC1    C2    2   3.133   4.438  12.049 -0.4782 -0.9170 -0.7883
    1TMC1    C3    3   3.109   4.571  12.069  0.8109 -0.3833 -0.2591
    1TMC1    C4    4   3.153   4.477  11.814  0.7646  0.5497 -0.4018
    1TMC1    C5    5   3.151   4.606  11.844  0.7003  0.0221 -0.2090
    1TMC1    C6    6   3.118   4.655  11.964  0.5294  0.6236  0.0923
    1TMC1     C    7   3.175   4.246  11.906  0.1224  0.3854 -0.2516
    1TMC1     O    8   3.103   4.179  11.975 -0.1958  0.1183  0.5136
    1TMC1     H    9   3.137   4.372  12.135  0.9889 -0.4361 -0.4822
    1TMC1    H1   10   3.171   4.442  11.713 -0.2462  0.0747 -0.4132
    1TMC1    H2   11   3.095   0.024  11.983 -3.3297  0.0918 -1.5986
    1TMC1    C7   12   3.137   4.691  11.731 -0.0593 -0.5038  0.5924
    1TMC1    C8   13   3.063   4.613  12.199 -0.0134 -0.0221 -0.1221
    1TMC1    O1   14   3.053   4.667  11.645  1.1380 -0.1258  0.3776
    1TMC1    O2   15   2.952   4.661  12.195 -0.0093 -0.1385 -0.3075
    1TMC1    O3   16   3.174   0.077  11.773  0.0076 -0.0145 -0.3012
    1TMC1    H3   17   3.242   0.084  11.843  0.0165  1.3176 -0.4543
    1TMC1    O5   18   3.175   4.683  12.236  1.1218 -0.3567  0.0514
    1TMC1    H5   19   3.258   4.632  12.236  0.9437 -0.6432  0.8184
    2MPD2     C   20   3.389   3.845  11.655  0.5979  0.2185 -0.4965
    2MPD2    C1   21   3.301   3.846  11.766  1.1810 -0.3455 -0.0489
    2MPD2    C2   22   3.259   3.968  11.819 -0.4413 -0.1426 -0.0544
    2MPD2    C3   23   3.304   4.086  11.760 -0.2222  0.0644 -0.0744
    2MPD2    C4   24   3.368   4.084  11.639  0.5528 -0.0195  0.4141
    2MPD2    C5   25   3.411   3.962  11.593  0.2669 -0.1520 -0.4419
    2MPD2     H   26   3.200   3.979  11.909  0.6678 -0.3174  0.6898
    2MPD2    H1   27   3.404   4.173  11.589  0.9980 -2.1713 -3.0978
    2MPD2    H2   28   3.441   3.760  11.614  0.2050 -0.6211  0.7355
    2MPD2    H3   29   3.467   3.944  11.502  1.9847 -0.2799  0.6511
    2MPD2     N   30   3.269   4.211  11.815 -0.3406  0.4906 -0.6167
    2MPD2    H5   31   3.316   4.284  11.763 -0.3425 -0.9915 -2.6857
    2MPD2    N1   32   3.280   3.732  11.852  0.0435  0.7737 -0.7079
    2MPD2    H7   33   3.219   3.746  11.932  1.0448 -0.0606  0.2032
    3TMC1    C1   34   2.577   3.857  10.974  0.3672  0.1729  0.4453
    3TMC1    C2   35   2.594   3.719  10.967  0.4124 -0.1458 -0.2490
    3TMC1    C3   36   2.683   3.662  10.876  0.0347  0.1054  0.2934
    3TMC1    C4   37   2.652   3.942  10.908 -0.5182 -0.0903  0.8835
    3TMC1    C5   38   2.728   3.885  10.806 -0.6329 -0.2078  0.1849
    3TMC1    C6   39   2.747   3.747  10.791  0.2280 -0.3871 -0.4056
    3TMC1     C   40   2.484   3.898  11.079  0.5623 -0.2854  0.0499
    3TMC1     O   41   2.429   3.811  11.141  0.2096 -0.6105 -0.2453
    3TMC1     H   42   2.535   3.651  11.029  0.5226  0.4348  0.4908
    3TMC1    H1   43   2.645   4.050  10.911 -0.8147 -0.0502 -1.1192
    3TMC1    H2   44   2.814   3.706  10.717 -0.7575 -1.4548 -0.6969
    3TMC1    C7   45   2.815   3.970  10.730 -0.8912  0.4042  0.0055
    3TMC1    C8   46   2.682   3.520  10.840  0.5117  0.6903 -0.1202
    3TMC1    O1   47   2.850   4.079  10.774  0.4237  0.0802 -0.2493
    3TMC1    O2   48   2.736   3.431  10.899  0.1466  0.5816  0.1287
    3TMC1    O3   49   2.771   3.955  10.600 -0.3240 -0.6396 -0.3736
    3TMC1    H3   50   2.712   3.877  10.589 -0.7409 -0.2953 -0.5627
    3TMC1    O5   51   2.665   3.528  10.701 -0.1962 -0.1258  0.2109
    3TMC1    H5   52   2.621   3.610  10.672  0.4622  0.1702  0.0394
    4MPD2     C   53   2.270   4.247  11.375  0.8357  0.1751 -0.4149
    4MPD2    C1   54   2.322   4.311  11.265 -0.2189 -0.3371  0.6469
    4MPD2    C2   55   2.386   4.244  11.167  0.8324  0.3708  0.3541
    4MPD2    C3   56   2.395   4.103  11.180 -0.0672 -0.5871 -0.4717
    4MPD2    C4   57   2.332   4.042  11.283  0.3428  0.1194  0.1475
    4MPD2    C5   58   2.270   4.112  11.379 -0.3933 -0.6283  0.2701
    4MPD2     H   59   2.445   4.295  11.092  0.9023 -1.4898 -0.8516
    4MPD2    H1   60   2.336   3.934  11.288 -3.2894 -0.0664 -0.7406
    4MPD2    H2   61   2.219   4.296  11.457 -1.3752  1.4082 -2.5193
    4MPD2    H3   62   2.231   4.056  11.463  0.6116 -0.9652  0.5138
    4MPD2     N   63   2.467   4.029  11.082 -0.0076  0.5360 -0.0831
    4MPD2    H5   64   2.534   4.083  11.028 -1.6348  3.4444  0.8063
    4MPD2    N1   65   2.328   4.451  11.251 -0.1562 -0.5649 -0.4688
    4MPD2    H7   66   2.375   4.486  11.168  2.3061 -1.4133  0.5644
    5TCq1    O1   67   4.405   0.785  11.548 -0.0357 -0.6066  0.3701
    5TCq1    C1   68   4.363   0.855  11.436 -0.0171  0.1809 -0.2961
    5TCq1    O2   69   4.370   0.812  11.323 -0.2515 -0.0822  0.7155
    5TCq1    C2   70   4.243   0.925  11.480  0.5094  0.4947  0.2575
    5TCq1    C3   71   4.235   0.986  11.600  0.1350 -0.5119 -0.2075
    5TCq1    C4   72   4.119   1.053  11.624 -0.8784 -0.3986 -0.1608
    5TCq1    C5   73   4.007   1.053  11.535 -0.3071 -0.3323  0.3248
    5TCq1    C6   74   4.030   0.994  11.415  0.3751  0.4291 -1.1099
    5TCq1    C7   75   4.144   0.930  11.386  0.7796 -0.0189 -0.6209
    5TCq1    C8   76   3.924   0.991  11.319  0.0587  0.0170 -0.0433
    5TCq1    O4   77   3.921   0.892  11.245 -0.4230 -0.0333 -0.0134
    5TCq1    C9   78   4.103   1.108  11.755 -0.1150 -0.1405  0.3036
    5TCq1    O5   79   3.987   1.141  11.787  0.1930 -0.1920  0.0390
    5TCq1    O6   80   4.188   1.085  11.843 -0.3592 -0.2487  0.1820
    5TCq1    H1   81   4.372   0.826  11.631 -2.6907 -0.6215 -0.6533
    5TCq1    H2   82   4.316   1.003  11.670 -1.5166  2.4060  0.9756
    5TCq1    H3   83   3.914   1.093  11.574 -0.4180 -0.0590 -0.2247
    5TCq1    H4   84   4.148   0.876  11.292  0.1289 -0.0112 -0.6538
    6MPD2     C   85   3.712   1.291  11.263  0.2422 -0.2695  0.0732
    6MPD2    C1   86   3.750   1.161  11.239  0.0657 -0.6670 -0.0065
    6MPD2    C2   87   3.694   1.083  11.135  0.2209  0.1757 -0.0441
    6MPD2    C3   88   3.603   1.140  11.054 -0.1400 -0.1867  0.3569
    6MPD2    C4   89   3.560   1.269  11.080 -0.3535  0.2650  0.2096
    6MPD2    C5   90   3.621   1.346  11.179 -0.6913  0.4913  0.4290
    6MPD2     H   91   3.730   0.982  11.120 -4.0096 -1.2912 -0.2579
    6MPD2    H1   92   3.493   1.320  11.011 -1.3167 -2.7895 -1.0971
    6MPD2    H2   93   3.742   1.350  11.349  0.1652  1.0042 -0.7704
    6MPD2    H3   94   3.596   1.451  11.193  1.2397  0.9825  0.1391
    6MPD2     N   95   3.558   1.064  10.942 -0.0312 -0.2547 -0.8715
    6MPD2    H5   96   3.611   0.979  10.923  1.5345  0.1888  1.5772
    6MPD2    N1   97   3.854   1.114  11.321 -0.7240  0.1317  0.6088
    6MPD2    H7   98   3.885   1.179  11.392  1.3642  0.3055 -0.4576
    7TCq1    O1   99   4.504   0.533  13.286  0.3110 -0.1482 -0.5648
    7TCq1    C1  100   4.530   0.569  13.154  0.6488 -0.1567  0.5188
    7TCq1    O2  101   4.451   0.626  13.082  0.2412 -0.1639  0.0360
    7TCq1    C2  102   4.665   0.532  13.120  0.1280  0.4209  0.6312
    7TCq1    C3  103   0.001   0.628  13.052 -0.1406  0.9082  0.4426
    7TCq1    C4  104   0.139   0.619  13.057 -0.9372  0.6886  0.1763
    7TCq1    C5  105   0.202   0.520  13.128 -0.1664  0.4568  0.1287
    7TCq1    C6  106   0.129   0.427  13.192  0.0093 -0.3379  0.0040
    7TCq1    C7  107   4.729   0.426  13.185  0.7327  0.4004  0.4528
    7TCq1    C8  108   0.206   0.321  13.254  0.0457  0.0473 -0.3223
    7TCq1    O4  109   0.308   0.275  13.200 -0.2357  0.6793  0.4481
    7TCq1    C9  110   0.229   0.725  13.009 -0.2324  0.5808 -0.5991
    7TCq1    O5  111   0.219   0.838  13.062  0.5425 -0.1821  0.0578
    7TCq1    O6  112   0.335   0.682  12.957 -0.1993 -0.1786 -0.5029
    7TCq1    H1  113   4.588   0.490  13.314 -0.3133 -0.6739  0.5116
    7TCq1    H2  114   4.691   0.717  13.010 -0.0446  1.6451  1.8787
    7TCq1    H3  115   0.308   0.536  13.144 -0.5275  1.3468  1.7240
    7TCq1    H4  116   4.672   0.343  13.226  0.8593  0.1073  0.0379
    8MPD2     C  117   0.339   0.089  13.692  0.0461  0.5188 -0.1628
    8MPD2    C1  118   0.397   0.073  13.565 -0.1540  0.2827  0.3274
    8MPD2    C2  119   0.334   0.140  13.452  0.6141  0.3551  0.1495
    8MPD2    C3  120   0.222   0.211  13.477  0.5086 -0.1880  0.1633
    8MPD2    C4  121   0.160   0.213  13.602 -0.5056  0.1938 -0.5416
    8MPD2    C5  122   0.216   0.144  13.702 -0.3061  0.5583  0.2214
    8MPD2     H  123   0.389   0.135  13.358  2.1127  4.1611  0.8313
    8MPD2    H1  124   0.069   0.269  13.621 -0.0202  0.0405  2.2393
    8MPD2    H2  125   0.387   0.061  13.785  0.7874 -0.2209 -0.7741
    8MPD2    H3  126   0.172   0.140  13.801  2.4293 -2.2571  1.3017
    8MPD2     N  127   0.159   0.292  13.379 -0.0239  0.3010 -0.4330
    8MPD2    H5  128   0.087   0.356  13.411 -1.4011 -1.7442  0.5418
    8MPD2    N1  129   0.523   0.004  13.542  0.3399 -0.0722 -0.7311
    8MPD2    H7  130   0.586   4.715  13.618 -0.8507 -2.9047 -0.6189
    9TMC1    C1  131   2.988   3.956  11.566  0.0006 -0.4051  0.2890
    9TMC1    C2  132   2.962   3.843  11.648 -0.0796  0.4945  0.2099
    9TMC1    C3  133   3.009   3.723  11.604 -0.3201  0.4308 -1.0316
    9TMC1    C4  134   3.066   3.947  11.456  0.0737  0.3230  0.1286
    9TMC1    C5  135   3.118   3.822  11.427 -0.1417 -0.8307  0.2140
    9TMC1    C6  136   3.091   3.711  11.499 -0.3737 -0.5689 -0.0513
    9TMC1     C  137   2.948   4.087  11.608 -0.3775  0.1140  0.5219
    9TMC1     O  138   2.966   4.168  11.517  0.6179 -0.0154 -0.3078
    9TMC1     H  139   2.893   3.843  11.732 -0.4836 -0.4400 -0.1191
    9TMC1    H1  140   3.073   4.026  11.381  0.7429  2.6794  2.6764
    9TMC1    H2  141   3.103   3.610  11.461  0.7005 -1.4045  2.5271
    9TMC1    C7  142   3.209   3.804  11.323  0.3958  1.3260 -0.6537
    9TMC1    C8  143   2.934   3.601  11.636  0.1696  0.2534  0.1460
    9TMC1    O1  144   3.225   3.689  11.287  0.6599 -0.1249  0.4980
    9TMC1    O2  145   2.825   3.600  11.690  0.3674  0.3622  0.1754
    9TMC1    O3  146   3.304   3.901  11.316  0.0459  0.0091  0.3932
    9TMC1    H3  147   3.282   3.986  11.361  0.9661  0.7824 -0.6147
    9TMC1    O5  148   3.034   3.514  11.659  0.0968  0.5238 -0.5107
    9TMC1    H5  149   3.120   3.554  11.637  1.2632 -1.0814  1.1736
   10MPD2     C  150   2.846   4.344  11.713  0.3982  0.3034  0.2093
   10MPD2    C1  151   2.828   4.218  11.776  0.7569 -0.1745 -0.0526
   10MPD2    C2  152   2.769   4.212  11.904 -0.0566 -0.2263  0.5738
   10MPD2    C3  153   2.735   4.329  11.968  0.3831  0.4365  0.2547
   10MPD2    C4  154   2.759   4.451  11.904 -0.2286  0.5065 -1.0159
   10MPD2    C5  155   2.822   4.455  11.784 -0.7908  0.0270 -0.3382
   10MPD2     H  156   2.752   4.118  11.956 -0.9153 -0.6623 -0.4745
   10MPD2    H1  157   2.745   4.547  11.952 -0.6248 -0.9001  1.6422
   10MPD2    H2  158   2.890   4.357  11.615  0.4778  0.9316  0.3278
   10MPD2    H3  159   2.851   4.551  11.742 -0.6486  0.4266  0.6792
   10MPD2     N  160   2.698   4.343  12.111  0.4713 -0.5759 -0.0107
   10MPD2    H5  161   2.682   4.433  12.156  2.7897 -0.6419  0.9057
   10MPD2    N1  162   2.873   4.091  11.720  0.9052  0.1213  0.2007
   10MPD2    H7  163   2.857   4.007  11.775 -0.4628  0.0428 -0.3363
   11TCq1    O1  164   3.825   4.449  13.382 -0.3247  0.0646 -0.7267
   11TCq1    C1  165   3.802   4.575  13.435  0.6085  0.4521  0.3054
   11TCq1    O2  166   3.781   4.678  13.369 -0.0828 -0.5625 -0.0213
   11TCq1    C2  167   3.754   4.559  13.569 -0.5199  0.1034 -0.0394
   11TCq1    C3  168   3.760   4.676  13.643 -0.5519 -0.5886 -0.1676
   11TCq1    C4  169   3.739   4.662  13.779  0.5313  0.2350  0.3007
   11TCq1    C5  170   3.724   4.542  13.839  0.2283  0.9937  0.0590
   11TCq1    C6  171   3.733   4.429  13.765  1.0287 -0.9250 -0.2329
   11TCq1    C7  172   3.740   4.435  13.630 -0.4734  0.1224 -0.0895
   11TCq1    C8  173   3.700   4.305  13.831  0.0480  0.5737  0.0100
   11TCq1    O4  174   3.647   4.319  13.937 -0.2784 -0.0833  0.3716
   11TCq1    C9  175   3.757   0.045  13.855  0.4082 -0.5608  0.2028
   11TCq1    O5  176   3.781   0.148  13.790 -0.3358 -0.4860 -0.6041
   11TCq1    O6  177   3.760   0.029  13.978  0.9480 -0.4413 -0.1763
   11TCq1    H1  178   3.837   4.373  13.442 -0.1908  1.2906  0.8127
   11TCq1    H2  179   3.761   0.041  13.600 -0.8404  0.8729  3.2753
   11TCq1    H3  180   3.717   4.536  13.947  1.1545  1.8076  0.1724
   11TCq1    H4  181   3.715   4.350  13.568  1.5796  0.5685 -1.5263
   12MPD2     C  182   3.692   4.023  13.929 -0.1864  0.7845  0.3162
   12MPD2    C1  183   3.723   4.067  13.801 -0.4038 -0.1678 -0.5125
   12MPD2    C2  184   3.729   3.965  13.706  0.0803 -0.4623  0.4970
   12MPD2    C3  185   3.729   3.829  13.732 -0.2941 -0.1546  0.1812
   12MPD2    C4  186   3.705   3.790  13.862 -0.5062 -0.7417 -0.9117
   12MPD2    C5  187   3.689   3.886  13.961 -0.7604 -0.1523  0.1929
   12MPD2     H  188   3.754   3.995  13.605 -0.9357 -3.1136 -0.5387
   12MPD2    H1  189   3.691   3.687  13.893  1.2736 -1.0445 -1.1262
   12MPD2    H2  190   3.676   4.082  14.019  0.1819 -1.5220  1.8770
   12MPD2    H3  191   3.674   3.846  14.061  0.5976  0.1328  0.5105
   12MPD2     N  192   3.755   3.730  13.640  0.3784  0.3476 -0.1794
   12MPD2    H5  193   3.770   3.634  13.670 -0.0522  0.1761 -0.5114
   12MPD2    N1  194   3.741   4.203  13.756 -0.1092  0.6085 -1.1816
   12MPD2    H7  195   3.794   4.217  13.670  1.1951  0.7317 -0.3540
   13TCq1    O1  196   3.055   4.236  10.686 -0.0399 -0.5261  0.0647
   13TCq1    C1  197   3.163   4.272  10.753 -0.7036  0.8253 -0.4782
   13TCq1    O2  198   3.243   4.355  10.714  0.1426 -0.0030 -0.4336
   13TCq1    C2  199   3.194   4.160  10.832 -0.2615  0.1806  0.3329
   13TCq1    C3  200   3.312   4.094  10.827  0.4318 -0.5250  0.8624
   13TCq1    C4  201   3.329   3.981  10.907  0.2863 -0.0961 -0.4621
   13TCq1    C5  202   3.234   3.946  10.996 -0.5296  0.5594 -0.3538
   13TCq1    C6  203   3.114   4.018  11.001  0.0845 -0.2432  0.3927
   13TCq1    C7  204   3.094   4.130  10.923  0.5540  0.1301  0.2322
   13TCq1    C8  205   3.000   3.989  11.089 -0.3247  0.0482  0.4355
   13TCq1    O4  206   2.934   4.082  11.136 -0.4630 -0.3766  0.3415
   13TCq1    C9  207   3.443   3.898  10.890 -0.0384  0.6177  0.6340
   13TCq1    O5  208   3.464   3.801  10.962  0.4314 -0.2503  0.3321
   13TCq1    O6  209   3.518   3.948  10.799 -0.4378  0.1253  0.8511
   13TCq1    H1  210   3.001   4.164  10.725  0.4846  0.7169  3.1023
   13TCq1    H2  211   3.391   4.139  10.768  1.0824 -0.6358  1.6461
   13TCq1    H3  212   3.249   3.854  11.052 -0.9323  0.5169 -0.3153
   13TCq1    H4  213   2.999   4.183  10.927  0.1234 -0.5303 -1.2440
   14MPD2     C  214   2.839   3.661  11.164  0.1390  0.1229  0.4342
   14MPD2    C1  215   2.870   3.797  11.182  0.4017  0.0139  0.2123
   14MPD2    C2  216   2.805   3.870  11.283  0.8730 -0.7112  0.3361
   14MPD2    C3  217   2.708   3.815  11.364 -0.0611  0.6793  0.1833
   14MPD2    C4  218   2.678   3.684  11.340 -0.7108 -0.2301  0.4789
   14MPD2    C5  219   2.742   3.605  11.243  0.3158  0.5793  0.2501
   14MPD2     H  220   2.826   3.974  11.307 -1.1426 -0.4566  0.9669
   14MPD2    H1  221   2.600   3.627  11.388 -0.8691  0.6390  1.2434
   14MPD2    H2  222   2.903   3.600  11.101  0.8707  1.4271 -0.0878
   14MPD2    H3  223   2.716   3.501  11.227 -0.2315  0.9238 -1.1152
   14MPD2     N  224   2.642   3.895  11.461 -0.0717 -0.0487  0.1144
   14MPD2    H5  225   2.658   3.994  11.445  1.9112 -0.1427  1.5355
   14MPD2    N1  226   2.966   3.855  11.094 -0.4322  0.0615  0.0179
   14MPD2    H7  227   3.004   3.804  11.016  4.0855  3.2209  0.1559
   15TCq1    O1  228   4.699   3.911   1.594  0.5512  1.0278  0.0683
   15TCq1    C1  229   0.015   4.036   1.600  0.1021 -0.0129  0.3065
   15TCq1    O2  230   4.710   4.123   1.674 -0.5709  0.2203  0.1632
   15TCq1    C2  231   0.160   4.019   1.593 -1.0234  0.6751  0.4951
   15TCq1    C3  232   0.249   4.063   1.683  0.0091  0.2605 -0.0026
   15TCq1    C4  233   0.372   4.007   1.684  0.1686 -0.4331 -0.5544
   15TCq1    C5  234   0.412   3.908   1.600 -0.6824 -0.1593  0.5864
   15TCq1    C6  235   0.328   3.887   1.499 -0.2133 -0.9067  0.5130
   15TCq1    C7  236   0.199   3.935   1.493 -0.1831 -0.4977  0.8953
   15TCq1    C8  237   0.356   3.767   1.418  0.1147 -0.3081  0.3337
   15TCq1    O4  238   0.445   3.688   1.449  0.3691  0.0723 -0.1514
   15TCq1    C9  239   0.450   4.036   1.799 -0.0517  0.3127 -0.3401
   15TCq1    O5  240   0.413   4.142   1.856  0.2969  0.5677  0.0849
   15TCq1    O6  241   0.561   3.990   1.785 -0.0183 -0.1806  0.0274
   15TCq1    H1  242   0.022   3.842   1.556 -0.5977  0.5312 -0.7840
   15TCq1    H2  243   0.199   4.118   1.762 -0.4116  1.7930 -1.3378
   15TCq1    H3  244   0.511   3.864   1.601 -1.0334 -0.9291  1.8942
   15TCq1    H4  245   0.124   3.907   1.420 -0.8966 -1.1698  1.8905
   16MPD2     C  246   0.194   3.727   1.096 -0.4127 -0.4957  0.3672
   16MPD2    C1  247   0.271   3.686   1.203  0.1191 -0.8618  0.0784
   16MPD2    C2  248   0.333   3.561   1.194 -0.1842 -0.2417  0.2867
   16MPD2    C3  249   0.314   3.478   1.084 -0.5836 -0.1597 -0.1059
   16MPD2    C4  250   0.224   3.524   0.982  0.8674 -0.6887 -0.1780
   16MPD2    C5  251   0.165   3.650   0.991  0.3811 -0.3363 -0.4089
   16MPD2     H  252   0.401   3.531   1.274 -0.0551 -1.7679 -0.3870
   16MPD2    H1  253   0.191   3.472   0.893 -1.2826 -0.4568  0.4909
   16MPD2    H2  254   0.159   3.829   1.083 -1.1627 -0.7317  0.5128
   16MPD2    H3  255   0.098   3.681   0.912 -1.7190 -2.5247  0.5425
   16MPD2     N  256   0.360   3.344   1.079  0.4989 -0.0866 -0.6500
   16MPD2    H5  257   0.400   3.310   1.166  2.0818 -1.2110 -1.8041
   16MPD2    N1  258   0.281   3.779   1.303  0.6773  1.5540  0.6423
   16MPD2    H7  259   0.231   3.866   1.291 -1.3941  0.3706  0.5964
   17TMC1    C1  260   3.143   1.988  10.137  0.3293 -1.2870  0.0974
   17TMC1    C2  261   3.071   1.876  10.160 -0.5455  0.0431  0.0048
   17TMC1    C3  262   3.065   1.786  10.054 -0.0241  0.0783 -0.5733
   17TMC1    C4  263   3.234   2.003  10.040  0.0208  0.3173  0.0074
   17TMC1    C5  264   3.243   1.904   9.945  0.5792 -0.5345  0.6143
   17TMC1    C6  265   3.148   1.802   9.940 -0.6204  0.4420 -0.1918
   17TMC1     C  266   3.161   2.070  10.253  0.5121 -0.6626  0.1292
   17TMC1     O  267   3.074   2.062  10.334 -0.6584  0.1873  0.2797
   17TMC1     H  268   3.013   1.854  10.249  0.6777 -3.0986  0.0455
   17TMC1    H1  269   3.267   2.104  10.020 -1.0515  0.8731  1.0834
   17TMC1    H2  270   3.148   1.732   9.857 -0.3720  0.6085 -0.3306
   17TMC1    C7  271   3.295   1.943   9.822  0.1928 -0.0589 -0.1068
   17TMC1    C8  272   2.953   1.687  10.051 -0.0661 -0.4414 -0.2206
   17TMC1    O1  273   3.262   1.898   9.713  0.0357 -0.9782 -0.3831
   17TMC1    O2  274   2.947   1.596   9.974 -0.4805  0.2529 -0.0995
   17TMC1    O3  275   3.425   1.973   9.858  0.0330  0.0189  0.3585
   17TMC1    H3  276   3.438   2.000   9.952  1.6608  0.9262 -0.1405
   17TMC1    O5  277   2.849   1.754  10.102 -0.0019  0.0567 -0.3518
   17TMC1    H5  278   2.872   1.837  10.149  1.6758  0.1720 -1.3508
   18MPD2     C  279   3.222   2.278  10.452 -0.1721  0.0163 -0.3277
   18MPD2    C1  280   3.300   2.260  10.330 -0.2494  0.2640 -0.2164
   18MPD2    C2  281   3.401   2.347  10.296 -0.2144  0.1233 -0.1813
   18MPD2    C3  282   3.430   2.455  10.378  0.9614 -0.0295  0.5797
   18MPD2    C4  283   3.363   2.471  10.500  0.0651  0.3547  0.0564
   18MPD2    C5  284   3.266   2.383  10.532  0.7418  0.0037  0.0461
   18MPD2     H  285   3.454   2.323  10.205  1.4223  0.9725  0.5470
   18MPD2    H1  286   3.392   2.545  10.574 -1.7826 -0.3087  1.4262
   18MPD2    H2  287   3.148   2.210  10.491  0.0063 -0.2693 -0.4898
   18MPD2    H3  288   3.218   2.404  10.627 -0.9705 -2.0465 -0.3732
   18MPD2     N  289   3.543   2.542  10.356  0.0797 -0.1317 -0.4123
   18MPD2    H5  290   3.560   2.609  10.430  0.6680 -1.4777  0.6759
   18MPD2    N1  291   3.272   2.149  10.247 -0.2300 -0.0412 -0.0078
   18MPD2    H7  292   3.335   2.129  10.169 -0.5064 -0.7481 -0.0537
   19TMC2    C1  293   0.578   3.957  14.113 -0.4763 -0.8860  0.3756
   19TMC2    C2  294   0.556   4.084  14.159 -0.1021  0.5426  0.2575
   19TMC2    C3  295   0.456   4.153  14.095  0.4593 -0.3875  0.8912
   19TMC2    C4  296   0.527   3.913  14.000  0.1020  0.6780 -0.3841
   19TMC2    C5  297   0.420   3.983  13.945  0.6072  0.1582  0.7901
   19TMC2    C6  298   0.384   4.101  13.993 -0.2037 -0.5380  0.5640
   19TMC2     C  299   0.665   3.872  14.185 -0.1926 -0.5828 -0.0911
   19TMC2     O  300   0.659   3.878  14.309  0.6681 -0.0582 -0.9790
   19TMC2     H  301   0.621   4.125  14.236 -0.1521 -2.2482  1.7971
   19TMC2    H1  302   0.556   3.818  13.956 -0.0325 -0.8419  2.8116
   19TMC2    H2  303   0.288   4.144  13.966  2.1922  2.2713 -3.6189
   19TMC2    C7  304   0.310   3.893  13.928 -0.3311 -0.2758 -0.1881
   19TMC2    C8  305   0.445   4.291  14.111 -0.2782  0.3106  0.4877
   19TMC2    O1  306   0.326   3.782  13.980 -0.2629 -0.5074 -0.1496
   19TMC2    O2  307   0.348   4.354  14.079 -0.7701  0.3510 -0.4103
   19TMC2    O5  308   0.573   4.332  14.106  0.4330  0.5045  0.1359
   19TMC2    H5  309   0.618   4.250  14.077 -1.4761 -0.3132 -0.5563
   20MPD2     C  310   0.970   3.697  14.074  0.2643  0.3796 -0.7331
   20MPD2    C1  311   0.859   3.721  14.146  0.5786  0.0193  1.3088
   20MPD2    C2  312   0.832   3.637  14.250 -0.3124 -0.0035 -0.0820
   20MPD2    C3  313   0.923   3.539  14.293 -0.1884 -0.3016  0.3774
   20MPD2    C4  314   1.043   3.528  14.226  0.7869 -0.1644 -0.1374
   20MPD2    C5  315   1.061   3.604  14.111  0.9865  0.1225  0.2672
   20MPD2     H  316   0.752   3.663  14.318  0.9723  2.2811  0.5695
   20MPD2    H1  317   1.122   3.459  14.252 -0.5878 -1.5752  0.2551
   20MPD2    H2  318   0.991   3.757  13.987  0.0565 -1.6933 -2.2109
   20MPD2    H3  319   1.160   3.614  14.067 -0.5096  0.6841 -2.9451
   20MPD2     N  320   0.886   3.458  14.407  0.3751 -0.1549  0.6962
   20MPD2    H5  321   0.806   3.492  14.460  0.0759  1.1076 -0.5310
   20MPD2    N1  322   0.764   3.819  14.106 -0.9897 -0.3395  0.2183
   20MPD2    H7  323   0.784   3.876  14.025 -1.1741  0.3926  0.6844
   21TMC2    C1  324   2.364   4.319  14.908 -0.4471 -0.6150 -0.4039
   21TMC2    C2  325   2.371   4.185  14.947 -0.7240 -0.0859 -0.1224
   21TMC2    C3  326   2.257   4.117  14.981 -0.0798  0.0699 -0.2275
   21TMC2    C4  327   2.238   4.381  14.910  0.4670  0.2044 -0.0579
   21TMC2    C5  328   2.131   4.316  14.961 -0.4180 -0.1170 -0.5984
   21TMC2    C6  329   2.139   4.181  14.990  0.4469  0.8155 -0.5355
   21TMC2     C  330   2.472   4.395  14.850  0.4990  0.0369  0.0430
   21TMC2     O  331   2.582   4.353  14.891 -0.1410 -0.4797 -0.1052
   21TMC2     H  332   2.465   4.132  14.949 -1.3530 -1.1474  1.5251
   21TMC2    H1  333   2.212   4.478  14.870 -0.2826 -0.6949 -1.7606
   21TMC2    H2  334   2.062   4.114  15.028  2.0798 -1.5490 -1.3611
   21TMC2    C7  335   2.027   4.394  15.024 -0.5820 -0.9147  0.4381
   21TMC2    C8  336   2.269   3.976  14.951 -0.0368  0.0677  0.5630
   21TMC2    O1  337   1.996   4.349  15.132  0.5212  0.4717  0.3249
   21TMC2    O2  338   2.359   3.901  14.982  0.0147 -0.2954  0.2632
   21TMC2    O5  339   2.197   3.961  14.838  0.0353 -0.8458 -0.4118
   21TMC2    H5  340   2.140   4.039  14.823  0.2762 -0.3551  1.3260
   22MPD2     C  341   2.687   4.644  14.460 -0.2480 -0.3461 -0.3013
   22MPD2    C1  342   2.734   4.553  14.545  0.2341  1.1703  0.5324
   22MPD2    C2  343   2.653   4.500  14.645  0.4910  0.2875  0.1198
   22MPD2    C3  344   2.525   4.545  14.660 -0.9028 -0.5636 -1.4158
   22MPD2    C4  345   2.474   4.644  14.575  0.8889  0.4610  0.7089
   22MPD2    C5  346   2.556   4.688  14.466 -0.2946  0.2737 -0.2315
   22MPD2     H  347   2.701   4.439  14.720  2.6583 -0.1581 -1.6040
   22MPD2    H1  348   2.368   4.669  14.578  0.4365 -1.3296 -0.1232
   22MPD2    H2  349   2.750   4.683  14.380 -2.7960 -1.3027 -2.7852
   22MPD2    H3  350   2.515   0.012  14.385  1.8701  1.7396 -0.2677
   22MPD2     N  351   2.438   4.493  14.759  0.0542  1.0131 -0.2221
   22MPD2    H5  352   2.345   4.531  14.773 -0.9167 -0.5529 -2.3803
   22MPD2    N1  353   2.870   4.506  14.544 -0.7456 -0.3274  0.8651
   22MPD2    H7  354   2.886   4.442  14.621 -0.1631  0.9028  1.7696
   23TMC2    C1  355   3.378   1.041  14.804 -0.1967  0.1094  0.3342
   23TMC2    C2  356   3.350   1.078  14.675  0.3356 -0.0815  0.5084
   23TMC2    C3  357   3.222   1.081  14.633 -0.4113  0.2785  0.2647
   23TMC2    C4  358   3.280   0.981  14.881 -0.4121 -0.1691  0.6187
   23TMC2    C5  359   3.157   0.983  14.828  0.1714 -0.8535  0.1504
   23TMC2    C6  360   3.122   1.029  14.707 -0.3943  0.5651  0.6679
   23TMC2     C  361   3.511   0.981  14.827  0.5720 -0.0367 -0.8662
   23TMC2     O  362   3.513   0.900  14.916 -0.3714  0.0125  0.1377
   23TMC2     H  363   3.429   1.128  14.619  0.4991  1.3595  1.9991
   23TMC2    H1  364   3.293   0.948  14.984 -1.7153 -0.3250  0.7305
   23TMC2    H2  365   3.019   1.061  14.692 -0.6581  0.5730  2.5434
   23TMC2    C7  366   3.045   0.925  14.906  0.1111  0.3631 -0.1692
   23TMC2    C8  367   3.193   1.165  14.520 -0.1497  0.5675  0.0745
   23TMC2    O1  368   3.072   0.898  15.025 -0.0552  0.1489  0.3558
   23TMC2    O2  369   3.248   1.274  14.507  0.2600 -0.2689 -0.1909
   23TMC2    O5  370   3.076   1.124  14.465  0.1178 -0.4603 -0.1900
   23TMC2    H5  371   3.054   1.035  14.500 -0.5234 -1.1314 -2.3121
   24MPD2     C  372   4.011   0.890  14.790  0.7600  0.0014 -0.0382
   24MPD2    C1  373   3.914   0.850  14.882  0.1046 -0.4213  0.6133
   24MPD2    C2  374   3.791   0.902  14.863  0.2718 -0.3357  0.3278
   24MPD2    C3  375   3.746   0.973  14.755 -0.2627  0.1165  0.1837
   24MPD2    C4  376   3.841   1.006  14.659 -0.5330  0.4447  0.2275
   24MPD2    C5  377   3.970   0.974  14.685  0.0528  0.0171 -0.3950
   24MPD2     H  378   3.720   0.870  14.939 -0.9169  2.0137  0.2047
   24MPD2    H1  379   3.835   1.053  14.562 -1.0791  1.8614  0.9574
   24MPD2    H2  380   4.115   0.861  14.799  0.9407  1.4005  2.4048
   24MPD2    H3  381   4.047   1.003  14.614 -1.8834 -2.7176 -3.6281
   24MPD2     N  382   3.610   1.009  14.735 -0.0901 -0.2878 -0.3414
   24MPD2    H5  383   3.592   1.055  14.646  0.1393  0.3952 -0.0277
   24MPD2    N1  384   3.935   0.752  14.986 -0.0532  0.5834 -0.7767
   24MPD2    H7  385   3.857   0.736  15.048 -1.4989 -0.5142 -2.8575
   25TMC2    C1  386   3.243   2.097  11.977 -0.1650  0.1021  1.1487
   25TMC2    C2  387   3.321   2.026  12.064 -0.0329 -0.5183  0.6287
   25TMC2    C3  388   3.306   2.040  12.199  0.2238  0.8224 -0.3556
   25TMC2    C4  389   3.134   2.163  12.023 -0.1983  0.4465  0.3061
   25TMC2    C5  390   3.107   2.159  12.156  0.2875  1.0537  0.1535
   25TMC2    C6  391   3.194   2.103  12.244 -0.2095 -0.6152  0.2082
   25TMC2     C  392   3.273   2.075  11.839  0.3659  0.1051  0.5745
   25TMC2     O  393   3.389   2.047  11.821 -0.0892  0.3902  0.1820
   25TMC2     H  394   3.401   1.962  12.030  2.0322  2.0196  0.6656
   25TMC2    H1  395   3.072   2.219  11.953 -0.3283 -0.9761 -0.7129
   25TMC2    H2  396   3.171   2.106  12.350  0.6922  1.1461  0.3504
   25TMC2    C7  397   3.038   2.278  12.210  0.8353  0.1457  0.2901
   25TMC2    C8  398   3.351   1.924  12.279 -0.7051 -0.2465 -0.4812
   25TMC2    O1  399   2.973   2.250  12.311 -0.1895  0.3567  0.1788
   25TMC2    O2  400   3.350   1.812  12.230 -0.0534  0.2658 -0.2389
   25TMC2    O5  401   3.350   1.956  12.411  0.0418  0.2508  0.8141
   25TMC2    H5  402   3.365   2.051  12.430  1.2203 -0.1779  2.0587
   26MPD2     C  403   3.161   1.855  11.384 -0.2086 -0.1357  0.4216
   26MPD2    C1  404   3.044   1.910  11.435  0.3798 -0.2992 -0.7685
   26MPD2    C2  405   3.039   1.988  11.554 -0.4625 -0.2277  0.1936
   26MPD2    C3  406   3.162   2.009  11.621 -0.0170  0.4731 -0.0525
   26MPD2    C4  407   3.277   1.948  11.566 -0.4924  0.1272 -0.3649
   26MPD2    C5  408   3.275   1.876  11.450 -0.7334  0.2912  0.0332
   26MPD2     H  409   2.947   2.027  11.596  0.4501  1.5832  0.5359
   26MPD2    H1  410   3.380   1.960  11.600 -0.6769  2.0676 -0.5449
   26MPD2    H2  411   3.162   1.816  11.283 -1.4431  2.3945 -0.5815
   26MPD2    H3  412   3.367   1.845  11.402 -1.8466 -1.2913 -1.0937
   26MPD2     N  413   3.167   2.070  11.748 -0.3942  0.0086  0.0635
   26MPD2    H5  414   3.074   2.099  11.778 -0.9724 -2.1850  0.4102
   26MPD2    N1  415   2.936   1.886  11.354  0.4697  0.5092  0.4857
   26MPD2    H7  416   2.952   1.820  11.278  0.2915 -0.0964  0.9778
   27TMC2    C1  417   1.286   0.224  11.777  0.0258  0.0213 -0.7605
   27TMC2    C2  418   1.311   0.226  11.641 -0.2372  0.5009 -0.4434
   27TMC2    C3  419   1.340   0.349  11.587 -0.4675  0.2897 -0.3801
   27TMC2    C4  420   1.276   0.333  11.850 -0.1152 -0.5201  0.3242
   27TMC2    C5  421   1.304   0.452  11.792  0.6817  0.9986 -0.2199
   27TMC2    C6  422   1.328   0.469  11.658  0.5998 -0.4692 -0.2143
   27TMC2     C  423   1.252   0.087  11.829 -0.4135 -0.4116 -0.5992
   27TMC2     O  424   1.219   0.008  11.746 -0.1541 -0.8312 -0.8676
   27TMC2     H  425   1.303   0.142  11.573 -1.2946 -0.2183  0.5776
   27TMC2    H1  426   1.259   0.329  11.957  1.9504 -0.6400  0.6538
   27TMC2    H2  427   1.353   0.569  11.623  1.2417 -0.7388 -0.5174
   27TMC2    C7  428   1.280   0.579  11.859 -0.1401 -0.2495 -0.1359
   27TMC2    C8  429   1.378   0.349  11.449  0.6956  0.3816 -0.0263
   27TMC2    O1  430   1.229   0.670  11.790 -0.2948 -0.9857 -0.4850
   27TMC2    O2  431   1.437   0.258  11.394 -0.3686 -0.2138 -0.3525
   27TMC2    O5  432   1.359   0.471  11.395  0.1594  0.0867 -0.0557
   27TMC2    H5  433   1.291   0.535  11.428  0.1591 -0.0709  0.2439
   28MPD2     C  434   1.116   4.501  12.213 -0.1951  0.2065  0.2473
   28MPD2    C1  435   1.104   4.632  12.266 -0.1894  0.0977 -0.4030
   28MPD2    C2  436   1.135   4.734  12.175 -0.5690 -0.0168  0.1884
   28MPD2    C3  437   1.181   4.711  12.041 -0.2835  0.0056 -0.1237
   28MPD2    C4  438   1.184   4.580  11.997  0.2656 -0.5263 -0.2730
   28MPD2    C5  439   1.147   4.478  12.082 -0.5562 -0.1938 -0.2839
   28MPD2     H  440   1.132   0.101  12.213 -0.0888  0.0305  0.0904
   28MPD2    H1  441   1.205   4.557  11.894 -0.4303  0.5498 -0.6642
   28MPD2    H2  442   1.092   4.419  12.280 -2.9971  0.2393 -0.6984
   28MPD2    H3  443   1.124   4.379  12.046  1.1474 -1.3644  1.8383
   28MPD2     N  444   1.208   0.089  11.961 -0.0685 -0.1443 -0.1394
   28MPD2    H5  445   1.207   0.182  12.004  1.7459 -0.6956  1.1167
   28MPD2    N1  446   1.052   4.650  12.398 -0.2897  0.1543  0.1318
   28MPD2    H7  447   1.011   4.573  12.450  0.0760  1.6327  2.6133
   29TMC2    C1  448   1.126   2.716  14.507  0.4288 -0.0302  0.3409
   29TMC2    C2  449   1.039   2.690  14.613  0.1084  0.3912 -0.1094
   29TMC2    C3  450   1.037   2.776  14.721 -0.2191  0.3440 -0.1776
   29TMC2    C4  451   1.203   2.828  14.507  0.0125  0.9062  0.5961
   29TMC2    C5  452   1.190   2.924  14.609 -0.0306 -0.5365  0.2229
   29TMC2    C6  453   1.114   2.889  14.720 -0.8809 -0.4036  0.6350
   29TMC2     C  454   1.139   2.623  14.399  0.3261  0.6320  0.0413
   29TMC2     O  455   1.062   2.532  14.419  0.3088  0.5305  0.0774
   29TMC2     H  456   1.000   2.590  14.627 -1.5362  1.1867  0.9652
   29TMC2    H1  457   1.256   2.872  14.423 -0.9305  1.1222  0.1110
   29TMC2    H2  458   1.103   2.963  14.798 -0.2375  0.9942 -0.6062
   29TMC2    C7  459   1.281   3.044  14.619 -0.0424 -0.6460 -0.1752
   29TMC2    C8  460   0.986   2.719  14.848  0.1005  0.4887  0.2410
   29TMC2    O1  461   1.299   3.085  14.738 -0.0048 -0.5763  0.1116
   29TMC2    O2  462   0.917   2.617  14.839 -0.6989 -0.3671  0.4813
   29TMC2    O5  463   0.960   2.817  14.936  0.5907  0.3399 -0.3205
   29TMC2    H5  464   1.028   2.887  14.940  0.1373  0.5139  3.8194
   30MPD2     C  465   1.245   2.385  13.974 -0.3002  0.0373  0.3944
   30MPD2    C1  466   1.223   2.339  14.105  0.0116 -0.3672 -0.1451
   30MPD2    C2  467   1.207   2.430  14.207 -0.0499  0.5798 -0.2475
   30MPD2    C3  468   1.212   2.568  14.184  0.1740 -0.1789 -0.3948
   30MPD2    C4  469   1.247   2.608  14.055 -0.8529  1.2466 -0.3670
   30MPD2    C5  470   1.263   2.516  13.960 -0.8059 -0.3292 -0.2343
   30MPD2     H  471   1.208   2.385  14.305  2.3948 -0.9823 -0.9750
   30MPD2    H1  472   1.258   2.712  14.025 -1.4581  0.7218 -2.3979
   30MPD2    H2  473   1.262   2.319  13.890 -1.2023  1.7568 -1.1284
   30MPD2    H3  474   1.303   2.549  13.865 -0.1925  0.3367  0.2541
   30MPD2     N  475   1.203   2.664  14.286 -0.6120  0.4298 -0.1923
   30MPD2    H5  476   1.244   2.757  14.279  0.6142  0.0127  1.4692
   30MPD2    N1  477   1.244   2.204  14.136  0.0765  0.9570 -0.9352
   30MPD2    H7  478   1.255   2.185  14.235 -0.6458 -0.4557 -1.1290
   31TMC2    C1  479   3.464   1.375  14.995 -0.0748 -0.3949 -0.3851
   31TMC2    C2  480   3.337   1.385  14.935 -0.4403 -0.3178  0.2467
   31TMC2    C3  481   3.228   1.349  15.014  0.0219 -0.5022  0.0245
   31TMC2    C4  482   3.466   1.319  15.121 -0.5112 -0.3145 -0.0413
   31TMC2    C5  483   3.358   1.302  15.199 -0.9135 -0.4425  0.0803
   31TMC2    C6  484   3.237   1.301  15.143  0.2405  0.8448  0.8727
   31TMC2     C  485   3.570   1.460  14.943 -0.8009 -0.5421  0.1164
   31TMC2     O  486   3.541   1.559  14.879  0.2841  0.2906 -0.0438
   31TMC2     H  487   3.347   1.426  14.834 -0.7426  0.6954  0.6228
   31TMC2    H1  488   3.561   1.320  15.172 -1.5521  1.6666  1.8397
   31TMC2    H2  489   3.147   1.275  15.197  1.7192  0.4244  3.1062
   31TMC2    C7  490   3.383   1.252  15.328  0.2638  0.3746 -0.9912
   31TMC2    C8  491   3.097   1.327  14.951 -0.1530  0.8402 -0.3304
   31TMC2    O1  492   3.500   1.245  15.360  0.3094 -0.5355 -0.4268
   31TMC2    O2  493   3.017   1.246  14.995  0.0982 -0.1081  0.0268
   31TMC2    O5  494   3.109   1.364  14.820  0.1836 -0.0262 -0.2845
   31TMC2    H5  495   3.156   1.451  14.822  1.9374 -1.0226  1.4200
   32MPD2     C  496   4.004   1.455  14.684 -0.7522 -0.6957 -0.4083
   32MPD2    C1  497   3.933   1.569  14.717  0.7476 -0.1414 -0.6012
   32MPD2    C2  498   3.824   1.551  14.810 -0.1878  0.1863  0.5803
   32MPD2    C3  499   3.801   1.422  14.870 -0.2480  0.7643  0.2664
   32MPD2    C4  500   3.884   1.314  14.842 -0.2225  0.2581 -0.7648
   32MPD2    C5  501   3.994   1.333  14.756 -0.0508 -0.1872 -0.2608
   32MPD2     H  502   3.753   1.629  14.832 -0.3365  0.8557 -2.3656
   32MPD2    H1  503   3.878   1.211  14.874  1.1793  0.3552 -0.1802
   32MPD2    H2  504   4.086   1.454  14.614  1.0579  1.5651  1.6755
   32MPD2    H3  505   4.069   1.257  14.737 -0.8901 -0.4886 -2.3834
   32MPD2     N  506   3.692   1.391  14.954 -0.7297  0.1160 -0.8704
   32MPD2    H5  507   3.693   1.303  15.005  1.4241  0.6317  0.0097
   32MPD2    N1  508   3.945   1.682  14.630  0.0070  0.1808 -0.5240
   32MPD2    H7  509   4.016   1.675  14.559  0.8493  0.1499  0.3237
   33TMC2    C1  510   3.499   3.583  10.377  0.2004  0.1487  0.0825
   33TMC2    C2  511   3.382   3.565  10.308 -0.1805 -0.2029  0.3428
   33TMC2    C3  512   3.346   3.643  10.209  0.1342  0.6651  0.7078
   33TMC2    C4  513   3.572   3.690  10.336 -0.1848  0.4298  0.0648
   33TMC2    C5  514   3.531   3.781  10.246 -0.4229  0.8111  0.3145
   33TMC2    C6  515   3.417   3.753  10.176  0.1700  0.1721 -0.9085
   33TMC2     C  516   3.575   3.466  10.413 -0.2448 -0.4222  0.6529
   33TMC2     O  517   3.511   3.360  10.407 -0.4380  0.3003  0.1171
   33TMC2     H  518   3.327   3.472  10.320  0.5441 -0.6731  0.0054
   33TMC2    H1  519   3.670   3.710  10.378  0.3259 -0.6964 -0.5792
   33TMC2    H2  520   3.394   3.811  10.087 -1.2100 -0.7018 -1.1197
   33TMC2    C7  521   3.606   3.908  10.241 -0.1053  0.1900  0.7545
   33TMC2    C8  522   3.268   3.573  10.111  0.1079  0.1338 -0.0054
   33TMC2    O1  523   3.704   3.926  10.307 -0.5489 -0.3347 -0.1235
   33TMC2    O2  524   3.234   3.455  10.116  0.2491  0.0510 -0.1542
   33TMC2    O5  525   3.210   3.665  10.035  0.4836 -0.1732  0.1502
   33TMC2    H5  526   3.226   3.760  10.051  0.2082  0.1949 -1.7500
   34MPD2     C  527   4.018   3.208  10.471  0.1367  0.2869 -0.4528
   34MPD2    C1  528   3.901   3.175  10.415  0.0707  0.2325  0.0296
   34MPD2    C2  529   3.801   3.268  10.408  1.1618  0.0513  1.2246
   34MPD2    C3  530   3.805   3.390  10.467  0.4250 -0.0045 -0.4208
   34MPD2    C4  531   3.921   3.421  10.527 -0.0226  0.1374 -0.6258
   34MPD2    C5  532   4.028   3.335  10.533 -0.0971 -0.3159 -0.3932
   34MPD2     H  533   3.717   3.245  10.344  1.8851 -0.8803  0.6183
   34MPD2    H1  534   3.930   3.517  10.577  0.6991  0.3653 -1.1908
   34MPD2    H2  535   4.099   3.136  10.482 -1.4358 -1.2735  0.7595
   34MPD2    H3  536   4.120   3.368  10.579  0.0678 -2.5835  0.9226
   34MPD2     N  537   3.701   3.492  10.461 -0.6439  0.6111  0.0090
   34MPD2    H5  538   3.727   3.581  10.501 -0.8054  0.4357  0.5052
   34MPD2    N1  539   3.889   3.044  10.365 -0.0484 -0.0101 -0.2817
   34MPD2    H7  540   3.973   2.987  10.363 -0.7455 -1.1502  3.2077
   35TMC2    C1  541   4.389   4.535  11.476  0.4375  0.3778  0.0336
   35TMC2    C2  542   4.358   4.667  11.469 -0.4194  0.2945 -0.2994
   35TMC2    C3  543   4.234   4.702  11.416  0.6834  0.7542 -0.0033
   35TMC2    C4  544   4.306   4.433  11.449 -0.6876  0.6239 -0.3336
   35TMC2    C5  545   4.178   4.471  11.406  0.4560 -0.2380  0.1962
   35TMC2    C6  546   4.144   4.600  11.386  0.0345  0.2765  0.3536
   35TMC2     C  547   4.534   4.496  11.460  0.0847  0.0530 -0.4621
   35TMC2     O  548   4.553   4.389  11.403 -0.5187  0.1714 -0.4177
   35TMC2     H  549   4.424   0.016  11.482 -1.0144  0.9090 -1.2187
   35TMC2    H1  550   4.339   4.331  11.457  1.9173  1.5507  0.6380
   35TMC2    H2  551   4.043   4.615  11.350 -0.2670 -2.2980  0.1247
   35TMC2    C7  552   4.083   4.358  11.402  0.6260  0.2555 -0.9728
   35TMC2    C8  553   4.194   0.106  11.417 -0.6591  0.5428  0.4488
   35TMC2    O1  554   4.132   4.253  11.448 -0.8923  0.2505 -0.7271
   35TMC2    O2  555   4.245   0.191  11.483 -0.0018 -0.3938  0.2589
   35TMC2    O5  556   4.106   0.107  11.319  0.3319 -0.5260 -0.4510
   35TMC2    H5  557   4.096   0.199  11.286 -1.2071 -1.1794 -1.7744
   36MPD2     C  558   0.270   4.418  11.665 -0.3679 -0.0133  0.7872
   36MPD2    C1  559   0.216   4.536  11.715 -1.0108  0.3533  0.0342
   36MPD2    C2  560   0.090   4.577  11.670 -0.8933  0.1293 -0.8140
   36MPD2    C3  561   0.014   4.504  11.576 -0.3646  0.0169 -0.1838
   36MPD2    C4  562   0.067   4.374  11.547  0.0407 -0.4315 -0.0702
   36MPD2    C5  563   0.191   4.340  11.588 -0.1756 -0.0468 -0.0732
   36MPD2     H  564   0.057   4.676  11.697 -1.7575 -0.7971  1.4857
   36MPD2    H1  565   0.007   4.305  11.487 -1.5533  0.6719  0.2395
   36MPD2    H2  566   0.370   4.385  11.688 -0.3456 -0.6078 -0.1631
   36MPD2    H3  567   0.224   4.247  11.542 -0.7926 -0.7269  0.8554
   36MPD2     N  568   4.624   4.555  11.541  0.0769  0.4200  0.1254
   36MPD2    H5  569   4.597   4.643  11.584 -1.7858 -1.2414  2.3486
   36MPD2    N1  570   0.300   4.607  11.799  0.4336  0.2366 -0.3305
   36MPD2    H7  571   0.395   4.572  11.810  0.7129  2.0639  3.1190
   37TMC2    C1  572   2.535   0.591  12.016 -0.4770 -0.3123  0.7863
   37TMC2    C2  573   2.409   0.600  11.972  0.5455 -0.0919  0.1983
   37TMC2    C3  574   2.385   0.580  11.835  0.5453 -0.1446  0.1085
   37TMC2    C4  575   2.638   0.581  11.923  0.3603  1.0267  0.0477
   37TMC2    C5  576   2.610   0.576  11.793 -0.2206 -0.1626  0.4157
   37TMC2    C6  577   2.484   0.574  11.746 -0.0630 -0.2808  0.3617
   37TMC2     C  578   2.549   0.630  12.156 -0.3053  0.5548 -0.2817
   37TMC2     O  579   2.452   0.653  12.228 -0.1133 -0.5520 -0.5749
   37TMC2     H  580   2.328   0.630  12.038  1.2665  1.0295  0.5729
   37TMC2    H1  581   2.740   0.583  11.960 -0.1806  0.3699  1.5745
   37TMC2    H2  582   2.461   0.558  11.641  0.5279 -0.4087  0.2512
   37TMC2    C7  583   2.724   0.566  11.702 -0.5225 -0.1890 -0.1259
   37TMC2    C8  584   2.262   0.622  11.778  0.2329 -0.3799 -0.6707
   37TMC2    O1  585   2.833   0.581  11.752  0.0190  0.3176 -0.2152
   37TMC2    O2  586   2.260   0.707  11.691 -0.0084 -0.0070 -0.1594
   37TMC2    O5  587   2.168   0.588  11.865  0.1718 -0.2462 -0.0980
   37TMC2    H5  588   2.192   0.512  11.922  0.1802 -0.2182 -0.0639
   38MPD2     C  589   2.834   0.632  12.593 -0.3488 -0.4756 -0.6312
   38MPD2    C1  590   2.903   0.576  12.486  1.0113 -0.0542 -0.4362
   38MPD2    C2  591   2.841   0.565  12.369 -0.2156  0.0483  0.0770
   38MPD2    C3  592   2.714   0.609  12.338 -0.1866 -0.5699  0.4084
   38MPD2    C4  593   2.642   0.668  12.440 -0.3522  0.3610 -0.6714
   38MPD2    C5  594   2.707   0.677  12.562  0.3689 -0.9411 -0.1465
   38MPD2     H  595   2.897   0.532  12.282 -1.5763  0.7225 -1.0582
   38MPD2    H1  596   2.545   0.715  12.427  0.3123  1.1564 -2.6704
   38MPD2    H2  597   2.870   0.647  12.694 -3.0637 -3.1677  0.7527
   38MPD2    H3  598   2.651   0.715  12.647 -1.8079 -3.4000 -0.5150
   38MPD2     N  599   2.679   0.612  12.199  0.2772  0.3178 -0.2628
   38MPD2    H5  600   2.748   0.596  12.126 -0.2456  0.8597 -0.8671
   38MPD2    N1  601   3.036   0.528  12.500  0.5999 -0.3381 -0.2653
   38MPD2    H7  602   3.077   0.488  12.415  0.5479  2.5745 -1.6643
   39TMC2    C1  603   0.051   2.454   1.960 -0.0478 -0.2633 -0.5077
   39TMC2    C2  604   4.735   2.355   2.037  0.2840  0.1301  0.9793
   39TMC2    C3  605   4.723   2.370   2.172  0.4924  0.1085 -0.1776
   39TMC2    C4  606   0.100   2.566   2.021  0.1947 -0.7086  0.0509
   39TMC2    C5  607   0.090   2.578   2.156 -1.1714  0.3535 -0.0797
   39TMC2    C6  608   0.044   2.479   2.236  0.1937  0.1449  0.2094
   39TMC2     C  609   0.076   2.445   1.816  0.9724 -0.0761  0.3577
   39TMC2     O  610   0.076   2.553   1.762 -0.3044 -0.2954 -0.4476
   39TMC2     H  611   4.679   2.279   1.984 -1.8019  1.5026  1.1967
   39TMC2    H1  612   0.134   2.649   1.959  1.1695 -1.7182 -0.7774
   39TMC2    H2  613   0.056   2.492   2.343 -2.3769  2.9055  0.1588
   39TMC2    C7  614   0.117   2.701   2.217 -0.5932 -0.3777 -0.0706
   39TMC2    C8  615   4.645   2.269   2.245 -0.2516  0.0495 -1.3081
   39TMC2    O1  616   0.072   2.711   2.333 -0.0453  0.5840 -0.2195
   39TMC2    O2  617   4.642   2.154   2.215  0.6192 -0.0438  0.2321
   39TMC2    O5  618   4.597   2.325   2.357  0.3619 -0.4792  0.5151
   39TMC2    H5  619   4.599   2.422   2.346  1.3293 -0.6488 -0.7620
   40MPD2     C  620   0.116   2.129   1.620 -0.9209  0.4261  0.1330
   40MPD2    C1  621   0.091   2.265   1.640  0.4028 -0.2924  0.0382
   40MPD2    C2  622   0.107   2.342   1.525  0.2183  0.4761  0.5959
   40MPD2    C3  623   0.123   2.287   1.403 -0.0973  0.2542 -0.2986
   40MPD2    C4  624   0.145   2.150   1.385  0.6713 -0.2066  0.3568
   40MPD2    C5  625   0.137   2.071   1.498 -0.1706 -0.6365  0.0862
   40MPD2     H  626   0.091   2.449   1.533  0.7751  0.5985  0.0451
   40MPD2    H1  627   0.138   2.109   1.285  0.1139  0.8297 -0.0251
   40MPD2    H2  628   0.116   2.054   1.698  0.0702  0.7025  0.3978
   40MPD2    H3  629   0.133   1.963   1.494 -0.0786 -0.5829 -1.7196
   40MPD2     N  630   0.111   2.361   1.279  0.5399  0.7273 -0.0769
   40MPD2    H5  631   0.128   2.314   1.191 -1.7616  2.7781 -1.6176
   40MPD2    N1  632   0.071   2.315   1.772  0.5445 -0.1465 -0.2239
   40MPD2    H7  633   0.067   2.243   1.844  0.6284 -0.9744 -1.0605
   41TMC2    C1  634   4.070   0.655  13.193 -0.6911 -0.5692  0.4319
   41TMC2    C2  635   3.993   0.738  13.268  0.2447  0.0757 -0.3426
   41TMC2    C3  636   3.951   0.850  13.202 -1.0360  0.2302 -0.1453
   41TMC2    C4  637   4.118   0.674  13.061 -0.2199  0.1378  0.2615
   41TMC2    C5  638   4.076   0.793  13.008  0.6780  0.4352 -0.8394
   41TMC2    C6  639   4.000   0.884  13.074 -0.1720  0.0058  0.4599
   41TMC2     C  640   4.123   0.540  13.254  0.6138  0.4628  1.0592
   41TMC2     O  641   4.147   0.446  13.184 -0.7323  0.3782  0.1303
   41TMC2     H  642   3.946   0.697  13.357 -0.1479  0.1395 -0.5221
   41TMC2    H1  643   4.183   0.601  13.016 -1.1276 -0.5413  0.0435
   41TMC2    H2  644   3.988   0.984  13.032  1.7787  0.0366  0.0053
   41TMC2    C7  645   4.161   0.855  12.899  0.0806  0.4585  0.4001
   41TMC2    C8  646   3.823   0.920  13.231 -0.3029 -0.6240  0.5593
   41TMC2    O1  647   4.116   0.956  12.845 -0.3944 -0.0850  0.1599
   41TMC2    O2  648   3.772   0.980  13.136 -0.3636 -0.5916  0.7486
   41TMC2    O5  649   3.763   0.881  13.349 -0.0207  0.6344 -0.6836
   41TMC2    H5  650   3.821   0.819  13.399 -0.8482 -0.8797 -1.6099
   42MPD2     C  651   4.217   0.347  13.456 -0.1301  0.8073  1.0175
   42MPD2    C1  652   4.203   0.482  13.484 -0.3316  0.1800  0.6623
   42MPD2    C2  653   4.230   0.534  13.608 -0.1811  0.4095 -0.5413
   42MPD2    C3  654   4.281   0.452  13.707  0.2862  0.6942  0.5522
   42MPD2    C4  655   4.319   0.325  13.672 -0.0714  0.5636 -0.6812
   42MPD2    C5  656   4.280   0.271  13.550 -0.2938  0.5147  0.6868
   42MPD2     H  657   4.197   0.635  13.630  1.1140  1.1146 -1.7942
   42MPD2    H1  658   4.377   0.266  13.742  0.0973  0.3476 -1.0033
   42MPD2    H2  659   4.188   0.300  13.363 -1.9129 -1.4452  2.7111
   42MPD2    H3  660   4.312   0.171  13.522 -1.7624 -0.5250  2.8031
   42MPD2     N  661   4.320   0.515  13.824  0.7113 -0.1820 -0.0113
   42MPD2    H5  662   4.298   0.613  13.838  0.1251 -0.1589 -1.1547
   42MPD2    N1  663   4.156   0.570  13.383  0.2328  0.1687 -0.5249
   42MPD2    H7  664   4.144   0.667  13.411 -0.7015 -0.0614 -0.1100
   43TMC2    C1  665   0.834   4.102   0.991 -0.0952  0.7717 -0.2373
   43TMC2    C2  666   0.717   4.171   1.006  0.0514  0.0460  0.2536
   43TMC2    C3  667   0.712   4.286   1.081 -0.9613 -0.4062 -0.0403
   43TMC2    C4  668   0.942   4.139   1.063 -0.5631 -0.3250  0.0431
   43TMC2    C5  669   0.932   4.253   1.145 -0.5702 -0.9392  0.3580
   43TMC2    C6  670   0.822   4.329   1.151 -0.1012  0.7695 -0.0328
   43TMC2     C  671   0.861   4.016   0.877 -0.3673  0.0405 -0.2940
   43TMC2     O  672   0.975   3.976   0.873 -0.2099  0.0369 -0.3053
   43TMC2     H  673   0.632   4.134   0.949 -1.0928  1.5738  0.9538
   43TMC2    H1  674   1.040   4.095   1.050 -0.2529  0.8272 -1.5120
   43TMC2    H2  675   0.817   4.416   1.215  0.9355 -0.1692  1.3148
   43TMC2    C7  676   1.051   4.290   1.221 -0.2336  0.0884  0.9515
   43TMC2    C8  677   0.584   4.353   1.088 -0.2385 -0.7120 -0.2523
   43TMC2    O1  678   1.153   4.227   1.199 -0.1002 -0.2440 -0.1795
   43TMC2    O2  679   0.529   4.393   1.191 -0.1714  0.3630 -0.3735
   43TMC2    O5  680   0.535   4.367   0.964 -0.1962 -0.2665  0.6249
   43TMC2    H5  681   0.604   4.363   0.895 -0.4159  1.2600  0.3177
   44MPD2     C  682   0.753   3.805   0.429  0.5814 -0.7638 -0.2243
   44MPD2    C1  683   0.857   3.783   0.513 -0.1067 -0.2642 -0.3440
   44MPD2    C2  684   0.864   3.859   0.627 -0.4404 -0.1734 -0.4910
   44MPD2    C3  685   0.764   3.945   0.659 -0.5010 -0.1975  0.3062
   44MPD2    C4  686   0.656   3.957   0.584 -0.3930  0.4748 -0.7062
   44MPD2    C5  687   0.653   3.889   0.465 -0.4172  0.3437  0.2229
   44MPD2     H  688   0.955   3.846   0.685 -0.4880 -0.4060 -0.4712
   44MPD2    H1  689   0.572   4.017   0.615 -0.4592  0.1747 -0.3002
   44MPD2    H2  690   0.734   3.739   0.346 -1.0259 -1.7575  0.9345
   44MPD2    H3  691   0.561   3.877   0.408  2.8094 -1.7665 -4.5895
   44MPD2     N  692   0.757   4.009   0.782  0.1739  0.1150  0.0185
   44MPD2    H5  693   0.671   4.056   0.808 -0.5642 -1.4525  0.3719
   44MPD2    N1  694   0.967   3.697   0.493 -0.2001 -0.1509  0.2545
   44MPD2    H7  695   1.041   3.688   0.563 -0.7005  2.7324  1.1777
   45TMC2    C1  696   1.631   0.669   9.619 -0.4284 -0.3911 -0.3410
   45TMC2    C2  697   1.521   0.683   9.699 -1.2768 -0.0796  0.4341
   45TMC2    C3  698   1.543   0.753   9.812  0.0457 -0.4398  0.5834
   45TMC2    C4  699   1.751   0.740   9.638  0.5529  0.3291 -0.5729
   45TMC2    C5  700   1.759   0.823   9.747 -0.7159  0.1713 -0.1612
   45TMC2    C6  701   1.658   0.823   9.837 -0.3881  0.2163  0.3990
   45TMC2     C  702   1.629   0.568   9.511 -0.7333  0.4116 -0.2782
   45TMC2     O  703   1.737   0.540   9.457 -0.3812  0.0397  0.2478
   45TMC2     H  704   1.421   0.644   9.686 -1.8804  0.9488  2.0123
   45TMC2    H1  705   1.832   0.738   9.566  0.3201 -0.2188 -0.8219
   45TMC2    H2  706   1.666   0.884   9.926 -1.0744 -0.4586  0.9272
   45TMC2    C7  707   1.884   0.895   9.776  0.2363  0.2786 -0.9073
   45TMC2    C8  708   1.431   0.771   9.906 -0.3136 -0.7002  0.4499
   45TMC2    O1  709   1.891   0.939   9.890 -0.0316 -0.1963 -0.2442
   45TMC2    O2  710   1.419   0.871   9.978  0.1855  0.2018  0.3074
   45TMC2    O5  711   1.361   0.655   9.919  0.4404 -0.3779  0.2654
   45TMC2    H5  712   1.394   0.569   9.884  0.0495 -0.4326  0.0405
   46MPD2     C  713   1.544   0.343   9.321  1.0185 -0.8683 -0.4465
   46MPD2    C1  714   1.459   0.422   9.397  0.4054 -0.9016  0.3937
   46MPD2    C2  715   1.324   0.409   9.385 -0.0359  0.1430 -0.1307
   46MPD2    C3  716   1.264   0.306   9.314  0.4276 -0.3707 -0.3601
   46MPD2    C4  717   1.345   0.221   9.241 -0.4075 -0.2947  0.0626
   46MPD2    C5  718   1.481   0.244   9.249 -0.2353 -0.2709 -0.8030
   46MPD2     H  719   1.276   0.480   9.451 -0.7485 -0.5847  0.1355
   46MPD2    H1  720   1.314   0.134   9.183 -0.5680 -0.1198 -0.1118
   46MPD2    H2  721   1.652   0.353   9.319  0.8684  0.6502 -1.3989
   46MPD2    H3  722   1.545   0.177   9.193 -0.5926 -1.7191  0.4907
   46MPD2     N  723   1.118   0.292   9.321  0.4905 -0.1220 -0.1207
   46MPD2    H5  724   1.058   0.365   9.357  0.4287 -1.3636  2.2686
   46MPD2    N1  725   1.501   0.529   9.487  0.0626  0.0413  0.1458
   46MPD2    H7  726   1.425   0.579   9.532 -1.2224 -4.0954  2.6323
   47TMC2    C1  727   0.637   0.993   9.473  0.0781  0.3501  0.5807
   47TMC2    C2  728   0.733   1.033   9.382  0.2828 -0.3239  0.4098
   47TMC2    C3  729   0.695   1.063   9.257 -1.4580  0.6533 -0.0993
   47TMC2    C4  730   0.501   0.976   9.433  0.4780  0.6878 -0.2154
   47TMC2    C5  731   0.465   1.010   9.304 -0.0983  0.3221 -0.3270
   47TMC2    C6  732   0.562   1.047   9.214  0.2980 -0.0032  0.0636
   47TMC2     C  733   0.669   0.986   9.614 -0.1141  0.0374  0.2887
   47TMC2     O  734   0.755   1.068   9.636  0.0675  0.0413  0.0598
   47TMC2     H  735   0.838   1.033   9.409  0.9834 -2.3863 -2.2410
   47TMC2    H1  736   0.424   0.963   9.508  2.3320 -0.5387  1.4748
   47TMC2    H2  737   0.531   1.077   9.115  1.3755 -0.9782 -0.5618
   47TMC2    C7  738   0.324   1.047   9.285 -0.1547  0.3754 -0.2466
   47TMC2    C8  739   0.789   1.129   9.166 -0.0729 -0.0583 -0.3704
   47TMC2    O1  740   0.245   1.036   9.379  0.0533 -0.0836  0.9838
   47TMC2    O2  741   0.910   1.134   9.189 -0.3681 -0.8794 -0.0750
   47TMC2    O5  742   0.727   1.242   9.126  0.4126 -0.0399  0.1227
   47TMC2    H5  743   0.632   1.249   9.151  1.0535  2.3286  1.9282
   48MPD2     C  744   0.661   0.973   9.907 -0.4946  0.3776 -0.0413
   48MPD2    C1  745   0.613   0.874   9.828 -0.0266  0.6072 -0.8824
   48MPD2    C2  746   0.553   0.767   9.881 -0.1791 -0.2358  0.6985
   48MPD2    C3  747   0.546   0.753  10.016 -0.1313  0.6474 -0.2638
   48MPD2    C4  748   0.604   0.853  10.097  0.3266  0.8359 -0.1854
   48MPD2    C5  749   0.672   0.955  10.045 -0.1170  0.7298 -0.6247
   48MPD2     H  750   0.519   0.693   9.809 -0.0672  1.4029 -1.0478
   48MPD2    H1  751   0.607   0.855  10.206  2.2292  0.1657 -0.2347
   48MPD2    H2  752   0.715   1.058   9.867 -2.0911  1.9427  1.0966
   48MPD2    H3  753   0.721   1.038  10.096  2.3780 -0.3946 -1.1625
   48MPD2     N  754   0.489   0.639  10.073 -0.6023 -0.7830  0.4987
   48MPD2    H5  755   0.452   0.569  10.010 -0.6229 -0.3346  0.0179
   48MPD2    N1  756   0.605   0.888   9.688  0.0182 -0.6845 -0.1128
   48MPD2    H7  757   0.541   0.820   9.648  1.2837 -1.3819 -0.9479
   49TMC2    C1  758   2.557   2.552  10.145  0.1203  0.0871 -0.4002
   49TMC2    C2  759   2.442   2.528  10.220 -0.0648  0.1342  0.3853
   49TMC2    C3  760   2.377   2.417  10.194  0.0065  0.2389  0.2788
   49TMC2    C4  761   2.609   2.467  10.049  0.2371  0.0745 -0.3488
   49TMC2    C5  762   2.539   2.349  10.037 -0.3022 -0.4388 -0.3882
   49TMC2    C6  763   2.416   2.332  10.094  0.2543 -0.5297 -0.0717
   49TMC2     C  764   2.655   2.645  10.202  0.2188 -0.2568  0.6363
   49TMC2     O  765   2.765   2.635  10.152 -0.3652 -0.4271  0.1610
   49TMC2     H  766   2.404   2.595  10.296 -1.3715  0.3071 -0.4272
   49TMC2    H1  767   2.709   2.471  10.009  1.2590  1.7096  2.3784
   49TMC2    H2  768   2.354   2.245  10.077 -0.0453 -0.3781  0.2626
   49TMC2    C7  769   2.576   2.248   9.951  0.2729  0.2901 -0.2787
   49TMC2    C8  770   2.247   2.407  10.248 -0.0343  0.0260  0.9904
   49TMC2    O1  771   2.521   2.139   9.966  0.0014  0.2587  0.0174
   49TMC2    O2  772   2.152   2.358  10.186 -0.3359  0.0892  0.6214
   49TMC2    O5  773   2.274   2.386  10.379  0.0452  0.3449  0.0468
   49TMC2    H5  774   2.356   2.419  10.420 -0.7532 -0.7045  2.5009
   50MPD2     C  775   2.843   2.808  10.371 -0.1976 -0.4867  0.6924
   50MPD2    C1  776   2.718   2.764  10.415 -0.3578  0.4121  0.1037
   50MPD2    C2  777   2.679   2.785  10.544 -0.7204 -0.3211 -0.1497
   50MPD2    C3  778   2.753   2.849  10.636  0.0451  0.7396 -0.7144
   50MPD2    C4  779   2.879   2.886  10.596 -0.5699 -0.1911 -0.1388
   50MPD2    C5  780   2.922   2.871  10.465  0.4769 -0.3693  1.0168
   50MPD2     H  781   2.580   2.753  10.576 -0.1739 -2.5458 -0.6880
   50MPD2    H1  782   2.946   2.924  10.672  0.3214  0.4236 -1.2406
   50MPD2    H2  783   2.871   2.801  10.267 -2.1201  0.9473  0.0765
   50MPD2    H3  784   3.023   2.890  10.432  0.0126  0.2452 -0.0509
   50MPD2     N  785   2.711   2.872  10.765 -0.2570  0.0613 -0.5781
   50MPD2    H5  786   2.784   2.900  10.830 -1.2928 -0.4159  0.7735
   50MPD2    N1  787   2.622   2.693  10.328  0.0515  0.2955 -0.4086
   50MPD2    H7  788   2.529   2.675  10.362  0.6897 -0.6135  0.8542
   51TMC2    C1  789   2.719   3.076   1.919 -0.5664 -0.4953 -0.1922
   51TMC2    C2  790   2.589   3.123   1.911  0.6406  0.0038 -0.5451
   51TMC2    C3  791   2.565   3.240   1.848 -0.8893  0.2189  0.6881
   51TMC2    C4  792   2.823   3.154   1.868 -0.4261  0.5675  0.2252
   51TMC2    C5  793   2.794   3.276   1.810  0.6971 -0.2804 -1.2927
   51TMC2    C6  794   2.668   3.317   1.791  0.9673 -0.1726 -0.6261
   51TMC2     C  795   2.741   2.945   1.973 -0.1596  0.3480  0.1644
   51TMC2     O  796   2.653   2.858   1.971  0.0273  0.9938  0.1179
   51TMC2     H  797   2.502   3.072   1.950  0.2120  1.5025  0.4534
   51TMC2    H1  798   2.923   3.112   1.870 -0.5963  0.1216 -1.1125
   51TMC2    H2  799   2.645   3.411   1.743  0.5183  0.2334  0.3880
   51TMC2    C7  800   2.902   3.345   1.746 -0.0883 -0.4687 -0.0325
   51TMC2    C8  801   2.438   3.298   1.866  0.2350  0.4358 -0.0332
   51TMC2    O1  802   2.873   3.410   1.646  0.0531  0.6941 -0.4434
   51TMC2    O2  803   2.344   3.228   1.900  0.1084 -0.9253 -0.1755
   51TMC2    O5  804   2.467   3.413   1.934 -0.3971 -0.3515 -0.2126
   51TMC2    H5  805   2.547   3.466   1.914  1.3277 -2.1358  1.8697
   52MPD2     C  806   3.020   2.590   2.192 -0.3060  0.1050  0.0345
   52MPD2    C1  807   2.927   2.576   2.088  0.0737 -0.6561  0.3113
   52MPD2    C2  808   2.876   2.687   2.046 -0.2451 -0.7940 -0.0250
   52MPD2    C3  809   2.918   2.813   2.082  0.5837 -0.0285 -0.2279
   52MPD2    C4  810   3.021   2.827   2.170  0.1030  0.0919 -0.1355
   52MPD2    C5  811   3.069   2.715   2.219  0.1337 -0.0330  0.1682
   52MPD2     H  812   2.802   2.679   1.968 -0.0344 -0.5800 -0.2464
   52MPD2    H1  813   3.055   2.923   2.209 -0.6357  0.3738 -0.1996
   52MPD2    H2  814   3.068   2.506   2.239  2.8809  1.1149 -1.4122
   52MPD2    H3  815   3.161   2.720   2.277  0.9034  0.1027 -1.0699
   52MPD2     N  816   2.864   2.931   2.026  0.4117 -0.2358  0.5056
   52MPD2    H5  817   2.904   3.023   2.036 -0.0637 -0.1483  1.6007
   52MPD2    N1  818   2.885   2.453   2.039 -0.0489 -0.7128 -0.4197
   52MPD2    H7  819   2.834   2.459   1.951  2.2106  2.3978 -1.5074
   53TMC2    C1  820   3.384   0.523  11.404  0.2099 -0.4890 -0.0054
   53TMC2    C2  821   3.458   0.402  11.390  0.1413  0.0951 -0.1817
   53TMC2    C3  822   3.515   0.337  11.502 -0.8292  0.7336 -0.2219
   53TMC2    C4  823   3.368   0.581  11.527 -0.4235  0.1708  0.3330
   53TMC2    C5  824   3.425   0.513  11.632 -0.1207  0.7194  0.1206
   53TMC2    C6  825   3.495   0.388  11.621 -0.0584 -0.7433 -0.2976
   53TMC2     C  826   3.263   0.521  11.325 -0.5248  0.0654 -0.1247
   53TMC2     O  827   3.275   0.476  11.212 -0.3029  0.0064 -0.2951
   53TMC2     H  828   3.452   0.355  11.292  1.7607 -1.6894  0.5855
   53TMC2    H1  829   3.317   0.677  11.530 -0.5198  0.0993  0.9167
   53TMC2    H2  830   3.532   0.334  11.708 -0.0968  1.5765  1.1536
   53TMC2    C7  831   3.377   0.559  11.767  0.0173  0.6553 -0.4754
   53TMC2    C8  832   3.637   0.263  11.490  0.0572  0.5061  0.0416
   53TMC2    O1  833   3.268   0.620  11.771 -0.2530  0.0333  0.1085
   53TMC2    O2  834   3.708   0.236  11.587  0.2995 -0.0741  0.2923
   53TMC2    O5  835   3.689   0.284  11.366  0.4556  0.7906 -0.1528
   53TMC2    H5  836   3.637   0.325  11.293 -1.6318 -3.1585 -0.9160
   54MPD2     C  837   2.975   0.487  11.257  0.5594 -0.1839 -0.6366
   54MPD2    C1  838   3.016   0.510  11.384 -0.0911  0.1703  0.9285
   54MPD2    C2  839   2.928   0.517  11.493 -0.4946  0.3577  0.2353
   54MPD2    C3  840   2.794   0.520  11.470 -0.6185  0.2730 -0.1823
   54MPD2    C4  841   2.753   0.491  11.346  0.0022  0.0313 -0.7421
   54MPD2    C5  842   2.841   0.477  11.239  0.3072 -0.0295  0.0660
   54MPD2     H  843   2.968   0.538  11.592  0.0584 -0.0503  0.0951
   54MPD2    H1  844   2.647   0.475  11.328  0.0943  1.4500 -2.4806
   54MPD2    H2  845   3.034   0.484  11.167 -0.5555  3.4301 -1.5099
   54MPD2    H3  846   2.796   0.449  11.145 -0.8037  1.8789  0.0168
   54MPD2     N  847   2.695   0.534  11.570  0.0113  0.2674  0.4843
   54MPD2    H5  848   2.598   0.545  11.545  0.5530  1.9404 -0.9542
   54MPD2    N1  849   3.154   0.521  11.413  0.0387  0.1062  0.2265
   54MPD2    H7  850   3.182   0.529  11.510 -3.6880  0.9802  1.2044
   55TMC2    C1  851   3.808   3.775  17.509 -0.7501 -0.2264 -0.2696
   55TMC2    C2  852   3.766   3.720  17.389 -0.4949 -0.6613 -1.0146
   55TMC2    C3  853   3.716   3.593  17.391  0.6865 -0.0384 -0.0732
   55TMC2    C4  854   3.786   3.714  17.628  0.1823 -0.4616  0.5545
   55TMC2    C5  855   3.733   3.588  17.627 -0.2711 -1.0994 -0.4802
   55TMC2    C6  856   3.706   3.526  17.514  0.0999  0.1995  0.7488
   55TMC2     C  857   3.804   3.918  17.515  0.0118 -0.1570  0.8088
   55TMC2     O  858   3.791   3.957  17.630 -0.3915  1.0966  0.1538
   55TMC2     H  859   3.757   3.780  17.300  0.3044 -0.7414 -1.1545
   55TMC2    H1  860   3.838   3.762  17.710 -0.7566 -0.4370  1.1399
   55TMC2    H2  861   3.684   3.420  17.514  1.5141 -0.0875  0.0172
   55TMC2    C7  862   3.746   3.513   0.008 -0.4700  0.3462 -1.0190
   55TMC2    C8  863   3.692   3.529  17.257  0.5053  0.6942  0.3317
   55TMC2    O1  864   3.740   3.391   0.005 -0.2405  0.0268  0.3651
   55TMC2    O2  865   3.754   3.567  17.156  0.5393  0.3081  0.1978
   55TMC2    O5  866   3.632   3.408  17.269  0.1329  0.6274  0.1043
   55TMC2    H5  867   3.585   3.385  17.352 -0.2965 -1.3248 -0.6893
   56MPD2     C  868   3.772   4.175  17.266 -0.2016 -0.5946 -0.2663
   56MPD2    C1  869   3.762   4.125  17.395  0.3339 -0.2596  0.0960
   56MPD2    C2  870   3.726   4.214  17.499  0.0208 -0.5570  0.4128
   56MPD2    C3  871   3.676   4.345  17.476  0.0952 -0.0532 -0.1634
   56MPD2    C4  872   3.674   4.387  17.342  0.0839 -0.0800 -0.7810
   56MPD2    C5  873   3.724   4.306  17.244 -0.1336 -0.6507 -0.4014
   56MPD2     H  874   3.724   4.178  17.602 -0.3123  0.1454  0.6493
   56MPD2    H1  875   3.641   4.486  17.314 -0.0038 -0.4932 -2.1328
   56MPD2    H2  876   3.810   4.129  17.176 -1.0826 -0.9388 -0.4646
   56MPD2    H3  877   3.731   4.339  17.141  1.1525 -0.4225 -0.2428
   56MPD2     N  878   3.641   4.423  17.585 -0.6699  0.1527  0.0362
   56MPD2    H5  879   3.670   4.379  17.672  0.8215  1.9936  0.4614
   56MPD2    N1  880   3.795   3.988  17.400  0.4763  0.0978  0.1569
   56MPD2    H7  881   3.813   3.947  17.309  0.5761 -0.6587  0.5111
   57TMC2    C1  882   3.153   3.854  13.741  0.7907 -0.0565  0.6124
   57TMC2    C2  883   3.222   3.747  13.780 -0.3159 -0.4781 -0.1685
   57TMC2    C3  884   3.308   3.697  13.691  0.0405  0.0431  0.2580
   57TMC2    C4  885   3.162   3.916  13.618  0.0331  0.1861 -0.7446
   57TMC2    C5  886   3.246   3.860  13.528 -0.8774 -0.3050  0.0339
   57TMC2    C6  887   3.328   3.755  13.564  0.5339 -0.1539 -0.4880
   57TMC2     C  888   3.080   3.925  13.842  0.7342  0.1798 -0.1631
   57TMC2     O  889   3.045   4.039  13.817  0.1586 -1.0947  0.0230
   57TMC2     H  890   3.218   3.718  13.885  1.2653 -0.0378  0.0149
   57TMC2    H1  891   3.116   4.011  13.593 -0.2086 -0.1851 -1.6802
   57TMC2    H2  892   3.391   3.702  13.494  0.3027 -0.8815 -0.1479
   57TMC2    C7  893   3.264   3.926  13.401  0.7229  0.2783  0.9185
   57TMC2    C8  894   3.413   3.598  13.716 -0.2726  0.2720 -0.1721
   57TMC2    O1  895   3.192   4.023  13.373 -0.3859 -0.1160 -0.3400
   57TMC2    O2  896   3.509   3.576  13.639  0.0266 -0.1905 -0.3802
   57TMC2    O5  897   3.417   3.605  13.851  0.2909  0.1417  0.5717
   57TMC2    H5  898   3.498   3.562  13.886 -0.2765 -2.8395 -1.7875
   58MPD2     C  899   2.798   3.953  14.279 -0.5915  0.4018  0.2831
   58MPD2    C1  900   2.814   4.047  14.179 -0.1678  0.1418  0.7797
   58MPD2    C2  901   2.895   4.017  14.071  0.6219 -0.0806  0.8079
   58MPD2    C3  902   2.962   3.895  14.061 -0.9444  0.5407  0.1631
   58MPD2    C4  903   2.940   3.808  14.167 -0.5472  0.0579 -0.0301
   58MPD2    C5  904   2.864   3.835  14.273 -0.4590  0.3155 -0.3814
   58MPD2     H  905   2.903   4.095  13.995  0.7748  0.1166  1.0252
   58MPD2    H1  906   2.993   3.713  14.160 -0.6533 -0.0850  1.1780
   58MPD2    H2  907   2.742   3.976  14.369 -3.5584 -0.3926 -1.3659
   58MPD2    H3  908   2.864   3.774  14.362  0.5418  0.9782  0.0750
   58MPD2     N  909   3.046   3.851  13.957  0.3859  0.2181  0.2857
   58MPD2    H5  910   3.070   3.752  13.957  0.7582  0.3083  0.9448
   58MPD2    N1  911   2.747   4.175  14.177  0.5834 -0.0996 -0.0318
   58MPD2    H7  912   2.753   4.213  14.083  2.7584  1.3341  0.6868
   59TMC2    C1  913   1.141   4.268  12.736  0.0340 -0.7281  0.3258
   59TMC2    C2  914   1.243   4.181  12.764  0.1672  0.2617  0.1066
   59TMC2    C3  915   1.266   4.085  12.673 -0.0157  0.2776  0.0971
   59TMC2    C4  916   1.068   4.259  12.622 -0.1189  0.2416 -0.2747
   59TMC2    C5  917   1.098   4.164  12.530 -0.1430 -0.1430 -0.5037
   59TMC2    C6  918   1.196   4.074  12.553 -0.0234  0.1898 -0.0198
   59TMC2     C  919   1.110   4.374  12.830  0.7743 -0.0555 -0.1055
   59TMC2     O  920   1.000   4.424  12.810  0.6865  0.3274  0.2462
   59TMC2     H  921   1.305   4.198  12.852  0.3656  0.8774 -0.1539
   59TMC2    H1  922   0.993   4.335  12.605 -1.4255 -0.6651  1.3864
   59TMC2    H2  923   1.228   4.000  12.481  0.3803  0.5597 -0.2221
   59TMC2    C7  924   1.013   4.131  12.419  0.4569 -0.4768  0.8462
   59TMC2    C8  925   1.340   3.963  12.711  0.2708  0.5108  0.2909
   59TMC2    O1  926   1.048   4.038  12.353  0.2901 -0.2261  0.2540
   59TMC2    O2  927   1.448   3.964  12.767 -0.2004  0.1227  0.2425
   59TMC2    O5  928   1.254   3.863  12.710  0.3118  0.2614  0.3864
   59TMC2    H5  929   1.164   3.893  12.682  0.4143  0.5937  0.4097
   60MPD2     C  930   1.063   4.581  13.040  0.0652  0.3882 -0.7030
   60MPD2    C1  931   1.185   4.518  13.022 -0.6331  0.1282  0.1620
   60MPD2    C2  932   1.289   4.551  13.101 -0.7465 -0.3480 -0.3230
   60MPD2    C3  933   1.272   4.638  13.209  0.6020 -0.7369 -0.1756
   60MPD2    C4  934   1.149   4.701  13.228 -0.0977  0.0975 -0.2420
   60MPD2    C5  935   1.047   4.679  13.135 -0.4112 -0.0359 -0.1960
   60MPD2     H  936   1.381   4.496  13.082  0.3652  1.7829 -1.0810
   60MPD2    H1  937   1.145   0.042  13.306  2.1456  0.5284 -0.5455
   60MPD2    H2  938   0.975   4.554  12.983  0.5576  0.5394 -1.5332
   60MPD2    H3  939   0.953   4.733  13.136 -0.1278  0.3558  3.4557
   60MPD2     N  940   1.380   4.671  13.299  0.0817 -0.2797  0.3226
   60MPD2    H5  941   1.358   0.012  13.361 -2.5548  0.1753 -1.1613
   60MPD2    N1  942   1.204   4.419  12.919  0.2209 -0.5330  0.4889
   60MPD2    H7  943   1.292   4.371  12.910  1.0147  1.1169 -0.5552
   61TMC2    C1  944   0.341   1.188  15.511 -0.0075 -0.0059  0.1444
   61TMC2    C2  945   0.392   1.147  15.627  0.3295 -0.1101 -0.3734
   61TMC2    C3  946   0.357   1.219  15.736 -0.2014  0.4908  0.5377
   61TMC2    C4  947   0.257   1.295  15.503 -0.0402 -1.1482 -0.6622
   61TMC2    C5  948   0.218   1.358  15.620  0.1653 -0.4618 -0.2452
   61TMC2    C6  949   0.274   1.325  15.736 -0.7153  0.1892 -0.3378
   61TMC2     C  950   0.363   1.103  15.402  0.0634 -0.0890  1.2141
   61TMC2     O  951   0.377   0.983  15.427  0.6100 -0.5179 -0.2466
   61TMC2     H  952   0.454   1.058  15.631  1.6386  0.7868 -1.0229
   61TMC2    H1  953   0.212   1.338  15.414  0.5420  1.8841  0.5072
   61TMC2    H2  954   0.262   1.383  15.827  0.9021 -1.3053  0.8580
   61TMC2    C7  955   0.177   1.498  15.609 -0.3311  0.2504 -0.5248
   61TMC2    C8  956   0.373   1.163  15.868  0.3889  0.8136 -0.0678
   61TMC2    O1  957   0.210   1.553  15.504 -0.6222  0.4350 -0.2494
   61TMC2    O2  958   0.290   1.181  15.956  0.2390 -0.2382 -0.5331
   61TMC2    O5  959   0.487   1.087  15.877 -0.1485 -0.2939  0.0678
   61TMC2    H5  960   0.552   1.099  15.804 -0.3933  0.3120 -0.0501
   62MPD2     C  961   0.371   0.966  15.150 -0.1937  0.1939 -0.5337
   62MPD2    C1  962   0.355   1.101  15.158  0.0149 -0.0993  0.0949
   62MPD2    C2  963   0.359   1.173  15.033 -0.3689 -0.2712  0.4693
   62MPD2    C3  964   0.408   1.122  14.913  1.0441 -0.2431  0.0873
   62MPD2    C4  965   0.432   0.987  14.909  0.5775  0.3746  0.3073
   62MPD2    C5  966   0.405   0.913  15.018 -1.0357 -0.8155  0.2015
   62MPD2     H  967   0.329   1.277  15.030 -2.0760 -0.7712  0.2736
   62MPD2    H1  968   0.450   0.926  14.821 -0.3278  0.5633 -0.0116
   62MPD2    H2  969   0.353   0.889  15.224  1.1133 -1.3252 -1.7904
   62MPD2    H3  970   0.405   0.805  15.026 -0.1539 -0.9753 -2.0231
   62MPD2     N  971   0.422   1.196  14.793  0.1075 -0.3801 -0.1566
   62MPD2    H5  972   0.444   1.150  14.705 -0.3717 -2.1124  0.6350
   62MPD2    N1  973   0.344   1.168  15.283 -0.0412  0.0425  0.3056
   62MPD2    H7  974   0.335   1.269  15.280 -2.4953 -0.1635  1.5099
   63TMC2    C1  975   4.530   0.914  10.789 -0.3734  0.1579  0.4477
   63TMC2    C2  976   4.572   0.956  10.913  0.2119 -0.1777  0.3415
   63TMC2    C3  977   4.669   1.052  10.916  0.2383 -0.4858 -0.2730
   63TMC2    C4  978   4.581   0.958  10.670 -0.2553 -0.3384  0.4009
   63TMC2    C5  979   4.687   1.045  10.683  0.3405  0.1223  0.3477
   63TMC2    C6  980   0.002   1.081  10.801  0.3101 -0.1167 -0.0594
   63TMC2     C  981   4.433   0.802  10.783 -0.5935  0.4782  0.2851
   63TMC2     O  982   4.381   0.765  10.887  0.0668  0.1881  0.2403
   63TMC2     H  983   4.541   0.905  11.004  2.2400 -0.7481  0.7218
   63TMC2    H1  984   4.543   0.916  10.578  0.6415 -1.2216  0.4246
   63TMC2    H2  985   0.086   1.150  10.805 -1.7704  2.3779  0.5743
   63TMC2    C7  986   0.019   1.064  10.552 -0.4954  0.3129  0.2515
   63TMC2    C8  987   4.733   1.052  11.046  0.3333 -0.3627 -0.3975
   63TMC2    O1  988   4.691   1.036  10.450 -0.7746 -0.1501  0.6236
   63TMC2    O2  989   0.118   1.028  11.055  0.2170 -0.2077  0.3828
   63TMC2    O5  990   4.646   1.070  11.143  0.3177  0.5323 -0.2489
   63TMC2    H5  991   4.572   1.122  11.104  0.3897 -0.7872 -2.1228
   64MPD2     C  992   4.240   0.370  10.574  0.0236 -0.4955 -0.1078
   64MPD2    C1  993   4.261   0.400  10.709 -0.9111 -0.1280  0.5569
   64MPD2    C2  994   4.326   0.522  10.733 -0.1440 -0.3690  0.1247
   64MPD2    C3  995   4.347   0.619  10.637 -0.6177  0.4106 -0.3238
   64MPD2    C4  996   4.319   0.587  10.504  0.1324 -0.2340  0.4603
   64MPD2    C5  997   4.267   0.459  10.477 -0.0575  1.0054  0.2595
   64MPD2     H  998   4.359   0.548  10.833 -0.5845  1.2311 -0.1361
   64MPD2    H1  999   4.340   0.658  10.424 -1.7301  0.9512  1.0276
   64MPD2    H2 1000   4.205   0.272  10.542 -0.6931 -0.5556  0.8740
   64MPD2    H3 1001   4.241   0.423  10.378  0.0949  0.6980  0.3332
   64MPD2     N 1002   4.409   0.742  10.655  0.5424  0.4319 -0.1885
   64MPD2    H5 1003   4.428   0.794  10.570  1.7295  0.0210 -0.1702
   64MPD2    N1 1004   4.231   0.312  10.818  0.5468 -0.0144  0.0651
   64MPD2    H7 1005   4.270   0.348  10.904 -0.1191  0.5226  0.1445
   65TMC2    C1 1006   0.764   1.174  15.502 -0.1828 -0.3529  0.2836
   65TMC2    C2 1007   0.769   1.123  15.374 -0.3391 -0.1049 -0.3121
   65TMC2    C3 1008   0.714   1.194  15.273  0.2507  0.4428  0.4280
   65TMC2    C4 1009   0.717   1.299  15.529 -0.1493 -0.3081 -0.0363
   65TMC2    C5 1010   0.652   1.361  15.428 -0.1871  0.2164  0.3059
   65TMC2    C6 1011   0.659   1.321  15.296 -0.3491 -0.9718 -0.3825
   65TMC2     C 1012   0.742   1.088  15.617 -0.6870  0.9974  0.2638
   65TMC2     O 1013   0.689   1.140  15.718  0.3156 -0.4392 -0.5031
   65TMC2     H 1014   0.815   1.026  15.358  0.9420  0.4808 -0.1451
   65TMC2    H1 1015   0.723   1.339  15.629 -0.2613  0.8483 -0.4920
   65TMC2    H2 1016   0.595   1.380  15.231  2.0101  0.3085 -1.5129
   65TMC2    C7 1017   0.596   1.494  15.445  0.5573 -0.2923  0.9131
   65TMC2    C8 1018   0.701   1.127  15.145  0.5869 -0.1862 -0.0317
   65TMC2    O1 1019   0.574   1.560  15.344 -0.1804 -0.1705  0.2177
   65TMC2    O2 1020   0.751   1.013  15.125  0.6900 -1.0157  0.4202
   65TMC2    O5 1021   0.703   1.229  15.054  0.3309 -0.3699  0.0172
   65TMC2    H5 1022   0.679   1.322  15.073  0.4340 -0.4898  0.7123
   66MPD2     C 1023   0.726   0.869  15.819 -0.2912  0.2096 -0.4231
   66MPD2    C1 1024   0.736   0.843  15.681 -0.2890  0.3466  0.6556
   66MPD2    C2 1025   0.735   0.713  15.631 -0.2960 -0.2337 -0.3202
   66MPD2    C3 1026   0.715   0.603  15.716  0.9022 -0.0966 -0.3133
   66MPD2    C4 1027   0.703   0.627  15.852 -0.1010  0.3976  0.2168
   66MPD2    C5 1028   0.712   0.759  15.902 -0.5973 -0.1604  0.4940
   66MPD2     H 1029   0.741   0.686  15.527 -0.6890 -1.1348 -0.1119
   66MPD2    H1 1030   0.691   0.548  15.925  0.9774 -0.1977 -0.2541
   66MPD2    H2 1031   0.731   0.968  15.863  1.8417  0.4632 -1.2284
   66MPD2    H3 1032   0.703   0.771  16.009 -0.2754  1.5239  0.3274
   66MPD2     N 1033   0.716   0.463  15.680 -0.3910  0.2623 -0.5387
   66MPD2    H5 1034   0.683   0.395  15.747 -0.6184  1.8129  0.9393
   66MPD2    N1 1035   0.752   0.951  15.583 -0.2352  0.9793  0.3205
   66MPD2    H7 1036   0.762   0.925  15.485 -0.0468  3.5601 -0.3519
   67TMC2    C1 1037   1.089   4.697  14.329 -0.2671  0.8337 -0.5803
   67TMC2    C2 1038   1.060   0.099  14.327  0.1525  0.2396 -0.7123
   67TMC2    C3 1039   1.106   0.162  14.444 -0.2285 -0.0818  0.4623
   67TMC2    C4 1040   1.151   4.628  14.430 -0.0575  0.5032 -0.4753
   67TMC2    C5 1041   1.180   4.694  14.546 -0.4967  0.5447  0.0303
   67TMC2    C6 1042   1.163   0.091  14.548 -0.0746 -0.1952  0.7245
   67TMC2     C 1043   1.060   4.622  14.213  0.0809 -0.4134 -0.5926
   67TMC2     O 1044   1.125   4.517  14.209 -0.5856 -0.0779 -0.4585
   67TMC2     H 1045   1.000   0.149  14.251  2.0632  2.0790 -1.0160
   67TMC2    H1 1046   1.167   4.521  14.435 -0.0386  0.4752 -1.1712
   67TMC2    H2 1047   1.202   0.151  14.629  0.9749 -0.1936  0.2133
   67TMC2    C7 1048   1.239   4.628  14.660  0.4790  0.3590  0.1760
   67TMC2    C8 1049   1.114   0.302  14.444  0.2529  0.4615 -0.7424
   67TMC2    O1 1050   1.317   4.534  14.646  0.5012 -0.3313 -0.2829
   67TMC2    O2 1051   1.131   0.360  14.553 -0.0301  0.2040  0.3593
   67TMC2    O5 1052   1.187   0.323  14.336  1.2396  0.7223  0.4911
   67TMC2    H5 1053   1.178   0.257  14.264  2.4398  1.0603  0.0276
   68MPD2     C 1054   0.999   4.520  13.945 -0.7916  0.1247 -0.7722
   68MPD2    C1 1055   0.911   4.592  14.018 -0.5009 -1.0311  1.1289
   68MPD2    C2 1056   0.780   4.609  13.973 -0.0801 -0.2048 -0.3158
   68MPD2    C3 1057   0.727   4.540  13.872 -0.4673 -0.4864  0.8546
   68MPD2    C4 1058   0.818   4.460  13.802 -0.2658 -0.4802  0.1204
   68MPD2    C5 1059   0.954   4.454  13.835  0.4845  0.2952 -0.0438
   68MPD2     H 1060   0.722   4.680  14.032  2.7546  0.2522  1.9286
   68MPD2    H1 1061   0.781   4.408  13.715  0.7167 -0.0076 -0.5853
   68MPD2    H2 1062   1.104   4.516  13.971 -1.3628 -1.4000  1.3117
   68MPD2    H3 1063   1.009   4.378  13.781 -1.9174 -0.2204 -1.7516
   68MPD2     N 1064   0.595   4.553  13.837  0.2274  0.2981  0.3013
   68MPD2    H5 1065   0.541   4.610  13.902 -1.3055  1.5767 -2.1015
   68MPD2    N1 1066   0.953   4.663  14.132  0.6655  0.5375  0.0711
   68MPD2    H7 1067   0.898   0.008  14.161 -0.0647  0.3629 -0.8302
   69TMC2    C1 1068   3.398   1.131  12.255  0.4860 -0.7227  0.2633
   69TMC2    C2 1069   3.299   1.225  12.226 -0.4491  0.4733 -0.2134
   69TMC2    C3 1070   3.263   1.249  12.093 -0.7618 -0.5278  0.4642
   69TMC2    C4 1071   3.475   1.068  12.155  0.0172 -0.3535  0.5220
   69TMC2    C5 1072   3.440   1.100  12.028 -0.8392 -0.4223 -0.3513
   69TMC2    C6 1073   3.336   1.190  11.995  0.3114 -0.1479  0.1116
   69TMC2     C 1074   3.417   1.097  12.397 -0.2338  0.4808 -0.3508
   69TMC2     O 1075   3.323   1.104  12.470 -0.2885  0.0057  0.1505
   69TMC2     H 1076   3.246   1.268  12.311 -1.0559 -2.5373  0.9172
   69TMC2    H1 1077   3.565   1.012  12.178  0.2910 -0.0190  0.2664
   69TMC2    H2 1078   3.322   1.222  11.892 -1.1793  0.3343  0.4768
   69TMC2    C7 1079   3.498   1.014  11.922 -0.1553  0.3042  0.2158
   69TMC2    C8 1080   3.138   1.301  12.048 -0.2662  0.3477  0.3440
   69TMC2    O1 1081   3.607   0.963  11.952  0.4519 -0.1749 -0.1563
   69TMC2    O2 1082   3.103   1.284  11.935  0.7262  0.5739 -0.1117
   69TMC2    O5 1083   3.052   1.292  12.156 -0.4000 -0.7397 -0.0611
   69TMC2    H5 1084   3.077   1.341  12.237 -1.4943 -2.8479  1.5661
   70MPD2     C 1085   3.733   1.108  12.579  0.5089  0.2431 -0.1489
   70MPD2    C1 1086   3.597   1.079  12.559 -0.0387  0.4363  0.1317
   70MPD2    C2 1087   3.527   1.018  12.666 -0.4983 -0.3275  0.2663
   70MPD2    C3 1088   3.577   1.009  12.795 -0.7159  0.1384  0.1406
   70MPD2    C4 1089   3.710   1.050  12.813 -0.7466 -0.5798 -0.5176
   70MPD2    C5 1090   3.785   1.091  12.702 -0.7200 -0.6217  0.0458
   70MPD2     H 1091   3.425   0.986  12.646 -0.9519  2.0295 -1.1795
   70MPD2    H1 1092   3.754   1.028  12.909 -1.5431 -0.6055 -0.1559
   70MPD2    H2 1093   3.793   1.158  12.503  1.5924  0.4994  0.8730
   70MPD2    H3 1094   3.889   1.116  12.720 -1.6795  4.1343 -1.0599
   70MPD2     N 1095   3.501   0.948  12.903 -0.4536 -0.3614  0.0610
   70MPD2    H5 1096   3.536   0.948  12.998  1.2853 -1.1077 -0.5855
   70MPD2    N1 1097   3.553   1.098  12.426 -0.0010  0.4889 -0.1114
   70MPD2    H7 1098   3.622   1.131  12.359  0.1509  0.8236  0.2146
   71TMC2    C1 1099   4.399   2.346   1.499 -0.2981 -0.0492  0.8451
   71TMC2    C2 1100   4.438   2.320   1.629  0.0491  0.3790 -0.0544
   71TMC2    C3 1101   4.390   2.393   1.733  0.0227  0.1019  0.4039
   71TMC2    C4 1102   4.337   2.468   1.471 -0.5700  0.0263 -0.0740
   71TMC2    C5 1103   4.314   2.548   1.581 -0.1363  0.6937  0.5690
   71TMC2    C6 1104   4.329   2.513   1.712  0.3542 -0.1881 -0.6842
   71TMC2     C 1105   4.453   2.276   1.383  0.3108 -0.1501  0.6710
   71TMC2     O 1106   4.449   2.342   1.278 -0.2313 -0.5734  0.0944
   71TMC2     H 1107   4.506   2.240   1.654  0.9135  0.4494 -2.1964
   71TMC2    H1 1108   4.308   2.503   1.373  1.1041  1.3594 -0.0933
   71TMC2    H2 1109   4.282   2.571   1.790  0.9841 -0.4179 -0.1337
   71TMC2    C7 1110   4.208   2.648   1.563  0.1678  0.2569 -0.0394
   71TMC2    C8 1111   4.394   2.353   1.870  0.5362 -0.1758  0.3660
   71TMC2    O1 1112   4.190   2.737   1.652 -0.2834 -0.2116  0.3480
   71TMC2    O2 1113   4.404   2.430   1.963 -0.4931  0.5481  0.1833
   71TMC2    O5 1114   4.431   2.223   1.878  0.3673 -0.3425  0.8547
   71TMC2    H5 1115   4.396   2.190   1.792  0.4662 -0.4886  0.8700
   72MPD2     C 1116   4.660   1.869   1.159 -0.2068 -0.3430 -0.5338
   72MPD2    C1 1117   4.623   1.993   1.104 -0.2169  0.1989 -0.0309
   72MPD2    C2 1118   4.582   2.096   1.189  0.3853  0.0371 -0.1162
   72MPD2    C3 1119   4.545   2.063   1.318  0.0420 -0.2367 -0.3780
   72MPD2    C4 1120   4.572   1.939   1.372 -0.5988  0.5972  0.4454
   72MPD2    C5 1121   4.645   1.853   1.295  0.2961  0.8608  0.2411
   72MPD2     H 1122   4.581   2.196   1.146 -0.7431  0.3366  0.6266
   72MPD2    H1 1123   4.562   1.919   1.478  2.3849  2.1113  1.0267
   72MPD2    H2 1124   4.713   1.797   1.099 -1.2658  1.7233 -3.9635
   72MPD2    H3 1125   4.687   1.764   1.341 -0.2868 -0.4926 -1.9121
   72MPD2     N 1126   4.490   2.151   1.407 -0.0603  0.0114 -0.4225
   72MPD2    H5 1127   4.469   2.126   1.503  2.2364 -1.8864 -0.4181
   72MPD2    N1 1128   4.647   2.020   0.968 -0.4698 -0.3725  0.0152
   72MPD2    H7 1129   4.646   2.117   0.939 -1.1496 -0.5647 -0.5696
   73TMC2    C1 1130   0.438   3.231  13.519 -0.1875  0.7261 -0.2532
   73TMC2    C2 1131   0.351   3.174  13.606  0.1548  0.0889  0.3158
   73TMC2    C3 1132   0.395   3.090  13.701  0.3907  0.1189  0.3726
   73TMC2    C4 1133   0.572   3.206  13.528 -0.1195 -0.1597 -0.6745
   73TMC2    C5 1134   0.620   3.130  13.636 -0.9942  0.0876  0.0952
   73TMC2    C6 1135   0.531   3.064  13.720  0.0155 -0.2385 -0.3252
   73TMC2     C 1136   0.426   3.377  13.491  0.2018  0.1095 -0.8743
   73TMC2     O 1137   0.531   3.438  13.479  0.0138 -0.1348  0.0726
   73TMC2     H 1138   0.245   3.196  13.607  0.6645  2.5228 -2.9974
   73TMC2    H1 1139   0.643   3.256  13.462 -0.3189  1.0170  0.0011
   73TMC2    H2 1140   0.559   3.016  13.813  0.0087 -0.7153 -0.5718
   73TMC2    C7 1141   0.735   3.187  13.693  0.1951 -0.2694  0.5467
   73TMC2    C8 1142   0.311   3.078  13.819 -0.5804 -0.1652  0.6268
   73TMC2    O1 1143   0.795   3.113  13.770  0.0466  0.3523 -0.2288
   73TMC2    O2 1144   0.352   3.109  13.932  0.5226  0.3966  0.3189
   73TMC2    O5 1145   0.190   3.030  13.781 -0.0162  0.0920  0.2377
   73TMC2    H5 1146   0.195   3.001  13.688  1.1218  0.1259  0.2913
   74MPD2     C 1147   0.204   3.839  13.465 -0.6046  0.1830 -0.8734
   74MPD2    C1 1148   0.320   3.801  13.524 -0.5222 -1.2034 -0.7361
   74MPD2    C2 1149   0.355   3.665  13.527  0.0855  0.7451  0.1327
   74MPD2    C3 1150   0.267   3.569  13.492  0.8082 -0.5728  0.5064
   74MPD2    C4 1151   0.142   3.614  13.454  0.3091  0.3172  0.7724
   74MPD2    C5 1152   0.114   3.746  13.429  0.2257 -0.5160 -0.1242
   74MPD2     H 1153   0.454   3.634  13.559  0.2594  0.0423 -1.0865
   74MPD2    H1 1154   0.071   3.537  13.425 -1.0132  1.3383  1.3238
   74MPD2    H2 1155   0.173   3.942  13.456 -0.2016  0.4242  0.5143
   74MPD2    H3 1156   0.016   3.771  13.392  0.2263  0.5858  0.6214
   74MPD2     N 1157   0.297   3.428  13.493  0.2007  0.1641 -0.5938
   74MPD2    H5 1158   0.223   3.359  13.488  1.0317 -0.6941 -1.0367
   74MPD2    N1 1159   0.418   3.907  13.540  0.3182 -0.2291  0.0003
   74MPD2    H7 1160   0.401   3.994  13.491  1.7278  0.7024  1.1648
   75TMC2    C1 1161   0.382   4.504  13.738 -0.5461 -0.3296 -0.4439
   75TMC2    C2 1162   0.324   4.531  13.857  0.4104  0.6520 -0.1396
   75TMC2    C3 1163   0.187   4.551  13.864  0.2149 -0.1294  0.1208
   75TMC2    C4 1164   0.310   4.498  13.623  0.4200  0.0944 -0.0320
   75TMC2    C5 1165   0.178   4.523  13.633  0.5989  0.0582  0.2560
   75TMC2    C6 1166   0.107   4.549  13.749  0.0433 -0.0996  0.4124
   75TMC2     C 1167   0.531   4.500  13.726 -0.1377  0.0862  0.5148
   75TMC2     O 1168   0.571   4.445  13.625  0.0821 -0.3553 -0.1587
   75TMC2     H 1169   0.373   4.551  13.952  1.3489  1.2508 -0.7497
   75TMC2    H1 1170   0.356   4.486  13.526 -2.4878 -0.1979 -1.3696
   75TMC2    H2 1171   4.733   4.552  13.754 -0.0575  0.4254 -1.9904
   75TMC2    C7 1172   0.106   4.536  13.501  0.1668  0.9173  0.4827
   75TMC2    C8 1173   0.141   4.623  13.990 -0.2187  0.3522 -0.2973
   75TMC2    O1 1174   0.158   4.471  13.413  0.3898  0.1180  0.1930
   75TMC2    O2 1175   0.050   4.703  13.991  0.2454 -0.2163  0.0997
   75TMC2    O5 1176   0.176   4.541  14.093 -0.0417  0.2562  0.1669
   75TMC2    H5 1177   0.255   4.485  14.077 -0.7652 -1.7393  3.7326
   76TMC2    C1 1178   4.563   4.590  11.895  0.2606  0.2876 -0.3066
   76TMC2    C2 1179   4.495   4.474  11.865 -0.5205  0.3495 -0.0306
   76TMC2    C3 1180   4.551   4.356  11.904  0.1797 -0.4119  0.7159
   76TMC2    C4 1181   4.676   4.597  11.974 -0.1196 -0.6462  0.3520
   76TMC2    C5 1182   4.731   4.470  12.009  0.2061  0.2531 -0.4907
   76TMC2    C6 1183   4.674   4.349  11.965 -0.2803 -0.0035 -0.4071
   76TMC2     C 1184   4.526   4.716  11.839  0.0333  0.0480 -1.4161
   76TMC2     O 1185   4.422   4.709  11.775 -0.8162  0.3322 -0.4893
   76TMC2     H 1186   4.407   4.481  11.803 -0.4172  2.0235  0.0022
   76TMC2    H1 1187   4.713   4.690  12.015  0.8511  0.1458 -2.3386
   76TMC2    H2 1188   4.718   4.254  11.997  0.9315  0.4067 -0.8369
   76TMC2    C7 1189   0.111   4.459  12.099  0.1199  0.4109 -0.4753
   76TMC2    C8 1190   4.468   4.239  11.868  0.1497  0.2248  0.3274
   76TMC2    O1 1191   0.153   4.350  12.130  0.0678 -0.5624  0.9871
   76TMC2    O2 1192   4.351   4.246  11.824  0.1968  0.0773 -0.0482
   76TMC2    O5 1193   4.528   4.125  11.901  0.1930 -0.7801  0.0139
   76TMC2    H5 1194   4.612   4.135  11.950 -0.5284 -1.9272  1.4486
   77MPD2     C 1195   4.536   0.482  11.733 -0.0588 -0.4803  0.1466
   77MPD2    C1 1196   4.445   0.385  11.704 -0.0958  0.0573  0.0661
   77MPD2    C2 1197   4.475   0.253  11.738  0.6371 -0.4378  0.4567
   77MPD2    C3 1198   4.592   0.214  11.806 -0.3096  0.8266  0.4204
   77MPD2    C4 1199   4.684   0.318  11.823  0.0255 -0.3173 -0.1665
   77MPD2    C5 1200   4.658   0.446  11.787  0.8241  0.8888 -0.7454
   77MPD2     H 1201   4.394   0.188  11.704 -0.3283  1.2621 -0.4704
   77MPD2    H1 1202   0.047   0.297  11.866 -0.1083  3.6469  2.0177
   77MPD2    H2 1203   4.509   0.586  11.725  1.0675 -0.0691  1.7300
   77MPD2    H3 1204   0.001   0.517  11.814 -2.0829  2.9135  2.3875
   77MPD2     N 1205   4.618   0.083  11.846  0.1525  0.4936 -0.3492
   77MPD2    H5 1206   4.708   0.064  11.888 -0.0958 -0.8031 -0.3860
   77MPD2    N1 1207   4.324   0.414  11.639 -0.4607 -0.4926  0.2202
   77MPD2    H7 1208   4.276   0.335  11.598 -1.7250  0.6805 -0.5562
   78TMC2    C1 1209   2.511   2.272   1.166  0.3349  0.7311 -0.2566
   78TMC2    C2 1210   2.556   2.144   1.167 -0.5872  0.0118 -0.3339
   78TMC2    C3 1211   2.476   2.047   1.113  0.3202  0.0102 -0.5563
   78TMC2    C4 1212   2.390   2.304   1.113 -0.1564  0.2898 -0.0086
   78TMC2    C5 1213   2.312   2.200   1.074 -0.1254 -0.2953  0.8428
   78TMC2    C6 1214   2.350   2.070   1.071 -0.4235  0.2520  0.6562
   78TMC2     C 1215   2.621   2.367   1.201  0.4434 -0.8030 -0.0080
   78TMC2     O 1216   2.728   2.313   1.224 -0.1704  0.8700  0.1713
   78TMC2     H 1217   2.650   2.119   1.215 -1.0772 -0.4694  0.3812
   78TMC2    H1 1218   2.362   2.409   1.102 -2.2376 -0.5788 -2.9315
   78TMC2    H2 1219   2.293   1.991   1.024  1.3811 -0.2076 -0.7750
   78TMC2    C7 1220   2.177   2.223   1.028 -0.2939  0.2895 -0.0099
   78TMC2    C8 1221   2.531   1.914   1.083 -0.7279  0.3572  0.2247
   78TMC2    O1 1222   2.113   2.124   1.004  0.3580 -0.1497  0.9749
   78TMC2    O2 1223   2.503   1.849   0.984  0.2494  0.3477 -0.4266
   78TMC2    O5 1224   2.655   1.905   1.137 -0.4415 -0.3369 -0.4428
   78TMC2    H5 1225   2.644   1.948   1.224 -1.5297 -1.4168 -0.0496
   79MPD1     C 1226   2.851   2.838   1.242  0.5393  0.1602  0.1455
   79MPD1    C1 1227   2.909   2.708   1.230 -0.0623 -0.0943  0.1353
   79MPD1    C2 1228   2.823   2.599   1.217  0.5397  0.2951  0.1129
   79MPD1    C3 1229   2.690   2.609   1.195  0.8182 -0.5517 -0.4373
   79MPD1    C4 1230   2.641   2.739   1.190 -0.6151 -0.3329  0.2043
   79MPD1    C5 1231   2.717   2.852   1.217  0.4371 -0.0502  0.9753
   79MPD1     H 1232   2.857   2.496   1.222  0.1207  0.2543  2.0433
   79MPD1    H1 1233   2.536   2.756   1.174 -0.3520  0.0365 -1.1361
   79MPD1    H2 1234   2.913   2.922   1.271 -0.8986  1.9312 -1.9454
   79MPD1    H3 1235   2.669   2.949   1.213  1.0215  0.1372 -1.3189
   79MPD1     N 1236   2.593   2.505   1.183  0.1766 -0.9476  0.3263
   79MPD1    H5 1237   2.496   2.534   1.173  0.6349  0.2229 -0.6695
   79MPD1    N1 1238   3.045   2.696   1.269 -0.2747  0.3808 -0.8559
   79MPD1    H6 1239   3.098   2.776   1.237  2.4510 -1.0187  0.1714
   79MPD1    H7 1240   3.085   2.614   1.223  0.3627 -0.5052  1.3023
   80TMC2    C1 1241   2.553   0.159  11.866  0.1646 -0.2927  0.1036
   80TMC2    C2 1242   2.469   0.224  11.779  0.5637 -0.2045 -0.1738
   80TMC2    C3 1243   2.343   0.181  11.783 -0.0069  0.5985 -0.3777
   80TMC2    C4 1244   2.512   0.063  11.955 -0.0701 -0.8287 -0.1142
   80TMC2    C5 1245   2.383   0.029  11.952 -0.2004 -0.4638  0.4715
   80TMC2    C6 1246   2.298   0.086  11.864 -0.1517  0.2312  0.3978
   80TMC2     C 1247   2.693   0.199  11.863 -0.0067 -0.5961 -0.2595
   80TMC2     O 1248   2.721   0.248  11.756 -0.3926 -0.1514 -0.3396
   80TMC2     H 1249   2.508   0.288  11.701  1.7443 -1.5977 -0.7303
   80TMC2    H1 1250   2.578   0.016  12.027  1.3722  2.9180  0.9908
   80TMC2    H2 1251   2.191   0.067  11.864  0.3685 -2.5785 -0.9434
   80TMC2    C7 1252   2.331   4.638  12.016  0.2077 -1.1099  0.1052
   80TMC2    C8 1253   2.248   0.227  11.682 -0.9338  0.3831 -0.8722
   80TMC2    O1 1254   2.215   4.608  11.986 -0.5250  0.2349  0.0803
   80TMC2    O2 1255   2.267   0.326  11.618 -0.3885  0.2983 -0.1796
   80TMC2    O5 1256   2.163   0.127  11.650  0.1503 -0.4737  0.1147
   80TMC2    H5 1257   2.175   0.037  11.687  0.7883  0.4287  2.0842
   81MPD2     C 1258   2.960   0.323  11.897  0.2102  0.0471  0.6143
   81MPD2    C1 1259   2.890   0.263  12.004 -0.5903 -0.1366  0.5467
   81MPD2    C2 1260   2.947   0.259  12.124 -0.3655  0.3753 -0.1887
   81MPD2    C3 1261   3.080   0.299  12.145 -0.1077 -0.1605 -0.2123
   81MPD2    C4 1262   3.148   0.349  12.038  0.5858 -0.6402 -1.6672
   81MPD2    C5 1263   3.087   0.373  11.920 -0.7135  0.4024 -0.2267
   81MPD2     H 1264   2.894   0.216  12.209 -1.0019  0.6538 -0.4407
   81MPD2    H1 1265   3.247   0.392  12.047 -0.2118  1.4867 -2.9106
   81MPD2    H2 1266   2.924   0.335  11.796  0.5673 -0.7645  0.3866
   81MPD2    H3 1267   3.140   0.420  11.837  1.1723  2.6747  2.2747
   81MPD2     N 1268   3.140   0.268  12.272  0.0882 -0.4163  0.2362
   81MPD2    H5 1269   3.084   0.220  12.341 -0.4299 -1.2468 -0.7641
   81MPD2    N1 1270   2.759   0.215  11.985  0.6606  0.6293 -0.0098
   81MPD2    H7 1271   2.708   0.190  12.070  0.1354 -1.0418 -0.8129
   82TMC2    C1 1272   1.427   3.881  10.883  0.5829  0.3309 -0.1476
   82TMC2    C2 1273   1.536   3.916  10.965 -0.2510  0.4364 -0.3001
   82TMC2    C3 1274   1.561   3.822  11.059  0.1126  0.0104  0.0275
   82TMC2    C4 1275   1.338   3.781  10.908  0.5180 -0.2092  0.8042
   82TMC2    C5 1276   1.367   3.690  11.003  0.6578  0.1888  0.2250
   82TMC2    C6 1277   1.490   3.699  11.075 -0.5243 -0.1050 -0.5812
   82TMC2     C 1278   1.393   3.976  10.778 -0.8322 -0.1855  0.0573
   82TMC2     O 1279   1.299   3.940  10.714 -0.2995  0.1550 -0.2602
   82TMC2     H 1280   1.609   3.995  10.954 -2.7093  2.4942 -1.8187
   82TMC2    H1 1281   1.243   3.782  10.856 -0.4353  0.9622  2.5790
   82TMC2    H2 1282   1.516   3.636  11.159  1.3868 -0.0550 -1.1319
   82TMC2    C7 1283   1.271   3.599  11.061  0.0860  0.4067 -0.8645
   82TMC2    C8 1284   1.685   3.835  11.126  0.3176 -0.9612 -0.5465
   82TMC2    O1 1285   1.324   3.517  11.137  0.3801 -0.1945 -0.0500
   82TMC2    O2 1286   1.782   3.895  11.083 -0.1353  0.1213  0.1764
   82TMC2    O5 1287   1.658   3.802  11.257 -0.1315  0.6143 -0.1870
   82TMC2    H5 1288   1.566   3.792  11.290  0.4588  0.4735  1.4124
   83MPD2     C 1289   1.366   4.450  10.593 -0.2133 -0.7470 -0.2083
   83MPD2    C1 1290   1.279   4.349  10.597  0.0828  0.0447  0.5298
   83MPD2    C2 1291   1.328   4.226  10.640 -0.6103 -0.5156 -0.3957
   83MPD2    C3 1292   1.442   4.211  10.712 -0.0355  0.5533  0.1388
   83MPD2    C4 1293   1.523   4.323  10.729  0.4481 -0.4771 -0.1887
   83MPD2    C5 1294   1.486   4.435  10.665  0.5419 -0.3986 -0.2876
   83MPD2     H 1295   1.270   4.139  10.610 -0.5488 -1.6961  2.9931
   83MPD2    H1 1296   1.611   4.318  10.793  1.3054 -1.4193 -1.4351
   83MPD2    H2 1297   1.346   4.547  10.550  1.6731 -1.5557 -2.9444
   83MPD2    H3 1298   1.551   4.522  10.674 -1.2244  0.6695  2.0990
   83MPD2     N 1299   1.472   4.090  10.780 -0.0343  0.1424  0.7767
   83MPD2    H5 1300   1.552   4.097  10.841 -0.6067 -1.0553  1.6576
   83MPD2    N1 1301   1.149   4.372  10.541 -0.2770 -1.3491 -0.2162
   83MPD2    H7 1302   1.125   4.466  10.510  1.8448 -0.4006  0.9978
   84TMC2    C1 1303   2.469   3.087  11.062 -0.8985 -0.2212 -0.0952
   84TMC2    C2 1304   2.538   3.052  11.170  0.3760  0.3845  0.5667
   84TMC2    C3 1305   2.629   2.949  11.156 -0.0049 -0.5964  0.2046
   84TMC2    C4 1306   2.470   3.006  10.951  0.1364  0.1034  0.3721
   84TMC2    C5 1307   2.562   2.907  10.935 -0.9758  0.0118 -0.9248
   84TMC2    C6 1308   2.653   2.892  11.038 -0.4011 -0.0307  0.3054
   84TMC2     C 1309   2.410   3.221  11.062 -0.4182 -0.1636  0.3906
   84TMC2     O 1310   2.370   3.277  11.164  1.1172  0.6285 -0.2654
   84TMC2     H 1311   2.535   3.107  11.263  2.1036  0.9270  0.3047
   84TMC2    H1 1312   2.398   3.034  10.874  1.2569 -3.7547 -2.0755
   84TMC2    H2 1313   2.730   2.817  11.030 -0.3131  0.0508  0.3956
   84TMC2    C7 1314   2.581   2.874  10.802 -0.0844 -0.3462  0.0308
   84TMC2    C8 1315   2.741   2.925  11.245 -0.4640 -0.4102 -0.2182
   84TMC2    O1 1316   2.476   2.883  10.737 -0.3840  0.2535 -0.5101
   84TMC2    O2 1317   2.778   2.814  11.263  0.3680  0.2925 -0.3085
   84TMC2    O5 1318   2.822   3.026  11.215  0.2266 -0.5667  0.2018
   84TMC2    H5 1319   2.784   3.114  11.195  0.5663 -0.5382 -0.3089
   85TMC2    C1 1320   3.032   1.863  15.973  0.2416  0.0116 -0.6291
   85TMC2    C2 1321   2.931   1.885  15.886  0.4696  0.5515  0.1672
   85TMC2    C3 1322   2.965   1.907  15.758 -0.3429 -0.7058 -0.0414
   85TMC2    C4 1323   3.169   1.884  15.936 -0.6744  0.1349  0.4737
   85TMC2    C5 1324   3.196   1.914  15.801  0.1943  0.2228  0.3746
   85TMC2    C6 1325   3.092   1.923  15.713  0.0228  0.1361 -0.2728
   85TMC2     C 1326   3.011   1.795  16.101 -0.3148  0.4072  0.1783
   85TMC2     O 1327   3.103   1.801  16.179  0.6129  0.2627 -0.0181
   85TMC2     H 1328   2.828   1.887  15.920  0.4455 -1.1637  0.2276
   85TMC2    H1 1329   3.248   1.849  16.001  1.1993 -1.2519 -2.6223
   85TMC2    H2 1330   3.113   1.929  15.607  0.1554  0.1290 -0.2466
   85TMC2    C7 1331   3.323   1.865  15.750  0.5896 -0.2189  0.5318
   85TMC2    C8 1332   2.855   1.954  15.672  0.2142  0.1449 -0.1811
   85TMC2    O1 1333   3.384   1.792  15.824  0.4474 -0.0293 -0.1285
   85TMC2    O2 1334   2.736   1.961  15.704 -0.1829  0.3220 -0.5148
   85TMC2    O5 1335   2.914   2.046  15.590 -0.0355  0.2683 -0.3829
   85TMC2    H5 1336   3.009   2.065  15.602  1.1544 -5.1344 -1.1008
   86MPD2     C 1337   2.753   1.526  16.437  0.5058  1.0119  0.3137
   86MPD2    C1 1338   2.707   1.490  16.313  0.1069  0.2297  0.2319
   86MPD2    C2 1339   2.768   1.542  16.207  0.0768 -0.3912  0.3737
   86MPD2    C3 1340   2.855   1.647  16.223 -0.0459  0.2584  0.4307
   86MPD2    C4 1341   2.897   1.691  16.344 -0.1145 -0.0703  0.9084
   86MPD2    C5 1342   2.851   1.621  16.448  0.3845  0.0008  0.3541
   86MPD2     H 1343   2.737   1.505  16.110  2.3874  1.0029 -0.8811
   86MPD2    H1 1344   2.972   1.767  16.361  0.3295  0.1041 -1.9024
   86MPD2    H2 1345   2.730   1.471  16.527 -0.3125 -3.0365 -2.3930
   86MPD2    H3 1346   2.887   1.650  16.546 -0.0331 -1.8155  1.0426
   86MPD2     N 1347   2.899   1.711  16.106  0.2664  0.4121  0.2610
   86MPD2    H5 1348   2.844   1.702  16.020  0.0292  0.6763  0.3850
   86MPD2    N1 1349   2.618   1.383  16.291  0.3275 -0.2330  0.6801
   86MPD2    H7 1350   2.605   1.362  16.193 -0.5523  0.6334  0.6071
   87TMC2    C1 1351   0.161   0.310   1.048  0.9375  0.2556 -0.0819
   87TMC2    C2 1352   0.258   0.294   1.145  0.2529  0.6451 -0.2510
   87TMC2    C3 1353   0.267   0.385   1.248 -0.3210 -0.3644  0.2406
   87TMC2    C4 1354   0.077   0.421   1.053  0.7637 -0.2638 -0.6128
   87TMC2    C5 1355   0.100   0.509   1.159  0.0556  0.0055  0.3729
   87TMC2    C6 1356   0.193   0.499   1.256 -0.2301 -0.4432  0.3097
   87TMC2     C 1357   0.171   0.223   0.927 -0.0507 -0.3688 -0.3790
   87TMC2     O 1358   0.250   0.129   0.934 -0.3323 -0.4265 -0.3331
   87TMC2     H 1359   0.342   0.226   1.133  0.2693  0.3385  1.5823
   87TMC2    H1 1360   0.025   0.448   0.962 -2.5135  1.3443  1.7628
   87TMC2    H2 1361   0.217   0.577   1.327 -0.0508 -1.7739  1.7005
   87TMC2    C7 1362   0.019   0.624   1.164 -0.5182 -0.8795  0.1075
   87TMC2    C8 1363   0.402   0.398   1.303  0.4710  0.4562  0.0630
   87TMC2    O1 1364   4.687   0.654   1.066 -0.1859 -0.6450 -0.3849
   87TMC2    O2 1365   0.499   0.399   1.231  0.2989  0.3316  0.1251
   87TMC2    O5 1366   0.397   0.403   1.434  0.1506 -0.4711 -0.4211
   87TMC2    H5 1367   0.304   0.396   1.465 -0.3322 -0.5995 -1.9235
   88MPD2     C 1368   4.570   0.743   1.452 -0.2564  0.5198 -0.2563
   88MPD2    C1 1369   4.639   0.764   1.337  0.3466 -0.6015 -0.1523
   88MPD2    C2 1370   4.612   0.873   1.251  0.7579  0.6628  0.7810
   88MPD2    C3 1371   4.510   0.958   1.292 -1.0702  0.2533  0.0961
   88MPD2    C4 1372   4.451   0.937   1.417  0.0907 -0.0473 -0.3845
   88MPD2    C5 1373   4.480   0.825   1.496 -0.0904  0.5132 -0.5599
   88MPD2     H 1374   4.658   0.882   1.153  2.3731 -1.0021  1.4131
   88MPD2    H1 1375   4.378   1.008   1.453  1.1014  0.8742 -0.1663
   88MPD2    H2 1376   4.603   0.656   1.507  2.5630  0.9941 -1.1563
   88MPD2    H3 1377   4.438   0.820   1.595  1.2206  0.9030  0.0149
   88MPD2     N 1378   4.485   1.072   1.216 -0.3596  0.0644  0.3860
   88MPD2    H5 1379   4.529   1.072   1.125 -0.0039  0.5750  0.5583
   88MPD2    N1 1380   4.723   0.661   1.299 -0.9493 -0.3633  0.2313
   88MPD2    H7 1381   0.008   0.586   1.365  0.6798  1.5374  1.8851
   89TMC2    C1 1382   0.796   3.136   1.998 -0.2256  0.5423 -0.3698
   89TMC2    C2 1383   0.929   3.131   2.039  0.0637  0.5529 -0.2512
   89TMC2    C3 1384   1.030   3.168   1.949 -0.2844  0.9999  0.6538
   89TMC2    C4 1385   0.759   3.171   1.868 -0.1706  0.1916 -0.6308
   89TMC2    C5 1386   0.860   3.226   1.797  0.2404 -0.5115 -0.0249
   89TMC2    C6 1387   0.994   3.226   1.834  0.2257 -0.6194  0.1091
   89TMC2     C 1388   0.698   3.133   2.102 -0.0479 -0.1408  0.7279
   89TMC2     O 1389   0.729   3.165   2.216 -0.6907  0.3743 -0.7691
   89TMC2     H 1390   0.941   3.122   2.146  1.3966  0.2905 -0.4171
   89TMC2    H1 1391   0.652   3.180   1.851 -0.7276  0.8264  3.3386
   89TMC2    H2 1392   1.071   3.259   1.765  0.6089 -1.6872  0.0304
   89TMC2    C7 1393   0.823   3.263   1.663 -0.5346 -0.3171 -0.1689
   89TMC2    C8 1394   1.174   3.168   1.975  0.3896  0.4645 -0.0913
   89TMC2    O1 1395   0.716   3.215   1.618 -0.6315  0.7495 -0.1268
   89TMC2    O2 1396   1.255   3.230   1.906  0.0882  0.0112  0.1894
   89TMC2    O5 1397   1.188   3.130   2.098  0.3474  0.0020 -0.1920
   89TMC2    H5 1398   1.114   3.069   2.119 -0.9834  1.1018 -1.7322
   90MPD2     C 1399   0.249   2.964   2.307  0.8971 -0.0580  0.1260
   90MPD2    C1 1400   0.265   2.903   2.183 -0.1179 -0.3235  0.2047
   90MPD2    C2 1401   0.373   2.953   2.100  0.1757 -0.3932  0.0486
   90MPD2    C3 1402   0.468   3.047   2.141  0.5203  0.1598  0.0302
   90MPD2    C4 1403   0.452   3.087   2.272 -0.1792 -0.4031 -1.3168
   90MPD2    C5 1404   0.344   3.054   2.346 -0.1725  0.0446  0.0029
   90MPD2     H 1405   0.378   2.920   1.998  1.3180  0.5581 -0.2028
   90MPD2    H1 1406   0.526   3.151   2.319 -0.9383 -0.8138  0.4151
   90MPD2    H2 1407   0.171   2.930   2.374 -1.2347  0.3939 -2.1214
   90MPD2    H3 1408   0.336   3.102   2.443 -1.8943  0.2758 -0.2446
   90MPD2     N 1409   0.584   3.068   2.064 -0.5738  0.0218 -0.2410
   90MPD2    H5 1410   0.590   3.044   1.966  0.5177  2.9535 -0.8949
   90MPD2    N1 1411   0.200   2.785   2.144  0.3843  0.3015  0.4557
   90MPD2    H7 1412   0.236   2.736   2.063  1.4380 -0.4624  1.3887
   91TMC2    C1 1413   2.977   2.673  16.409 -0.4004  0.3264  0.6095
   91TMC2    C2 1414   3.011   2.690  16.277 -0.4034 -0.3784  0.4102
   91TMC2    C3 1415   2.904   2.687  16.183  0.5468  0.0944  0.5154
   91TMC2    C4 1416   2.848   2.631  16.446  0.1980  0.4848  0.3109
   91TMC2    C5 1417   2.745   2.641  16.350  0.3604 -0.2578  0.6380
   91TMC2    C6 1418   2.775   2.669  16.222 -0.3675  0.4427 -0.1935
   91TMC2     C 1419   3.084   2.629  16.497  0.0811  0.0912  0.4051
   91TMC2     O 1420   3.063   2.540  16.581 -0.5003  0.6153 -0.1781
   91TMC2     H 1421   3.113   2.687  16.241 -0.5540  1.9589 -0.1655
   91TMC2    H1 1422   2.830   2.621  16.552 -2.1913  0.6404 -0.0925
   91TMC2    H2 1423   2.699   2.686  16.147 -0.8855 -0.2667  0.1768
   91TMC2    C7 1424   2.615   2.588  16.398  0.4185  0.7161 -0.5881
   91TMC2    C8 1425   2.920   2.750  16.053  0.3706 -0.9560  0.0995
   91TMC2    O1 1426   2.609   2.577  16.520 -0.2005 -0.7271  0.3630
   91TMC2    O2 1427   2.829   2.736  15.976  0.5488 -0.0831 -0.5129
   91TMC2    O5 1428   2.998   2.862  16.056  0.3670 -0.4238 -0.0747
   91TMC2    H5 1429   3.063   2.865  16.129  0.9096 -0.7168 -0.5471
   92MPD2     C 1430   3.344   2.542  16.627  0.4855  0.1802  0.3162
   92MPD2    C1 1431   3.329   2.656  16.544  0.8453 -0.8898 -0.4781
   92MPD2    C2 1432   3.436   2.744  16.535 -0.3184 -0.2155  0.0966
   92MPD2    C3 1433   3.551   2.728  16.609 -0.7495  0.1899  0.1127
   92MPD2    C4 1434   3.555   2.626  16.705  0.2350  0.2219  0.4952
   92MPD2    C5 1435   3.452   2.534  16.712  0.1616 -0.0643 -0.4059
   92MPD2     H 1436   3.429   2.826  16.465  1.0784  1.9907  2.5194
   92MPD2    H1 1437   3.641   2.615  16.769 -0.0850 -2.4925  0.4666
   92MPD2    H2 1438   3.265   2.467  16.625  0.3924  0.2167  2.2240
   92MPD2    H3 1439   3.455   2.451  16.782 -0.5219 -0.1932 -0.5316
   92MPD2     N 1440   3.653   2.825  16.602  1.0102 -0.0092  0.1738
   92MPD2    H5 1441   3.643   2.893  16.527 -1.6417 -0.3068  0.2349
   92MPD2    N1 1442   3.208   2.681  16.462  0.0657  0.2335 -0.1624
   92MPD2    H7 1443   3.197   2.754  16.392  0.7485 -0.4637 -0.9931
   93TMC2    C1 1444   0.554   2.877  14.047  0.0643 -0.5249  0.0076
   93TMC2    C2 1445   0.490   2.962  14.135 -0.4259  0.5746  0.4236
   93TMC2    C3 1446   0.575   3.058  14.172 -0.4599 -0.1267  0.3432
   93TMC2    C4 1447   0.687   2.883  14.012 -0.2908  0.4906  0.6666
   93TMC2    C5 1448   0.769   2.972  14.064 -0.4188  0.5325  0.3098
   93TMC2    C6 1449   0.712   3.069  14.145  0.0486  0.0796 -0.1250
   93TMC2     C 1450   0.477   2.763  13.986  0.5492 -0.9450 -0.4243
   93TMC2     O 1451   0.541   2.683  13.919  0.6098 -0.3741 -0.3416
   93TMC2     H 1452   0.394   2.956  14.186 -1.6095 -2.6510 -2.2191
   93TMC2    H1 1453   0.727   2.796  13.960 -0.0224  2.2499 -2.0256
   93TMC2    H2 1454   0.768   3.149  14.192  0.4243  0.3130 -0.9589
   93TMC2    C7 1455   0.912   2.976  14.042 -0.2862  0.8254 -0.1471
   93TMC2    C8 1456   0.529   3.146  14.274 -0.3539  0.4826  0.2614
   93TMC2    O1 1457   0.970   2.871  14.010 -0.4839 -0.2485  0.0433
   93TMC2    O2 1458   0.598   3.203  14.359 -0.4290  0.1187 -0.2862
   93TMC2    O5 1459   0.413   3.194  14.224 -0.5820  0.4705  0.1327
   93TMC2    H5 1460   0.375   3.141  14.150  1.8726 -1.7403  0.4707
   94MPD2     C 1461   0.288   2.566  13.943  0.4396 -1.0374  0.6190
   94MPD2    C1 1462   0.245   2.698  13.964 -0.0344 -0.2483 -0.1801
   94MPD2    C2 1463   0.109   2.731  13.963 -0.2163  0.4163  0.0067
   94MPD2    C3 1464   0.020   2.628  13.948  0.4615 -0.3283 -0.2330
   94MPD2    C4 1465   0.061   2.499  13.915 -0.0641  0.0323  0.3762
   94MPD2    C5 1466   0.195   2.468  13.916  0.4467 -0.5645 -0.2024
   94MPD2     H 1467   0.081   2.832  13.989  1.3273  0.9177 -0.2808
   94MPD2    H1 1468   4.719   2.424  13.908  1.2170 -1.3992  1.6095
   94MPD2    H2 1469   0.391   2.538  13.962  0.9013  0.2689  0.0156
   94MPD2    H3 1470   0.226   2.366  13.895  0.9483 -0.1886 -1.2884
   94MPD2     N 1471   4.616   2.654  13.956 -0.4318 -0.1538  0.0098
   94MPD2    H5 1472   4.552   2.577  13.968 -1.0283  0.2894 -0.3428
   94MPD2    N1 1473   0.343   2.791  13.996 -0.7179 -0.3448 -0.4525
   94MPD2    H7 1474   0.308   2.878  14.035  0.7161 -0.1132  0.3321
   95TMC2    C1 1475   0.060   4.720  16.164  0.7296 -0.4115  0.4129
   95TMC2    C2 1476   4.733   4.629  16.244 -0.5926  0.1619  0.6463
   95TMC2    C3 1477   4.665   4.678  16.349 -0.7732  0.2677 -0.2305
   95TMC2    C4 1478   0.061   0.119  16.195 -0.6669  0.3340  0.0925
   95TMC2    C5 1479   4.714   0.165  16.300  0.0839  0.3494  0.3672
   95TMC2    C6 1480   4.653   0.074  16.384  0.3859 -0.5058  0.9357
   95TMC2     C 1481   0.157   4.685  16.065  0.9289  0.3063  0.1305
   95TMC2     O 1482   0.244   0.030  16.049  0.3608 -0.3407 -0.7195
   95TMC2     H 1483   0.006   4.521  16.246 -1.1110  0.0793 -1.4903
   95TMC2    H1 1484   0.096   0.194  16.126  2.6849 -1.0857  0.2679
   95TMC2    H2 1485   4.596   0.100  16.473  0.4864 -1.3187  1.2400
   95TMC2    C7 1486   4.679   0.304  16.303 -0.5359  0.9313 -0.1550
   95TMC2    C8 1487   4.597   4.574  16.428  0.0209 -0.2658 -0.0326
   95TMC2    O1 1488   4.707   0.365  16.202  0.9498 -0.0243 -0.3599
   95TMC2    O2 1489   4.645   4.462  16.453 -0.1967  0.0403  0.3386
   95TMC2    O5 1490   4.476   4.585  16.370  0.2060 -0.3928  0.2271
   95TMC2    H5 1491   4.448   4.677  16.352 -0.8373 -1.1587 -2.0804
   96MPD2     C 1492   0.313   4.452  15.636 -0.2581 -0.9078 -0.2955
   96MPD2    C1 1493   0.376   4.559  15.709  0.8529  0.2584 -1.2973
   96MPD2    C2 1494   0.316   4.591  15.831  0.1627 -0.1304 -0.1731
   96MPD2    C3 1495   0.205   4.536  15.878 -0.1619 -0.3358 -0.6279
   96MPD2    C4 1496   0.150   4.432  15.805  0.2713 -0.2597 -0.0273
   96MPD2    C5 1497   0.202   4.395  15.687 -0.4105  0.0518 -0.3810
   96MPD2     H 1498   0.361   4.677  15.880 -0.5708 -0.3591  0.9163
   96MPD2    H1 1499   0.063   4.379  15.844  0.0263 -0.5960 -1.0397
   96MPD2    H2 1500   0.348   4.424  15.537  0.9860 -0.6982  0.0798
   96MPD2    H3 1501   0.161   4.314  15.628 -1.3436  0.1937  0.0778
   96MPD2     N 1502   0.134   4.569  15.996 -0.2691 -0.6981  0.2948
   96MPD2    H5 1503   0.052   4.514  16.022 -0.0046 -0.3941  1.7326
   96MPD2    N1 1504   0.469   4.631  15.633 -0.8537 -0.3832  0.2703
   96MPD2    H7 1505   0.472   4.613  15.534 -0.9281 -1.0617  0.3877
   97TMC2    C1 1506   1.818   3.329   0.166 -0.7356  0.0974  0.9983
   97TMC2    C2 1507   1.807   3.355   0.026  0.2999 -0.2628 -0.3340
   97TMC2    C3 1508   1.918   3.403  17.700 -0.1085 -0.7555 -0.5907
   97TMC2    C4 1509   1.938   3.334   0.227  0.4459  0.0359  0.7488
   97TMC2    C5 1510   2.048   3.378   0.160 -0.5742 -0.2958 -0.5040
   97TMC2    C6 1511   2.038   3.420   0.027 -0.0775 -0.7857  0.1743
   97TMC2     C 1512   1.707   3.324   0.253 -0.2459  0.1960 -0.2320
   97TMC2     O 1513   1.725   3.361   0.367 -0.2977 -0.0797 -0.0880
   97TMC2     H 1514   1.714   3.347  17.710  0.7393 -0.1213 -1.0860
   97TMC2    H1 1515   1.938   3.324   0.335  0.7143 -1.0290  0.6572
   97TMC2    H2 1516   2.125   3.458  17.716 -1.8086  1.5409 -1.0444
   97TMC2    C7 1517   2.170   3.420   0.229 -0.2290 -0.3820 -0.2488
   97TMC2    C8 1518   1.924   3.414  17.559  0.1771 -0.0886  0.0392
   97TMC2    O1 1519   2.246   3.499   0.172 -0.4894  0.3313 -0.3777
   97TMC2    O2 1520   1.998   3.487  17.499 -0.5907  0.4698  0.1738
   97TMC2    O5 1521   1.865   3.300  17.517 -0.1988 -0.3617 -0.1112
   97TMC2    H5 1522   1.842   3.243  17.593 -4.0188  2.2926  0.7410
   98MPD2     C 1523   1.288   3.053   0.409  0.2354 -0.1850  0.3009
   98MPD2    C1 1524   1.391   3.119   0.474  0.2344 -0.4557 -0.1054
   98MPD2    C2 1525   1.490   3.177   0.406  0.1508  0.8602 -0.1401
   98MPD2    C3 1526   1.501   3.176   0.267 -0.4192 -0.9473  0.3874
   98MPD2    C4 1527   1.407   3.096   0.205  0.8584  0.4742 -0.2567
   98MPD2    C5 1528   1.299   3.037   0.272  0.3668  0.1550 -0.8794
   98MPD2     H 1529   1.562   3.238   0.460  1.0300  0.4797 -0.8772
   98MPD2    H1 1530   1.417   3.069   0.100  0.6707  0.1313 -0.1873
   98MPD2    H2 1531   1.207   3.001   0.458 -0.4317  1.6785  1.1626
   98MPD2    H3 1532   1.233   2.976   0.212  0.7432 -2.5547  1.4726
   98MPD2     N 1533   1.607   3.238   0.200  0.1913  0.1667 -0.3446
   98MPD2    H5 1534   1.626   3.200   0.108 -0.1542 -0.4416 -0.1637
   98MPD2    N1 1535   1.397   3.126   0.616 -0.9076  0.5008 -0.0350
   98MPD2    H7 1536   1.318   3.081   0.661  0.0340  0.3194  1.3906
   99TMC2    C1 1537   1.139   0.201   1.759  0.3093  0.0268 -0.0632
   99TMC2    C2 1538   1.220   0.255   1.852 -0.4856 -0.4670 -0.1597
   99TMC2    C3 1539   1.156   0.295   1.969  1.1439 -0.3307  0.3065
   99TMC2    C4 1540   1.010   0.171   1.790  0.4607 -0.3667 -0.7724
   99TMC2    C5 1541   0.953   0.216   1.905 -0.2180 -0.0202  0.1002
   99TMC2    C6 1542   1.024   0.277   2.004 -0.6220 -0.6792 -0.4395
   99TMC2     C 1543   1.205   0.122   1.665  0.1422 -0.1427 -0.6647
   99TMC2     O 1544   1.326   0.138   1.652  0.3994  0.0251  0.1111
   99TMC2     H 1545   1.327   0.270   1.840 -0.8021  1.3286 -0.7166
   99TMC2    H1 1546   0.939   0.115   1.730  1.3994 -1.6210 -0.7123
   99TMC2    H2 1547   0.983   0.295   2.103 -2.3676  1.1319 -1.4836
   99TMC2    C7 1548   0.817   0.166   1.949  0.2595  0.5518 -0.1978
   99TMC2    C8 1549   1.255   0.296   2.082  0.4019  0.0849 -0.0205
   99TMC2    O1 1550   0.785   0.204   2.058 -0.5136  0.2095  0.6060
   99TMC2    O2 1551   1.347   0.215   2.086  0.0805 -0.0515  0.3444
   99TMC2    O5 1552   1.231   0.401   2.167 -0.0843  0.3311  0.5453
   99TMC2    H5 1553   1.146   0.448   2.153 -0.8911 -0.5167  2.6173
  100MPD2     C 1554   1.319   4.598   1.530  0.2497 -0.6916  0.6141
  100MPD2    C1 1555   1.185   4.639   1.534 -0.3853 -0.3940 -0.0647
  100MPD2    C2 1556   1.099   4.566   1.456 -0.9325 -0.0029 -0.6040
  100MPD2    C3 1557   1.134   4.465   1.373  0.6632  0.5404  0.2747
  100MPD2    C4 1558   1.272   4.434   1.369 -0.5393  0.2711  0.4207
  100MPD2    C5 1559   1.363   4.501   1.450 -0.1274 -0.7714 -0.1787
  100MPD2     H 1560   0.998   4.605   1.460 -0.5200  0.9496  0.7192
  100MPD2    H1 1561   1.319   4.357   1.308 -1.1964 -0.1943  0.5043
  100MPD2    H2 1562   1.392   4.651   1.590 -0.4178  0.7847  0.1192
  100MPD2    H3 1563   1.467   4.474   1.438 -0.0247 -1.4255  2.2320
  100MPD2     N 1564   1.037   4.392   1.307 -0.4884  0.3002 -0.1323
  100MPD2    H5 1565   0.940   4.419   1.326  0.1676  3.1277 -0.8062
  100MPD2    N1 1566   1.137   0.012   1.618  0.1356  0.3331 -0.2516
  100MPD2    H7 1567   1.037   0.008   1.636  0.3310 -0.3800  0.6894
  101TMC2    C1 1568   2.189   0.500  12.878  0.1099  0.4631  0.6936
  101TMC2    C2 1569   2.146   0.476  12.750 -0.4138  0.0386 -0.7669
  101TMC2    C3 1570   2.209   0.533  12.644  0.1630 -0.4543  0.6953
  101TMC2    C4 1571   2.290   0.588  12.907  0.3791  0.4180  0.6613
  101TMC2    C5 1572   2.356   0.637  12.801  0.5035 -0.5299 -0.4626
  101TMC2    C6 1573   2.315   0.618  12.666 -0.0714  0.8335 -0.7485
  101TMC2     C 1574   2.128   0.408  12.975 -0.3658  0.1035 -0.2193
  101TMC2     O 1575   2.021   0.342  12.955  0.1431 -0.2317 -1.1031
  101TMC2     H 1576   2.058   0.418  12.724 -0.7302  1.7039 -3.4963
  101TMC2    H1 1577   2.317   0.611  13.010  2.4120  0.1323  0.1856
  101TMC2    H2 1578   2.373   0.657  12.583  1.2348 -1.5290 -0.9557
  101TMC2    C7 1579   2.446   0.747  12.828  1.0000  0.1962 -0.6353
  101TMC2    C8 1580   2.188   0.489  12.509 -0.4999 -0.4232  0.2901
  101TMC2    O1 1581   2.424   0.847  12.763  0.3149  0.1521 -0.4119
  101TMC2    O2 1582   2.083   0.490  12.442 -0.6211  0.9165  0.0895
  101TMC2    O5 1583   2.310   0.463  12.453 -0.2041 -0.0476 -0.2148
  101TMC2    H5 1584   2.380   0.457  12.522 -0.3986 -0.8609 -0.0807
  102MPD2     C 1585   2.306   0.297  13.270 -0.8744  0.3926  1.3574
  102MPD2    C1 1586   2.200   0.300  13.183  1.0539 -0.6591  0.7478
  102MPD2    C2 1587   2.079   0.239  13.220 -0.3110 -0.1355  0.3477
  102MPD2    C3 1588   2.067   0.167  13.334 -0.3003  0.1164 -0.3300
  102MPD2    C4 1589   2.174   0.174  13.420 -0.4678 -0.1733 -0.1267
  102MPD2    C5 1590   2.292   0.228  13.388  0.1859 -0.9587 -0.5785
  102MPD2     H 1591   1.989   0.251  13.161  2.5175  0.4175 -3.8408
  102MPD2    H1 1592   2.169   0.132  13.520 -1.4493 -0.2508 -0.2125
  102MPD2    H2 1593   2.402   0.346  13.257 -0.0222 -1.9009 -0.9725
  102MPD2    H3 1594   2.376   0.225  13.456  1.1930 -0.7986 -1.8290
  102MPD2     N 1595   1.950   0.099  13.371  0.1676  0.0992  0.5290
  102MPD2    H5 1596   1.864   0.105  13.317 -0.8213  0.5332  2.1560
  102MPD2    N1 1597   2.213   0.385  13.075  0.2477  0.3990 -0.2474
  102MPD2    H7 1598   2.309   0.414  13.056  1.4492 -2.8918  0.7963
  103TMC2    C1 1599   0.227   0.336  12.577  0.3072  0.2379 -0.2722
  103TMC2    C2 1600   0.348   0.406  12.591 -0.0219  0.7486 -0.0600
  103TMC2    C3 1601   0.336   0.525  12.656 -1.0569  0.3260  0.1173
  103TMC2    C4 1602   0.112   0.378  12.640 -0.3797  0.4789 -0.3988
  103TMC2    C5 1603   0.111   0.496  12.703  0.0008 -0.3966  0.0585
  103TMC2    C6 1604   0.226   0.569  12.717  0.7574 -0.0404  0.1730
  103TMC2     C 1605   0.207   0.225  12.486 -0.4541 -0.4003  0.1854
  103TMC2     O 1606   0.108   0.224  12.417 -0.3285 -0.5090  0.1798
  103TMC2     H 1607   0.438   0.376  12.538 -1.0794 -2.2348 -0.1561
  103TMC2    H1 1608   0.019   0.326  12.621 -0.8414  0.0225  3.1384
  103TMC2    H2 1609   0.223   0.670  12.756  0.2919 -0.6803  1.8063
  103TMC2    C7 1610   4.714   0.559  12.710  0.4865 -0.7281 -0.0275
  103TMC2    C8 1611   0.450   0.617  12.642  0.1355 -0.0265 -0.6358
  103TMC2    O1 1612   4.627   0.478  12.732  0.1261 -0.4905  0.5398
  103TMC2    O2 1613   0.529   0.603  12.549  0.0102 -0.2573 -0.0099
  103TMC2    O5 1614   0.445   0.721  12.732  0.3334  0.2427 -0.3874
  103TMC2    H5 1615   0.394   0.707  12.815 -0.0024  0.1678 -0.6019
  104MPD2     C 1616   0.404   4.651  12.468  0.4643 -0.4470 -0.5400
  104MPD2    C1 1617   0.314   0.012  12.426 -0.4433  0.0951  0.1926
  104MPD2    C2 1618   0.234   4.721  12.320 -0.0127 -0.4801 -0.5800
  104MPD2    C3 1619   0.240   4.600  12.253  0.0390 -0.6786 -0.6990
  104MPD2    C4 1620   0.334   4.500  12.295 -0.2525 -0.0629  0.0626
  104MPD2    C5 1621   0.415   4.528  12.405  0.2322 -0.0017 -0.0696
  104MPD2     H 1622   0.176   0.058  12.263 -0.3967 -0.3376 -0.0044
  104MPD2    H1 1623   0.347   4.409  12.238 -0.3347 -1.5286  2.3983
  104MPD2    H2 1624   0.464   4.670  12.556  0.4577 -0.2878 -0.5700
  104MPD2    H3 1625   0.497   4.460  12.426  1.3808  1.7614  1.0939
  104MPD2     N 1626   0.147   4.582  12.154 -0.6581  0.3760  0.3679
  104MPD2    H5 1627   0.098   4.666  12.127  0.5267  0.8135 -0.4192
  104MPD2    N1 1628   0.307   0.133  12.504  0.2967 -0.0799  0.1700
  104MPD2    H7 1629   0.379   0.148  12.574  0.0140  4.0533 -0.4335
  105TMC2    C1 1630   0.368   4.278   0.286 -0.8527 -0.3604 -0.0133
  105TMC2    C2 1631   0.399   4.216   0.405 -0.5509 -0.7159 -0.4576
  105TMC2    C3 1632   0.355   4.267   0.524 -0.5638 -0.2221 -0.2475
  105TMC2    C4 1633   0.291   4.395   0.289  0.7547 -0.2596  0.2049
  105TMC2    C5 1634   0.244   4.437   0.410 -0.1939  0.2318  0.1239
  105TMC2    C6 1635   0.274   4.373   0.526  0.6896  0.0057 -0.7523
  105TMC2     C 1636   0.406   4.213   0.159  0.3101  0.5543  0.1685
  105TMC2     O 1637   0.411   4.094   0.152  0.1359  0.7865  0.0258
  105TMC2     H 1638   0.448   4.119   0.413  1.0345  0.2751  1.8453
  105TMC2    H1 1639   0.259   4.442   0.197  1.0335  2.7302  1.6419
  105TMC2    H2 1640   0.215   4.394   0.614 -0.5686  0.8657 -1.7914
  105TMC2    C7 1641   0.162   4.553   0.408 -0.2230  0.1750  0.2307
  105TMC2    C8 1642   0.352   4.183   0.639  0.0994  0.8307  0.3250
  105TMC2    O1 1643   0.076   4.556   0.319 -0.0754  0.2423  0.1347
  105TMC2    O2 1644   0.327   4.064   0.632 -0.0174 -0.1766  0.3824
  105TMC2    O5 1645   0.379   4.250   0.754  1.1772 -0.0973  0.5152
  105TMC2    H5 1646   0.404   4.341   0.729  2.2905 -0.6462 -0.3476
  106MPD2     C 1647   0.578   4.252  17.404 -1.1350  0.0386 -0.3076
  106MPD2    C1 1648   0.607   4.372  17.469 -0.1091 -0.7119  0.2241
  106MPD2    C2 1649   0.565   4.387  17.601 -0.0228 -0.2985  0.2793
  106MPD2    C3 1650   0.503   4.284  17.672  0.0946  0.2102  0.2950
  106MPD2    C4 1651   0.482   4.169  17.603  0.2019 -0.6576  0.3660
  106MPD2    C5 1652   0.525   4.153  17.473 -0.2400  0.2949  0.3649
  106MPD2     H 1653   0.594   4.485  17.638  0.3182 -0.0845 -0.5509
  106MPD2    H1 1654   0.430   4.084  17.644  1.5712 -2.0111 -0.7086
  106MPD2    H2 1655   0.603   4.225  17.302 -1.7767  0.9439 -0.7041
  106MPD2    H3 1656   0.501   4.059  17.425 -0.3831  1.3978 -1.7417
  106MPD2     N 1657   0.453   4.303   0.063  0.4809 -0.1504 -0.2192
  106MPD2    H5 1658   0.463   4.400   0.092  0.9099  0.3731 -2.1293
  106MPD2    N1 1659   0.669   4.476  17.397 -0.7088  0.2779 -0.3031
  106MPD2    H7 1660   0.689   4.566  17.439  1.2048  0.0950 -0.8163
  107TMC2    C1 1661   2.004   3.909  11.320 -0.5061 -0.3504 -0.3119
  107TMC2    C2 1662   1.959   4.035  11.310  0.4867 -0.7935 -0.1800
  107TMC2    C3 1663   1.997   4.096  11.198  0.4087  0.2251 -0.5967
  107TMC2    C4 1664   2.065   3.838  11.224 -0.2215 -0.1679 -0.3667
  107TMC2    C5 1665   2.094   3.899  11.104  0.0899  0.1058  0.0448
  107TMC2    C6 1666   2.058   4.032  11.090 -0.1014 -0.3193  0.2651
  107TMC2     C 1667   1.992   3.862  11.456  0.3557 -0.0365  0.3236
  107TMC2     O 1668   1.900   3.907  11.523 -0.0117  0.1158 -0.1226
  107TMC2     H 1669   1.902   4.092  11.383 -0.2737  1.6622 -2.6622
  107TMC2    H1 1670   2.086   3.734  11.240  3.3567  0.4619 -1.1401
  107TMC2    H2 1671   2.091   4.083  11.001  0.0005  0.0053  0.4877
  107TMC2    C7 1672   2.140   3.825  10.993 -1.1448 -0.2371  0.0139
  107TMC2    C8 1673   1.926   4.217  11.167 -0.0210  0.8151  0.3099
  107TMC2    O1 1674   2.149   3.888  10.891 -0.0529 -0.2340  0.3021
  107TMC2    O2 1675   1.945   4.327  11.214 -0.4010  0.1467 -0.3004
  107TMC2    O5 1676   1.804   4.165  11.140 -0.2695 -0.1370 -0.0957
  107TMC2    H5 1677   1.816   4.067  11.134 -0.6248 -0.3667  3.0433
  108MPD2     C 1678   2.220   3.643  11.656 -0.2838  0.1143 -0.0448
  108MPD2    C1 1679   2.106   3.722  11.631 -0.7690  0.1585  0.4094
  108MPD2    C2 1680   2.023   3.746  11.736 -0.6226  1.1584 -0.2481
  108MPD2    C3 1681   2.037   3.688  11.858  0.0542 -0.1249  0.1819
  108MPD2    C4 1682   2.145   3.611  11.877  0.1755  0.2327 -0.1717
  108MPD2    C5 1683   2.233   3.588  11.779  0.3628 -0.2956  0.3547
  108MPD2     H 1684   1.937   3.809  11.714 -0.4456  2.0602  1.5981
  108MPD2    H1 1685   2.167   3.557  11.968 -1.1644  0.9650  0.5838
  108MPD2    H2 1686   2.294   3.630  11.579  0.1553  2.8784 -0.0857
  108MPD2    H3 1687   2.315   3.518  11.790  0.7072  0.0601  0.0718
  108MPD2     N 1688   1.939   3.688  11.964  0.3729 -0.1192 -0.1590
  108MPD2    H5 1689   1.975   3.654  12.053  0.6604 -2.5095 -1.1873
  108MPD2    N1 1690   2.097   3.779  11.499 -0.2778 -0.4562 -0.0360
  108MPD2    H7 1691   2.170   3.742  11.438  1.6619  1.0272  1.3677
  109TMC2    C1 1692   0.608   2.581   0.548 -0.5057 -0.5647  0.0775
  109TMC2    C2 1693   0.594   2.662   0.439 -0.7696 -0.0561 -0.5434
  109TMC2    C3 1694   0.588   2.798   0.461 -0.4034  0.5463 -0.1343
  109TMC2    C4 1695   0.639   2.627   0.674  0.2400 -0.7843 -0.7017
  109TMC2    C5 1696   0.636   2.758   0.692 -0.0418 -0.9399 -0.5634
  109TMC2    C6 1697   0.623   2.848   0.583  0.6473 -0.2702  0.1734
  109TMC2     C 1698   0.651   2.445   0.512  0.3218 -0.1853 -0.6773
  109TMC2     O 1699   0.610   2.393   0.409  0.2621  0.0757 -0.5541
  109TMC2     H 1700   0.593   2.623   0.338 -0.3533 -0.3075 -0.4494
  109TMC2    H1 1701   0.646   2.555   0.755 -0.0454 -0.4770 -0.4053
  109TMC2    H2 1702   0.648   2.953   0.596 -3.2367  0.4775  1.7132
  109TMC2    C7 1703   0.696   2.817   0.814  0.2755  0.7965  0.0695
  109TMC2    C8 1704   0.603   2.878   0.336 -0.2471  0.1978 -0.2664
  109TMC2    O1 1705   0.718   2.934   0.828 -0.4426 -0.3507 -0.3065
  109TMC2    O2 1706   0.611   2.827   0.226 -0.2512  0.2508 -0.2020
  109TMC2    O5 1707   0.573   3.005   0.365  0.1422 -0.7008  0.5084
  109TMC2    H5 1708   0.553   3.018   0.460 -0.3324 -0.4633  0.3742
  110MPD2     C 1709   0.915   2.010   0.605  0.0557  0.0609 -0.6028
  110MPD2    C1 1710   0.972   2.112   0.681 -0.3187  0.3512 -0.1037
  110MPD2    C2 1711   0.914   2.238   0.677 -0.0309  0.2540  0.2092
  110MPD2    C3 1712   0.809   2.268   0.588 -0.2726  0.6310  0.5954
  110MPD2    C4 1713   0.755   2.165   0.515  1.1329 -0.4538 -0.2055
  110MPD2    C5 1714   0.812   2.042   0.520 -0.0485 -0.4311  0.4895
  110MPD2     H 1715   0.960   2.319   0.731 -0.9494  0.8898  0.0444
  110MPD2    H1 1716   0.675   2.179   0.442 -0.8548  0.4944  2.1391
  110MPD2    H2 1717   0.953   1.908   0.606 -0.0501  0.0209 -0.5936
  110MPD2    H3 1718   0.781   1.965   0.451  0.0956  0.5061 -0.6318
  110MPD2     N 1719   0.747   2.400   0.596 -0.0933  0.8177 -0.0051
  110MPD2    H5 1720   0.809   2.464   0.645 -0.4351 -0.3974  2.0152
  110MPD2    N1 1721   1.091   2.079   0.750  0.1174 -0.0947  0.2213
  110MPD2    H7 1722   1.124   1.984   0.736  0.8467  0.0930  0.6625
  111TMC2    C1 1723   1.956   0.941  11.833  0.5591 -0.3085  0.2160
  111TMC2    C2 1724   1.890   0.905  11.949  0.2154  0.1567 -0.3061
  111TMC2    C3 1725   1.958   0.926  12.063  0.2330  0.2694  0.4566
  111TMC2    C4 1726   2.084   0.982  11.819  0.2302  0.6521  0.0402
  111TMC2    C5 1727   2.141   0.991  11.945 -0.3693  0.0640 -0.1121
  111TMC2    C6 1728   2.081   0.982  12.069  0.3087  0.4094  0.2052
  111TMC2     C 1729   1.906   0.887  11.707 -0.6701 -0.1739 -0.3968
  111TMC2     O 1730   1.970   0.910  11.605 -0.0583 -0.5655  0.3805
  111TMC2     H 1731   1.794   0.854  11.948 -1.1295  2.6577  0.5766
  111TMC2    H1 1732   2.135   0.993  11.724 -1.5322 -0.7172 -1.0776
  111TMC2    H2 1733   2.123   0.989  12.169 -0.1808 -0.9553  0.5113
  111TMC2    C7 1734   2.280   1.003  11.957  0.6283  0.0900 -0.0250
  111TMC2    C8 1735   1.893   0.895  12.188 -0.3217  0.0202 -1.0977
  111TMC2    O1 1736   2.327   1.018  12.070  0.4081 -0.0960  0.2165
  111TMC2    O2 1737   1.956   0.874  12.295  0.0511 -0.5994 -0.6236
  111TMC2    O5 1738   1.764   0.929  12.188 -0.0831  0.2768  0.3211
  111TMC2    H5 1739   1.729   0.972  12.107 -0.2750  0.4474  0.4947
  112MPD2     C 1740   1.474   0.830  11.433 -0.0680 -0.4669 -0.3464
  112MPD2    C1 1741   1.606   0.849  11.396  0.0971  0.4215  0.4674
  112MPD2    C2 1742   1.704   0.850  11.486  0.5707  0.3608  0.3957
  112MPD2    C3 1743   1.676   0.847  11.621  0.0849  0.3180 -0.0628
  112MPD2    C4 1744   1.548   0.826  11.666  0.3673  0.3091  0.0866
  112MPD2    C5 1745   1.448   0.822  11.572  0.3702 -0.2157 -0.5198
  112MPD2     H 1746   1.807   0.860  11.454  1.0247 -0.6419  1.5448
  112MPD2    H1 1747   1.524   0.808  11.770 -1.4719  2.3331  0.0142
  112MPD2    H2 1748   1.389   0.811  11.368  0.7556 -0.7638 -1.3309
  112MPD2    H3 1749   1.346   0.801  11.602  0.2020 -0.6274 -1.3656
  112MPD2     N 1750   1.773   0.854  11.722  0.3909  0.4826 -0.5877
  112MPD2    H5 1751   1.732   0.857  11.815  1.5956 -2.3794  0.0219
  112MPD2    N1 1752   1.643   0.864  11.262  0.1547  0.0679  0.1291
  112MPD2    H7 1753   1.741   0.876  11.241  0.2289  1.0050  1.0467
  113TMC2    C1 1754   4.329   4.487   0.307 -0.0704 -0.5484  0.1122
  113TMC2    C2 1755   4.257   4.598   0.273 -0.3184 -0.1358  0.0821
  113TMC2    C3 1756   4.143   4.584   0.198 -1.4194  0.5188 -0.5130
  113TMC2    C4 1757   4.299   4.366   0.257 -0.2347  0.0178  0.4417
  113TMC2    C5 1758   4.182   4.349   0.187  0.2236 -0.4984  0.3893
  113TMC2    C6 1759   4.103   4.456   0.158  0.0679  0.2254 -0.2415
  113TMC2     C 1760   4.423   4.491   0.421  0.5850  0.0819 -0.1954
  113TMC2     O 1761   4.418   4.596   0.480 -0.4240  0.0954 -0.2957
  113TMC2     H 1762   4.291   4.694   0.310 -0.7546  0.6567 -1.5471
  113TMC2    H1 1763   4.360   4.280   0.279  0.3534  0.6872  1.3977
  113TMC2    H2 1764   4.011   4.438   0.103  0.6604  1.3553 -1.5971
  113TMC2    C7 1765   4.128   4.207   0.170  0.0338  0.4946  0.3400
  113TMC2    C8 1766   4.037   4.680   0.227  0.5638 -0.4951 -0.1146
  113TMC2    O1 1767   4.044   4.186   0.084  0.0597 -0.4253  0.4440
  113TMC2    O2 1768   4.029   4.728   0.340  0.1798 -0.2763 -0.4295
  113TMC2    O5 1769   3.945   4.676   0.126 -0.1469 -0.3358  1.2884
  113TMC2    H5 1770   3.961   4.627   0.043  0.6039  0.1382  1.1475
  114MPD2     C 1771   0.030   4.255   0.719 -0.8241  0.0957  0.7514
  114MPD2    C1 1772   4.705   4.380   0.735 -0.2562  0.2110  0.4210
  114MPD2    C2 1773   4.613   4.424   0.644 -0.2575  0.9429 -0.3933
  114MPD2    C3 1774   4.579   4.341   0.543  0.5447 -0.0324 -0.4777
  114MPD2    C4 1775   4.629   4.217   0.533 -0.7770  0.2965  0.7905
  114MPD2    C5 1776   4.724   4.170   0.618 -0.6295  0.0461  1.0707
  114MPD2     H 1777   4.565   4.521   0.652  0.6001  1.2545  1.0213
  114MPD2    H1 1778   4.609   4.155   0.447  2.2861  2.0084 -1.1617
  114MPD2    H2 1779   0.098   4.221   0.796  1.3416  1.5204 -0.5370
  114MPD2    H3 1780   0.030   4.070   0.607  2.0199  0.9217  2.8586
  114MPD2     N 1781   4.492   4.376   0.438  0.2733 -0.2591 -0.4540
  114MPD2    H5 1782   4.499   4.304   0.367 -0.8779  0.8647 -1.6984
  114MPD2    N1 1783   0.005   4.475   0.831 -0.0555 -0.2273  1.3054
  114MPD2    H7 1784   4.683   4.558   0.838  1.1426  0.7164  0.0018
  115TMC2    C1 1785   0.993   2.270  17.524  0.6005  0.0093 -0.3472
  115TMC2    C2 1786   1.101   2.197  17.576  0.7455 -0.5899  1.1229
  115TMC2    C3 1787   1.164   2.259  17.673 -0.0514  0.0119 -0.3668
  115TMC2    C4 1788   0.971   2.403  17.559  0.5679 -0.9605  0.0200
  115TMC2    C5 1789   1.045   2.465  17.648  0.3999  0.4629  0.3778
  115TMC2    C6 1790   1.145   2.397  17.707  0.1200 -0.0339  0.4900
  115TMC2     C 1791   0.886   2.191  17.479  0.1838  0.2399  0.0402
  115TMC2     O 1792   0.886   2.075  17.513 -0.6849 -0.3459  0.5494
  115TMC2     H 1793   1.122   2.092  17.559  0.0973 -0.5862  0.2346
  115TMC2    H1 1794   0.882   2.455  17.526  1.7128  0.5294 -0.6866
  115TMC2    H2 1795   1.215   2.449   0.032  1.4750 -0.1638 -0.8821
  115TMC2    C7 1796   1.035   2.608  17.669  0.5602 -0.4486  0.2849
  115TMC2    C8 1797   1.287   2.201  17.716 -0.1840  0.3604  0.4117
  115TMC2    O1 1798   1.048   2.648   0.042 -0.9346  0.6058 -0.1005
  115TMC2    O2 1799   1.379   2.270   0.014  0.1335  0.7105  0.1114
  115TMC2    O5 1800   1.233   2.102   0.055 -0.3219 -0.4210  0.3733
  115TMC2    H5 1801   1.180   2.035   0.007 -2.4315  1.0301  0.6715
  116MPD2     C 1802   0.447   2.111  17.242 -0.0757  0.2150  0.9161
  116MPD2    C1 1803   0.515   2.030  17.334 -0.4480  0.9590 -0.2086
  116MPD2    C2 1804   0.625   2.084  17.397 -0.0863 -0.4153  1.0020
  116MPD2    C3 1805   0.673   2.205  17.356 -0.4153  0.3834  0.2930
  116MPD2    C4 1806   0.606   2.283  17.258  0.0920  0.3597  0.0801
  116MPD2    C5 1807   0.493   2.229  17.204  0.5797 -0.5410 -0.6554
  116MPD2     H 1808   0.666   2.026  17.479 -1.2190 -2.9991 -0.2648
  116MPD2    H1 1809   0.646   2.378  17.225  0.8870  0.8104  2.3706
  116MPD2    H2 1810   0.352   2.074  17.207  0.6589 -3.2910  2.6225
  116MPD2    H3 1811   0.446   2.275  17.118  0.2503  1.4327  0.5782
  116MPD2     N 1812   0.796   2.256  17.404  0.1003 -0.4853  0.8943
  116MPD2    H5 1813   0.817   2.347  17.365 -0.5366  0.0693  1.8417
  116MPD2    N1 1814   0.457   1.902  17.370  0.0603  0.0577 -0.3283
  116MPD2    H7 1815   0.369   1.876  17.325 -0.0257 -1.3596  0.6714
  117TMC2    C1 1816   4.511   3.179  14.054  0.5078  0.0359 -0.2452
  117TMC2    C2 1817   4.589   3.094  14.127  0.4900 -1.0387  0.3341
  117TMC2    C3 1818   4.719   3.121  14.139  0.9777  0.4745 -0.3003
  117TMC2    C4 1819   4.558   3.296  14.018  0.3126 -0.1272  0.3424
  117TMC2    C5 1820   4.692   3.318  14.019  0.6714 -0.5370  0.0540
  117TMC2    C6 1821   0.043   3.228  14.082  0.3418 -0.3757  0.2902
  117TMC2     C 1822   4.377   3.135  14.023 -0.3733  0.1846 -0.6941
  117TMC2     O 1823   4.335   3.055  14.105  0.6022 -0.7755 -0.3651
  117TMC2     H 1824   4.551   2.997  14.156  2.7667 -1.5407  1.5638
  117TMC2    H1 1825   4.485   3.367  13.981 -1.9486 -2.6799 -0.0882
  117TMC2    H2 1826   0.150   3.246  14.089  0.2692 -0.0437  0.5426
  117TMC2    C7 1827   0.013   3.444  13.990 -0.1789 -1.0604 -0.3766
  117TMC2    C8 1828   0.078   3.030  14.204  0.0950  0.3755  0.1292
  117TMC2    O1 1829   0.124   3.477  14.035  0.7538 -0.4698  0.0093
  117TMC2    O2 1830   0.184   3.002  14.156 -0.3011  0.9656  0.0230
  117TMC2    O5 1831   0.022   2.980  14.317 -0.3206 -0.3737 -0.4258
  117TMC2    H5 1832   4.696   3.048  14.352 -0.3987 -1.7475  2.1498
  118MPD2     C 1833   4.600   3.707  13.774 -0.1669  0.2649 -0.1626
  118MPD2    C1 1834   4.693   3.653  13.864  0.0899  0.2441  0.2718
  118MPD2    C2 1835   0.053   3.743  13.906  0.3036 -0.4762 -0.5782
  118MPD2    C3 1836   0.079   3.865  13.848  0.2065 -0.7430  0.0593
  118MPD2    C4 1837   4.715   3.914  13.769 -1.0232  0.2755  0.1436
  118MPD2    C5 1838   4.602   3.842  13.745 -0.0649 -0.2832 -0.4742
  118MPD2     H 1839   0.111   3.707  13.991  0.2779 -1.4903 -0.9835
  118MPD2    H1 1840   4.718   4.017  13.735 -1.3702  0.1703 -0.2034
  118MPD2    H2 1841   4.522   3.640  13.739  0.1530  0.8881 -2.0299
  118MPD2    H3 1842   4.526   3.891  13.686 -0.1466 -1.3001 -1.2141
  118MPD2     N 1843   0.192   3.944  13.878 -0.4372  0.0680  0.1050
  118MPD2    H5 1844   0.204   4.032  13.828 -0.3082 -0.2073 -0.3460
  118MPD2    N1 1845   4.669   3.522  13.911  0.2635  0.3561 -0.0775
  118MPD2    H7 1846   4.585   3.480  13.874  0.5504 -0.3922  0.1145
  119TMC2    C1 1847   2.415   4.484  13.347  0.2185 -0.0450  0.8227
  119TMC2    C2 1848   2.438   4.592  13.260  0.1592  0.7390  0.4565
  119TMC2    C3 1849   2.333   4.642  13.195  0.1775  0.2398 -0.5016
  119TMC2    C4 1850   2.285   4.441  13.377  0.6533 -0.6432 -0.5607
  119TMC2    C5 1851   2.186   4.495  13.302 -0.6838 -0.0558  0.2358
  119TMC2    C6 1852   2.203   4.600  13.215  0.3208 -0.0059 -0.2526
  119TMC2     C 1853   2.508   4.463  13.459  0.2265  0.3378 -0.3378
  119TMC2     O 1854   2.451   4.418  13.560 -0.6352 -0.0721  0.4540
  119TMC2     H 1855   2.538   4.631  13.249  0.9329 -1.2325  0.4528
  119TMC2    H1 1856   2.273   4.358  13.446  2.3840  0.6081  1.2676
  119TMC2    H2 1857   2.121   4.634  13.153 -0.0003  0.9054  0.6689
  119TMC2    C7 1858   2.046   4.466  13.336 -0.9621  0.2736  0.6088
  119TMC2    C8 1859   2.338   0.002  13.090  0.5354  0.4175 -0.2224
  119TMC2    O1 1860   1.955   4.497  13.257  0.2478  0.1114 -0.1281
  119TMC2    O2 1861   2.265   4.735  12.992  0.2227 -0.0647  0.3878
  119TMC2    O5 1862   2.466   0.054  13.080 -0.7503  0.1453  0.4253
  119TMC2    H5 1863   2.515   0.065  13.165 -0.8740 -1.9846  0.7523
  120MPD2     C 1864   2.904   4.617  13.736 -0.0790  0.0286  0.1441
  120MPD2    C1 1865   2.770   4.590  13.776  0.3147 -0.3084 -0.5259
  120MPD2    C2 1866   2.683   4.558  13.673 -0.0814  0.0622  0.4392
  120MPD2    C3 1867   2.721   4.538  13.544  1.2675 -0.0124  0.0479
  120MPD2    C4 1868   2.853   4.566  13.512 -0.5241  0.4234  0.2120
  120MPD2    C5 1869   2.941   4.607  13.605 -0.1919  0.0711 -0.0508
  120MPD2     H 1870   2.578   4.553  13.698  0.1586  0.1407  1.4902
  120MPD2    H1 1871   2.893   4.559  13.411 -1.3057 -1.9836  0.0780
  120MPD2    H2 1872   2.980   4.637  13.811  1.0274  0.9770 -1.2366
  120MPD2    H3 1873   3.044   4.601  13.573  0.0223 -1.6881  0.9745
  120MPD2     N 1874   2.633   4.511  13.439 -0.0305 -0.6986  0.0704
  120MPD2    H5 1875   2.668   4.527  13.346 -1.9657  0.5603 -0.4411
  120MPD2    N1 1876   2.732   4.588  13.913  0.0278 -0.3543 -0.1739
  120MPD2    H7 1877   2.810   4.606  13.975 -0.3161 -0.0304  0.1688
  121TMC2    C1 1878   3.886   1.426  14.295 -0.3808 -0.4920  0.0654
  121TMC2    C2 1879   3.816   1.376  14.405 -0.2541 -0.0200  0.1492
  121TMC2    C3 1880   3.694   1.419  14.431  0.8346  0.3279  0.2146
  121TMC2    C4 1881   3.836   1.536  14.232 -0.5196  0.0568  0.1634
  121TMC2    C5 1882   3.707   1.573  14.261 -0.5447  0.1164 -0.0437
  121TMC2    C6 1883   3.632   1.523  14.369 -0.5113  0.1098  0.5422
  121TMC2     C 1884   3.978   1.337  14.221 -0.3598 -0.8245  0.4246
  121TMC2     O 1885   4.041   1.257  14.288 -0.3776  0.2172 -0.2707
  121TMC2     H 1886   3.852   1.288  14.457 -2.1223 -0.7641  0.1975
  121TMC2    H1 1887   3.886   1.581  14.147  0.6668  1.3092  1.5231
  121TMC2    H2 1888   3.533   1.563  14.387 -0.2168  2.0553 -2.0624
  121TMC2    C7 1889   3.659   1.679  14.179  0.0849 -0.1202  0.2323
  121TMC2    C8 1890   3.615   1.334  14.513 -0.6302  0.2244 -0.2458
  121TMC2    O1 1891   3.742   1.755  14.126 -0.4770  0.3770  0.5440
  121TMC2    O2 1892   3.624   1.213  14.515 -0.1942 -0.0063  0.1021
  121TMC2    O5 1893   3.531   1.412  14.580  0.8834  0.2948  0.5142
  121TMC2    H5 1894   3.529   1.507  14.553 -1.6945  0.9541  3.0673
  122MPD2     C 1895   4.137   1.170  14.042 -0.2098  0.3114  0.3631
  122MPD2    C1 1896   4.062   1.276  14.002 -0.2829 -0.5271 -0.3315
  122MPD2    C2 1897   4.076   1.330  13.874  0.3145  0.1034 -1.2079
  122MPD2    C3 1898   4.169   1.273  13.788  0.4371 -0.3578 -0.4971
  122MPD2    C4 1899   4.244   1.166  13.828 -0.1422  0.4986  0.4745
  122MPD2    C5 1900   4.229   1.120  13.955  0.1370 -0.0417 -0.0829
  122MPD2     H 1901   4.014   1.416  13.855  0.2473 -0.2065 -2.4003
  122MPD2    H1 1902   4.330   1.126  13.776 -0.2766 -1.3919  1.7223
  122MPD2    H2 1903   4.135   1.123  14.140 -1.1736  1.5798  0.9550
  122MPD2    H3 1904   4.289   1.033  13.981  0.1469 -0.1938 -0.5913
  122MPD2     N 1905   4.203   1.327  13.664  0.3874  0.0165  0.3893
  122MPD2    H5 1906   4.283   1.276  13.627  1.3131  1.0324  0.9582
  122MPD2    N1 1907   3.982   1.353  14.085  0.3125 -0.3514 -0.2908
  122MPD2    H7 1908   3.911   1.411  14.042  2.3754  1.8518 -0.7036
  123TMC2    C1 1909   3.568   4.345  10.594 -0.6377 -0.2824  0.3437
  123TMC2    C2 1910   3.674   4.281  10.653 -0.1178  0.6178  0.1371
  123TMC2    C3 1911   3.669   4.141  10.644 -0.3002 -1.0030 -0.8868
  123TMC2    C4 1912   3.474   4.278  10.524 -0.6012 -0.4883  0.5571
  123TMC2    C5 1913   3.490   4.142  10.499  0.0159  0.3223 -0.3015
  123TMC2    C6 1914   3.582   4.073  10.570  0.4426  0.6219 -0.4385
  123TMC2     C 1915   3.558   4.491  10.593 -0.6995 -0.4636  0.1141
  123TMC2     O 1916   3.670   4.549  10.595 -0.1754  0.9217 -0.1126
  123TMC2     H 1917   3.749   4.342  10.701  1.3930 -2.8732  2.2267
  123TMC2    H1 1918   3.393   4.326  10.471  0.3864 -0.2385 -0.7302
  123TMC2    H2 1919   3.612   3.975  10.534  1.0389  0.2112  1.1733
  123TMC2    C7 1920   3.367   4.068  10.480 -0.5106  0.0270  0.2532
  123TMC2    C8 1921   3.790   4.073  10.695  0.3558 -0.8117  0.1329
  123TMC2    O1 1922   3.290   4.110  10.397 -0.2157 -0.5024  0.1961
  123TMC2    O2 1923   3.902   4.116  10.677  0.0096 -0.0085 -0.7956
  123TMC2    O5 1924   3.763   3.949  10.739 -0.7483  0.5306  0.1791
  123TMC2    H5 1925   3.669   3.943  10.767 -1.0194  0.7659 -0.6664
  124MPD2     C 1926   3.280   0.182  10.540 -0.1547  0.2131 -0.0189
  124MPD2    C1 1927   3.199   0.080  10.578  0.5666 -0.3467  0.4011
  124MPD2    C2 1928   3.249   4.688  10.591 -0.6523 -0.5345 -0.2316
  124MPD2    C3 1929   3.389   4.668  10.593 -0.1979 -0.5806  0.0349
  124MPD2    C4 1930   3.466   0.038  10.552 -0.9516 -0.6926  0.3324
  124MPD2    C5 1931   3.414   0.167  10.529  0.5233 -0.1294 -0.2232
  124MPD2     H 1932   3.192   4.596  10.595 -2.0980  0.3484 -0.5395
  124MPD2    H1 1933   3.573   0.025  10.538 -0.6664  2.1167 -0.0632
  124MPD2    H2 1934   3.237   0.278  10.515  1.4022  0.7715 -0.5256
  124MPD2    H3 1935   3.486   0.240  10.493 -0.8961  1.5544  0.3284
  124MPD2     N 1936   3.432   4.533  10.608  0.2027 -0.1621 -0.0894
  124MPD2    H5 1937   3.355   4.471  10.630 -0.4768  0.4178 -0.8082
  124MPD2    N1 1938   3.057   0.106  10.585 -0.4836  0.2995  0.1417
  124MPD2    H7 1939   3.022   0.201  10.578 -3.3110 -0.6720  1.0100
  125TMC2    C1 1940   4.322   1.581   9.431 -0.5628 -0.6622  0.0718
  125TMC2    C2 1941   4.324   1.509   9.549  0.9424 -0.6602 -0.0853
  125TMC2    C3 1942   4.366   1.379   9.536 -0.1353  0.2576  0.0334
  125TMC2    C4 1943   4.366   1.540   9.306 -0.2742 -0.4336 -0.0478
  125TMC2    C5 1944   4.400   1.404   9.307  0.3821 -0.5222 -0.1009
  125TMC2    C6 1945   4.395   1.323   9.417  0.0904 -0.3489  0.1316
  125TMC2     C 1946   4.250   1.712   9.443 -0.1674  0.3676  0.2455
  125TMC2     O 1947   4.170   1.731   9.537  0.4058 -0.4362 -0.5916
  125TMC2     H 1948   4.288   1.556   9.639 -2.9555 -1.2895 -1.3117
  125TMC2    H1 1949   4.366   1.604   9.219  1.3790  0.3591  0.5389
  125TMC2    H2 1950   4.405   1.216   9.407  0.8461 -0.3471  0.8024
  125TMC2    C7 1951   4.475   1.349   9.197 -0.7755  0.0393  0.0101
  125TMC2    C8 1952   4.326   1.281   9.636  0.1503 -0.7246 -0.0528
  125TMC2    O1 1953   4.458   1.417   9.095 -0.3284  0.7103 -0.2079
  125TMC2    O2 1954   4.264   1.179   9.608  0.4963  0.1511 -0.0282
  125TMC2    O5 1955   4.341   1.329   9.758 -0.5143  0.6119  0.3226
  125TMC2    H5 1956   4.379   1.420   9.765  1.3813 -0.2218  1.1431
  126MPD1     C 1957   4.122   2.173   9.273 -0.1660 -0.9269  0.0614
  126MPD1    C1 1958   4.228   2.137   9.201  0.8249  0.6211  0.0900
  126MPD1    C2 1959   4.271   2.010   9.222 -0.8325 -0.2698  0.1622
  126MPD1    C3 1960   4.224   1.929   9.326 -0.0965  0.1818 -0.6093
  126MPD1    C4 1961   4.108   1.967   9.391  0.1296 -0.4951  0.3370
  126MPD1    C5 1962   4.060   2.088   9.357 -0.4516 -0.3509 -0.8133
  126MPD1     H 1963   4.351   1.971   9.160  1.2538  1.8158  1.5284
  126MPD1    H1 1964   4.044   1.903   9.451 -1.5842  0.8389 -0.0474
  126MPD1    H2 1965   4.075   2.270   9.261 -1.5713 -1.6124  0.0115
  126MPD1    H3 1966   3.973   2.130   9.406  0.1546 -0.9369  0.7663
  126MPD1     N 1967   4.281   1.800   9.341  0.5842 -0.1039  0.0939
  126MPD1    H5 1968   4.363   1.773   9.287  0.6012  1.3612 -0.6062
  126MPD1    N1 1969   4.254   2.206   9.085 -0.1804 -0.7038  0.9795
  126MPD1    H6 1970   4.231   2.304   9.102 -0.0768  0.0643 -3.2964
  126MPD1    H7 1971   4.338   2.191   9.029  0.7409 -1.3898  2.5451
  127TMC2    C1 1972   4.132   4.711  10.339  0.0275  0.8822 -1.2687
  127TMC2    C2 1973   4.141   4.665  10.471  0.9367  0.7186 -0.2243
  127TMC2    C3 1974   4.065   4.556  10.498 -0.6556  0.0735  0.0165
  127TMC2    C4 1975   4.063   4.639  10.247  0.7189 -0.5457  0.0062
  127TMC2    C5 1976   3.986   4.533  10.277 -0.5170  0.1824  0.0555
  127TMC2    C6 1977   3.984   4.493  10.410 -0.4880  0.7425 -0.1836
  127TMC2     C 1978   4.241   0.060  10.294 -0.1079 -0.1402 -0.3058
  127TMC2     O 1979   4.289   0.138  10.380  0.2166  0.7065  0.3452
  127TMC2     H 1980   4.214   4.699  10.544  0.5584 -0.4940  0.7114
  127TMC2    H1 1981   4.058   4.668  10.142  0.6216  1.8968  0.6840
  127TMC2    H2 1982   3.909   4.419  10.437 -1.4438  1.6948 -0.2295
  127TMC2    C7 1983   3.887   4.494  10.178 -0.0109 -0.1273  0.3209
  127TMC2    C8 1984   4.086   4.479  10.616 -0.5389 -0.4369 -0.0994
  127TMC2    O1 1985   3.865   4.569  10.084  0.6966  0.4195  0.0977
  127TMC2    O2 1986   4.051   4.363  10.633 -0.2572 -0.0110  0.0486
  127TMC2    O5 1987   4.124   4.567  10.707  0.1128  0.4337  0.4777
  127TMC2    H5 1988   4.093   4.649  10.662 -0.8175  0.2450  0.7581
  128MPD2     C 1989   4.389   0.064   9.965 -0.6881 -0.4150  0.2733
  128MPD2    C1 1990   4.381   0.092  10.101 -0.0898 -0.1261  0.0489
  128MPD2    C2 1991   4.479   0.178  10.149 -0.2666  0.3694 -0.3330
  128MPD2    C3 1992   4.594   0.224  10.077  0.2371 -0.3448  0.4243
  128MPD2    C4 1993   4.605   0.175   9.949 -0.5456  0.2425  0.4513
  128MPD2    C5 1994   4.507   0.099   9.902  0.1794 -0.0201 -0.2496
  128MPD2     H 1995   4.470   0.202  10.254 -0.1260  0.1075 -0.2600
  128MPD2    H1 1996   4.691   0.205   9.891  0.3693 -1.0288  1.1397
  128MPD2    H2 1997   4.319   0.000   9.911 -0.1121 -0.6694 -0.1735
  128MPD2    H3 1998   4.521   0.064   9.800  3.4981  0.9045 -0.1152
  128MPD2     N 1999   4.697   0.299  10.148 -0.0130  0.1476 -1.0330
  128MPD2    H5 2000   4.680   0.312  10.248  0.0699 -2.3873 -0.6760
  128MPD2    N1 2001   4.275   0.033  10.168  0.2282  0.8507  0.3790
  128MPD2    H7 2002   4.220   4.704  10.111 -0.1243  0.1380  1.5135
  129TMC2    C1 2003   2.312   1.228   1.933 -0.3211  0.0137 -0.1774
  129TMC2    C2 2004   2.214   1.317   1.904 -0.4164 -0.5764  0.3000
  129TMC2    C3 2005   2.099   1.269   1.851  0.1566  0.1716  0.5635
  129TMC2    C4 2006   2.297   1.090   1.909 -0.4967  0.3178  0.1228
  129TMC2    C5 2007   2.172   1.048   1.866  0.3048 -0.4999  0.0713
  129TMC2    C6 2008   2.068   1.138   1.829 -0.3530 -0.4391  0.0079
  129TMC2     C 2009   2.444   1.256   1.988 -0.0988 -0.4555  0.1254
  129TMC2     O 2010   2.480   1.173   2.072 -0.1021  0.5757 -0.1741
  129TMC2     H 2011   2.226   1.423   1.922  0.2428 -0.3902 -1.2631
  129TMC2    H1 2012   2.384   1.028   1.926 -0.9996 -0.5046 -0.3138
  129TMC2    H2 2013   1.970   1.110   1.792 -1.3476 -0.6080  2.7859
  129TMC2    C7 2014   2.135   0.908   1.861 -0.4353 -0.2873  0.1936
  129TMC2    C8 2015   1.995   1.372   1.830  0.9605  0.0069  0.4136
  129TMC2    O1 2016   2.023   0.885   1.812 -0.4910  0.1637  0.2636
  129TMC2    O2 2017   1.927   1.375   1.725 -0.0267  0.3518 -0.5821
  129TMC2    O5 2018   1.957   1.428   1.944 -0.2430  0.4296  0.6806
  129TMC2    H5 2019   2.007   1.384   2.016  0.2223  0.1552  0.1947
  130MPD2     C 2020   2.701   1.369   2.090  0.1588  0.0321 -0.2238
  130MPD2    C1 2021   2.625   1.436   1.998 -0.4035 -0.1038  0.5036
  130MPD2    C2 2022   2.650   1.569   1.965  0.0115  1.4490 -0.4976
  130MPD2    C3 2023   2.759   1.633   2.014 -0.2480 -0.0349  0.1897
  130MPD2    C4 2024   2.829   1.569   2.118 -0.4019  0.4763 -0.3792
  130MPD2    C5 2025   2.804   1.436   2.156 -0.5382  0.1749  0.0497
  130MPD2     H 2026   2.579   1.625   1.905 -1.1090  0.1189 -0.4324
  130MPD2    H1 2027   2.916   1.612   2.166  1.0731 -1.0854 -1.6703
  130MPD2    H2 2028   2.684   1.265   2.112 -0.3754  0.3966  1.0352
  130MPD2    H3 2029   2.864   1.380   2.228  0.2348  1.1972  0.1952
  130MPD2     N 2030   2.777   1.768   1.984  0.2321 -0.0376  0.2674
  130MPD2    H5 2031   2.729   1.808   1.903 -0.9674  0.9704  1.4790
  130MPD2    N1 2032   2.507   1.375   1.947  0.2601 -0.3382  0.0871
  130MPD2    H7 2033   2.462   1.444   1.888 -1.5704 -0.1516  1.6930
  131TMC2    C1 2034   2.289   0.880  11.019  0.0497 -0.1277  0.1505
  131TMC2    C2 2035   2.175   0.864  11.092 -1.1820  0.1000  0.1273
  131TMC2    C3 2036   2.149   0.954  11.194  0.3250 -0.4683 -0.5329
  131TMC2    C4 2037   2.373   0.981  11.040 -0.2804 -0.3409 -0.5465
  131TMC2    C5 2038   2.334   1.080  11.126  0.0171 -0.4241  0.4819
  131TMC2    C6 2039   2.230   1.068  11.208  0.7495 -0.3344  1.1247
  131TMC2     C 2040   2.331   0.776  10.927  0.6942 -0.5346  0.2417
  131TMC2     O 2041   2.276   0.669  10.925  0.0989  0.1068 -0.5315
  131TMC2     H 2042   2.103   0.790  11.058 -2.2933  1.4358 -0.3838
  131TMC2    H1 2043   2.471   0.981  10.994 -0.0166  2.4770  0.0128
  131TMC2    H2 2044   2.204   1.148  11.276  0.8700  2.5506 -2.2457
  131TMC2    C7 2045   2.423   1.189  11.140 -0.4157 -0.3442 -0.5058
  131TMC2    C8 2046   2.021   0.955  11.261  0.7721  0.1384 -0.5100
  131TMC2    O1 2047   2.443   1.236  11.251 -0.1720  0.3338  0.6517
  131TMC2    O2 2048   1.972   1.066  11.280 -0.4980  0.0517 -0.2240
  131TMC2    O5 2049   1.958   0.835  11.240 -0.3239  1.1658  0.3511
  131TMC2    H5 2050   2.029   0.768  11.229  0.0699  2.0396 -2.3536
  132MPD2     C 2051   2.539   0.848  10.630 -0.3076 -0.3345  0.0403
  132MPD2    C1 2052   2.469   0.772  10.716 -0.3989  0.0280  0.0135
  132MPD2    C2 2053   2.480   0.634  10.701 -0.3691  0.3091  0.3486
  132MPD2    C3 2054   2.557   0.577  10.606  0.1744 -0.2731 -0.1275
  132MPD2    C4 2055   2.626   0.665  10.517  0.4290  0.1046 -0.1742
  132MPD2    C5 2056   2.610   0.799  10.523  0.1470 -0.7290  0.3674
  132MPD2     H 2057   2.440   0.566  10.776  0.0748 -0.1775  0.1482
  132MPD2    H1 2058   2.669   0.633  10.423 -1.0954  0.6768 -1.0731
  132MPD2    H2 2059   2.542   0.956  10.640  0.0011 -0.2974 -0.4425
  132MPD2    H3 2060   2.652   0.855  10.440  0.5284 -0.7602  0.5414
  132MPD2     N 2061   2.558   0.435  10.603  0.1106 -0.3008  0.0260
  132MPD2    H5 2062   2.510   0.389  10.679 -3.3509  1.1561 -1.2789
  132MPD2    N1 2063   2.398   0.837  10.820  0.0894  0.0099  0.1359
  132MPD2    H7 2064   2.394   0.938  10.814  1.3044 -0.0356 -1.5472
  133TMC2    C1 2065   0.567   4.028   9.073 -0.4561 -0.3531 -0.4588
  133TMC2    C2 2066   0.673   4.000   8.994  0.1271  0.2810 -0.1514
  133TMC2    C3 2067   0.668   3.882   8.915  0.3226 -0.1023 -0.5420
  133TMC2    C4 2068   0.455   3.943   9.088 -0.2081  0.7244 -0.1952
  133TMC2    C5 2069   0.454   3.825   9.004 -0.2143  0.3040 -0.0831
  133TMC2    C6 2070   0.559   3.796   8.915 -0.0105 -0.3845  0.2893
  133TMC2     C 2071   0.563   4.168   9.112  0.9901 -0.2864  0.2647
  133TMC2     O 2072   0.652   4.245   9.078  0.5471 -0.2105 -0.1350
  133TMC2     H 2073   0.761   4.063   8.987 -0.7818  1.4767 -0.9727
  133TMC2    H1 2074   0.359   3.973   9.126  0.5045  1.7686  0.7756
  133TMC2    H2 2075   0.562   3.708   8.853 -0.1876 -0.3323  0.2078
  133TMC2    C7 2076   0.327   3.756   9.009  0.2971  0.5491 -0.6457
  133TMC2    C8 2077   0.784   3.851   8.829  0.0414  0.1919 -0.6242
  133TMC2    O1 2078   0.227   3.812   9.057  0.1406 -0.2057  0.2969
  133TMC2    O2 2079   0.811   3.740   8.786  0.0830 -0.4023  0.9904
  133TMC2    O5 2080   0.830   3.967   8.771  0.2127  0.1358 -0.1861
  133TMC2    H5 2081   0.781   4.041   8.813  2.5448  1.2580  0.5633
  134MPD2     C 2082   0.287   4.326   9.303 -0.6468 -0.0270 -0.2728
  134MPD2    C1 2083   0.418   4.320   9.253  0.0982  0.4149  0.4621
  134MPD2    C2 2084   0.496   4.431   9.267 -0.0924 -0.3048  1.0445
  134MPD2    C3 2085   0.450   4.550   9.310  0.2055 -0.3105  0.3516
  134MPD2    C4 2086   0.328   4.562   9.373  0.3017 -0.6593 -0.0800
  134MPD2    C5 2087   0.250   4.446   9.363  0.4373 -0.5342 -0.6370
  134MPD2     H 2088   0.596   4.412   9.230  0.0697  2.3221  0.0901
  134MPD2    H1 2089   0.296   4.656   9.418  0.0036 -0.1129 -1.4082
  134MPD2    H2 2090   0.219   4.241   9.301  0.2482 -0.7175 -1.2800
  134MPD2    H3 2091   0.153   4.430   9.409  0.1942 -0.0815 -0.9852
  134MPD2     N 2092   0.521   4.669   9.303  0.3270 -0.4653  0.8284
  134MPD2    H5 2093   0.484   0.021   9.341 -0.3359 -1.1010  1.6302
  134MPD2    N1 2094   0.451   4.193   9.188  0.5332  0.2729  0.1215
  134MPD2    H7 2095   0.378   4.122   9.187 -1.1231  1.9867 -0.7679
  135TMC2    C1 2096   3.323   2.451   9.191 -0.1358  0.4431 -0.4150
  135TMC2    C2 2097   3.227   2.545   9.184  0.8047 -0.5274 -0.3889
  135TMC2    C3 2098   3.100   2.497   9.186 -0.1550 -0.1609  0.9294
  135TMC2    C4 2099   3.301   2.322   9.225  0.6637 -0.0687  0.5072
  135TMC2    C5 2100   3.172   2.281   9.229 -0.5780  0.4660  0.3527
  135TMC2    C6 2101   3.065   2.369   9.194 -0.8002  0.2686 -0.4705
  135TMC2     C 2102   3.463   2.487   9.158  0.1648 -0.3432 -0.3879
  135TMC2     O 2103   3.492   2.605   9.154  0.0677  0.3731 -0.1756
  135TMC2     H 2104   3.246   2.650   9.162 -2.6747  0.4016  0.8906
  135TMC2    H1 2105   3.381   2.249   9.231 -1.2263 -1.8310  4.5656
  135TMC2    H2 2106   2.959   2.343   9.199 -0.2108 -1.9689  0.3802
  135TMC2    C7 2107   3.136   2.142   9.236  0.3139  0.2212 -0.4763
  135TMC2    C8 2108   2.994   2.588   9.143 -0.7409 -0.3373 -0.3690
  135TMC2    O1 2109   3.041   2.105   9.171 -0.0968 -0.1751 -0.3266
  135TMC2    O2 2110   2.899   2.552   9.069 -0.4520 -0.2877  0.4264
  135TMC2    O5 2111   3.000   2.700   9.217 -0.0218 -0.1510 -0.0506
  135TMC2    H5 2112   3.080   2.702   9.274 -0.0042  0.0755 -0.0838
  136MPD2     C 2113   3.764   2.493   9.133 -0.5077  0.1138 -0.2859
  136MPD2    C1 2114   3.683   2.382   9.114 -0.1401 -0.4994  0.7607
  136MPD2    C2 2115   3.743   2.258   9.068 -0.0127 -0.1850 -0.0951
  136MPD2    C3 2116   3.874   2.252   9.034  0.7145 -0.7649  0.2027
  136MPD2    C4 2117   3.946   2.367   9.045 -0.0887 -0.2982  0.1505
  136MPD2    C5 2118   3.898   2.490   9.092 -0.0835  0.3520 -1.1975
  136MPD2     H 2119   3.672   2.178   9.084 -0.2374 -0.2254 -1.3181
  136MPD2    H1 2120   4.050   2.365   9.016 -0.3848 -3.7872 -0.6417
  136MPD2    H2 2121   3.729   2.584   9.179 -3.2100 -0.1803 -1.7878
  136MPD2    H3 2122   3.958   2.580   9.098 -0.6435  0.4453  2.8230
  136MPD2     N 2123   3.947   2.137   8.995 -0.8298  0.7886 -0.1485
  136MPD2    H5 2124   4.048   2.143   9.001 -0.7078 -3.5864  2.3452
  136MPD2    N1 2125   3.541   2.377   9.132  0.6229 -0.2495 -0.0617
  136MPD2    H7 2126   3.493   2.289   9.116  0.8424 -0.4187  0.2100
  137TMC2    C1 2127   3.029   0.268   9.859 -0.4921  0.3292 -0.3825
  137TMC2    C2 2128   2.981   0.156   9.794  0.9699 -0.5474  0.3777
  137TMC2    C3 2129   2.840   0.144   9.795  0.4940  0.2215 -0.4351
  137TMC2    C4 2130   2.949   0.377   9.896  0.1010 -0.2069 -0.3298
  137TMC2    C5 2131   2.814   0.360   9.869 -0.0602 -0.5241 -0.5549
  137TMC2    C6 2132   2.756   0.251   9.822  0.4170 -0.5590  0.1381
  137TMC2     C 2133   3.175   0.278   9.873  0.3603  0.2141  0.0780
  137TMC2     O 2134   3.216   0.381   9.922  0.3950  0.1677 -0.0398
  137TMC2     H 2135   3.033   0.066   9.764  2.0612 -0.5764  2.3789
  137TMC2    H1 2136   2.997   0.465   9.937 -1.4685 -0.1713  1.4224
  137TMC2    H2 2137   2.649   0.237   9.831  0.2243  0.3216 -0.8622
  137TMC2    C7 2138   2.742   0.476   9.837 -0.8070 -0.0547 -0.2262
  137TMC2    C8 2139   2.790   0.017   9.754 -0.1408  1.0064  0.3758
  137TMC2    O1 2140   2.643   0.454   9.765 -0.3365  0.2644  0.4031
  137TMC2    O2 2141   2.862   4.678   9.690  0.0309  0.4760  0.0344
  137TMC2    O5 2142   2.689   4.712   9.834  0.2605  0.6453  0.3035
  137TMC2    H5 2143   2.675   0.037   9.910 -0.4244  1.3482 -0.3848
  138MPD2     C 2144   3.435   0.019   9.854 -0.5240  0.6714  0.2213
  138MPD2    C1 2145   3.387   0.145   9.848  0.2383  0.1783 -0.6454
  138MPD2    C2 2146   3.466   0.256   9.836 -0.1742  0.2645  0.0466
  138MPD2    C3 2147   3.602   0.234   9.828  0.4246  0.0467 -0.9062
  138MPD2    C4 2148   3.652   0.107   9.824 -0.0024 -0.2095  0.2989
  138MPD2    C5 2149   3.569   0.000   9.841 -0.1414 -0.3374 -0.4442
  138MPD2     H 2150   3.435   0.359   9.854  1.7564  0.8168  0.2444
  138MPD2    H1 2151   3.757   0.082   9.820  0.3771  1.4579 -0.0566
  138MPD2    H2 2152   3.370   4.668   9.866  0.7497 -0.3349 -0.0525
  138MPD2    H3 2153   3.609   4.635   9.844  2.4742  0.7548  1.1045
  138MPD2     N 2154   3.693   0.343   9.825 -0.1072  0.2981  0.4058
  138MPD2    H5 2155   3.652   0.434   9.845 -0.2728  0.1472  0.7403
  138MPD2    N1 2156   3.243   0.161   9.861  0.1452  0.0085  0.3780
  138MPD2    H7 2157   3.194   0.072   9.855 -1.5660  1.0273 -0.7723
  139TMC2    C1 2158   3.866   4.074  13.149 -0.9708 -0.2703 -0.5043
  139TMC2    C2 2159   3.876   4.115  13.024 -0.2628 -0.2422 -0.1205
  139TMC2    C3 2160   3.775   4.196  12.983 -0.5902  0.1308  0.3186
  139TMC2    C4 2161   3.766   4.107  13.234 -0.3539  0.0581 -0.0871
  139TMC2    C5 2162   3.668   4.196  13.193  0.2725  0.0122  0.0474
  139TMC2    C6 2163   3.665   4.230  13.059  0.9640  0.7864 -0.1990
  139TMC2     C 2164   3.967   3.988  13.192 -0.4115  0.1763  0.9237
  139TMC2     O 2165   4.022   3.915  13.104 -0.6747 -0.0636  0.2793
  139TMC2     H 2166   3.969   4.100  12.969  2.0410  0.4787  3.6003
  139TMC2    H1 2167   3.771   4.079  13.338 -1.0944 -0.1695 -0.1109
  139TMC2    H2 2168   3.593   4.305  13.028  0.5057  0.3097 -0.2898
  139TMC2    C7 2169   3.574   4.246  13.285 -0.0670  0.0624 -0.2318
  139TMC2    C8 2170   3.753   4.209  12.836 -0.1018  0.2113 -0.1452
  139TMC2    O1 2171   3.518   4.351  13.257 -0.3775 -0.1344  0.5588
  139TMC2    O2 2172   3.640   4.233  12.814  0.3963  0.0394  0.2102
  139TMC2    O5 2173   3.847   4.131  12.766  0.4180  0.8284 -0.3610
  139TMC2    H5 2174   3.938   4.163  12.783  1.2530 -1.2127 -1.0765
  140MPD2     C 2175   4.082   3.913  13.537  0.1850 -0.1257 -0.3673
  140MPD2    C1 2176   4.087   3.906  13.399  0.7874  0.2586  0.5887
  140MPD2    C2 2177   4.195   3.840  13.335 -0.0954  0.6861 -0.8123
  140MPD2    C3 2178   4.292   3.777  13.407  0.2616  0.0962 -0.6357
  140MPD2    C4 2179   4.277   3.777  13.547 -0.3752  0.2320 -0.8548
  140MPD2    C5 2180   4.179   3.852  13.609  1.0783 -0.9760  0.4898
  140MPD2     H 2181   4.213   3.845  13.228 -1.9746  0.2677 -1.1513
  140MPD2    H1 2182   4.343   3.724  13.615  0.1470  2.1977  0.1479
  140MPD2    H2 2183   4.003   3.964  13.591 -0.5575 -1.1274 -0.5078
  140MPD2    H3 2184   4.161   3.857  13.716 -0.3153  1.4187  0.1448
  140MPD2     N 2185   4.393   3.703  13.335 -0.4142  0.7459 -0.0892
  140MPD2    H5 2186   4.403   3.721  13.236 -1.2562  1.8858  0.0404
  140MPD2    N1 2187   3.994   3.986  13.330  0.2465 -0.5956 -0.3295
  140MPD2    H7 2188   3.941   4.053  13.386 -2.3241 -2.9519  0.0640
  141TMC2    C1 2189   4.429   0.548  14.039  0.6119  0.2915 -0.5769
  141TMC2    C2 2190   4.447   0.490  14.168 -0.0093  0.3766  0.1314
  141TMC2    C3 2191   4.493   0.578  14.267 -0.8479 -0.1119  0.3105
  141TMC2    C4 2192   4.458   0.675  14.008  0.1151 -0.0549 -0.1301
  141TMC2    C5 2193   4.509   0.754  14.114  0.6347 -0.0466 -0.1798
  141TMC2    C6 2194   4.523   0.712  14.242  0.4284 -0.5588  0.0970
  141TMC2     C 2195   4.384   0.459  13.939 -0.2272 -0.0175  0.2276
  141TMC2     O 2196   4.411   0.342  13.956  0.2399  0.3052 -0.6392
  141TMC2     H 2197   4.444   0.384  14.188 -0.7051  0.5297  0.8718
  141TMC2    H1 2198   4.445   0.709  13.906 -0.9495  1.9957  0.7001
  141TMC2    H2 2199   4.553   0.783  14.319  0.4718 -0.0737 -0.3664
  141TMC2    C7 2200   4.565   0.877  14.066 -0.0237 -0.4092 -0.0851
  141TMC2    C8 2201   4.524   0.536  14.400 -0.4103  0.0368  0.2941
  141TMC2    O1 2202   4.516   0.926  13.963 -0.3376  0.0524  0.3007
  141TMC2    O2 2203   4.599   0.601  14.472 -0.1060 -0.2874  0.0322
  141TMC2    O5 2204   4.416   0.465  14.440 -0.0286 -0.5646 -0.1439
  141TMC2    H5 2205   4.364   0.423  14.368 -0.0201 -0.4223 -0.2327
  142TMC2    C1 2206   2.572   3.715  10.216 -1.1671  0.1615 -0.1143
  142TMC2    C2 2207   2.531   3.794  10.104  0.2869  0.4872  0.3813
  142TMC2    C3 2208   2.609   3.899  10.076  0.5820  0.3156 -0.7119
  142TMC2    C4 2209   2.680   3.747  10.292 -0.4884  0.4011  0.6007
  142TMC2    C5 2210   2.758   3.852  10.247  0.3828 -0.0783  0.4417
  142TMC2    C6 2211   2.719   3.934  10.152 -0.4039  0.4869  0.0387
  142TMC2     C 2212   2.502   3.592  10.243 -0.4743 -0.6586  0.5418
  142TMC2     O 2213   2.385   3.591  10.209  0.5797 -0.1173  0.2304
  142TMC2     H 2214   2.454   3.754  10.038 -0.0366  2.1213 -0.2146
  142TMC2    H1 2215   2.712   3.680  10.372  1.4331 -0.0923 -0.5679
  142TMC2    H2 2216   2.778   4.022  10.130 -1.5430  0.8753 -1.4895
  142TMC2    C7 2217   2.898   3.858  10.285  0.1108 -0.4836 -0.0125
  142TMC2    C8 2218   2.580   3.981   9.957 -0.1300 -0.2297 -0.3611
  142TMC2    O1 2219   2.955   3.963  10.259 -0.5523 -0.4230 -0.4949
  142TMC2    O2 2220   2.675   4.027   9.900 -0.0364 -0.3531  0.0187
  142TMC2    O5 2221   2.459   3.957   9.906 -0.7179 -0.2159  0.1537
  142TMC2    H5 2222   2.398   3.920   9.974 -0.1673  0.0116  0.7614
  143MPD2     C 2223   2.458   3.127  10.447  0.1485 -0.2381  0.1934
  143MPD2    C1 2224   2.362   3.229  10.428 -0.3339  0.2412 -0.3213
  143MPD2    C2 2225   2.407   3.347  10.371  0.2274  0.3123 -0.4896
  143MPD2    C3 2226   2.536   3.362  10.328  0.0108 -0.4543 -0.1543
  143MPD2    C4 2227   2.629   3.266  10.355 -1.0040  0.0658  0.4543
  143MPD2    C5 2228   2.590   3.148  10.415 -0.1176  0.0204  0.2538
  143MPD2     H 2229   2.340   3.432  10.361 -0.6457 -0.4391 -0.9908
  143MPD2    H1 2230   2.736   3.274  10.341 -1.0382 -2.0620 -1.0767
  143MPD2    H2 2231   2.433   3.033  10.495 -2.0853  0.1775 -0.1218
  143MPD2    H3 2232   2.669   3.076  10.433 -0.6401 -0.6780 -0.2192
  143MPD2     N 2233   2.580   3.490  10.282  0.3471  0.2121 -0.3764
  143MPD2    H5 2234   2.677   3.494  10.253  0.3450  3.6820  0.0740
  143MPD2    N1 2235   2.225   3.201  10.455  0.5126 -0.8645 -0.2874
  143MPD2    H7 2236   2.209   3.108  10.492  1.2581 -2.5164 -4.0855
  144TMC2    C1 2237   0.437   3.522   0.665 -0.4730 -0.5037  0.5686
  144TMC2    C2 2238   0.523   3.458   0.582  0.2394  0.0664 -0.2139
  144TMC2    C3 2239   0.656   3.491   0.600  0.8247  0.6829 -0.2168
  144TMC2    C4 2240   0.477   3.604   0.771  0.3556 -0.4729 -0.5243
  144TMC2    C5 2241   0.616   3.625   0.789  0.1381  0.2483  0.1520
  144TMC2    C6 2242   0.700   3.573   0.696 -0.3575 -0.5862 -0.3738
  144TMC2     C 2243   0.299   3.500   0.634 -0.0402  0.7071  0.3181
  144TMC2     O 2244   0.278   3.401   0.571 -0.3094 -0.1058  0.2534
  144TMC2     H 2245   0.500   3.398   0.495 -1.1153  1.0930 -0.5632
  144TMC2    H1 2246   0.414   3.628   0.855  0.4965 -0.6199 -0.3761
  144TMC2    H2 2247   0.807   3.589   0.692 -0.6847  1.6999 -0.0954
  144TMC2    C7 2248   0.670   3.667   0.918 -0.5058 -0.9134  0.1795
  144TMC2    C8 2249   0.742   3.448   0.494  0.1507 -0.2626 -0.4519
  144TMC2    O1 2250   0.776   3.615   0.936  0.1014  0.2118  0.8278
  144TMC2    O2 2251   0.714   3.426   0.378  0.5011 -0.3225 -0.4737
  144TMC2    O5 2252   0.863   3.419   0.540  0.4204 -0.1469 -0.4449
  144TMC2    H5 2253   0.859   3.420   0.638 -1.6098 -0.4466 -0.5212
  145MPD2     C 2254   4.590   3.690   0.463  0.5340 -0.4666 -0.4608
  145MPD2    C1 2255   4.633   3.561   0.485 -0.7277 -0.0454  0.5893
  145MPD2    C2 2256   0.014   3.538   0.554  0.6865  0.3926  0.5730
  145MPD2    C3 2257   0.094   3.640   0.599 -0.7230  0.6877 -0.3195
  145MPD2    C4 2258   0.052   3.771   0.571 -0.1802 -0.9683 -0.3658
  145MPD2    C5 2259   4.666   3.790   0.511  0.0655 -0.3881  0.5507
  145MPD2     H 2260   0.034   3.432   0.565 -2.4070 -0.1686  0.7210
  145MPD2    H1 2261   0.113   3.857   0.594 -1.9248 -0.1050  1.0474
  145MPD2    H2 2262   4.499   3.718   0.412 -0.3220  0.9054  1.8367
  145MPD2    H3 2263   4.622   3.887   0.488  1.1003  0.0678  0.4997
  145MPD2     N 2264   0.226   3.616   0.646 -0.1328  0.1264 -0.6129
  145MPD2    H5 2265   0.275   3.699   0.678 -0.6982  0.9058 -1.7869
  145MPD2    N1 2266   4.563   3.447   0.430 -0.4802 -0.1246 -0.3259
  145MPD2    H7 2267   4.601   3.355   0.451  0.2542  0.6227  1.6195
  146TMC2    C1 2268   2.201   1.340  11.950 -0.1924  0.2632 -0.2560
  146TMC2    C2 2269   2.229   1.329  11.822 -0.4647  0.1491 -0.3467
  146TMC2    C3 2270   2.354   1.348  11.770 -0.9464  0.5465  0.4692
  146TMC2    C4 2271   2.295   1.403  12.021 -0.9135 -0.3273 -0.6510
  146TMC2    C5 2272   2.419   1.428  11.970  0.1943 -0.2462 -0.0177
  146TMC2    C6 2273   2.451   1.402  11.844  0.0718  0.1490  0.3826
  146TMC2     C 2274   2.070   1.314  11.998 -0.3448  0.0985  0.4507
  146TMC2     O 2275   1.983   1.305  11.913 -0.5641  0.4788 -0.3083
  146TMC2     H 2276   2.154   1.277  11.763  0.7607 -0.7942 -1.0674
  146TMC2    H1 2277   2.268   1.455  12.112 -0.8518 -0.0687 -0.7778
  146TMC2    H2 2278   2.552   1.422  11.811 -0.9181  2.0568 -1.4807
  146TMC2    C7 2279   2.521   1.487  12.052 -1.0536  0.4482  0.3193
  146TMC2    C8 2280   2.363   1.321  11.628  0.1671  0.8173  0.1852
  146TMC2    O1 2281   2.599   1.564  11.997 -0.3631 -0.2321 -0.2705
  146TMC2    O2 2282   2.266   1.312  11.556 -0.3450 -0.1033  0.1037
  146TMC2    O5 2283   2.490   1.324  11.588  0.1585 -0.4994 -0.4438
  146TMC2    H5 2284   2.560   1.312  11.655 -0.4661  1.5224  0.5510
  147MPD2     C 2285   2.757   1.473  12.505 -0.3648 -0.1146 -0.1239
  147MPD2    C1 2286   2.629   1.425  12.523 -0.5650 -0.5091  0.0565
  147MPD2    C2 2287   2.552   1.404  12.406 -0.4395  0.1580  0.0138
  147MPD2    C3 2288   2.598   1.448  12.284  0.1588  0.6759 -0.7526
  147MPD2    C4 2289   2.716   1.520  12.278 -0.0737 -0.6883 -0.2922
  147MPD2    C5 2290   2.797   1.532  12.387 -0.1038 -0.0557  0.1150
  147MPD2     H 2291   2.462   1.345  12.414 -0.9967  0.7782 -1.6498
  147MPD2    H1 2292   2.759   1.564  12.189  2.8938 -1.0509  0.9689
  147MPD2    H2 2293   2.818   1.478  12.594 -0.4701 -0.7154 -0.0173
  147MPD2    H3 2294   2.894   1.578  12.376  0.7974 -2.4209 -1.7403
  147MPD2     N 2295   2.517   1.432  12.177  0.2990 -0.3822 -0.5676
  147MPD2    H5 2296   2.433   1.376  12.191 -0.0207 -0.3198 -2.1904
  147MPD2    N1 2297   2.600   1.364  12.653 -0.1658  0.3814 -0.6768
  147MPD2    H7 2298   2.670   1.369  12.726  0.2479  0.8696 -1.1136
  148TMC2    C1 2299   1.766   0.246  10.567  0.0745 -0.1341  0.0519
  148TMC2    C2 2300   1.879   0.304  10.596  0.1084 -0.9574 -0.5954
  148TMC2    C3 2301   1.998   0.226  10.604 -0.4388 -0.5386  0.5127
  148TMC2    C4 2302   1.753   0.108  10.558  0.1265  0.1105  0.1014
  148TMC2    C5 2303   1.864   0.035  10.575  0.4975  0.0021  0.1525
  148TMC2    C6 2304   1.991   0.091  10.586  0.1662 -0.0124  0.5218
  148TMC2     C 2305   1.671   0.334  10.492  0.2268  0.6045  0.4015
  148TMC2     O 2306   1.677   0.457  10.515  0.0871  0.9685  0.8488
  148TMC2     H 2307   1.890   0.410  10.580  2.0249 -0.9235  0.8604
  148TMC2    H1 2308   1.651   0.073  10.544  0.2685 -0.5936  0.8471
  148TMC2    H2 2309   2.087   0.043  10.604  0.8272  1.4092  0.8458
  148TMC2    C7 2310   1.855   4.630  10.539  0.3987  0.3011  0.0492
  148TMC2    C8 2311   2.128   0.282  10.591  0.3801  0.6748  0.4192
  148TMC2    O1 2312   1.766   4.592  10.461 -0.1023 -0.3254  0.2925
  148TMC2    O2 2313   2.218   0.225  10.533  0.5302  0.0422 -0.4497
  148TMC2    O5 2314   2.154   0.380  10.684 -0.2622 -0.3686  0.7357
  148TMC2    H5 2315   2.070   0.398  10.731 -0.7988 -1.2470  0.1332
  149MPD2     C 2316   1.471   0.448  10.326  0.1880  0.2966 -0.0396
  149MPD2    C1 2317   1.512   0.313  10.310 -0.0238  0.2822 -0.2150
  149MPD2    C2 2318   1.444   0.241  10.219 -0.1194  0.2854  0.1392
  149MPD2    C3 2319   1.350   0.287  10.136 -0.0773  0.3854 -0.7663
  149MPD2    C4 2320   1.307   0.416  10.155  0.3363 -0.6087  0.6256
  149MPD2    C5 2321   1.369   0.495  10.248 -0.1761 -0.2623  0.6548
  149MPD2     H 2322   1.486   0.142  10.206 -1.4003 -0.2009 -0.2983
  149MPD2    H1 2323   1.219   0.447  10.102  0.5119 -3.7195 -1.4368
  149MPD2    H2 2324   1.499   0.515  10.406  0.7154 -1.0838  0.9405
  149MPD2    H3 2325   1.333   0.593  10.279  0.7003  0.3121 -0.1269
  149MPD2     N 2326   1.285   0.200  10.037  0.0071 -0.3014 -0.2984
  149MPD2    H5 2327   1.207   0.235   9.982  0.5341  0.4299 -0.5922
  149MPD2    N1 2328   1.609   0.257  10.392 -0.3401  0.0551 -0.3414
  149MPD2    H7 2329   1.639   0.163  10.368  1.4174  0.9743 -1.7701
  150TMC2    C1 2330   3.732   4.462  12.077 -0.1296  0.4427 -0.3598
  150TMC2    C2 2331   3.655   4.555  12.015 -0.1590  0.6129  0.1942
  150TMC2    C3 2332   3.725   4.663  11.961  0.0284  0.3463  0.4125
  150TMC2    C4 2333   3.868   4.468  12.095 -0.2495  0.3237  0.5285
  150TMC2    C5 2334   3.931   4.575  12.039  0.7879  0.1983 -0.8119
  150TMC2    C6 2335   3.863   4.667  11.958  0.2628  0.4282 -0.3764
  150TMC2     C 2336   3.675   4.331  12.089 -0.2897  0.8998 -0.3029
  150TMC2     O 2337   3.747   4.236  12.066  0.2318 -0.4028  0.0849
  150TMC2     H 2338   3.547   4.547  12.006 -0.1862 -1.0613  2.0526
  150TMC2    H1 2339   3.919   4.390  12.151 -1.9107 -0.4504  0.9497
  150TMC2    H2 2340   3.908   0.019  11.912 -0.5605  2.3288  2.3875
  150TMC2    C7 2341   4.064   4.612  12.070 -0.1687  0.4488  0.1912
  150TMC2    C8 2342   3.654   4.733  11.851 -0.0802 -0.3573 -0.1854
  150TMC2    O1 2343   4.093   4.731  12.058  0.5143  0.4155 -0.0103
  150TMC2    O2 2344   3.579   4.670  11.778  0.1752  0.2780  0.0706
  150TMC2    O5 2345   3.636   0.124  11.889  0.1714  0.0142 -0.2579
  150TMC2    H5 2346   3.691   0.145  11.968 -1.1390  2.8840 -0.0806
  151MPD2     C 2347   3.311   4.003  12.224 -0.1414  0.0994 -0.5011
  151MPD2    C1 2348   3.270   4.128  12.269  0.7460  0.0324 -0.2701
  151MPD2    C2 2349   3.355   4.230  12.241 -0.1016  0.3743  0.0586
  151MPD2    C3 2350   3.472   4.216  12.171 -0.4128 -0.4278  0.4832
  151MPD2    C4 2351   3.498   4.091  12.115 -0.3474 -0.8656  0.3577
  151MPD2    C5 2352   3.424   3.984  12.146 -0.4937  0.8315  0.7509
  151MPD2     H 2353   3.315   4.328  12.263  1.2159  0.1039  3.7914
  151MPD2    H1 2354   3.585   4.065  12.055 -1.3109 -0.5921 -1.1438
  151MPD2    H2 2355   3.245   3.918  12.230 -0.0162  0.0100 -0.4006
  151MPD2    H3 2356   3.452   3.887  12.106 -0.7445  0.7419  0.7938
  151MPD2     N 2357   3.545   4.332  12.138  0.0507  0.0931 -0.1348
  151MPD2    H5 2358   3.506   4.420  12.170  1.7971  1.1224 -0.8668
  151MPD2    N1 2359   3.137   4.141  12.316 -0.4283 -0.4215  0.3138
  151MPD2    H7 2360   3.080   4.062  12.287  3.7958 -3.9531  1.6019
  152TMC2    C1 2361   3.393   4.102  12.585 -0.1835 -0.3691  0.2947
  152TMC2    C2 2362   3.466   3.984  12.601 -0.0083 -0.0751 -0.2098
  152TMC2    C3 2363   3.594   3.986  12.554 -0.2136  0.3720 -0.3507
  152TMC2    C4 2364   3.461   4.220  12.556 -0.0603 -0.0276  0.4933
  152TMC2    C5 2365   3.592   4.213  12.512  0.1594 -0.0492  0.0935
  152TMC2    C6 2366   3.665   4.095  12.517 -0.1361 -0.5532  0.1631
  152TMC2     C 2367   3.261   4.112  12.640  0.5963  0.2781 -0.4183
  152TMC2     O 2368   3.218   4.224  12.662  0.5683 -0.0087 -0.2442
  152TMC2     H 2369   3.425   3.891  12.641 -0.1473  0.6393  1.3331
  152TMC2    H1 2370   3.412   4.316  12.554 -1.2121 -0.5952  1.4355
  152TMC2    H2 2371   3.767   4.083  12.484  0.0022 -0.3212  0.5151
  152TMC2    C7 2372   3.660   4.337  12.482 -0.1306  0.4056 -0.0539
  152TMC2    C8 2373   3.669   3.859  12.560  0.4324 -0.5017  0.9435
  152TMC2    O1 2374   3.593   4.433  12.443  0.2887  0.4393 -0.4467
  152TMC2    O2 2375   3.619   3.764  12.615  0.3174 -0.4535  0.0533
  152TMC2    O5 2376   3.727   3.855  12.441  0.9464 -0.5152  0.4824
  152TMC2    H5 2377   3.736   3.937  12.388 -1.4378 -1.1250 -0.8381
  153MPD2     C 2378   3.036   3.831  12.736 -0.5022  0.2268 -0.4199
  153MPD2    C1 2379   3.083   3.964  12.725  0.2137 -0.5087  0.3886
  153MPD2    C2 2380   3.001   4.061  12.783 -0.7716 -0.0287  0.1591
  153MPD2    C3 2381   2.876   4.034  12.837  0.4669  0.4518 -0.5016
  153MPD2    C4 2382   2.847   3.903  12.860 -0.3965 -0.6355 -0.3587
  153MPD2    C5 2383   2.927   3.805  12.813  0.3944  0.0000  0.0078
  153MPD2     H 2384   3.025   4.167  12.785 -1.5180  0.1193  1.7518
  153MPD2    H1 2385   2.760   3.867  12.913 -1.3812 -0.9290 -2.1472
  153MPD2    H2 2386   3.089   3.751  12.684 -0.1200  0.7263 -0.8022
  153MPD2    H3 2387   2.888   3.704  12.823 -0.8546  0.3298 -1.4685
  153MPD2     N 2388   2.784   4.143  12.867 -0.4307 -0.8248 -0.1462
  153MPD2    H5 2389   2.816   4.236  12.841 -2.4496  0.2873  1.4018
  153MPD2    N1 2390   3.205   3.987  12.655 -0.0199  0.5823  0.8380
  153MPD2    H7 2391   3.254   3.905  12.623 -2.1498 -0.7355  0.9924
  154TMC2    C1 2392   4.726   4.632   0.024 -0.0993  0.0191  0.2603
  154TMC2    C2 2393   4.708   4.493   0.001 -0.0504  0.4021  0.5095
  154TMC2    C3 2394   0.083   4.439  17.691 -0.2274 -0.6072  0.8586
  154TMC2    C4 2395   0.097   4.713   0.004  0.3282 -0.6583 -0.2195
  154TMC2    C5 2396   0.203   4.644  17.697 -0.0786  0.2813 -0.3730
  154TMC2    C6 2397   0.193   4.509  17.667  0.3877  0.1144 -0.0313
  154TMC2     C 2398   4.620   4.712   0.077  0.3525 -0.4504  0.3078
  154TMC2     O 2399   4.658   0.070   0.149 -0.4161 -0.6562 -0.5217
  154TMC2     H 2400   4.625   4.432   0.034  0.4868 -0.7317 -0.2478
  154TMC2    H1 2401   0.080   0.082  17.722  2.0043 -0.1577  0.8878
  154TMC2    H2 2402   0.275   4.469  17.609  1.4172  0.2071  1.3514
  154TMC2    C7 2403   0.311   4.729  17.645 -0.2729 -0.2274  0.1431
  154TMC2    C8 2404   0.077   4.303  17.641 -0.0723  0.1078 -0.7129
  154TMC2    O1 2405   0.377   4.698  17.550  0.2908 -0.8661 -0.6514
  154TMC2    O2 2406   0.185   4.247  17.631  0.5155  0.3636 -0.2255
  154TMC2    O5 2407   4.701   4.283  17.570 -0.0805 -0.3759  0.2197
  154TMC2    H5 2408   4.631   4.351  17.580 -0.6215 -1.0608  1.0474
  155MPD2     C 2409   4.309   0.024  17.636 -0.1243 -0.0948 -0.0009
  155MPD2    C1 2410   4.398   0.043  17.738  0.0375  1.0370  0.6098
  155MPD2    C2 2411   4.377   0.133   0.100 -0.0935 -0.6374  0.5513
  155MPD2    C3 2412   4.256   0.194   0.111  0.4291 -0.6826 -0.7033
  155MPD2    C4 2413   4.165   0.181   0.005  0.5938 -0.5661  0.1313
  155MPD2    C5 2414   4.188   0.084  17.650 -0.6153  0.1236  0.0181
  155MPD2     H 2415   4.454   0.158   0.172 -0.0233 -1.3120  0.7079
  155MPD2    H1 2416   4.063   0.217   0.015  0.8844  0.3148 -0.0967
  155MPD2    H2 2417   4.326   4.681  17.563  0.6205 -0.1889  0.2738
  155MPD2    H3 2418   4.108   0.073  17.578 -0.8504 -2.1044  0.6180
  155MPD2     N 2419   4.236   0.280   0.219 -0.4379  0.0644 -0.5398
  155MPD2    H5 2420   4.317   0.306   0.274 -0.8463  0.5102 -0.1527
  155MPD2    N1 2421   4.513   4.696  17.731  0.1274  0.2006  0.3112
  155MPD2    H7 2422   4.503   4.620  17.664  3.2918  0.1517 -0.1240
  156TMC2    C1 2423   4.075   1.238  11.059  0.2938  0.1095 -0.0023
  156TMC2    C2 2424   4.174   1.169  10.986  0.1960  0.4785  0.2455
  156TMC2    C3 2425   4.145   1.156  10.855 -0.1582  0.5396  0.5215
  156TMC2    C4 2426   3.967   1.299  11.001 -0.0927  0.1254  0.3933
  156TMC2    C5 2427   3.950   1.285  10.866  0.0136  0.1359 -0.5071
  156TMC2    C6 2428   4.033   1.204  10.797  0.1659 -0.7462  0.4744
  156TMC2     C 2429   4.111   1.272  11.194  0.1113 -0.6786 -0.8320
  156TMC2     O 2430   4.027   1.337  11.254 -0.1393 -0.4485 -0.6327
  156TMC2     H 2431   4.247   1.114  11.044  0.9341  0.9653 -0.2246
  156TMC2    H1 2432   3.890   1.340  11.065 -1.0100 -0.4107 -0.3634
  156TMC2    H2 2433   4.013   1.196  10.691  0.4401  1.2839  0.2685
  156TMC2    C7 2434   3.821   1.314  10.812 -0.0611 -0.0626  0.4968
  156TMC2    C8 2435   4.242   1.100  10.766 -0.9891 -0.1603  0.0206
  156TMC2    O1 2436   3.766   1.234  10.740  0.2395 -0.8311 -0.2431
  156TMC2    O2 2437   4.209   1.051  10.659  0.0180  0.2658  0.3449
  156TMC2    O5 2438   4.344   1.186  10.782  0.7604  0.2442  0.6408
  156TMC2    H5 2439   4.339   1.241  10.863  1.8156 -0.1222  0.9541
  157MPD2     C 2440   4.414   1.193  11.403 -0.0556  0.1117  0.1479
  157MPD2    C1 2441   4.288   1.253  11.371  1.1745  0.8102  0.0785
  157MPD2    C2 2442   4.223   1.327  11.465  0.2258  1.0802  0.5291
  157MPD2    C3 2443   4.289   1.361  11.581 -0.2745 -0.2279  0.4739
  157MPD2    C4 2444   4.420   1.317  11.604 -0.1290  0.5670 -0.8557
  157MPD2    C5 2445   4.479   1.232  11.517 -0.1513 -0.1471  0.0981
  157MPD2     H 2446   4.121   1.363  11.457  0.6480  2.1772  0.1021
  157MPD2    H1 2447   4.475   1.342  11.694  1.0493 -2.1204 -0.8243
  157MPD2    H2 2448   4.462   1.124  11.334  0.0367 -0.3256  0.6518
  157MPD2    H3 2449   4.580   1.196  11.531  0.7570  1.5323 -2.3566
  157MPD2     N 2450   4.211   1.425  11.683 -0.1139  0.1296  0.2340
  157MPD2    H5 2451   4.112   1.438  11.666 -0.1407 -0.5595 -0.1664
  157MPD2    N1 2452   4.231   1.226  11.244 -0.1392  0.1846 -0.2740
  157MPD2    H7 2453   4.295   1.174  11.185  0.8699  2.6268 -1.3276
  158TMC2    C1 2454   3.567   1.131  13.739  0.0086 -0.1346 -0.7268
  158TMC2    C2 2455   3.607   1.214  13.637 -0.4692  1.0697  1.0821
  158TMC2    C3 2456   3.522   1.239  13.532 -0.1919  0.5889 -0.0018
  158TMC2    C4 2457   3.441   1.072  13.737  0.0632  0.3410 -0.0875
  158TMC2    C5 2458   3.356   1.110  13.637  0.7010 -0.2363  1.0744
  158TMC2    C6 2459   3.397   1.197  13.536 -0.1669 -0.4972 -0.5357
  158TMC2     C 2460   3.675   1.084  13.822  0.1610 -0.4394 -0.2619
  158TMC2     O 2461   3.792   1.099  13.794  0.2955 -0.4401 -0.2223
  158TMC2     H 2462   3.702   1.266  13.635  0.4212 -0.5462  1.1086
  158TMC2    H1 2463   3.413   1.003  13.815 -3.3362  2.7557  0.8088
  158TMC2    H2 2464   3.338   1.217  13.447  1.0657  0.7065 -1.0922
  158TMC2    C7 2465   3.240   1.031  13.601 -0.7865  0.1124  0.3010
  158TMC2    C8 2466   3.575   1.293  13.406 -0.2011  0.0717  0.7083
  158TMC2    O1 2467   3.156   1.088  13.535  0.2473  0.0062  0.2709
  158TMC2    O2 2468   3.641   1.399  13.387  0.7250  0.3019  0.2558
  158TMC2    O5 2469   3.591   1.177  13.344  0.2606 -0.1107 -0.0123
  158TMC2    H5 2470   3.548   1.100  13.388 -1.1282 -0.0018 -1.1819
  159MPD2     C 2471   3.816   0.895  14.275  0.4469  0.0823  0.0334
  159MPD2    C1 2472   3.676   0.898  14.274 -0.5080  0.2539 -0.3850
  159MPD2    C2 2473   3.609   0.960  14.167 -0.1771 -0.7533 -0.1787
  159MPD2    C3 2474   3.689   1.004  14.059  0.0355 -0.7563  0.0932
  159MPD2    C4 2475   3.828   1.006  14.070 -0.2941  0.2224  0.1543
  159MPD2    C5 2476   3.883   0.961  14.181  0.5605 -0.0327 -0.1999
  159MPD2     H 2477   3.501   0.951  14.157 -0.3909  0.9304  0.7382
  159MPD2    H1 2478   3.882   1.050  13.987 -1.0576  2.0106  0.5900
  159MPD2    H2 2479   3.881   0.853  14.351  1.3009  1.7649  0.2183
  159MPD2    H3 2480   3.991   0.957  14.186  0.5616 -2.4442 -2.6981
  159MPD2     N 2481   3.622   1.043  13.940  0.5410  0.2135 -0.8631
  159MPD2    H5 2482   3.522   1.056  13.934  0.3889 -0.5345 -0.0382
  159MPD2    N1 2483   3.614   0.844  14.391 -0.4662  0.1890 -0.4269
  159MPD2    H7 2484   3.684   0.793  14.444 -1.4429 -0.6950  0.0095
  160TMC2    C1 2485   3.690   3.568   1.281  0.2844 -0.1181  0.2993
  160TMC2    C2 2486   3.771   3.467   1.334 -0.0472 -0.6499 -0.1369
  160TMC2    C3 2487   3.893   3.431   1.269  0.2726 -0.0288  0.4632
  160TMC2    C4 2488   3.742   3.650   1.181  0.0828 -0.0600 -0.3556
  160TMC2    C5 2489   3.873   3.623   1.134  0.3433  0.1223  0.2122
  160TMC2    C6 2490   3.944   3.515   1.172  0.5757 -0.1212 -0.5949
  160TMC2     C 2491   3.614   3.628   1.385 -0.1243  0.0436  0.0663
  160TMC2     O 2492   3.642   3.587   1.495 -0.0416 -0.5129  0.4942
  160TMC2     H 2493   3.735   3.400   1.412 -0.7321 -0.6813 -0.4764
  160TMC2    H1 2494   3.687   3.738   1.149 -0.4005 -0.2630 -0.0718
  160TMC2    H2 2495   4.041   3.489   1.131  0.6476  1.2065 -1.2746
  160TMC2    C7 2496   3.936   3.708   1.034 -0.5744  0.1001 -0.3835
  160TMC2    C8 2497   3.960   3.311   1.314 -0.4741  0.0727  0.0909
  160TMC2    O1 2498   4.020   3.647   0.971 -0.4870 -0.5963  0.5203
  160TMC2    O2 2499   3.909   3.201   1.336 -0.3849 -0.1171  0.0372
  160TMC2    O5 2500   4.078   3.352   1.356  0.0112 -0.5828  0.3663
  160TMC2    H5 2501   4.081   3.450   1.349  2.1779 -0.7406 -0.9383
  161MPD2     C 2502   3.466   3.828   1.559 -0.3434 -0.0244 -0.4624
  161MPD2    C1 2503   3.469   3.818   1.422  0.6406  0.1139 -0.1882
  161MPD2    C2 2504   3.390   3.909   1.356 -0.2478 -0.2334  0.2862
  161MPD2    C3 2505   3.329   4.007   1.425  0.0347 -0.1646  0.0957
  161MPD2    C4 2506   3.336   4.017   1.562 -0.4265 -0.3355 -0.2680
  161MPD2    C5 2507   3.396   3.919   1.632  0.1170 -0.3159  0.2833
  161MPD2     H 2508   3.393   3.904   1.247  0.3619  0.0525  0.2920
  161MPD2    H1 2509   3.289   4.098   1.617  1.9993 -0.0463  1.4129
  161MPD2    H2 2510   3.505   3.742   1.612 -2.8999 -1.5867 -1.1208
  161MPD2    H3 2511   3.398   3.922   1.740 -0.0193 -1.3368  0.3156
  161MPD2     N 2512   3.235   4.098   1.365  0.2914  0.4131  0.2436
  161MPD2    H5 2513   3.184   4.153   1.433  0.7207  0.4550  0.5341
  161MPD2    N1 2514   3.544   3.727   1.342  0.3555 -0.0778  0.4725
  161MPD2    H7 2515   3.541   3.740   1.242  1.4264  2.2160  0.7315
  162TMC2    C1 2516   0.939   0.744   1.308  0.0083 -0.0718  0.3365
  162TMC2    C2 2517   0.806   0.774   1.329 -0.1250  0.2362  0.4706
  162TMC2    C3 2518   0.766   0.790   1.456 -0.4399 -1.1443  0.3803
  162TMC2    C4 2519   1.022   0.719   1.411  0.0584 -0.0792  0.6853
  162TMC2    C5 2520   0.971   0.728   1.536 -0.3198  0.3073  0.2793
  162TMC2    C6 2521   0.842   0.763   1.568 -0.2764 -0.4355  0.0589
  162TMC2     C 2522   1.001   0.761   1.172 -0.0150  0.2995  0.0489
  162TMC2     O 2523   1.121   0.737   1.164  0.4241 -0.0650 -0.1160
  162TMC2     H 2524   0.733   0.781   1.249  2.7496  0.5610 -2.1087
  162TMC2    H1 2525   1.124   0.694   1.386 -0.1350 -0.4994  0.3146
  162TMC2    H2 2526   0.801   0.755   1.668  1.3334  0.5754  0.8045
  162TMC2    C7 2527   1.051   0.696   1.651 -0.2299 -0.5098  0.5064
  162TMC2    C8 2528   0.627   0.814   1.477  0.0080  0.2404 -0.3490
  162TMC2    O1 2529   1.016   0.740   1.760 -0.3131 -0.1819 -0.3578
  162TMC2    O2 2530   0.563   0.750   1.559  0.1247 -0.4435  0.7775
  162TMC2    O5 2531   0.574   0.915   1.407 -0.1881 -0.2730  1.0196
  162TMC2    H5 2532   0.640   0.958   1.349 -1.6462  0.9876  0.2889
  163MPD2     C 2533   0.970   0.871   0.668  0.1118 -0.0760  0.2959
  163MPD2    C1 2534   1.056   0.784   0.735  0.0906 -0.3484  0.0166
  163MPD2    C2 2535   1.032   0.768   0.872  0.0327 -0.6401  0.9530
  163MPD2    C3 2536   0.936   0.839   0.944 -0.1824  0.0128  0.3716
  163MPD2    C4 2537   0.851   0.922   0.873  0.0576  0.0247 -0.0811
  163MPD2    C5 2538   0.871   0.940   0.738  0.2764 -0.4357  0.2930
  163MPD2     H 2539   1.095   0.702   0.932  0.8415  0.1524  0.9720
  163MPD2    H1 2540   0.776   0.984   0.919 -0.9772 -1.1251 -0.2140
  163MPD2    H2 2541   0.971   0.903   0.565  0.0030  0.6502  0.5181
  163MPD2    H3 2542   0.803   1.005   0.685 -0.3825 -1.1065  0.3068
  163MPD2     N 2543   0.915   0.823   1.084 -0.1209 -0.4892  0.4147
  163MPD2    H5 2544   0.832   0.866   1.124 -0.7944 -1.9111  0.5662
  163MPD2    N1 2545   1.158   0.726   0.655  0.7631  0.4657 -0.1103
  163MPD2    H7 2546   1.168   0.752   0.557 -1.2483  1.2408 -0.1226
  164TMC2    C1 2547   2.303   4.675  11.305 -0.0795 -0.7804  0.5268
  164TMC2    C2 2548   2.421   4.702  11.245  0.1815  0.3248  0.3134
  164TMC2    C3 2549   2.442   0.090  11.193 -0.2833 -0.5220 -0.4243
  164TMC2    C4 2550   2.206   0.038  11.326  0.2676 -0.1842  0.6311
  164TMC2    C5 2551   2.220   0.151  11.254 -0.0052  0.1778 -0.0537
  164TMC2    C6 2552   2.337   0.188  11.197  0.0539 -0.5603  0.9991
  164TMC2     C 2553   2.279   4.544  11.348  0.2476 -0.1433  0.7800
  164TMC2     O 2554   2.198   4.535  11.438 -0.5955  0.0524  0.3383
  164TMC2     H 2555   2.503   4.631  11.248 -1.2972 -1.3021  1.5965
  164TMC2    H1 2556   2.111   0.012  11.372  0.5325 -2.4640 -0.1091
  164TMC2    H2 2557   2.340   0.285  11.150 -0.4048  0.1665  2.4713
  164TMC2    C7 2558   2.107   0.246  11.246  0.4742  0.1490  0.7296
  164TMC2    C8 2559   2.570   0.122  11.135  0.3794  0.7493  0.0647
  164TMC2    O1 2560   2.097   0.312  11.142 -0.1608 -0.2055  0.0794
  164TMC2    O2 2561   2.645   0.045  11.074  0.1164  0.8733  0.2185
  164TMC2    O5 2562   2.615   0.225  11.204  0.4005  0.0190  0.7984
  164TMC2    H5 2563   2.545   0.274  11.253 -1.2083  0.1108 -1.5879
  165TMC2    C1 2564   3.242   3.402   1.186 -0.3689  0.3144 -0.0444
  165TMC2    C2 2565   3.157   3.440   1.089  0.0400 -0.4173 -0.4863
  165TMC2    C3 2566   3.200   3.445   0.960 -0.3012  0.7038  0.5443
  165TMC2    C4 2567   3.375   3.369   1.161 -0.0449 -0.4349  0.3883
  165TMC2    C5 2568   3.410   3.361   1.032  0.7169  0.4646  0.9784
  165TMC2    C6 2569   3.323   3.389   0.927 -0.2777  0.2175  0.4163
  165TMC2     C 2570   3.194   3.406   1.327  1.0725 -0.5474  0.4774
  165TMC2     O 2571   3.072   3.398   1.344  0.2507  0.0570  0.3028
  165TMC2     H 2572   3.054   3.472   1.103 -0.5922 -1.3709 -2.8815
  165TMC2    H1 2573   3.446   3.327   1.232 -0.5870 -1.7866  0.1415
  165TMC2    H2 2574   3.343   3.371   0.822 -1.4800  0.9432  0.0486
  165TMC2    C7 2575   3.548   3.338   1.005 -0.1279  0.0705  0.2363
  165TMC2    C8 2576   3.094   3.409   0.865  0.4802 -0.1346 -0.0261
  165TMC2    O1 2577   3.622   3.360   1.103  0.5815 -0.0363 -0.0374
  165TMC2    O2 2578   2.982   3.453   0.883  0.4576  0.3041  0.3284
  165TMC2    O5 2579   3.113   3.276   0.843  0.2379 -0.2590 -0.2750
  165TMC2    H5 2580   3.206   3.248   0.851  0.9356  2.2710  0.3186
  166MPD2     C 2581   3.263   3.371   1.827 -0.3132 -0.1700  0.0564
  166MPD2    C1 2582   3.148   3.356   1.749  0.2920 -0.4385  0.4799
  166MPD2    C2 2583   3.160   3.373   1.613 -0.3175  0.7370  0.0357
  166MPD2    C3 2584   3.283   3.404   1.552 -0.3970  0.0555  0.1276
  166MPD2    C4 2585   3.395   3.418   1.635 -0.0611  0.2878 -0.2132
  166MPD2    C5 2586   3.383   3.406   1.770  0.2380  0.1906 -0.1495
  166MPD2     H 2587   3.073   3.348   1.553  0.7740 -0.2019 -1.1676
  166MPD2    H1 2588   3.495   3.438   1.598 -0.4448  0.2626 -1.2822
  166MPD2    H2 2589   3.257   3.353   1.933  1.0138 -1.6571 -0.1224
  166MPD2    H3 2590   3.476   3.403   1.825  0.4534 -1.3814 -0.5944
  166MPD2     N 2591   3.302   3.423   1.416 -0.3954 -0.4185 -0.1649
  166MPD2    H5 2592   3.397   3.433   1.383 -1.4390  0.3695 -2.9035
  166MPD2    N1 2593   3.027   3.331   1.804 -0.6940  1.2515  0.2474
  166MPD2    H7 2594   3.025   3.314   1.904  0.8038  2.9270  0.5728
  167TMC2    C1 2595   1.460   0.744  12.651  0.0153  0.0420 -0.4440
  167TMC2    C2 2596   1.494   0.835  12.754 -0.4541 -0.0810  0.2244
  167TMC2    C3 2597   1.498   0.792  12.879  0.5631  0.1540 -0.1777
  167TMC2    C4 2598   1.410   0.618  12.669  0.6359 -0.5525 -0.0290
  167TMC2    C5 2599   1.409   0.590  12.807 -0.8566  0.6388 -0.0287
  167TMC2    C6 2600   1.453   0.670  12.904 -0.6759  0.5298 -0.5622
  167TMC2     C 2601   1.415   0.818  12.531 -0.2268 -0.0181  0.2275
  167TMC2     O 2602   1.416   0.940  12.524 -0.7426 -0.1277  0.4441
  167TMC2     H 2603   1.543   0.929  12.732  0.5786 -0.2669  1.7024
  167TMC2    H1 2604   1.365   0.557  12.592 -2.7332 -0.1221  1.5854
  167TMC2    H2 2605   1.475   0.624  13.000  0.8240 -1.2358 -1.7494
  167TMC2    C7 2606   1.384   0.448  12.839 -0.6408 -0.9887  0.3802
  167TMC2    C8 2607   1.479   0.893  12.978 -0.0338  0.0853 -0.0695
  167TMC2    O1 2608   1.391   0.414  12.956 -0.7865  0.0067 -0.0693
  167TMC2    O2 2609   1.523   1.008  12.968 -0.0002  0.0495  0.4605
  167TMC2    O5 2610   1.362   0.862  13.035  0.3153 -0.3666  0.2220
  167TMC2    H5 2611   1.319   0.774  13.031  0.4827 -0.4342 -0.1615
  168MPD2     C 2612   1.289   0.888  12.272  0.4396  0.4846 -0.3434
  168MPD2    C1 2613   1.322   0.757  12.307  0.1316  0.6385  0.1623
  168MPD2    C2 2614   1.322   0.652  12.219 -0.8610 -0.3624  0.6375
  168MPD2    C3 2615   1.294   0.677  12.086  0.0135 -0.0887 -0.2988
  168MPD2    C4 2616   1.246   0.804  12.052  1.1213  0.2217  0.2575
  168MPD2    C5 2617   1.260   0.908  12.139  0.0899 -0.3753 -0.0693
  168MPD2     H 2618   1.365   0.561  12.259  2.4352  0.7980 -0.2123
  168MPD2    H1 2619   1.217   0.826  11.950 -1.3846  0.9804  1.1575
  168MPD2    H2 2620   1.293   0.977  12.334  1.9572 -0.3360  0.7265
  168MPD2    H3 2621   1.245   1.010  12.103 -1.5007 -1.0747 -1.3974
  168MPD2     N 2622   1.313   0.576  11.990 -0.4413 -0.1953 -0.1914
  168MPD2    H5 2623   1.358   0.492  12.025  2.1312  0.9893 -0.6819
  168MPD2    N1 2624   1.373   0.726  12.441  0.0840  0.4023  0.2607
  168MPD2    H7 2625   1.386   0.629  12.468 -1.0981  0.0619 -0.3884
  169MPD1     C 2626   4.620   3.365  10.423  0.6584  0.3476 -0.9528
  169MPD1    C1 2627   4.543   3.282  10.345  0.2401  0.2811  0.0632
  169MPD1    C2 2628   4.411   3.326  10.312  0.4297 -0.2046 -0.4258
  169MPD1    C3 2629   4.364   3.456  10.327 -0.1706  0.5481  0.1529
  169MPD1    C4 2630   4.442   3.529  10.417 -0.6440 -0.9709  0.4575
  169MPD1    C5 2631   4.565   3.488  10.462 -0.2441  0.6152  0.1772
  169MPD1     H 2632   4.344   3.262  10.257  2.1420 -1.5217 -0.9647
  169MPD1    H1 2633   4.404   3.625  10.452 -1.4974 -0.8109 -0.8615
  169MPD1    H2 2634   4.718   3.335  10.458 -0.2176 -0.3739  0.8603
  169MPD1    H3 2635   4.610   3.544  10.544 -0.1717 -0.8698  1.1680
  169MPD1     N 2636   4.240   3.509  10.275 -0.4583 -0.3760 -0.0090
  169MPD1    H5 2637   4.214   3.603  10.305  0.0061 -0.4170  0.5284
  169MPD1    N1 2638   4.592   3.151  10.326  0.1134 -0.9172 -0.6902
  169MPD1    H6 2639   4.563   3.115  10.235  1.1957  3.1680 -2.6914
  169MPD1    H7 2640   4.693   3.143  10.335 -0.2815 -1.8819  2.9319
  170MPD1     C 2641   2.052   2.573  12.991 -0.4568 -0.2419 -0.2483
  170MPD1    C1 2642   2.125   2.699  13.007 -0.0682  0.0016  0.1081
  170MPD1    C2 2643   2.190   2.729  13.124 -0.0401  0.2309  0.0915
  170MPD1    C3 2644   2.195   2.632  13.223 -0.5573 -0.6663 -0.5433
  170MPD1    C4 2645   2.134   2.504  13.201  0.6449 -0.5740 -0.1858
  170MPD1    C5 2646   2.051   2.487  13.097  0.8167  0.8335  0.1258
  170MPD1     H 2647   2.240   2.824  13.137  1.1665 -0.3271 -0.5055
  170MPD1    H1 2648   2.127   2.438  13.286  1.8158 -1.1337 -0.5280
  170MPD1    H2 2649   2.007   2.555  12.894  0.3714  0.3325 -0.7401
  170MPD1    H3 2650   1.996   2.394  13.091  0.6838  0.9700 -0.8081
  170MPD1     N 2651   2.250   2.669  13.342  0.4611  0.3479  0.4051
  170MPD1    H5 2652   2.318   2.744  13.342  2.7462 -1.7200 -1.7303
  170MPD1    N1 2653   2.118   2.798  12.905  0.0971  0.2109 -0.3473
  170MPD1    H6 2654   2.092   2.767  12.812  0.6395 -0.3795 -0.3020
  170MPD1    H7 2655   2.162   2.889  12.917 -2.1623  1.3132 -0.4796
  171MPD1     C 2656   0.766   3.999  15.370 -0.0368 -0.5192  0.5147
  171MPD1    C1 2657   0.728   3.877  15.313 -0.1555  0.3326  0.1600
  171MPD1    C2 2658   0.759   3.762  15.381 -0.4416 -1.1287  0.2167
  171MPD1    C3 2659   0.833   3.771  15.502 -0.2038 -1.0057 -0.7451
  171MPD1    C4 2660   0.871   3.891  15.550  0.7212 -0.3745  0.7509
  171MPD1    C5 2661   0.834   4.007  15.485  0.8372 -0.1419 -0.4779
  171MPD1     H 2662   0.740   3.667  15.333  0.5202 -0.0056 -2.3477
  171MPD1    H1 2663   0.922   3.901  15.645  0.7369 -0.4453  0.7499
  171MPD1    H2 2664   0.759   4.094  15.318 -0.8992 -1.1129 -0.4488
  171MPD1    H3 2665   0.858   4.103  15.530 -2.8059  0.4365  0.2120
  171MPD1     N 2666   0.881   3.653  15.564  0.0591 -0.6927 -0.1523
  171MPD1    H5 2667   0.929   3.672  15.652 -0.7964 -0.6016  0.3001
  171MPD1    N1 2668   0.647   3.877  15.199  0.1823  0.0255 -0.1090
  171MPD1    H6 2669   0.652   3.962  15.143 -3.1176 -0.1999 -0.7449
  171MPD1    H7 2670   0.652   3.795  15.139  0.5539 -0.8525  1.1088
  172MPD1     C 2671   4.554   2.801   0.396  0.0740 -0.5321  0.4454
  172MPD1    C1 2672   4.616   2.870   0.496 -0.4853  0.3757  0.3016
  172MPD1    C2 2673   4.717   2.951   0.454  0.1870  0.0067  0.4163
  172MPD1    C3 2674   0.027   2.955   0.320  1.0302  0.1332  0.1369
  172MPD1    C4 2675   4.719   2.853   0.235 -0.0511  0.9724 -0.5796
  172MPD1    C5 2676   4.610   2.782   0.278  0.9308 -0.1882  0.4371
  172MPD1     H 2677   0.028   3.029   0.514 -3.2831  1.9298  0.5978
  172MPD1    H1 2678   0.016   2.832   0.134 -0.6399  0.2745 -0.6246
  172MPD1    H2 2679   4.463   2.747   0.417 -0.8867  1.0517  0.3570
  172MPD1    H3 2680   4.554   2.713   0.215  0.0426 -0.0351  1.0508
  172MPD1     N 2681   0.116   3.045   0.275  0.0829  0.5498 -0.3897
  172MPD1    H5 2682   0.156   3.030   0.183 -2.0564 -2.6174 -0.7861
  172MPD1    N1 2683   4.562   2.901   0.622  0.0648  0.2569 -0.1282
  172MPD1    H6 2684   4.636   2.894   0.692 -1.2414  0.7104  1.3056
  172MPD1    H7 2685   4.501   2.822   0.638  1.3093 -0.4533  1.1780
  173MPD1     C 2686   1.964   3.412  13.753  0.1335 -0.8902  0.0168
  173MPD1    C1 2687   1.933   3.418  13.884  0.0529  0.1657 -0.5721
  173MPD1    C2 2688   1.959   3.307  13.965  0.9062 -0.2829 -0.2675
  173MPD1    C3 2689   2.001   3.183  13.914  0.6533 -0.0860 -0.3691
  173MPD1    C4 2690   2.010   3.176  13.776 -0.1224  0.2564  0.0001
  173MPD1    C5 2691   1.997   3.286  13.700  0.4720  0.2539 -0.5434
  173MPD1     H 2692   1.953   3.316  14.073  0.9989 -0.4971 -0.2435
  173MPD1    H1 2693   2.023   3.079  13.729  2.1622  0.2197  0.7337
  173MPD1    H2 2694   1.962   3.499  13.690 -0.0404 -2.0388 -1.5650
  173MPD1    H3 2695   1.997   3.271  13.592  3.3363 -3.3637 -0.0133
  173MPD1     N 2696   2.008   3.070  14.001 -0.3255  0.0170 -0.3032
  173MPD1    H5 2697   1.975   3.081  14.097 -0.9426  0.4890 -0.5673
  173MPD1    N1 2698   1.913   3.553  13.931  0.4401 -0.0761 -0.1309
  173MPD1    H6 2699   1.868   3.602  13.854  0.8345 -0.4735 -0.6171
  173MPD1    H7 2700   1.845   3.552  14.006  1.4644  0.2593  0.8062
  174MPD1     C 2701   2.510   2.441  14.521  0.2186  0.6499  0.0703
  174MPD1    C1 2702   2.493   2.403  14.390 -0.8886 -0.0976  0.1255
  174MPD1    C2 2703   2.376   2.449  14.333 -0.1682  0.1667  0.2547
  174MPD1    C3 2704   2.285   2.526  14.398  0.1107 -1.1448 -0.3512
  174MPD1    C4 2705   2.309   2.568  14.525 -0.1310  0.4411 -0.3264
  174MPD1    C5 2706   2.421   2.523  14.582  0.1446 -0.6027 -0.3113
  174MPD1     H 2707   2.354   2.406  14.235  0.9836  1.3971 -0.5416
  174MPD1    H1 2708   2.244   2.619  14.594 -0.8322  2.5607 -2.5814
  174MPD1    H2 2709   2.594   2.405  14.580  1.1457 -1.1532 -2.3571
  174MPD1    H3 2710   2.429   2.551  14.686  0.6852 -2.5124  0.1655
  174MPD1     N 2711   2.170   2.571  14.330  0.5011  0.0099 -0.4469
  174MPD1    H5 2712   2.094   2.592  14.394 -0.4255 -1.6513 -1.0039
  174MPD1    N1 2713   2.580   2.307  14.334  0.2877  0.6129  0.2538
  174MPD1    H6 2714   2.578   2.311  14.232 -1.2674  1.0020  0.2952
  174MPD1    H7 2715   2.672   2.330  14.371  0.9045  1.9529 -2.1256
  175MPD1     C 2716   4.479   4.554  15.450  0.6521 -0.1103  0.5130
  175MPD1    C1 2717   4.592   4.501  15.509 -0.7750  0.0178  0.5101
  175MPD1    C2 2718   4.579   4.423  15.620  0.2302  0.2741 -0.2001
  175MPD1    C3 2719   4.451   4.379  15.654 -0.4518  0.0638 -0.0923
  175MPD1    C4 2720   4.342   4.431  15.589  0.4608  0.4130  0.3925
  175MPD1    C5 2721   4.353   4.521  15.492 -0.0277 -0.2863  0.8058
  175MPD1     H 2722   4.670   4.381  15.662  0.7716  0.0316 -1.6206
  175MPD1    H1 2723   4.242   4.404  15.622 -0.1646  0.1427 -1.6709
  175MPD1    H2 2724   4.488   4.616  15.362  0.5055 -1.8205 -0.7135
  175MPD1    H3 2725   4.269   4.567  15.443  0.3662  3.1163  3.2841
  175MPD1     N 2726   4.419   4.280  15.751  0.0102 -0.1630 -0.2032
  175MPD1    H5 2727   4.321   4.257  15.763  0.3094 -2.0026 -1.2729
  175MPD1    N1 2728   4.713   4.557  15.479 -0.8291  0.0464  0.0699
  175MPD1    H6 2729   4.721   4.585  15.381  2.6748 -0.9740  0.0832
  175MPD1    H7 2730   0.059   4.505  15.511 -0.5007 -0.5539 -1.7316
  176MPD1     C 2731   1.561   1.014  17.099  0.5166 -0.1692 -0.4667
  176MPD1    C1 2732   1.479   1.121  17.078 -0.0482  0.4068  0.8917
  176MPD1    C2 2733   1.452   1.210  17.184  0.0328  0.3349 -0.4534
  176MPD1    C3 2734   1.544   1.225  17.291  0.5164  0.1323 -0.3022
  176MPD1    C4 2735   1.635   1.119  17.298 -0.4069  0.0525  0.3279
  176MPD1    C5 2736   1.635   1.011  17.210  0.1857  0.1531  0.3080
  176MPD1     H 2737   1.367   1.276  17.174 -0.1460  0.0807 -0.5955
  176MPD1    H1 2738   1.703   1.113  17.382  0.6168 -0.5525 -0.5545
  176MPD1    H2 2739   1.555   0.929  17.031  1.2098 -1.8085  1.5149
  176MPD1    H3 2740   1.688   0.919  17.233  1.6168  0.9553  0.2200
  176MPD1     N 2741   1.539   1.337  17.378 -0.4021 -0.0482 -0.4372
  176MPD1    H5 2742   1.459   1.398  17.384 -1.2223 -1.1558 -0.1614
  176MPD1    N1 2743   1.387   1.119  16.975 -0.2089  0.1048 -0.0430
  176MPD1    H6 2744   1.435   1.081  16.894 -1.3088  0.1207 -0.6988
  176MPD1    H7 2745   1.348   1.209  16.948  0.7491  1.0367  1.6795
  177MPD1     C 2746   0.048   0.183  10.954 -0.4587 -0.0809  0.0526
  177MPD1    C1 2747   0.006   0.114  10.844 -0.0398 -0.2523  0.2494
  177MPD1    C2 2748   0.049   0.157  10.721 -0.8330 -0.5287 -0.3025
  177MPD1    C3 2749   0.137   0.262  10.714  0.0041  0.3425 -0.1806
  177MPD1    C4 2750   0.168   0.334  10.825  0.0591  0.5265 -0.0557
  177MPD1    C5 2751   0.124   0.292  10.945  0.1468 -0.3375 -0.1246
  177MPD1     H 2752   0.032   0.100  10.631 -0.3469  2.3893 -2.2622
  177MPD1    H1 2753   0.225   0.426  10.823  1.5356 -0.3791  0.5895
  177MPD1    H2 2754   0.002   0.157  11.048 -1.3578  0.5486 -0.2054
  177MPD1    H3 2755   0.117   0.356  11.032  2.3380  0.4078 -0.5146
  177MPD1     N 2756   0.181   0.295  10.583  0.4797 -0.3527 -0.8010
  177MPD1    H5 2757   0.158   0.230  10.509 -2.6502 -1.1683  0.9349
  177MPD1    N1 2758   4.664   4.734  10.860 -0.3178 -0.2515  0.0414
  177MPD1    H6 2759   4.613   4.721  10.947 -1.7784 -3.5908 -1.3153
  177MPD1    H7 2760   4.608   4.713  10.778 -1.0369 -1.0382  0.7413
  178MPD1     C 2761   1.917   2.785   0.298 -0.3078  0.5819  0.3411
  178MPD1    C1 2762   1.849   2.743   0.184 -0.5579  0.1458 -0.5202
  178MPD1    C2 2763   1.907   2.637   0.117  0.0093  0.0748 -0.6493
  178MPD1    C3 2764   2.030   2.575   0.156  0.0863  0.5865 -0.5748
  178MPD1    C4 2765   2.099   2.626   0.258 -0.1293  0.0072  0.1497
  178MPD1    C5 2766   2.040   2.730   0.323 -0.5043  0.5207  0.4001
  178MPD1     H 2767   1.857   2.607   0.026 -0.7824  0.1709 -0.2430
  178MPD1    H1 2768   2.189   2.578   0.294 -1.0447 -1.2108  0.8033
  178MPD1    H2 2769   1.886   2.873   0.354 -1.6954 -0.9250  1.8933
  178MPD1    H3 2770   2.094   2.765   0.410 -0.4011  0.2147  0.4566
  178MPD1     N 2771   2.092   2.454   0.094 -0.4272 -0.0821  0.0359
  178MPD1    H5 2772   2.186   2.431   0.125 -0.2568  0.3191 -0.1795
  178MPD1    N1 2773   1.742   2.812   0.118 -0.2542  0.0688 -0.1335
  178MPD1    H6 2774   1.696   2.878   0.181  0.9568  0.6435  0.1483
  178MPD1    H7 2775   1.669   2.757   0.075 -0.5386  0.6805 -0.4384
  179MPD1     C 2776   1.347   0.204  15.963 -0.2632 -0.9963 -0.0398
  179MPD1    C1 2777   1.423   0.145  16.066  0.4380  0.0568 -0.5319
  179MPD1    C2 2778   1.510   0.040  16.027  0.1232 -0.2109 -0.5643
  179MPD1    C3 2779   1.547   0.017  15.896  0.5735 -0.2621 -0.6039
  179MPD1    C4 2780   1.482   0.096  15.802  0.4652  0.1804 -0.1896
  179MPD1    C5 2781   1.381   0.185  15.836 -0.0782  0.0493  0.0930
  179MPD1     H 2782   1.552   4.714  16.105 -0.7248 -1.0228 -0.7424
  179MPD1    H1 2783   1.511   0.077  15.700 -2.1391 -0.4941 -0.7954
  179MPD1    H2 2784   1.274   0.280  15.989  1.1108 -0.0103  0.9222
  179MPD1    H3 2785   1.334   0.244  15.758 -2.6327  0.0481  1.6456
  179MPD1     N 2786   1.619   4.642  15.843  0.4001  0.4598 -0.3570
  179MPD1    H5 2787   1.623   4.631  15.742 -2.2671  1.0249 -0.5228
  179MPD1    N1 2788   1.389   0.155  16.201 -0.5615 -0.1172  0.7679
  179MPD1    H6 2789   1.454   0.123  16.272 -1.9020  0.9760  2.4984
  179MPD1    H7 2790   1.350   0.247  16.221  0.9105  0.2408  1.9599
  180MPD1     C 2791   1.493   0.352  15.128 -0.6372  0.1583 -0.4960
  180MPD1    C1 2792   1.408   0.336  15.017  0.0466 -1.2138 -0.7603
  180MPD1    C2 2793   1.368   0.450  14.944  0.2223  0.1217 -0.4114
  180MPD1    C3 2794   1.410   0.577  14.989 -0.6754 -0.1462 -0.2451
  180MPD1    C4 2795   1.497   0.587  15.097  1.1731 -0.6805 -0.5696
  180MPD1    C5 2796   1.537   0.473  15.167  0.4518  0.3037  0.2896
  180MPD1     H 2797   1.300   0.444  14.859  1.6746 -3.4558 -1.2994
  180MPD1    H1 2798   1.534   0.677  15.144  1.8033 -0.6806 -1.0668
  180MPD1    H2 2799   1.525   0.264  15.183  0.1835  0.6509 -0.1816
  180MPD1    H3 2800   1.609   0.478  15.248 -0.5764 -0.7077  1.2758
  180MPD1     N 2801   1.366   0.689  14.910  0.6404 -0.5934 -0.0811
  180MPD1    H5 2802   1.299   0.682  14.834  2.5052 -1.5130 -1.6159
  180MPD1    N1 2803   1.374   0.213  14.963  0.1061 -0.0470 -0.2817
  180MPD1    H6 2804   1.282   0.217  14.920 -1.6968  1.7302  3.6748
  180MPD1    H7 2805   1.372   0.142  15.036  0.7045 -1.6244 -1.8234
  181MPD1     C 2806   2.935   2.879   9.806 -0.0793 -0.1776  0.1097
  181MPD1    C1 2807   3.027   2.787   9.778  0.3604 -0.0710  0.0762
  181MPD1    C2 2808   3.153   2.812   9.733 -0.9732 -0.6035 -0.1296
  181MPD1    C3 2809   3.181   2.944   9.700  1.1097  0.1967 -0.7234
  181MPD1    C4 2810   3.094   3.041   9.744 -0.1195  0.6393 -0.1751
  181MPD1    C5 2811   2.971   3.010   9.791 -0.3240  0.1274  0.1301
  181MPD1     H 2812   3.220   2.730   9.706 -1.1783 -0.2053 -1.8756
  181MPD1    H1 2813   3.121   3.145   9.731 -0.6945  1.0600  1.9260
  181MPD1    H2 2814   2.837   2.861   9.848 -0.7729  0.8463 -1.0658
  181MPD1    H3 2815   2.906   3.090   9.824 -1.3225 -0.2034 -1.0528
  181MPD1     N 2816   3.301   2.987   9.643 -0.1799  0.1967 -0.2137
  181MPD1    H5 2817   3.324   3.086   9.647  1.3412 -0.1104 -1.1412
  181MPD1    N1 2818   2.986   2.652   9.800  0.6221 -0.5540  0.4900
  181MPD1    H6 2819   2.886   2.636   9.813  0.2380  1.2664 -0.2258
  181MPD1    H7 2820   3.028   2.580   9.742  0.0018  0.3243 -1.0460
  182MPD1     C 2821   4.399   2.897   1.337  0.1806 -0.0589 -0.5250
  182MPD1    C1 2822   4.373   2.800   1.232 -0.6792 -0.2146  0.3837
  182MPD1    C2 2823   4.250   2.808   1.180  0.4237  0.3702  0.2933
  182MPD1    C3 2824   4.150   2.892   1.240  0.7383  0.3762  0.8272
  182MPD1    C4 2825   4.182   2.969   1.352 -0.6427  0.2078 -0.5220
  182MPD1    C5 2826   4.306   2.969   1.408  0.1057  0.4865 -0.2488
  182MPD1     H 2827   4.222   2.739   1.102 -1.6284  0.9553  0.4987
  182MPD1    H1 2828   4.102   3.028   1.395  0.6498 -0.4337  2.7726
  182MPD1    H2 2829   4.500   2.904   1.376 -0.2544  0.4138  0.4935
  182MPD1    H3 2830   4.328   3.037   1.489 -2.1170  1.7202 -0.6833
  182MPD1     N 2831   4.022   2.909   1.181  1.0668 -0.6028 -0.0992
  182MPD1    H5 2832   3.962   2.973   1.232  0.7580  0.1505 -1.3805
  182MPD1    N1 2833   4.486   2.738   1.176 -0.5374  0.1594  0.0368
  182MPD1    H6 2834   4.555   2.722   1.249  0.2268 -0.3527 -0.7844
  182MPD1    H7 2835   4.457   2.646   1.143  0.9454  0.0180 -0.8927
  183MPD1     C 2836   4.592   2.152   9.301  0.4475  0.3094 -0.2655
  183MPD1    C1 2837   4.678   2.124   9.403  0.3127  0.0451 -0.2296
  183MPD1    C2 2838   0.012   2.230   9.463 -0.1175 -0.6242  0.2326
  183MPD1    C3 2839   4.706   2.365   9.436  0.0335  0.7077  0.0464
  183MPD1    C4 2840   4.612   2.393   9.332 -0.3408 -0.7479  0.2764
  183MPD1    C5 2841   4.554   2.281   9.274 -0.1676 -0.7061  0.1363
  183MPD1     H 2842   0.085   2.217   9.542 -1.3621 -1.0588  1.3045
  183MPD1    H1 2843   4.571   2.491   9.309  1.6844  0.3731  1.3647
  183MPD1    H2 2844   4.560   2.069   9.240 -0.7776  0.1181  0.6235
  183MPD1    H3 2845   4.487   2.292   9.190 -0.8690  1.4136  0.9598
  183MPD1     N 2846   0.029   2.475   9.503 -0.7532  0.0859  0.0634
  183MPD1    H5 2847   0.095   2.445   9.574  1.1572 -0.2606 -1.8322
  183MPD1    N1 2848   4.723   1.992   9.430  0.0184 -0.4194  0.1790
  183MPD1    H6 2849   4.648   1.924   9.416 -2.2768  1.9819  0.7170
  183MPD1    H7 2850   0.049   1.981   9.511 -0.9865  1.4440  1.2058
  184MPD1     C 2851   3.802   0.112  10.357 -0.8129 -0.4162  0.0353
  184MPD1    C1 2852   3.897   0.212  10.392 -0.3128 -0.8942  0.3340
  184MPD1    C2 2853   3.969   0.272  10.286  0.4653 -0.4842  0.4874
  184MPD1    C3 2854   3.954   0.234  10.152  0.4019 -0.3135  0.7837
  184MPD1    C4 2855   3.848   0.146  10.127  0.6214  0.0077  0.2654
  184MPD1    C5 2856   3.781   0.082  10.226  0.2173  0.1406 -1.0153
  184MPD1     H 2857   4.059   0.323  10.319  1.5175 -1.6878 -0.5052
  184MPD1    H1 2858   3.839   0.103  10.028 -1.1278  0.6150  0.1602
  184MPD1    H2 2859   3.737   0.068  10.432  0.7340 -0.3082  1.4540
  184MPD1    H3 2860   3.705   0.006  10.213  0.5497 -0.2174 -0.8728
  184MPD1     N 2861   4.034   0.269  10.039 -0.2407 -0.2830 -0.2917
  184MPD1    H5 2862   4.023   0.219   9.951 -1.5629 -0.9924  0.2873
  184MPD1    N1 2863   3.909   0.259  10.522 -0.2212 -0.2711 -0.8646
  184MPD1    H6 2864   4.002   0.299  10.540 -0.6423  0.1954  0.2631
  184MPD1    H7 2865   3.892   0.192  10.596  0.2568  0.3513 -0.1964
  185MPD1     C 2866   4.147   0.155   9.112  0.2694 -0.0753 -0.3304
  185MPD1    C1 2867   4.130   0.056   9.208  0.0979  1.0856  0.3836
  185MPD1    C2 2868   4.159   0.086   9.337 -0.3079 -0.4252  0.3248
  185MPD1    C3 2869   4.238   0.200   9.356 -0.0059 -0.6459  0.2397
  185MPD1    C4 2870   4.292   0.268   9.249 -0.0156 -0.2416 -0.4215
  185MPD1    C5 2871   4.245   0.249   9.128  0.3040 -0.4012  0.4265
  185MPD1     H 2872   4.126   0.018   9.415  0.5616  0.8811  1.8391
  185MPD1    H1 2873   4.361   0.350   9.268  0.4001 -0.4132 -1.2261
  185MPD1    H2 2874   4.101   0.140   9.015 -1.2398  2.5756 -0.0220
  185MPD1    H3 2875   4.277   0.319   9.052 -0.6851 -0.8895 -0.4355
  185MPD1     N 2876   4.288   0.243   9.483 -0.0344  0.4283  0.6191
  185MPD1    H5 2877   4.339   0.331   9.483 -1.8002  1.4575 -1.1533
  185MPD1    N1 2878   4.047   4.683   9.189  0.2026  0.4566  0.3759
  185MPD1    H6 2879   4.064   4.597   9.241 -0.6275  0.8441  1.2719
  185MPD1    H7 2880   4.035   4.655   9.091  0.6781  2.1035 -0.1601
  186MPD1     C 2881   2.051   0.012  15.836 -0.6109  0.0414 -0.6587
  186MPD1    C1 2882   2.180   4.719  15.886  0.3305  0.3129  0.2606
  186MPD1    C2 2883   2.228   0.053  15.995 -0.8919  0.2677  0.8664
  186MPD1    C3 2884   2.156   0.154  16.054 -0.0970 -0.4876  0.6142
  186MPD1    C4 2885   2.025   0.181  16.007  0.3549 -0.1053  0.2871
  186MPD1    C5 2886   1.979   0.113  15.898 -0.4878 -0.5235 -0.2347
  186MPD1     H 2887   2.328   0.031  16.031 -0.7552  0.7385  0.7809
  186MPD1    H1 2888   1.949   0.252  16.040  0.0360  0.2534 -1.2510
  186MPD1    H2 2889   2.012   4.697  15.748  1.2987  2.0026 -2.6210
  186MPD1    H3 2890   1.879   0.129  15.858 -0.8406 -0.7447  0.5657
  186MPD1     N 2891   2.216   0.230  16.158  0.3726  0.0644 -0.2751
  186MPD1    H5 2892   2.314   0.221  16.182  0.7261  2.5238 -0.8817
  186MPD1    N1 2893   2.249   4.598  15.845 -0.7533  0.0204 -0.8492
  186MPD1    H6 2894   2.221   4.580  15.749 -0.0137  1.3816 -1.3320
  186MPD1    H7 2895   2.349   4.617  15.849 -1.1688  2.4189 -1.4124
  187MPD1     C 2896   1.572   2.577   0.414 -0.0378 -0.0723 -0.4034
  187MPD1    C1 2897   1.501   2.697   0.381  0.0172 -0.4657 -0.2955
  187MPD1    C2 2898   1.455   2.717   0.251  0.4287 -0.0075 -0.5411
  187MPD1    C3 2899   1.480   2.622   0.153 -1.1529  0.6845 -0.0586
  187MPD1    C4 2900   1.540   2.504   0.187 -0.0846 -0.7679  0.0958
  187MPD1    C5 2901   1.592   2.483   0.317  0.5057  0.2497 -0.0919
  187MPD1     H 2902   1.403   2.810   0.232  0.4977  0.4007  1.3147
  187MPD1    H1 2903   1.552   2.432   0.106  3.3204 -0.3171  0.2042
  187MPD1    H2 2904   1.616   2.576   0.513 -1.2650  0.7400  0.1693
  187MPD1    H3 2905   1.650   2.394   0.336 -2.4797 -1.7153 -0.0817
  187MPD1     N 2906   1.441   2.630   0.024 -0.2550  0.2063 -0.2476
  187MPD1    H5 2907   1.466   2.553  17.703  3.1432  2.0116 -1.1724
  187MPD1    N1 2908   1.493   2.806   0.468 -1.0401  0.6734 -0.2080
  187MPD1    H6 2909   1.419   2.871   0.443 -1.7997 -0.5829 -1.2586
  187MPD1    H7 2910   1.498   2.786   0.567  0.5655 -0.8683 -0.5884
  188MPD1     C 2911   1.896   0.631  10.031 -0.0151  0.1317  0.3064
  188MPD1    C1 2912   1.766   0.610  10.063 -0.0612 -0.6563  0.0298
  188MPD1    C2 2913   1.688   0.513  10.000 -0.0523  0.0350  0.3516
  188MPD1    C3 2914   1.746   0.444   9.896  0.3883  0.5423  0.6798
  188MPD1    C4 2915   1.871   0.463   9.863 -0.1663 -0.1050 -0.3328
  188MPD1    C5 2916   1.950   0.543   9.939  0.2582  1.3265  0.2602
  188MPD1     H 2917   1.587   0.489  10.031 -0.4321 -1.3270 -1.9432
  188MPD1    H1 2918   1.922   0.403   9.788 -2.8199 -2.1191 -0.5265
  188MPD1    H2 2919   1.962   0.700  10.083 -1.6763  0.8922  1.3914
  188MPD1    H3 2920   2.057   0.550   9.920  0.3130 -0.7125 -0.2133
  188MPD1     N 2921   1.686   0.353   9.809 -0.0669  0.3302 -0.3680
  188MPD1    H5 2922   1.737   0.291   9.747  1.0373  0.9848 -0.1057
  188MPD1    N1 2923   1.716   0.672  10.180  0.3323 -0.4901 -0.2016
  188MPD1    H6 2924   1.743   0.769  10.197 -2.8377  0.7051 -1.9655
  188MPD1    H7 2925   1.615   0.664  10.189  0.3190 -0.2639 -0.1376
  189MPD1     C 2926   3.469   3.370   0.582  0.5567  0.0466 -0.4537
  189MPD1    C1 2927   3.350   3.316   0.537 -0.4698 -0.6054  0.2754
  189MPD1    C2 2928   3.237   3.392   0.527 -0.1429 -0.0981  0.6063
  189MPD1    C3 2929   3.230   3.524   0.574 -0.2274  0.3937  1.2626
  189MPD1    C4 2930   3.343   3.575   0.632  0.0517 -0.0680  0.1734
  189MPD1    C5 2931   3.458   3.499   0.626  0.4387  0.4309  0.3079
  189MPD1     H 2932   3.143   3.357   0.484 -0.8221  0.9745  1.2292
  189MPD1    H1 2933   3.356   3.674   0.676  0.5649  0.2333 -0.6516
  189MPD1    H2 2934   3.567   3.323   0.585 -0.7627 -2.7850 -1.4014
  189MPD1    H3 2935   3.550   3.539   0.667 -0.4961  3.8422 -0.9756
  189MPD1     N 2936   3.107   3.596   0.560 -0.5658 -0.2423  0.0381
  189MPD1    H5 2937   3.036   3.546   0.508 -0.7407 -0.9571  0.9748
  189MPD1    N1 2938   3.355   3.182   0.499 -0.7431  0.1221  0.2416
  189MPD1    H6 2939   3.277   3.158   0.439 -0.3554  1.8737 -0.9711
  189MPD1    H7 2940   3.449   3.158   0.469  0.1540  2.0408  1.5244
  190MPD1     C 2941   1.757   1.171  15.077  0.2520  0.7285  0.0315
  190MPD1    C1 2942   1.844   1.243  15.152 -0.3059  0.4196 -0.0334
  190MPD1    C2 2943   1.895   1.179  15.271  0.4113  0.4869 -0.0368
  190MPD1    C3 2944   1.866   1.051  15.305  0.7639  0.4530 -0.0087
  190MPD1    C4 2945   1.774   0.984  15.226  0.0793 -0.3112  0.1248
  190MPD1    C5 2946   1.722   1.044  15.113  0.1665 -0.3294  0.0408
  190MPD1     H 2947   1.963   1.233  15.336 -0.2114  0.5263  0.5735
  190MPD1    H1 2948   1.731   0.888  15.251 -0.5397 -0.5116 -1.7453
  190MPD1    H2 2949   1.733   1.195  14.974 -2.0686  1.3618  0.7085
  190MPD1    H3 2950   1.647   0.989  15.058 -0.2191 -0.0174  0.2486
  190MPD1     N 2951   1.923   0.995  15.418  0.5271 -0.6027 -0.1055
  190MPD1    H5 2952   1.982   1.060  15.468 -2.2609  0.8340  1.3354
  190MPD1    N1 2953   1.899   1.360  15.103  0.0962 -0.4289  0.2448
  190MPD1    H6 2954   1.836   1.406  15.038  0.9553 -1.5093 -1.3728
  190MPD1    H7 2955   1.921   1.435  15.168  1.8861 -0.9121  0.2190
  191MPD1     C 2956   1.705   3.102  12.968 -0.2363 -0.3947 -0.7201
  191MPD1    C1 2957   1.821   3.033  12.937 -0.7561 -0.7753  0.3824
  191MPD1    C2 2958   1.881   3.042  12.811 -0.0066  0.2334 -0.2101
  191MPD1    C3 2959   1.808   3.103  12.712 -0.0680  0.1310  0.0076
  191MPD1    C4 2960   1.688   3.161  12.738  0.1130 -0.8502 -0.4912
  191MPD1    C5 2961   1.641   3.162  12.868  1.1219 -0.3961  0.7741
  191MPD1     H 2962   1.978   3.004  12.781  0.0854 -0.2231  0.6550
  191MPD1    H1 2963   1.625   3.206  12.662 -1.2647 -2.4994 -0.3225
  191MPD1    H2 2964   1.662   3.104  13.067  0.0141  0.9648 -0.6363
  191MPD1    H3 2965   1.549   3.213  12.897  0.0931 -1.5319 -0.5173
  191MPD1     N 2966   1.872   3.119  12.583  0.1315 -0.3140 -0.4999
  191MPD1    H5 2967   1.960   3.070  12.571 -0.3755 -1.8424  2.0729
  191MPD1    N1 2968   1.893   2.962  13.028  0.2414  0.4725 -1.2810
  191MPD1    H6 2969   1.842   2.918  13.104  0.7595  0.5249 -0.8994
  191MPD1    H7 2970   1.967   2.902  12.991 -0.7297 -1.5425  0.0787
  192MPD1     C 2971   1.787   3.409  11.511 -0.7531  0.3310  0.2971
  192MPD1    C1 2972   1.787   3.494  11.621  0.2405  0.0313 -0.0480
  192MPD1    C2 2973   1.798   3.446  11.750  0.2100 -0.1191  0.0039
  192MPD1    C3 2974   1.826   3.313  11.771 -0.7278  0.4303 -0.5230
  192MPD1    C4 2975   1.822   3.226  11.666  0.8578  0.0776 -0.2151
  192MPD1    C5 2976   1.818   3.278  11.537 -0.1763 -0.8648  0.3859
  192MPD1     H 2977   1.787   3.519  11.829  0.1215  0.3399 -0.4375
  192MPD1    H1 2978   1.837   3.120  11.682 -0.1046 -0.1686 -0.9362
  192MPD1    H2 2979   1.767   3.452  11.413  1.2604 -0.2996 -0.3911
  192MPD1    H3 2980   1.812   3.204  11.458 -0.6895  1.3842 -1.6812
  192MPD1     N 2981   1.847   3.259  11.900  0.0878 -0.0074  0.4618
  192MPD1    H5 2982   1.855   3.158  11.890 -1.4083  0.0001 -0.7214
  192MPD1    N1 2983   1.742   3.625  11.599  0.3898 -0.0118  0.1439
  192MPD1    H6 2984   1.776   3.662  11.511 -0.9616 -1.4846 -1.0008
  192MPD1    H7 2985   1.783   3.683  11.672  2.3712  1.3566 -2.0658
  193MPD1     C 2986   0.674   3.469  16.041  0.0482  0.0145  0.5627
  193MPD1    C1 2987   0.635   3.594  16.089 -0.2336  1.2596 -0.2495
  193MPD1    C2 2988   0.713   3.651  16.188 -0.3603 -0.0940  0.2291
  193MPD1    C3 2989   0.806   3.575  16.258  0.1676  0.2820 -0.2339
  193MPD1    C4 2990   0.834   3.445  16.216 -0.7004  0.5162 -0.3353
  193MPD1    C5 2991   0.774   3.393  16.102  0.2722 -0.4269  0.4411
  193MPD1     H 2992   0.695   3.751  16.226 -1.3954  0.4760 -1.7913
  193MPD1    H1 2993   0.906   3.375  16.257  1.3856  2.9968  0.2603
  193MPD1    H2 2994   0.627   3.425  15.954 -0.4892 -1.2395  1.4842
  193MPD1    H3 2995   0.808   3.302  16.054 -1.4826 -1.6361  1.5058
  193MPD1     N 2996   0.886   3.628  16.361  0.0242 -0.7719  0.7544
  193MPD1    H5 2997   0.955   3.563  16.398  0.5744 -0.6584 -0.0503
  193MPD1    N1 2998   0.547   3.672  16.013 -0.3673  0.9941 -0.4985
  193MPD1    H6 2999   0.475   3.613  15.972  1.3695 -0.7048 -1.1564
  193MPD1    H7 3000   0.500   3.744  16.066 -0.1596  2.3673 -2.1927
  194MPD1     C 3001   3.072   1.265  16.398  0.1826  0.2700  0.2321
  194MPD1    C1 3002   3.123   1.145  16.337 -0.1125  0.3573 -0.0863
  194MPD1    C2 3003   3.166   1.044  16.425 -0.1368  0.6713 -0.0393
  194MPD1    C3 3004   3.150   1.050  16.561  0.4270  0.0584 -0.5254
  194MPD1    C4 3005   3.095   1.162  16.618  0.5327  0.5831  1.0498
  194MPD1    C5 3006   3.064   1.274  16.538 -0.3211 -0.3483  0.6037
  194MPD1     H 3007   3.209   0.952  16.387  1.6087  1.2761  0.4879
  194MPD1    H1 3008   3.086   1.164  16.726 -0.2191  0.2291  0.9932
  194MPD1    H2 3009   3.022   1.343  16.342  0.2856  0.4650  0.4094
  194MPD1    H3 3010   3.010   1.360  16.577 -1.0794 -0.1022 -1.0030
  194MPD1     N 3011   3.203   0.957  16.660 -0.1081  0.4216 -0.7379
  194MPD1    H5 3012   3.188   0.979  16.758  2.1325 -0.8685 -0.0955
  194MPD1    N1 3013   3.122   1.115  16.198 -0.1219 -0.4295  0.9461
  194MPD1    H6 3014   3.122   1.201  16.144  1.2086 -0.1236  1.4241
  194MPD1    H7 3015   3.209   1.071  16.168 -1.2726 -0.8581 -1.6821
  195MPD1     C 3016   0.916   3.124   0.391 -0.6279 -0.4145 -0.0805
  195MPD1    C1 3017   0.960   3.046   0.497 -0.5901  0.2869 -0.1134
  195MPD1    C2 3018   0.971   2.906   0.484  0.1787 -0.2174  0.3919
  195MPD1    C3 3019   0.976   2.859   0.354 -0.0644 -0.2233 -0.3418
  195MPD1    C4 3020   0.935   2.939   0.250 -0.4299 -0.0542  0.0224
  195MPD1    C5 3021   0.896   3.066   0.268  0.2298  0.2686 -0.8368
  195MPD1     H 3022   0.986   2.845   0.572  0.9619 -1.0065 -0.2790
  195MPD1    H1 3023   0.915   2.902   0.150 -0.1585  0.4649 -0.2246
  195MPD1    H2 3024   0.882   3.227   0.395  2.7169  0.7766 -1.7839
  195MPD1    H3 3025   0.857   3.125   0.187  2.9395  0.5094 -1.9497
  195MPD1     N 3026   1.009   2.727   0.330  0.1243 -0.1513 -0.2295
  195MPD1    H5 3027   0.984   2.682   0.243 -0.0852  0.4758 -0.4946
  195MPD1    N1 3028   0.954   3.098   0.630 -0.4499 -0.2293  0.2667
  195MPD1    H6 3029   1.021   3.060   0.697  0.3713  1.1668  0.2619
  195MPD1    H7 3030   0.975   3.197   0.617 -1.0345  0.0057  1.1871
  196MPD1     C 3031   4.513   1.596   0.093  0.2603  0.3233  0.2361
  196MPD1    C1 3032   4.572   1.716   0.056  0.0063 -0.6586  0.3350
  196MPD1    C2 3033   4.614   1.796   0.159  0.3064 -0.7632 -0.6405
  196MPD1    C3 3034   4.584   1.780   0.292 -0.7451 -0.3332 -0.0125
  196MPD1    C4 3035   4.518   1.659   0.321  0.3267 -0.9484 -0.1396
  196MPD1    C5 3036   4.484   1.568   0.224  0.0380 -0.2792 -0.8064
  196MPD1     H 3037   4.686   1.874   0.134  0.9498 -1.5752 -1.3627
  196MPD1    H1 3038   4.494   1.629   0.422  1.6161  1.2137  0.8066
  196MPD1    H2 3039   4.486   1.524   0.017  0.5031  0.5182 -0.0357
  196MPD1    H3 3040   4.449   1.470   0.256 -1.0135  0.0947 -0.8090
  196MPD1     N 3041   4.625   1.863   0.394 -0.4203  0.8186 -0.9336
  196MPD1    H5 3042   4.600   1.834   0.488 -0.5165 -0.8603 -1.4787
  196MPD1    N1 3043   4.615   1.743  17.663 -0.0210  0.5295 -0.1771
  196MPD1    H6 3044   4.625   1.844  17.651 -0.5885  0.6891  0.6759
  196MPD1    H7 3045   4.546   1.703  17.601  0.6400 -1.1898  0.1985
  197MPD1     C 3046   4.406   3.335  17.569 -1.0047 -0.2138 -0.2561
  197MPD1    C1 3047   4.492   3.432  17.614 -0.5319  0.7408 -1.0238
  197MPD1    C2 3048   4.521   3.539  17.534 -0.1066  0.2110  0.5482
  197MPD1    C3 3049   4.468   3.556  17.409 -0.2706 -0.8703 -0.1223
  197MPD1    C4 3050   4.390   3.456  17.358 -0.2592  0.2951 -0.4285
  197MPD1    C5 3051   4.355   3.350  17.443  0.6186  0.7475 -0.3360
  197MPD1     H 3052   4.599   3.608  17.563  0.1937  0.1752 -0.1820
  197MPD1    H1 3053   4.351   3.466  17.257  0.3623  1.4743 -0.5596
  197MPD1    H2 3054   4.374   3.246  17.623  0.2038 -0.0602  0.7261
  197MPD1    H3 3055   4.295   3.267  17.408  2.2364 -0.7261  0.3936
  197MPD1     N 3056   4.496   3.661  17.319 -0.1432 -0.2634 -0.5604
  197MPD1    H5 3057   4.460   3.651  17.225  0.3288  0.5628 -0.8227
  197MPD1    N1 3058   4.526   3.435   0.010  0.1992 -0.1608 -0.3165
  197MPD1    H6 3059   4.536   3.339   0.044 -2.4414 -0.3867 -0.1323
  197MPD1    H7 3060   4.610   3.490   0.023 -0.0212 -0.1679  1.1337
  198MPD1     C 3061   1.169   2.498  15.823  0.0265  0.9656  0.3384
  198MPD1    C1 3062   1.216   2.452  15.946  0.5109 -0.1253  0.3021
  198MPD1    C2 3063   1.348   2.418  15.960 -0.4870  0.6827 -1.2203
  198MPD1    C3 3064   1.425   2.403  15.844 -1.1561 -0.2896 -0.2463
  198MPD1    C4 3065   1.378   2.450  15.725 -0.0148  0.1459 -0.1507
  198MPD1    C5 3066   1.250   2.505  15.713  0.1310  0.5226  0.3473
  198MPD1     H 3067   1.393   2.386  16.054 -0.5476  1.1715 -1.0260
  198MPD1    H1 3068   1.439   2.459  15.636 -0.3849  3.3523 -0.0648
  198MPD1    H2 3069   1.071   2.543  15.811  0.1944  0.8698 -1.3563
  198MPD1    H3 3070   1.225   2.558  15.622 -0.0702 -0.6970 -0.2952
  198MPD1     N 3071   1.557   2.361  15.860 -0.8605  0.8349  0.0521
  198MPD1    H5 3072   1.584   2.328  15.953 -2.5253  2.4243  1.0833
  198MPD1    N1 3073   1.120   2.433  16.048 -0.0808  0.2382 -0.1028
  198MPD1    H6 3074   1.155   2.425  16.143  1.0796 -0.0521 -0.5484
  198MPD1    H7 3075   1.061   2.516  16.055 -2.2455 -1.4540  1.5666
  199MPD1     C 3076   4.426   2.298   9.686 -0.0866 -0.8432  0.5265
  199MPD1    C1 3077   4.326   2.244   9.611  0.4012  0.6198  0.4935
  199MPD1    C2 3078   4.194   2.280   9.630 -0.0497  0.8244 -0.1495
  199MPD1    C3 3079   4.158   2.371   9.724  0.8631  0.0575 -0.0375
  199MPD1    C4 3080   4.270   2.445   9.783 -0.4224 -0.3351 -0.3322
  199MPD1    C5 3081   4.402   2.405   9.763 -0.7475 -0.2416  0.0925
  199MPD1     H 3082   4.111   2.225   9.587  1.5637 -0.8827 -1.0345
  199MPD1    H1 3083   4.251   2.525   9.853  1.2974  0.2565 -0.5396
  199MPD1    H2 3084   4.530   2.268   9.679  0.3170  1.4879 -3.1318
  199MPD1    H3 3085   4.484   2.454   9.814 -1.8199  0.8434  0.7640
  199MPD1     N 3086   4.031   2.407   9.758 -0.2201  0.4959  0.0176
  199MPD1    H5 3087   4.027   2.472   9.835  0.3251 -0.4050  0.8120
  199MPD1    N1 3088   4.362   2.128   9.535 -0.0901  0.7424 -0.2554
  199MPD1    H6 3089   4.456   2.123   9.499  0.4398  0.8207  1.0972
  199MPD1    H7 3090   4.292   2.103   9.466 -0.6311  2.6359 -0.4129
  200MPD1     C 3091   2.353   3.333  13.911 -0.3492  0.2622  0.6856
  200MPD1    C1 3092   2.466   3.266  13.882  0.4669  0.0808  0.2208
  200MPD1    C2 3093   2.573   3.272  13.969  0.3968 -0.1898 -0.2609
  200MPD1    C3 3094   2.569   3.355  14.084 -0.1743 -0.5177  0.0859
  200MPD1    C4 3095   2.457   3.433  14.100  0.1591  0.3795 -0.2062
  200MPD1    C5 3096   2.351   3.418  14.023 -0.5421  0.1562 -0.8523
  200MPD1     H 3097   2.659   3.207  13.958  1.4423  0.6379  3.0547
  200MPD1    H1 3098   2.439   3.499  14.184 -0.1945  1.3976 -1.0774
  200MPD1    H2 3099   2.256   3.320  13.864 -0.1525  0.2195  0.2957
  200MPD1    H3 3100   2.259   3.467  14.052  0.4019  2.2589 -1.3995
  200MPD1     N 3101   2.674   3.351  14.177 -0.3610  0.1652 -0.1562
  200MPD1    H5 3102   2.750   3.285  14.162  0.4685  0.6126  2.0530
  200MPD1    N1 3103   2.459   3.177  13.773 -0.3677  0.0937 -0.3529
  200MPD1    H6 3104   2.385   3.186  13.704 -1.3091  0.2237  0.6751
  200MPD1    H7 3105   2.545   3.154  13.723 -0.1873 -0.2363  0.1114
  201MPD1     C 3106   1.464   1.922  12.882 -0.3035  0.5109 -0.3791
  201MPD1    C1 3107   1.479   1.787  12.911  0.3583  0.3311 -0.3132
  201MPD1    C2 3108   1.486   1.746  13.045  0.6823 -0.4784 -0.2127
  201MPD1    C3 3109   1.486   1.832  13.153  0.0402  0.3191 -0.4252
  201MPD1    C4 3110   1.477   1.968  13.120 -0.2427  0.0751  0.3328
  201MPD1    C5 3111   1.467   2.007  12.990 -0.0660  0.4452 -0.7215
  201MPD1     H 3112   1.514   1.644  13.069  0.5757 -1.0214 -2.4102
  201MPD1    H1 3113   1.485   2.045  13.195  0.8832  0.2198  0.0591
  201MPD1    H2 3114   1.448   1.952  12.779  1.1945  0.1256 -0.7236
  201MPD1    H3 3115   1.477   2.109  12.955 -0.5322  1.2443  1.4690
  201MPD1     N 3116   1.510   1.785  13.286 -0.0190  0.1303  0.2183
  201MPD1    H5 3117   1.499   1.684  13.286 -0.1339  0.1400 -0.2565
  201MPD1    N1 3118   1.474   1.702  12.803  0.3892  0.3076  0.1525
  201MPD1    H6 3119   1.524   1.733  12.720 -0.6929 -0.7315 -0.8967
  201MPD1    H7 3120   1.518   1.615  12.830  1.9589  0.2419 -2.6337
  202MPD1     C 3121   0.143   1.440   9.403 -0.0431 -0.3667 -0.2855
  202MPD1    C1 3122   0.141   1.574   9.420 -0.3249 -0.5102  0.0286
  202MPD1    C2 3123   0.227   1.635   9.511  0.9946  0.1275  0.6030
  202MPD1    C3 3124   0.345   1.570   9.544  0.1086 -0.2692  0.7700
  202MPD1    C4 3125   0.359   1.441   9.505  0.7369  0.3525  0.4238
  202MPD1    C5 3126   0.260   1.375   9.444  0.0430  0.1839 -0.3597
  202MPD1     H 3127   0.215   1.741   9.530 -1.1038 -0.0067  0.0923
  202MPD1    H1 3128   0.453   1.394   9.534 -0.0583 -0.5116  1.6209
  202MPD1    H2 3129   0.067   1.378   9.357 -0.2083  0.1036 -0.6439
  202MPD1    H3 3130   0.279   1.270   9.429  0.8667  0.1889  0.6948
  202MPD1     N 3131   0.464   1.635   9.595  0.3073  0.5380 -0.2319
  202MPD1    H5 3132   0.551   1.583   9.606  0.3437  0.7494  0.4305
  202MPD1    N1 3133   0.023   1.634   9.394 -0.2818  0.6501  0.0191
  202MPD1    H6 3134   0.038   1.735   9.388  0.8122  0.3622 -2.4108
  202MPD1    H7 3135   4.714   1.598   9.310 -0.6162 -2.6587  1.6436
  203MPD1     C 3136   4.356   3.020  12.528  0.0669  0.0112  0.3279
  203MPD1    C1 3137   4.467   2.973  12.462 -0.6507  0.5171 -0.3727
  203MPD1    C2 3138   4.510   2.847  12.486  0.4726  0.0052 -0.3814
  203MPD1    C3 3139   4.458   2.757  12.584 -0.5584  0.8937 -0.8376
  203MPD1    C4 3140   4.350   2.810  12.653 -0.7255  0.6538  0.5066
  203MPD1    C5 3141   4.299   2.937  12.623 -0.8219  0.8346 -0.3655
  203MPD1     H 3142   4.599   2.826  12.427  1.1426 -0.2874  0.7277
  203MPD1    H1 3143   4.311   2.751  12.736 -3.8826  1.1100 -0.6650
  203MPD1    H2 3144   4.320   3.120  12.510 -2.0781 -1.0290 -1.2120
  203MPD1    H3 3145   4.211   2.974  12.675  0.4683  2.6882  0.5386
  203MPD1     N 3146   4.508   2.627  12.596 -0.3893  0.1399 -0.2873
  203MPD1    H5 3147   4.599   2.612  12.552 -0.0986 -0.5350  0.5532
  203MPD1    N1 3148   4.521   3.050  12.354 -0.7024  0.3384  0.4110
  203MPD1    H6 3149   4.526   3.150  12.373  3.3523 -0.1145  1.4834
  203MPD1    H7 3150   4.616   3.034  12.321 -0.9157 -0.6732  0.2750
  204MPD1     C 3151   2.941   4.472  17.543 -0.1704 -0.4499  0.4308
  204MPD1    C1 3152   2.975   4.439  17.410  0.0995 -0.5567  0.1182
  204MPD1    C2 3153   3.094   4.379  17.393 -0.4661  0.7212  0.0353
  204MPD1    C3 3154   3.161   4.322  17.506  0.5320 -0.0430  0.6781
  204MPD1    C4 3155   3.122   4.345  17.632 -0.0386 -0.8953  1.2969
  204MPD1    C5 3156   3.011   4.423  17.654 -0.0027 -1.1735 -0.2290
  204MPD1     H 3157   3.121   4.356  17.291 -0.5840 -0.7904  0.3482
  204MPD1    H1 3158   3.169   4.309  17.723  0.5350 -1.8099  0.6397
  204MPD1    H2 3159   2.854   4.533  17.564 -1.2220 -0.5538 -3.5116
  204MPD1    H3 3160   2.982   4.455   0.014  0.5819  0.5764 -0.6231
  204MPD1     N 3161   3.277   4.249  17.482  1.1794 -0.5094  0.3944
  204MPD1    H5 3162   3.293   4.251  17.382  2.5591 -0.1682  0.6263
  204MPD1    N1 3163   2.897   4.473  17.299  0.4556 -0.5536 -0.5668
  204MPD1    H6 3164   2.832   4.552  17.305  1.2805  0.0728  0.1836
  204MPD1    H7 3165   2.944   4.481  17.209 -1.0768 -4.6423 -1.7070
  205MPD1     C 3166   3.202   2.799  16.824 -0.0571 -0.7357  0.4922
  205MPD1    C1 3167   3.093   2.761  16.892 -0.2485  0.0611  0.0642
  205MPD1    C2 3168   3.075   2.801  17.023 -0.1101  0.3008 -0.3162
  205MPD1    C3 3169   3.165   2.885  17.083 -0.0732 -0.1386  0.1074
  205MPD1    C4 3170   3.278   2.914  17.014  0.4503  0.1817  0.1803
  205MPD1    C5 3171   3.300   2.860  16.894  0.0422  0.0166  0.8061
  205MPD1     H 3172   2.986   2.772  17.078  0.6306 -0.1916  0.6313
  205MPD1    H1 3173   3.349   2.985  17.055  1.2596  0.7877 -2.2854
  205MPD1    H2 3174   3.215   2.782  16.718 -0.1079 -0.2975  0.4128
  205MPD1    H3 3175   3.392   2.868  16.838 -0.0417  1.1307  0.8162
  205MPD1     N 3176   3.134   2.943  17.205  0.2490 -0.2255 -0.5408
  205MPD1    H5 3177   3.209   2.995  17.250 -1.5220  0.2447  1.9068
  205MPD1    N1 3178   2.989   2.692  16.828 -0.2898  0.1794 -0.1373
  205MPD1    H6 3179   3.034   2.629  16.762  3.5113  1.4191  1.2685
  205MPD1    H7 3180   2.944   2.631  16.895 -1.9210  0.0721 -1.3244
  206MPD1     C 3181   3.665   1.066  16.745 -0.7221 -0.1377 -0.3279
  206MPD1    C1 3182   3.669   0.934  16.713  0.2287  0.5001 -0.5296
  206MPD1    C2 3183   3.680   0.886  16.585 -0.8773 -0.6927 -0.0273
  206MPD1    C3 3184   3.669   0.979  16.480 -0.3521  0.3469 -0.5811
  206MPD1    C4 3185   3.655   1.112  16.518  0.1145 -0.1395  0.2198
  206MPD1    C5 3186   3.659   1.153  16.644 -0.8649  0.0240  0.0531
  206MPD1     H 3187   3.678   0.778  16.574 -2.5571 -0.6816  0.1007
  206MPD1    H1 3188   3.649   1.190  16.443  1.3688  1.7552  2.0683
  206MPD1    H2 3189   3.665   1.096  16.849  1.0408 -1.7432  0.1466
  206MPD1    H3 3190   3.651   1.259  16.668  1.0758  0.3669 -0.8282
  206MPD1     N 3191   3.673   0.942  16.342 -0.6566  0.5015  0.3844
  206MPD1    H5 3192   3.658   1.012  16.271  2.9165 -0.3621 -1.2241
  206MPD1    N1 3193   3.696   0.854  16.825  0.4587 -0.4960  0.4924
  206MPD1    H6 3194   3.646   0.893  16.905  1.3828  0.7252  0.4764
  206MPD1    H7 3195   3.668   0.757  16.813 -1.1779 -0.0467  0.6342
  207MPD1     C 3196   1.387   2.928   9.866  0.0635 -0.3453  0.0187
  207MPD1    C1 3197   1.411   3.061   9.886 -0.7232  0.3113 -0.5541
  207MPD1    C2 3198   1.504   3.091   9.981  0.9225 -0.2278 -0.8816
  207MPD1    C3 3199   1.551   3.000  10.073 -0.9204  0.2589  0.4383
  207MPD1    C4 3200   1.509   2.874  10.065 -0.0289  0.2494  0.0608
  207MPD1    C5 3201   1.433   2.841   9.960 -0.5729 -0.2499 -0.0705
  207MPD1     H 3202   1.541   3.192   9.992 -0.7482 -0.0782  3.2077
  207MPD1    H1 3203   1.537   2.797  10.137 -0.5203 -1.0345 -1.1042
  207MPD1    H2 3204   1.315   2.883   9.799  0.2755  0.1907 -0.5733
  207MPD1    H3 3205   1.397   2.739   9.946 -1.4481  0.0667 -0.1629
  207MPD1     N 3206   1.658   3.023  10.157  0.0214  0.8884  0.4443
  207MPD1    H5 3207   1.702   2.941  10.198 -0.2307  0.7232  0.3882
  207MPD1    N1 3208   1.376   3.154   9.790 -0.4023  0.6583 -0.4915
  207MPD1    H6 3209   1.385   3.247   9.830 -1.4529 -0.3125  1.9969
  207MPD1    H7 3210   1.284   3.151   9.746  1.2359 -1.7962 -3.7916
  208MPD1     C 3211   2.787   1.711   0.060  0.2501 -0.4039 -1.3038
  208MPD1    C1 3212   2.712   1.825   0.035 -0.2718  0.2461  0.0777
  208MPD1    C2 3213   2.732   1.932   0.125 -0.2811 -0.5310  0.5521
  208MPD1    C3 3214   2.790   1.913   0.250 -0.2826  0.1614 -0.2556
  208MPD1    C4 3215   2.844   1.787   0.274  0.2248 -0.7154  0.1803
  208MPD1    C5 3216   2.837   1.691   0.180 -0.1532  0.0386  0.1730
  208MPD1     H 3217   2.694   2.031   0.101  0.6815 -0.1721  0.4690
  208MPD1    H1 3218   2.880   1.753   0.370 -0.6665  0.2462  0.8570
  208MPD1    H2 3219   2.778   1.623  17.736 -0.5103 -0.2289 -1.4358
  208MPD1    H3 3220   2.878   1.593   0.203 -0.9876  0.1630  2.1728
  208MPD1     N 3221   2.832   2.029   0.322 -0.4025  0.0157 -0.8004
  208MPD1    H5 3222   2.791   2.117   0.295 -0.4565  0.1939 -0.1367
  208MPD1    N1 3223   2.660   1.840  17.641 -0.0555  0.1105  0.1628
  208MPD1    H6 3224   2.596   1.917  17.625  1.2601  0.9249 -1.2427
  208MPD1    H7 3225   2.611   1.752  17.623 -0.2058  0.3948 -0.8523
  209MPD1     C 3226   2.561   2.055  10.685  0.0945 -0.9213  0.3173
  209MPD1    C1 3227   2.438   2.086  10.643 -0.4405 -0.6190 -0.0838
  209MPD1    C2 3228   2.340   2.131  10.729 -0.1433  0.8362 -0.0929
  209MPD1    C3 3229   2.355   2.141  10.862 -0.5949 -1.0370 -0.3255
  209MPD1    C4 3230   2.483   2.123  10.909  0.4152  0.6489  0.3185
  209MPD1    C5 3231   2.583   2.086  10.821  0.3118  0.6287  0.7901
  209MPD1     H 3232   2.237   2.132  10.693 -0.6969 -1.2523  1.3972
  209MPD1    H1 3233   2.507   2.137  11.014  0.6202  1.7394  0.1314
  209MPD1    H2 3234   2.645   2.017  10.628  1.1506  0.3547  1.0451
  209MPD1    H3 3235   2.679   2.070  10.867  0.4297  1.0836  0.6976
  209MPD1     N 3236   2.246   2.169  10.941 -0.3264  0.8771 -0.4342
  209MPD1    H5 3237   2.160   2.163  10.888  0.1980  0.0898 -1.1878
  209MPD1    N1 3238   2.405   2.030  10.515 -0.3023 -0.0320 -0.2244
  209MPD1    H6 3239   2.336   2.088  10.468  0.3752  0.3386 -0.7506
  209MPD1    H7 3240   2.484   2.027  10.451  0.4601  0.3395  0.7001
  210MPD1     C 3241   2.090   2.910  11.677  0.1351 -0.2293  0.2455
  210MPD1    C1 3242   2.102   2.778  11.715 -0.0164 -0.2877 -0.8355
  210MPD1    C2 3243   2.079   2.682  11.619 -0.3134 -0.2373  0.7747
  210MPD1    C3 3244   2.056   2.723  11.491 -0.2367  0.4819 -0.6400
  210MPD1    C4 3245   2.033   2.852  11.460 -0.1581  0.5043 -0.7154
  210MPD1    C5 3246   2.047   2.944  11.553  0.6519  0.1456  0.0572
  210MPD1     H 3247   2.087   2.578  11.648  2.4806 -0.3596 -0.4433
  210MPD1    H1 3248   1.989   2.878  11.364 -0.8294  0.5072 -0.4087
  210MPD1    H2 3249   2.119   2.986  11.749  0.7476 -2.0811  1.9659
  210MPD1    H3 3250   2.028   3.048  11.531  0.2100  0.6764  2.9403
  210MPD1     N 3251   2.045   2.633  11.384 -0.1932 -0.0133  0.8779
  210MPD1    H5 3252   2.033   2.682  11.296  1.7726 -0.0992  0.5599
  210MPD1    N1 3253   2.164   2.749  11.838 -0.1118  0.1389 -0.1089
  210MPD1    H6 3254   2.142   2.825  11.902  1.9351  1.0801 -0.5018
  210MPD1    H7 3255   2.129   2.662  11.877 -1.6556  0.0870 -1.6494
  211MPD1     C 3256   4.669   3.221  16.730  0.4021 -0.0804  0.5476
  211MPD1    C1 3257   4.610   3.296  16.628  0.3032 -0.4447  0.3735
  211MPD1    C2 3258   4.474   3.278  16.614 -0.0218 -0.2015 -0.2682
  211MPD1    C3 3259   4.403   3.184  16.684 -0.8372  0.4529 -0.1710
  211MPD1    C4 3260   4.469   3.113  16.785 -0.2232  0.6496  1.1699
  211MPD1    C5 3261   4.598   3.135  16.814  0.0629 -1.2973  0.1042
  211MPD1     H 3262   4.420   3.329  16.535 -0.5871  0.2422  0.3961
  211MPD1    H1 3263   4.425   3.034  16.844 -0.4555 -0.1498 -0.0651
  211MPD1    H2 3264   0.040   3.218  16.750  0.6002  1.4685 -0.2591
  211MPD1    H3 3265   4.653   3.070  16.881 -0.6836 -1.7740  0.2569
  211MPD1     N 3266   4.269   3.166  16.650  0.2543  0.1760 -0.7047
  211MPD1    H5 3267   4.229   3.221  16.575 -0.5488  1.8753  0.9807
  211MPD1    N1 3268   4.676   3.404  16.563 -0.1658 -0.5654  0.2161
  211MPD1    H6 3269   4.631   3.423  16.474  1.6284 -1.7245 -0.9226
  211MPD1    H7 3270   0.032   3.366  16.539  0.2132  0.2142  0.4254
  212MPD1     C 3271   3.180   1.530  16.924 -0.0109 -0.2454  1.0293
  212MPD1    C1 3272   3.245   1.426  16.991  0.4222 -0.8846  0.1581
  212MPD1    C2 3273   3.175   1.310  17.004 -0.8549 -0.2129 -0.1704
  212MPD1    C3 3274   3.045   1.296  16.973  0.7512  0.5290 -0.0369
  212MPD1    C4 3275   2.982   1.403  16.927 -0.2464 -0.4525 -0.3130
  212MPD1    C5 3276   3.051   1.515  16.895  0.0925 -0.3338  0.0063
  212MPD1     H 3277   3.212   1.225  17.059  1.4094  0.8525 -0.0453
  212MPD1    H1 3278   2.876   1.403  16.903  0.1235  0.3603 -1.9471
  212MPD1    H2 3279   3.235   1.620  16.897  0.0304 -0.4096  0.5584
  212MPD1    H3 3280   2.993   1.592  16.844 -0.4727  0.6562  2.1631
  212MPD1     N 3281   2.977   1.177  17.002  0.7671 -0.0873  0.0789
  212MPD1    H5 3282   2.877   1.192  17.006  0.2635 -3.4239  0.2340
  212MPD1    N1 3283   3.373   1.447  17.053  0.7531  0.4886 -0.1269
  212MPD1    H6 3284   3.432   1.364  17.057  0.7425  0.5367  1.1443
  212MPD1    H7 3285   3.431   1.520  17.013  0.9011  0.9172  0.8596
  213MPD1     C 3286   1.344   1.527  15.607  0.1419 -0.6676 -0.6014
  213MPD1    C1 3287   1.391   1.626  15.518  0.0659  0.3418 -0.4987
  213MPD1    C2 3288   1.330   1.630  15.398  0.1513 -0.0823 -0.2656
  213MPD1    C3 3289   1.214   1.566  15.366 -0.2451  0.4272 -0.2327
  213MPD1    C4 3290   1.171   1.473  15.458 -1.0219  1.4281  0.9732
  213MPD1    C5 3291   1.238   1.451  15.577 -0.6956 -0.5373 -0.5528
  213MPD1     H 3292   1.379   1.692  15.323  0.5989 -1.3969 -1.0642
  213MPD1    H1 3293   1.075   1.422  15.453 -0.1910 -0.3242  2.5490
  213MPD1    H2 3294   1.408   1.488  15.685  0.9011  4.2054  1.2471
  213MPD1    H3 3295   1.216   1.370  15.645 -1.3484 -0.7733 -1.0424
  213MPD1     N 3296   1.144   1.596  15.247 -0.4181 -0.7551  0.4460
  213MPD1    H5 3297   1.179   1.677  15.197 -2.0706 -0.3782 -0.1273
  213MPD1    N1 3298   1.522   1.677  15.533 -0.4033 -0.3937 -0.5645
  213MPD1    H6 3299   1.545   1.703  15.628 -0.7534  2.1264 -1.1781
  213MPD1    H7 3300   1.534   1.762  15.478  0.3795 -0.1400  0.0082
  214MPD1     C 3301   0.709   1.031  14.496 -0.5092 -0.8799 -0.5613
  214MPD1    C1 3302   0.760   1.147  14.438 -0.1817  0.2277  0.2412
  214MPD1    C2 3303   0.798   1.246  14.532 -0.0070 -0.3050  0.1424
  214MPD1    C3 3304   0.774   1.226  14.671  0.7423 -0.1387  0.7627
  214MPD1    C4 3305   0.709   1.118  14.717  0.1921  0.6922 -0.2084
  214MPD1    C5 3306   0.677   1.017  14.629  0.3866 -0.3778 -0.1717
  214MPD1     H 3307   0.848   1.335  14.497 -0.4113 -0.2635 -0.3329
  214MPD1    H1 3308   0.687   1.102  14.822  1.0837 -4.0789 -0.7443
  214MPD1    H2 3309   0.682   0.941  14.440  0.2616 -2.5171  1.7123
  214MPD1    H3 3310   0.632   0.928  14.671 -1.1879  0.2180 -0.6086
  214MPD1     N 3311   0.822   1.320  14.763  0.5721 -0.0895 -0.4074
  214MPD1    H5 3312   0.788   1.306  14.858  1.2773  1.2214  0.0422
  214MPD1    N1 3313   0.802   1.156  14.304 -0.2246  0.5514 -0.2871
  214MPD1    H6 3314   0.741   1.093  14.252  1.4084 -0.4668 -0.9869
  214MPD1    H7 3315   0.792   1.251  14.269  1.1570  0.8135  0.0215
  215MPD1     C 3316   1.601   1.987  10.637 -0.4098  0.8115  0.1769
  215MPD1    C1 3317   1.595   1.992  10.776  0.1038 -0.0014 -0.0979
  215MPD1    C2 3318   1.573   2.119  10.833  0.5840  0.8887  0.2358
  215MPD1    C3 3319   1.549   2.235  10.757  0.1234 -0.2368 -0.1110
  215MPD1    C4 3320   1.554   2.230  10.620  0.0967  0.3639  0.2159
  215MPD1    C5 3321   1.575   2.106  10.564  0.2945 -0.7550  0.5465
  215MPD1     H 3322   1.575   2.142  10.939  0.1341  0.6137  0.3060
  215MPD1    H1 3323   1.546   2.318  10.556 -1.3923  0.9118  1.1431
  215MPD1    H2 3324   1.607   1.892  10.586 -0.6919  1.1523 -0.4858
  215MPD1    H3 3325   1.582   2.091  10.457 -0.3790 -0.7200  0.4959
  215MPD1     N 3326   1.540   2.358  10.826  0.6502  0.3369 -0.3694
  215MPD1    H5 3327   1.590   2.357  10.915  1.0410 -2.1939 -0.6040
  215MPD1    N1 3328   1.607   1.882  10.859 -0.2472 -0.5672 -0.1945
  215MPD1    H6 3329   1.556   1.876  10.946  0.1627  0.4584  0.1143
  215MPD1    H7 3330   1.605   1.794  10.807  0.8709 -0.0813 -1.0821
  216MPD1     C 3331   3.023   1.033  17.345  0.0758  0.2393  0.4734
  216MPD1    C1 3332   3.072   0.903  17.320 -0.0985 -0.2449 -0.0009
  216MPD1    C2 3333   2.994   0.797  17.364 -0.1373 -0.3220  0.0374
  216MPD1    C3 3334   2.885   0.817  17.441  0.4153 -0.1452 -0.4164
  216MPD1    C4 3335   2.840   0.940  17.467  0.0610 -0.3636  0.1321
  216MPD1    C5 3336   2.909   1.050  17.427  0.4094  0.2724  0.2046
  216MPD1     H 3337   3.026   0.695  17.351 -1.7387 -0.6667 -1.2357
  216MPD1    H1 3338   2.747   0.949  17.523 -0.2348 -1.0007 -0.2516
  216MPD1    H2 3339   3.082   1.118  17.312 -0.9049  1.7474  2.5739
  216MPD1    H3 3340   2.864   1.146  17.453  0.1174 -0.1906  1.4201
  216MPD1     N 3341   2.818   0.702  17.489  0.0645  0.1908 -0.2673
  216MPD1    H5 3342   2.863   0.614  17.464 -0.8047 -0.6471  1.1341
  216MPD1    N1 3343   3.194   0.880  17.245  0.3374  0.4052 -0.1499
  216MPD1    H6 3344   3.240   0.790  17.261  0.7503  0.7092  0.3693
  216MPD1    H7 3345   3.263   0.952  17.265  2.0532 -1.4141  0.5454
  217MPD1     C 3346   4.054   1.131   9.330  0.0031  0.3902  0.0031
  217MPD1    C1 3347   3.997   1.247   9.373  0.2916 -0.0026  0.0517
  217MPD1    C2 3348   3.986   1.349   9.277 -0.4730  0.3247 -0.3785
  217MPD1    C3 3349   4.059   1.349   9.157 -0.5548  0.1899  0.1310
  217MPD1    C4 3350   4.130   1.232   9.127 -0.0720 -0.2644  1.0652
  217MPD1    C5 3351   4.123   1.126   9.213 -0.5024 -0.2896  0.0191
  217MPD1     H 3352   3.926   1.435   9.303  0.1887  0.5079  0.5831
  217MPD1    H1 3353   4.182   1.216   9.034 -1.2569  0.1748  0.3386
  217MPD1    H2 3354   4.054   1.052   9.405 -1.5505  0.2162 -0.1721
  217MPD1    H3 3355   4.177   1.036   9.186 -0.9525 -0.9667  1.4037
  217MPD1     N 3356   4.070   1.460   9.069 -0.3428  0.0128 -0.0228
  217MPD1    H5 3357   4.122   1.448   8.983 -0.3223  1.9557 -0.2615
  217MPD1    N1 3358   3.946   1.242   9.505  0.5991  0.3377  0.0183
  217MPD1    H6 3359   3.949   1.336   9.544  1.4095  0.3196 -0.0131
  217MPD1    H7 3360   4.011   1.191   9.564  1.5892  1.0438 -0.4600
  218MPD1     C 3361   0.870   3.450  12.635 -1.1140  0.5356 -0.4831
  218MPD1    C1 3362   0.833   3.315  12.627  0.1803 -0.3914  0.0901
  218MPD1    C2 3363   0.932   3.221  12.616 -0.3256  0.1144  0.2067
  218MPD1    C3 3364   1.065   3.258  12.629 -0.0677 -0.3867  0.3190
  218MPD1    C4 3365   1.102   3.383  12.667  0.9231  1.0463 -0.3043
  218MPD1    C5 3366   1.005   3.481  12.670 -0.3615 -0.0834 -0.5272
  218MPD1     H 3367   0.901   3.117  12.610  3.0810 -0.8339 -0.9698
  218MPD1    H1 3368   1.206   3.412  12.674  0.5892  2.1359  0.1460
  218MPD1    H2 3369   0.800   3.531  12.614 -1.1973  0.1911 -1.5218
  218MPD1    H3 3370   1.040   3.583  12.681 -1.2052  0.1661 -0.1308
  218MPD1     N 3371   1.161   3.158  12.608 -0.2074 -0.1922 -0.4683
  218MPD1    H5 3372   1.132   3.073  12.560  0.7299 -0.5276 -0.4553
  218MPD1    N1 3373   0.702   3.277  12.609 -0.3871 -0.1702 -0.3972
  218MPD1    H6 3374   0.625   3.343  12.614  0.2081  0.4490  0.4638
  218MPD1    H7 3375   0.688   3.193  12.665  0.2297  0.5954  0.8946
  219MPD1     C 3376   1.092   2.418  12.058  0.3943 -0.1020 -0.4093
  219MPD1    C1 3377   1.109   2.552  12.031  0.4143  0.0726  0.6765
  219MPD1    C2 3378   1.171   2.633  12.130  0.3154  0.6460  0.2456
  219MPD1    C3 3379   1.195   2.586  12.258 -0.1689  0.3062 -0.6841
  219MPD1    C4 3380   1.167   2.458  12.284 -0.3910 -0.2481 -0.2343
  219MPD1    C5 3381   1.115   2.376  12.187 -0.0622  0.3021 -0.2114
  219MPD1     H 3382   1.203   2.732  12.099 -0.5217  0.7294 -0.3615
  219MPD1    H1 3383   1.193   2.411  12.378  0.7486  2.0193  0.5839
  219MPD1    H2 3384   1.055   2.351  11.981 -1.2052 -1.0159  1.1313
  219MPD1    H3 3385   1.102   2.271  12.210  0.0635  0.2445 -0.3987
  219MPD1     N 3386   1.250   2.665  12.367  0.3141  0.4707  0.5422
  219MPD1    H5 3387   1.263   2.616  12.455  2.8022 -1.6632 -1.0125
  219MPD1    N1 3388   1.085   2.603  11.902  0.9458  1.0474 -0.4890
  219MPD1    H6 3389   1.055   2.700  11.901  0.4286  0.8698 -1.8024
  219MPD1    H7 3390   1.015   2.546  11.855  2.5215  0.8584 -2.6278
  220MPD1     C 3391   1.189   3.719   9.469  0.2314  0.3152  0.4719
  220MPD1    C1 3392   1.296   3.700   9.548  0.0373  0.7773 -0.0193
  220MPD1    C2 3393   1.280   3.629   9.667  0.3989  0.2181  0.3211
  220MPD1    C3 3394   1.159   3.573   9.711 -0.0374 -0.3276  0.5383
  220MPD1    C4 3395   1.053   3.596   9.627 -0.4679 -0.6244 -0.3059
  220MPD1    C5 3396   1.069   3.668   9.511  0.8008 -0.3400  0.2647
  220MPD1     H 3397   1.370   3.612   9.726 -0.1077 -1.0198  0.7234
  220MPD1    H1 3398   0.955   3.557   9.652 -0.7528  0.8553  0.8903
  220MPD1    H2 3399   1.185   3.778   9.377 -0.9365  2.8919  2.1783
  220MPD1    H3 3400   0.974   3.679   9.460 -0.1431  1.4927  2.4302
  220MPD1     N 3401   1.160   3.496   9.827 -0.0640 -0.1140  0.8291
  220MPD1    H5 3402   1.247   3.475   9.874 -0.0364 -0.2206  0.7319
  220MPD1    N1 3403   1.409   3.779   9.525  0.0133  0.0138  0.2643
  220MPD1    H6 3404   1.427   3.799   9.427  1.6094  1.4540  0.8407
  220MPD1    H7 3405   1.496   3.749   9.568  0.5528 -0.6544 -1.2877
  221MPD1     C 3406   2.797   2.266  15.850  0.0425  0.1444  0.5140
  221MPD1    C1 3407   2.858   2.388  15.822 -0.0975  0.0707 -0.6336
  221MPD1    C2 3408   2.971   2.424  15.899 -0.0289 -0.0964  0.1431
  221MPD1    C3 3409   3.036   2.330  15.975  0.0559 -0.7050 -0.2815
  221MPD1    C4 3410   2.969   2.208  15.995 -0.2220  0.3377  0.5533
  221MPD1    C5 3411   2.847   2.183  15.945  0.6857 -0.0058  0.1276
  221MPD1     H 3412   3.022   2.518  15.881 -0.4788  0.0397 -0.4013
  221MPD1    H1 3413   3.005   2.124  16.053  0.7850 -0.1948 -0.8576
  221MPD1    H2 3414   2.698   2.234  15.818 -0.2265 -0.6822  2.1696
  221MPD1    H3 3415   2.795   2.100  15.992  1.5126 -1.4190 -1.4381
  221MPD1     N 3416   3.153   2.352  16.045 -0.6254 -0.1816  0.0299
  221MPD1    H5 3417   3.178   2.269  16.099  0.0760  0.7786  1.1852
  221MPD1    N1 3418   2.787   2.487  15.745 -0.2652  0.1227 -0.0518
  221MPD1    H6 3419   2.843   2.563  15.706  1.2504 -1.2085 -0.4773
  221MPD1    H7 3420   2.708   2.459  15.688 -0.9331  1.9332 -0.0345
  222MPD1     C 3421   2.768   1.542  17.142  0.1298  0.4370 -0.3378
  222MPD1    C1 3422   2.639   1.578  17.165 -0.8997 -0.1783 -0.0931
  222MPD1    C2 3423   2.585   1.546  17.290  1.0749  0.0334 -0.7346
  222MPD1    C3 3424   2.663   1.493  17.389  0.3064  0.3192  1.0483
  222MPD1    C4 3425   2.792   1.452  17.357  0.2148  0.4037 -0.3394
  222MPD1    C5 3426   2.847   1.486  17.241 -0.6362 -0.3272 -0.5254
  222MPD1     H 3427   2.485   1.581  17.312  1.0644 -0.0303 -0.6827
  222MPD1    H1 3428   2.856   1.418  17.437  1.0973 -0.0658 -1.2614
  222MPD1    H2 3429   2.812   1.555  17.043 -1.8150 -0.3357 -1.2976
  222MPD1    H3 3430   2.948   1.465  17.208  0.1130  1.5629  0.5962
  222MPD1     N 3431   2.623   1.484  17.522 -0.5712  0.0602  0.5200
  222MPD1    H5 3432   2.676   1.424  17.584  0.8520  0.3620 -0.3931
  222MPD1    N1 3433   2.561   1.637  17.068 -0.0368  0.3563  0.5055
  222MPD1    H6 3434   2.600   1.723  17.029 -1.4834  1.3757  1.2772
  222MPD1    H7 3435   2.481   1.660  17.126  0.6484  1.0442  1.1735
  223MPD1     C 3436   2.852   0.791   0.221 -0.3640 -0.2210 -0.6248
  223MPD1    C1 3437   2.888   0.859   0.103  0.1237  0.6717  0.1650
  223MPD1    C2 3438   2.830   0.988   0.082 -0.4889 -0.3047  0.2184
  223MPD1    C3 3439   2.725   1.028   0.165  0.1625  0.0980  0.2033
  223MPD1    C4 3440   2.689   0.950   0.269  0.2186 -0.5474 -0.0401
  223MPD1    C5 3441   2.744   0.832   0.299 -0.2059  0.0365 -0.1239
  223MPD1     H 3442   2.864   1.055   0.004  0.2917 -0.9588 -0.0103
  223MPD1    H1 3443   2.627   0.992   0.347  0.2115 -3.7547  1.6794
  223MPD1    H2 3444   2.901   0.698   0.248 -0.2107  0.3407  1.0502
  223MPD1    H3 3445   2.721   0.778   0.389 -0.2508 -2.4390 -1.6224
  223MPD1     N 3446   2.678   1.161   0.141 -0.0148 -0.1785 -0.2437
  223MPD1    H5 3447   2.721   1.204   0.060  1.0359  1.8608  1.4102
  223MPD1    N1 3448   3.000   0.823   0.030 -0.2450 -0.6079  0.6570
  223MPD1    H6 3449   2.985   0.845  17.671 -1.8422  2.3658  1.5825
  223MPD1    H7 3450   3.011   0.721   0.029  3.1175 -0.2369  0.6222
  224MPD1     C 3451   4.659   3.730   9.277  0.2576  0.1174  0.0412
  224MPD1    C1 3452   0.039   3.661   9.313 -0.4835  0.4525  0.1362
  224MPD1    C2 3453   0.032   3.529   9.331  0.5354  0.0799  0.2101
  224MPD1    C3 3454   4.650   3.458   9.311 -0.1484  0.2846  0.3881
  224MPD1    C4 3455   4.536   3.516   9.256 -0.3662  0.4831 -0.2190
  224MPD1    C5 3456   4.540   3.657   9.247  0.1830  0.1536  0.0832
  224MPD1     H 3457   0.120   3.478   9.368  0.4152 -0.1276  0.2114
  224MPD1    H1 3458   4.447   3.459   9.232 -0.8528  1.9957 -2.0157
  224MPD1    H2 3459   4.646   3.837   9.263 -3.7869 -0.6369 -2.1483
  224MPD1    H3 3460   4.454   3.709   9.208  0.9638  1.8700  0.6272
  224MPD1     N 3461   4.639   3.317   9.316 -0.1437  0.5491  0.4611
  224MPD1    H5 3462   4.545   3.285   9.298 -0.5720  1.5691  0.8863
  224MPD1    N1 3463   0.162   3.734   9.333  0.1508 -0.3402  0.6275
  224MPD1    H6 3464   0.183   3.790   9.250 -1.1110  1.3814  1.4635
  224MPD1    H7 3465   0.239   3.669   9.343  0.3994  0.1346  1.8103
  225MPD1     C 3466   1.475   3.498  12.409  0.2216 -0.3847  0.0923
  225MPD1    C1 3467   1.435   3.381  12.347  0.0028 -0.2679  0.0003
  225MPD1    C2 3468   1.301   3.380  12.317 -0.3858  0.3385 -0.1477
  225MPD1    C3 3469   1.206   3.470  12.358  0.0701 -0.2438 -0.2824
  225MPD1    C4 3470   1.246   3.575  12.429  0.3715 -0.2913 -0.1431
  225MPD1    C5 3471   1.374   3.585  12.452  0.5783  0.4318 -0.7021
  225MPD1     H 3472   1.260   3.299  12.258 -1.3477  0.4525  0.3645
  225MPD1    H1 3473   1.180   3.658  12.451  0.2358 -0.0998 -1.3005
  225MPD1    H2 3474   1.575   3.520  12.445  0.0861  0.2026  0.1094
  225MPD1    H3 3475   1.396   3.664  12.523  2.0237 -2.7599  2.4403
  225MPD1     N 3476   1.070   3.461  12.326  0.2129  1.0695 -0.4446
  225MPD1    H5 3477   1.011   3.536  12.360 -0.9424  0.4298 -1.0559
  225MPD1    N1 3478   1.528   3.291  12.285  0.4360 -0.1524  0.0774
  225MPD1    H6 3479   1.609   3.294  12.347 -0.4019 -1.4768  1.2363
  225MPD1    H7 3480   1.501   3.195  12.266  0.1882 -0.2990  1.1366
  226MPD1     C 3481   3.745   3.341   9.231  0.3592  0.0890 -0.1623
  226MPD1    C1 3482   3.709   3.451   9.306 -0.1439 -0.6576 -0.8027
  226MPD1    C2 3483   3.816   3.521   9.367 -0.2910  0.3922  0.3332
  226MPD1    C3 3484   3.948   3.483   9.352  0.1239 -0.1018 -0.2669
  226MPD1    C4 3485   3.975   3.377   9.278 -0.0565  0.7716  0.7195
  226MPD1    C5 3486   3.879   3.313   9.208  0.8131  0.3674 -0.6922
  226MPD1     H 3487   3.809   3.610   9.429 -0.0530  0.6994 -0.0799
  226MPD1    H1 3488   4.079   3.348   9.264 -1.1586 -1.2148 -3.4040
  226MPD1    H2 3489   3.674   3.278   9.179 -3.0016  2.3710  1.6765
  226MPD1    H3 3490   3.900   3.226   9.147  0.9037 -0.4544  0.5027
  226MPD1     N 3491   4.046   3.556   9.417 -0.0218  0.0206  0.2022
  226MPD1    H5 3492   4.019   3.639   9.468 -0.9947  0.7186 -1.4647
  226MPD1    N1 3493   3.577   3.495   9.308  0.1003 -0.2943 -0.4664
  226MPD1    H6 3494   3.559   3.560   9.384  0.7260 -0.9761  0.2620
  226MPD1    H7 3495   3.493   3.438   9.316  0.2906 -0.2993  1.5703
  227MPD1     C 3496   4.279   4.502   9.518 -0.2768 -0.0837 -0.2472
  227MPD1    C1 3497   4.295   4.455   9.652 -0.0691  0.3993 -0.0421
  227MPD1    C2 3498   4.290   4.323   9.679  0.0438 -0.1366 -0.0860
  227MPD1    C3 3499   4.261   4.238   9.573  0.8102  0.1983 -0.0527
  227MPD1    C4 3500   4.251   4.284   9.443  0.5850 -0.1246 -0.2399
  227MPD1    C5 3501   4.258   4.415   9.415  0.7287  0.0712 -0.5766
  227MPD1     H 3502   4.315   4.275   9.773 -0.9823  0.6124  0.5577
  227MPD1    H1 3503   4.235   4.222   9.356 -3.1974  1.3629 -0.6056
  227MPD1    H2 3504   4.283   4.608   9.495 -1.7803  0.1494  0.5612
  227MPD1    H3 3505   4.236   4.458   9.318 -1.0952 -2.0385 -1.1088
  227MPD1     N 3506   4.265   4.102   9.605 -0.0083  0.1825 -0.2221
  227MPD1    H5 3507   4.306   4.065   9.690 -0.4595  1.7165  0.6594
  227MPD1    N1 3508   4.347   4.547   9.743 -0.6452 -0.5287 -0.0041
  227MPD1    H6 3509   4.319   4.643   9.725 -1.1440 -1.0559 -2.0443
  227MPD1    H7 3510   4.328   4.521   9.840 -1.0854  0.3331  0.1363
  228MPD1     C 3511   3.268   1.183  13.122  0.1379 -0.0962  0.2581
  228MPD1    C1 3512   3.230   1.251  13.010  0.3152 -0.4330  0.1223
  228MPD1    C2 3513   3.101   1.262  12.981 -0.3288  0.0738  0.2086
  228MPD1    C3 3514   3.009   1.182  13.039 -0.4082  0.2862  0.1891
  228MPD1    C4 3515   3.048   1.092  13.132 -0.5109  0.1941  0.2419
  228MPD1    C5 3516   3.179   1.093  13.175  0.8540  0.2832  0.2559
  228MPD1     H 3517   3.065   1.334  12.908 -0.5830 -2.8807 -2.5717
  228MPD1    H1 3518   2.980   1.022  13.180  0.2313 -0.4659  0.3320
  228MPD1    H2 3519   3.374   1.176  13.144 -0.0221  0.3927  1.2163
  228MPD1    H3 3520   3.206   1.037  13.264  0.5200  0.7485  0.6486
  228MPD1     N 3521   2.872   1.203  13.012  0.2778 -0.6685 -0.1323
  228MPD1    H5 3522   2.848   1.279  12.949  0.0167 -2.3908 -2.1313
  228MPD1    N1 3523   3.330   1.335  12.963 -0.5312  0.3898  0.4167
  228MPD1    H6 3524   3.422   1.296  12.985 -0.1591  0.5261 -0.9429
  228MPD1    H7 3525   3.315   1.339  12.863  1.2257  2.0023  0.2291
  229MPD1     C 3526   1.642   4.602  15.446 -0.7509  0.0650  0.2920
  229MPD1    C1 3527   1.761   4.650  15.496  0.2452 -0.4648 -0.3916
  229MPD1    C2 3528   1.866   4.564  15.487  1.2350  0.1078  0.4299
  229MPD1    C3 3529   1.866   4.437  15.435  0.3312 -0.0311  0.4032
  229MPD1    C4 3530   1.748   4.399  15.373 -0.5923  0.1049  0.1927
  229MPD1    C5 3531   1.639   4.477  15.378  0.1412  0.4490  0.0527
  229MPD1     H 3532   1.960   4.590  15.534  0.1606  2.2026  1.4027
  229MPD1    H1 3533   1.754   4.306  15.317  2.8756 -0.8747  2.1875
  229MPD1    H2 3534   1.554   4.664  15.451 -0.3007  0.6572  0.9442
  229MPD1    H3 3535   1.549   4.449  15.324  0.8506  0.4668 -1.1443
  229MPD1     N 3536   1.969   4.346  15.447 -0.1408  0.1280  0.0650
  229MPD1    H5 3537   1.954   4.261  15.395  0.4356  0.1199 -0.0880
  229MPD1    N1 3538   1.763   0.030  15.579 -0.3688  0.2208 -0.0354
  229MPD1    H6 3539   1.845   0.090  15.579 -0.3297  0.1717  0.7511
  229MPD1    H7 3540   1.688   0.096  15.558  1.2250  2.5002  1.4092
  230MPD1     C 3541   2.762   3.837  16.002 -0.4069 -0.5999  0.0128
  230MPD1    C1 3542   2.677   3.746  15.948 -0.7049 -0.0961 -0.1169
  230MPD1    C2 3543   2.564   3.799  15.876 -0.7187  0.2947 -0.7681
  230MPD1    C3 3544   2.556   3.927  15.839  0.0334  0.2542  0.4414
  230MPD1    C4 3545   2.654   4.015  15.888 -0.7675 -0.2395  0.0745
  230MPD1    C5 3546   2.747   3.964  15.972  0.2648 -0.0865 -0.0846
  230MPD1     H 3547   2.484   3.733  15.846  0.9927 -1.3583 -1.6756
  230MPD1    H1 3548   2.647   4.119  15.857 -0.0734 -0.8637 -2.1659
  230MPD1    H2 3549   2.847   3.809  16.065 -0.2147  0.6877  0.3323
  230MPD1    H3 3550   2.822   4.034  16.007 -1.9422  1.1260  2.2633
  230MPD1     N 3551   2.454   3.979  15.752 -0.1886 -0.4438 -0.3284
  230MPD1    H5 3552   2.403   3.910  15.698 -0.8491  0.3419 -0.7107
  230MPD1    N1 3553   2.675   3.611  15.981 -0.3452  0.0174 -0.1246
  230MPD1    H6 3554   2.633   3.560  15.904 -0.4211 -0.7143  0.4016
  230MPD1    H7 3555   2.770   3.575  15.993 -0.2461  0.5335  0.6567
  231MPD1     C 3556   0.774   1.822  15.226 -0.5642  0.7340 -0.4993
  231MPD1    C1 3557   0.685   1.848  15.127 -0.0212  0.2317 -0.3004
  231MPD1    C2 3558   0.730   1.935  15.028 -0.8255  0.5386 -0.0523
  231MPD1    C3 3559   0.847   2.010  15.045  0.7223  0.6814 -0.4385
  231MPD1    C4 3560   0.925   1.990  15.154  0.5696 -0.1187  0.2703
  231MPD1    C5 3561   0.891   1.897  15.246  0.1357 -0.3240 -0.5572
  231MPD1     H 3562   0.677   1.947  14.934  0.1100  1.0562 -0.5117
  231MPD1    H1 3563   1.008   2.054  15.181 -1.6521  2.0137  2.1307
  231MPD1    H2 3564   0.726   1.750  15.292  1.3585 -0.1520 -0.0821
  231MPD1    H3 3565   0.958   1.887  15.331  0.7001  1.8309 -0.7458
  231MPD1     N 3566   0.865   2.108  14.945  0.5940  0.4206 -0.5436
  231MPD1    H5 3567   0.801   2.101  14.867  1.8617 -2.4380 -1.3077
  231MPD1    N1 3568   0.581   1.755  15.102 -0.5465 -0.2611  0.5644
  231MPD1    H6 3569   0.546   1.721  15.191  0.3355  0.3699  1.1611
  231MPD1    H7 3570   0.507   1.781  15.037  0.4048  0.3481 -0.2789
  232MPD1     C 3571   2.311   4.712   0.682 -0.2457 -0.6858 -0.5174
  232MPD1    C1 3572   2.204   0.061   0.661  0.2110  0.7452 -1.0227
  232MPD1    C2 3573   2.100   0.022   0.585  0.5689  0.3352  0.2087
  232MPD1    C3 3574   2.089   4.631   0.539 -0.4125  0.7539 -0.2955
  232MPD1    C4 3575   2.187   4.540   0.564 -0.4770 -0.0507  0.4389
  232MPD1    C5 3576   2.292   4.584   0.637 -0.1076 -0.5906  0.2826
  232MPD1     H 3577   2.021   0.095   0.572 -0.2390 -0.1998  2.1893
  232MPD1    H1 3578   2.179   4.438   0.530 -1.0388  0.4496 -0.9653
  232MPD1    H2 3579   2.412   4.728   0.719 -1.4050  1.1636  1.8626
  232MPD1    H3 3580   2.371   4.509   0.644  0.4069  0.0794  1.6140
  232MPD1     N 3581   1.986   4.609   0.452 -0.0066 -0.0013 -0.3660
  232MPD1    H5 3582   1.917   4.683   0.437 -0.8402 -0.1367  2.7734
  232MPD1    N1 3583   2.218   0.187   0.719  0.4509  0.1642  0.6837
  232MPD1    H6 3584   2.292   0.186   0.789  1.3130 -2.9569 -0.2933
  232MPD1    H7 3585   2.129   0.219   0.757 -0.3365 -0.2833 -0.7720
  233MPD1     C 3586   2.303   3.358   1.450  0.3134 -0.5568 -0.3385
  233MPD1    C1 3587   2.291   3.248   1.533 -0.6373  0.3422  0.2033
  233MPD1    C2 3588   2.402   3.162   1.539  0.1959 -0.1573  0.1432
  233MPD1    C3 3589   2.526   3.186   1.485  0.2263 -0.0884 -0.5080
  233MPD1    C4 3590   2.536   3.303   1.414 -0.3261 -0.3327  0.2809
  233MPD1    C5 3591   2.423   3.375   1.388 -0.1959  0.0387  0.7089
  233MPD1     H 3592   2.384   3.078   1.605 -0.0692 -1.1164 -1.1642
  233MPD1    H1 3593   2.624   3.319   1.353 -1.2035 -0.9796 -1.1639
  233MPD1    H2 3594   2.227   3.433   1.432 -1.5782 -2.1692  0.9852
  233MPD1    H3 3595   2.421   3.450   1.309  1.4377  0.3908  0.9954
  233MPD1     N 3596   2.636   3.100   1.490  0.2672 -0.9909  0.0577
  233MPD1    H5 3597   2.724   3.126   1.446  0.1604  0.8166  0.9537
  233MPD1    N1 3598   2.169   3.223   1.602  0.2146  0.2809 -0.1940
  233MPD1    H6 3599   2.133   3.314   1.630  2.1180  1.8964 -3.0075
  233MPD1    H7 3600   2.178   3.174   1.691  1.5523  2.2908  0.7717
  234MPD1     C 3601   0.947   1.522   9.440 -0.2254  0.7789 -0.4737
  234MPD1    C1 3602   0.964   1.654   9.462 -0.2247  0.0275  0.1576
  234MPD1    C2 3603   0.854   1.741   9.432  0.3360  0.4698  0.5259
  234MPD1    C3 3604   0.740   1.686   9.374 -0.0165 -0.8403 -0.3422
  234MPD1    C4 3605   0.724   1.548   9.361 -0.2724 -0.0192 -0.7734
  234MPD1    C5 3606   0.835   1.466   9.385 -0.3544 -0.4105 -0.0933
  234MPD1     H 3607   0.856   1.848   9.443  1.0043  0.8299 -3.2958
  234MPD1    H1 3608   0.628   1.515   9.322  0.4209  0.4690 -2.9194
  234MPD1    H2 3609   1.020   1.446   9.466 -0.1914  1.6924  2.0507
  234MPD1    H3 3610   0.830   1.360   9.367  0.3854 -0.9746  3.1265
  234MPD1     N 3611   0.638   1.773   9.342  0.2706  0.4250  0.5134
  234MPD1    H5 3612   0.642   1.868   9.376 -0.8060  0.9292 -0.7779
  234MPD1    N1 3613   1.089   1.711   9.505 -0.2400  1.1495  0.0216
  234MPD1    H6 3614   1.075   1.805   9.540  2.4142  0.9630  1.5725
  234MPD1    H7 3615   1.126   1.659   9.584 -2.3899 -0.9171 -0.3268
  235MPD1     C 3616   2.056   4.633  10.986  0.1759 -0.4682 -0.7087
  235MPD1    C1 3617   2.055   0.029  10.959  0.3288  0.5803  0.6809
  235MPD1    C2 3618   2.169   0.083  10.906 -0.2463 -0.3942  0.2974
  235MPD1    C3 3619   2.279   4.733  10.876  0.7211 -0.5110 -0.2582
  235MPD1    C4 3620   2.279   4.598  10.904  0.0314  0.0543  0.1560
  235MPD1    C5 3621   2.159   4.543  10.958 -0.0073  0.1090  0.2347
  235MPD1     H 3622   2.181   0.190  10.893 -2.6084 -0.1947 -0.1498
  235MPD1    H1 3623   2.353   4.525  10.877  0.3607  0.5900 -0.3844
  235MPD1    H2 3624   1.972   4.579  11.027  0.0306  0.6095  0.4023
  235MPD1    H3 3625   2.155   4.440  10.993 -1.8108  0.0019 -0.2747
  235MPD1     N 3626   2.392   0.062  10.829  0.5753 -0.0164 -0.1549
  235MPD1    H5 3627   2.395   0.163  10.839 -3.0670  0.3619 -2.9579
  235MPD1    N1 3628   1.934   0.096  10.961  0.4221  0.4404 -0.3047
  235MPD1    H6 3629   1.892   0.074  11.051 -1.5393 -0.7637 -1.5159
  235MPD1    H7 3630   1.948   0.197  10.958 -0.2395  0.5312 -0.1930
  236MPD1     C 3631   0.352   4.670  10.003  0.2108  0.3321 -0.6834
  236MPD1    C1 3632   0.428   0.050  10.023  0.4521  0.3628  0.7238
  236MPD1    C2 3633   0.567   0.027  10.014 -0.6687  0.7704 -0.0167
  236MPD1    C3 3634   0.624   4.644   9.970  0.2383  0.5215  0.1401
  236MPD1    C4 3635   0.542   4.538   9.937 -0.2656  0.9335 -0.3851
  236MPD1    C5 3636   0.409   4.556   9.958  1.0481 -0.5031 -0.1205
  236MPD1     H 3637   0.641   0.098  10.047 -1.5598  2.0306 -0.7194
  236MPD1    H1 3638   0.588   4.452   9.891  0.5396  0.4103  1.3985
  236MPD1    H2 3639   0.245   4.684   9.994  0.0600 -0.0170  0.5766
  236MPD1    H3 3640   0.353   4.465   9.938 -1.4607  0.9277  0.5329
  236MPD1     N 3641   0.763   4.625   9.943 -0.8072  0.0858  0.1914
  236MPD1    H5 3642   0.804   4.540   9.905  0.4606  1.6886 -1.9972
  236MPD1    N1 3643   0.372   0.169  10.073 -0.1874  0.1994  0.9467
  236MPD1    H6 3644   0.437   0.247  10.064  1.8532 -1.6065  0.1655
  236MPD1    H7 3645   0.280   0.187  10.034 -0.4334 -1.9424  0.5576
  237MPD1     C 3646   0.614   3.225  15.602  0.2874  0.4181  0.0469
  237MPD1    C1 3647   0.499   3.185  15.668 -0.3135  0.3679 -0.9854
  237MPD1    C2 3648   0.385   3.152  15.596  0.2537 -0.1212  0.5433
  237MPD1    C3 3649   0.384   3.161  15.462  0.5749 -0.1569 -0.3578
  237MPD1    C4 3650   0.497   3.192  15.391  0.0184  0.1655  0.9459
  237MPD1    C5 3651   0.607   3.223  15.465 -0.6781 -0.4386  0.4606
  237MPD1     H 3652   0.299   3.132  15.658  1.2534 -2.0484  1.3149
  237MPD1    H1 3653   0.509   3.185  15.283 -0.1691  0.1297  0.9257
  237MPD1    H2 3654   0.708   3.240  15.653  0.0239 -1.6837  1.1410
  237MPD1    H3 3655   0.701   3.243  15.415 -0.1740 -1.0163  1.1823
  237MPD1     N 3656   0.266   3.125  15.391 -0.8220  0.2874 -0.3235
  237MPD1    H5 3657   0.270   3.142  15.291 -0.3605  2.5793  0.0884
  237MPD1    N1 3658   0.498   3.203  15.803 -0.4755 -1.5261  0.3605
  237MPD1    H6 3659   0.579   3.153  15.841  2.4982  2.8655 -0.1972
  237MPD1    H7 3660   0.410   3.175  15.846 -1.4059  1.3486  0.2972
  238MPD1     C 3661   2.695   1.133  15.591  0.1984 -0.0070  0.9663
  238MPD1    C1 3662   2.567   1.112  15.626  0.6298  0.6331 -0.2730
  238MPD1    C2 3663   2.473   1.176  15.544  0.0073  0.3983 -0.5881
  238MPD1    C3 3664   2.508   1.269  15.444 -0.5175  0.2564  0.0587
  238MPD1    C4 3665   2.642   1.293  15.424 -0.4795 -0.2460  0.4424
  238MPD1    C5 3666   2.733   1.227  15.503  0.0088 -0.1637  0.3097
  238MPD1     H 3667   2.373   1.134  15.551 -0.2988  1.0159 -1.2493
  238MPD1    H1 3668   2.679   1.366  15.352 -1.0860  0.0603  0.4404
  238MPD1    H2 3669   2.775   1.081  15.641  1.0633  0.5575  0.1724
  238MPD1    H3 3670   2.838   1.249  15.488 -0.7835  3.1488 -0.3736
  238MPD1     N 3671   2.414   1.335  15.371  0.1301  0.4791 -0.0928
  238MPD1    H5 3672   2.453   1.393  15.298 -0.0419  1.2759  0.4505
  238MPD1    N1 3673   2.514   1.008  15.714 -0.0888  0.4188  0.0789
  238MPD1    H6 3674   2.592   0.988  15.777 -0.9734 -0.3822  0.8967
  238MPD1    H7 3675   2.436   1.049  15.764 -0.9311 -1.1789  0.0445
  239MPD1     C 3676   2.781   2.375  15.450  0.3403  0.3942  0.2163
  239MPD1    C1 3677   2.653   2.421  15.432 -0.3110 -0.3333 -0.2010
  239MPD1    C2 3678   2.626   2.502  15.321 -0.0818 -0.2313  0.6132
  239MPD1    C3 3679   2.729   2.530  15.224 -1.0235 -0.2879  0.1581
  239MPD1    C4 3680   2.853   2.488  15.258  0.3332  0.3544  0.4848
  239MPD1    C5 3681   2.879   2.408  15.368 -0.5343  0.2983 -0.5493
  239MPD1     H 3682   2.529   2.546  15.305 -1.7649 -3.1631  2.7878
  239MPD1    H1 3683   2.936   2.519  15.195 -0.4036  1.3026 -0.0227
  239MPD1    H2 3684   2.802   2.328  15.545 -1.3796  0.3895  0.5878
  239MPD1    H3 3685   2.973   2.358  15.388 -0.6001 -0.4399 -2.1642
  239MPD1     N 3686   2.715   2.597  15.104 -0.1481  0.3552  0.9545
  239MPD1    H5 3687   2.797   2.610  15.045  0.1054  2.9122  1.8835
  239MPD1    N1 3688   2.561   2.402  15.530  0.2639 -0.3584  0.2398
  239MPD1    H6 3689   2.466   2.398  15.491  0.8381 -4.6680 -0.7861
  239MPD1    H7 3690   2.582   2.313  15.575  1.8353  0.9143  2.0251
  240MPD1     C 3691   2.792   1.859  14.765  0.0855  0.6642 -1.0537
  240MPD1    C1 3692   2.707   1.912  14.668  0.3247 -0.4051  0.5140
  240MPD1    C2 3693   2.569   1.928  14.691  0.1797 -0.2898 -0.4639
  240MPD1    C3 3694   2.514   1.894  14.817 -0.2017 -0.1007 -0.2641
  240MPD1    C4 3695   2.599   1.835  14.910  0.4007  0.1805 -0.6278
  240MPD1    C5 3696   2.731   1.825  14.884  0.9008  1.0879  0.2221
  240MPD1     H 3697   2.511   1.971  14.610  0.8901  0.8038 -0.4025
  240MPD1    H1 3698   2.561   1.805  15.008 -0.4950  0.8008 -0.7887
  240MPD1    H2 3699   2.900   1.850  14.759 -0.0819 -2.1614  0.2373
  240MPD1    H3 3700   2.791   1.797  14.970  0.9084  0.1964 -0.0715
  240MPD1     N 3701   2.383   1.931  14.840  0.2742  0.0421 -0.4821
  240MPD1    H5 3702   2.332   1.955  14.756 -0.7891  1.7841  0.6718
  240MPD1    N1 3703   2.760   1.931  14.541  0.4136  0.2323  0.6562
  240MPD1    H6 3704   2.858   1.939  14.568  0.7120  0.7632 -0.5849
  240MPD1    H7 3705   2.734   2.011  14.484 -0.2705 -0.6279 -0.2238
  241MPD1     C 3706   1.526   2.062  15.501  0.4111  0.8816 -0.4131
  241MPD1    C1 3707   1.650   2.012  15.532  0.4548  0.0213 -0.1548
  241MPD1    C2 3708   1.742   2.012  15.432 -0.0711  0.0026  0.6509
  241MPD1    C3 3709   1.721   2.070  15.309  0.4194 -0.5180 -0.5421
  241MPD1    C4 3710   1.603   2.131  15.283 -0.6843  0.9302 -0.8812
  241MPD1    C5 3711   1.507   2.125  15.385  0.0893  0.1493 -0.2300
  241MPD1     H 3712   1.837   1.970  15.461  1.5409  1.8419 -2.0764
  241MPD1    H1 3713   1.589   2.198  15.198 -0.0441  0.0015 -1.7235
  241MPD1    H2 3714   1.450   2.065  15.578 -0.3401  0.4163 -1.1377
  241MPD1    H3 3715   1.415   2.182  15.377  0.8518  1.2064 -1.4816
  241MPD1     N 3716   1.818   2.079  15.202 -0.0751  0.4032  0.6045
  241MPD1    H5 3717   1.786   2.140  15.127 -0.4063  0.0693  0.4754
  241MPD1    N1 3718   1.684   1.975  15.664 -0.0305  0.0646  0.1498
  241MPD1    H6 3719   1.605   1.944  15.721 -0.4702  4.1662  1.7963
  241MPD1    H7 3720   1.779   1.937  15.668 -0.2792 -0.4395  1.2234
  242MPD1     C 3721   1.451   0.623  15.936 -0.0027 -0.4058 -0.2865
  242MPD1    C1 3722   1.526   0.510  15.961  0.4023  0.0856  0.3683
  242MPD1    C2 3723   1.620   0.472  15.866  0.4923 -0.3028 -1.0117
  242MPD1    C3 3724   1.642   0.551  15.755 -0.4877 -0.6321  1.0413
  242MPD1    C4 3725   1.554   0.649  15.727 -0.4434 -0.0843  0.5010
  242MPD1    C5 3726   1.456   0.690  15.818  0.1666  0.6365 -0.1849
  242MPD1     H 3727   1.682   0.387  15.893  1.6542  0.6370 -0.6827
  242MPD1    H1 3728   1.560   0.711  15.638  0.8095  1.2494  1.5137
  242MPD1    H2 3729   1.383   0.667  16.008 -0.3970  2.1395 -2.2268
  242MPD1    H3 3730   1.390   0.775  15.805 -0.7676  0.1722  1.5044
  242MPD1     N 3731   1.745   0.525  15.657 -0.0133  0.0279 -0.8890
  242MPD1    H5 3732   1.737   0.570  15.567 -0.0423  2.3861  0.2840
  242MPD1    N1 3733   1.510   0.451  16.090 -0.3195  0.3797  0.1940
  242MPD1    H6 3734   1.415   0.457  16.125  0.4443  0.6377  2.2469
  242MPD1    H7 3735   1.543   0.355  16.099  1.2525  0.9083  0.1012
  243MPD1     C 3736   2.214   4.158   0.134 -0.4348  0.4453  0.3378
  243MPD1    C1 3737   2.303   4.108   0.219 -0.8505 -0.1613  0.3611
  243MPD1    C2 3738   2.436   4.080   0.180  0.7600 -0.1515  0.3266
  243MPD1    C3 3739   2.468   4.083   0.046 -0.9434  0.3228 -0.6713
  243MPD1    C4 3740   2.370   4.108  17.696 -0.1368 -0.2013 -0.2330
  243MPD1    C5 3741   2.243   4.140   0.003  0.4556 -0.0468 -0.1395
  243MPD1     H 3742   2.517   4.060   0.250 -0.7125 -1.4629  1.6635
  243MPD1    H1 3743   2.384   4.107  17.589 -0.2830 -0.1039 -0.2534
  243MPD1    H2 3744   2.129   4.212   0.176 -1.5150 -0.5433 -0.5770
  243MPD1    H3 3745   2.166   4.171  17.672  0.3054 -0.7185 -0.2725
  243MPD1     N 3746   2.604   4.052   0.014 -0.3878 -1.0121 -0.7934
  243MPD1    H5 3747   2.669   4.025   0.087 -1.1005 -1.3081 -0.2732
  243MPD1    N1 3748   2.274   4.118   0.352  0.5183  0.0926 -0.3550
  243MPD1    H6 3749   2.322   4.050   0.411  0.3202 -0.3878 -0.7407
  243MPD1    H7 3750   2.174   4.099   0.362  0.4833 -0.4599 -1.7283
  244MPD1     C 3751   3.474   3.921   0.423  0.2690 -0.1707 -0.7024
  244MPD1    C1 3752   3.510   4.011   0.322 -0.3373 -0.7356  0.0331
  244MPD1    C2 3753   3.412   4.029   0.223 -0.2375 -0.2665  0.3938
  244MPD1    C3 3754   3.290   3.967   0.222 -0.0884  0.4281 -0.3435
  244MPD1    C4 3755   3.259   3.882   0.323  0.3169  0.7755 -0.4500
  244MPD1    C5 3756   3.355   3.849   0.419  0.8000 -0.3934 -0.3780
  244MPD1     H 3757   3.414   4.106   0.146 -0.4188  0.1860  0.8404
  244MPD1    H1 3758   3.176   3.812   0.319  0.3602  0.6910  0.1634
  244MPD1    H2 3759   3.541   3.898   0.505  1.1548  1.6680 -0.8945
  244MPD1    H3 3760   3.322   3.776   0.493 -2.0000  2.6201  1.3976
  244MPD1     N 3761   3.199   3.985   0.113 -0.0444 -0.2732 -0.2209
  244MPD1    H5 3762   3.228   4.055   0.046 -0.8647 -0.5182 -0.8234
  244MPD1    N1 3763   3.617   4.096   0.323  0.1366 -0.0427  0.2686
  244MPD1    H6 3764   3.699   4.069   0.376  0.0718 -1.1694 -0.2189
  244MPD1    H7 3765   3.642   4.148   0.240  1.0623 -1.2631 -0.2080
  245MPD1     C 3766   1.178   4.022  13.054 -0.8048 -0.3055  0.2455
  245MPD1    C1 3767   1.251   4.096  13.138 -0.1197 -0.3720  0.5647
  245MPD1    C2 3768   1.195   4.191  13.215  0.2308 -0.6147  0.5359
  245MPD1    C3 3769   1.063   4.219  13.206  0.0053 -0.8439  0.7564
  245MPD1    C4 3770   0.988   4.138  13.120  0.7398 -0.0189 -0.4090
  245MPD1    C5 3771   1.040   4.036  13.048 -0.0014 -0.7296 -0.1752
  245MPD1     H 3772   1.256   4.253  13.280 -0.4261 -0.8810  1.3991
  245MPD1    H1 3773   0.881   4.150  13.104  0.9216 -0.0654 -1.6657
  245MPD1    H2 3774   1.226   3.945  12.994  1.1782  1.0298  0.1317
  245MPD1    H3 3775   0.987   3.980  12.972 -2.0654 -0.2349  0.9067
  245MPD1     N 3776   1.006   4.324  13.280 -0.0398  0.5803  0.7945
  245MPD1    H5 3777   1.068   4.385  13.332  0.6771 -1.0184  1.8170
  245MPD1    N1 3778   1.395   4.079  13.137  0.4723 -0.6080  0.3360
  245MPD1    H6 3779   1.421   3.985  13.108  2.9110 -0.1222  0.9008
  245MPD1    H7 3780   1.436   4.091  13.230  0.7608  1.6511 -0.0780
  246MPD1     C 3781   0.067   3.318   8.953  0.0295  0.9223 -0.4945
  246MPD1    C1 3782   0.198   3.295   8.924  0.2970  0.0550  0.6232
  246MPD1    C2 3783   0.287   3.394   8.952 -0.1917 -0.6637  0.0349
  246MPD1    C3 3784   0.251   3.525   8.964  0.4275  0.3653  0.5087
  246MPD1    C4 3785   0.118   3.554   8.968  0.2845  0.5822 -0.2440
  246MPD1    C5 3786   0.032   3.450   8.964  0.4427 -0.2125 -0.1310
  246MPD1     H 3787   0.394   3.379   8.960 -0.2942 -1.6771 -0.3641
  246MPD1    H1 3788   0.075   3.652   8.980 -1.1437 -0.3722  2.6160
  246MPD1    H2 3789   4.725   3.243   8.942  0.5245 -0.2171  3.9620
  246MPD1    H3 3790   4.665   3.474   8.988 -0.0133  0.1657 -2.4528
  246MPD1     N 3791   0.352   3.623   8.973  0.0101 -0.5215  0.2248
  246MPD1    H5 3792   0.449   3.594   8.980 -0.3471 -1.9457 -0.6022
  246MPD1    N1 3793   0.249   3.166   8.903 -0.3233  0.3679  0.2139
  246MPD1    H6 3794   0.328   3.171   8.838  0.2267  2.2779  1.0286
  246MPD1    H7 3795   0.191   3.096   8.856  1.2774  0.4103 -1.8335
  247MPD1     C 3796   4.396   0.680  16.497  0.2385 -0.1931  0.4926
  247MPD1    C1 3797   4.446   0.666  16.364 -0.3130  0.1830 -0.5456
  247MPD1    C2 3798   4.531   0.555  16.335  0.0358  0.2886  0.5451
  247MPD1    C3 3799   4.538   0.458  16.436  0.0563  0.4575  0.1454
  247MPD1    C4 3800   4.466   0.468  16.556 -1.1029  0.3413 -0.4445
  247MPD1    C5 3801   4.409   0.581  16.595  0.6749 -0.5339  0.0765
  247MPD1     H 3802   4.580   0.549  16.239  1.1199 -0.5306  1.1557
  247MPD1    H1 3803   4.487   0.396  16.635 -1.0057  0.1004 -0.6882
  247MPD1    H2 3804   4.324   0.754  16.528  0.0575 -0.9543  1.9442
  247MPD1    H3 3805   4.360   0.584  16.692  2.7210  1.4498  1.0659
  247MPD1     N 3806   4.600   0.334  16.409  0.2345  0.2722  0.0564
  247MPD1    H5 3807   4.595   0.257  16.476  1.4765  1.5000  1.5590
  247MPD1    N1 3808   4.425   0.772  16.274  0.7148  0.0338 -0.2111
  247MPD1    H6 3809   4.414   0.736  16.180 -2.8305  1.4678 -0.3171
  247MPD1    H7 3810   4.338   0.821  16.292  1.3896  1.1424 -0.0089
  248MPD1     C 3811   0.594   0.416  17.702  0.0587 -0.7814  0.0269
  248MPD1    C1 3812   0.484   0.431   0.040  0.1351  0.0882  0.4392
  248MPD1    C2 3813   0.394   0.331   0.043  0.0406  0.0557 -0.0152
  248MPD1    C3 3814   0.419   0.209  17.722 -0.0901 -0.8582  0.5688
  248MPD1    C4 3815   0.532   0.196  17.650  0.5606 -0.2865  0.6591
  248MPD1    C5 3816   0.618   0.297  17.640 -0.3387  0.0803  0.2880
  248MPD1     H 3817   0.297   0.340   0.090 -0.7383  2.0830 -1.9874
  248MPD1    H1 3818   0.554   0.111  17.585 -0.8563  1.5169 -2.1673
  248MPD1    H2 3819   0.673   0.490  17.699 -1.8144  1.3127  1.4920
  248MPD1    H3 3820   0.712   0.284  17.589 -0.6196 -1.0583  0.0653
  248MPD1     N 3821   0.327   0.107  17.731 -0.1333 -0.4905 -0.1410
  248MPD1    H5 3822   0.253   0.125   0.059 -2.3882 -3.4466 -1.8555
  248MPD1    N1 3823   0.470   0.545   0.127 -0.0625  0.9135  0.2206
  248MPD1    H6 3824   0.536   0.619   0.105  0.7781  0.0046 -0.3352
  248MPD1    H7 3825   0.375   0.579   0.135  0.1250  1.5186 -0.1330
  249MPD1     C 3826   2.845   2.095   9.564 -0.8655  0.1728 -0.4855
  249MPD1    C1 3827   2.828   2.224   9.537  0.1090  0.1494 -0.3522
  249MPD1    C2 3828   2.749   2.294   9.629  0.2081 -0.4597 -0.0279
  249MPD1    C3 3829   2.702   2.227   9.744 -0.4166 -0.1544 -0.5257
  249MPD1    C4 3830   2.708   2.093   9.749  0.6126 -0.2119  0.0303
  249MPD1    C5 3831   2.781   2.027   9.660 -0.0189 -1.1069  0.5441
  249MPD1     H 3832   2.725   2.399   9.614  0.7358 -0.2143  0.8587
  249MPD1    H1 3833   2.671   2.035   9.832  0.7590  2.7913  2.1991
  249MPD1    H2 3834   2.907   2.042   9.493  1.5723  2.8318 -0.3458
  249MPD1    H3 3835   2.788   1.920   9.676 -0.5995 -0.9972  1.5478
  249MPD1     N 3836   2.630   2.303   9.840  0.0260  0.1471 -0.1382
  249MPD1    H5 3837   2.642   2.404   9.839 -1.7696  0.3679  1.0293
  249MPD1    N1 3838   2.898   2.288   9.431 -0.0386 -0.3670  0.4987
  249MPD1    H6 3839   2.854   2.375   9.402 -0.9881 -1.2761 -0.7718
  249MPD1    H7 3840   2.935   2.225   9.361  2.1351  1.5961 -0.1236
  250MPD2     C 3841   4.078   2.898  13.048  0.2428 -0.9024  0.8200
  250MPD2    C1 3842   4.006   2.971  12.959 -0.9289  0.2464  0.2855
  250MPD2    C2 3843   3.977   2.918  12.834 -0.3851 -0.4102 -0.4273
  250MPD2    C3 3844   4.004   2.780  12.806  0.0848  0.0003  0.4926
  250MPD2    C4 3845   4.058   2.702  12.906 -0.0320 -0.1422  0.5065
  250MPD2    C5 3846   4.097   2.765  13.016  0.3389  0.2142  0.8210
  250MPD2     H 3847   3.923   2.987  12.771 -2.5333 -0.7010  1.0984
  250MPD2    H1 3848   4.088   2.598  12.896 -0.3686  0.0188 -2.1270
  250MPD2    H2 3849   4.119   2.943  13.138  0.6915  0.3151  0.0057
  250MPD2    H3 3850   4.149   2.703  13.088  1.9099 -1.2720 -1.5606
  250MPD2     N 3851   3.987   2.721  12.682  0.3397 -0.2553  0.2321
  250MPD2    H5 3852   4.025   2.627  12.675  1.4553  0.4661 -3.3344
  250MPD2    N1 3853   3.978   3.106  12.994 -0.4317  0.1386 -0.6374
  250MPD2    H7 3854   4.026   3.144  13.075 -0.5497 -1.8400  0.3600
  251TMC3    C1 3855   3.907   3.335  12.988  0.2257  0.1030  0.8757
  251TMC3    C2 3856   3.806   3.415  12.960 -0.4481 -1.0699  0.1826
  251TMC3    C3 3857   3.819   3.554  12.971 -0.1853 -0.6227  0.0553
  251TMC3    C4 3858   4.028   3.391  13.034 -0.5698 -0.1677 -0.2029
  251TMC3    C5 3859   4.036   3.524  13.052 -0.1991  0.4036 -0.6780
  251TMC3    C6 3860   3.932   3.608  13.025 -0.0207 -0.4260 -0.1827
  251TMC3     C 3861   3.904   3.201  12.925 -0.0133  0.6045 -0.0111
  251TMC3     O 3862   3.839   3.192  12.821 -0.4305 -0.5865 -0.0842
  251TMC3     H 3863   3.714   3.375  12.918  0.6637 -1.3380 -2.0176
  251TMC3    H1 3864   4.119   3.332  13.038 -0.9877 -0.8369 -0.5241
  251TMC3    H2 3865   3.940   3.712  13.057  0.2245  0.2188 -2.3612
  251TMC3    C7 3866   4.175   3.575  13.048 -0.3332 -0.7006 -0.2187
  251TMC3    C8 3867   3.693   3.617  13.021 -0.4584  0.1848 -0.5067
  251TMC3    O1 3868   4.261   3.507  13.096  0.6692 -0.2333 -0.3610
  251TMC3    O2 3869   3.606   3.541  13.060 -0.0142 -0.0000 -0.3752
  252TMC3    C1 3870   4.029   3.504  10.181 -0.7483  0.1098  0.6703
  252TMC3    C2 3871   4.041   3.641  10.146  0.2347  0.0947 -0.2645
  252TMC3    C3 3872   3.918   3.695  10.100 -0.5377 -0.5901  0.0872
  252TMC3    C4 3873   3.917   3.433  10.166 -0.1444 -0.0345  0.1770
  252TMC3    C5 3874   3.810   3.485  10.104 -0.4590  0.6547 -0.1113
  252TMC3    C6 3875   3.811   3.615  10.073  0.8442  0.7332  0.4435
  252TMC3     C 3876   4.144   3.429  10.214  0.0389 -1.0364 -0.7357
  252TMC3     O 3877   4.153   3.316  10.167 -0.0437 -0.1569 -0.7659
  252TMC3     H 3878   4.132   3.700  10.144  0.4445 -0.2818 -1.8812
  252TMC3    H1 3879   3.919   3.328  10.190  2.0093 -0.3261 -1.2736
  252TMC3    H2 3880   3.726   3.655  10.018  1.4170 -1.0233 -1.7312
  252TMC3    C7 3881   3.694   3.402  10.063 -0.1094  0.3082  1.0810
  252TMC3    C8 3882   3.917   3.824  10.034  0.1265  0.2254 -0.1434
  252TMC3    O1 3883   3.605   3.468  10.009 -0.5285  0.2985 -0.1861
  252TMC3    O2 3884   3.813   3.856   9.971  0.0519  0.0735  0.2526
  253MPD2     C 3885   0.010   3.856  15.622  0.0947 -0.4511 -0.7831
  253MPD2    C1 3886   4.636   3.846  15.544  0.5516  1.0134  1.4962
  253MPD2    C2 3887   4.569   3.726  15.535 -0.3565  0.9458  0.1001
  253MPD2    C3 3888   4.605   3.619  15.619 -0.1688 -0.2576 -0.1010
  253MPD2    C4 3889   4.725   3.630  15.696  0.5352 -0.0402 -0.7223
  253MPD2    C5 3890   0.058   3.747  15.683 -0.2795  0.2760 -0.4594
  253MPD2     H 3891   4.495   3.710  15.458  1.7971  0.2757 -1.8287
  253MPD2    H1 3892   0.032   3.545  15.750 -1.5679 -0.2225  0.6276
  253MPD2    H2 3893   0.065   3.950  15.627  1.8955 -1.4666 -1.4789
  253MPD2    H3 3894   0.142   3.767  15.748 -0.4067 -2.3908  0.5399
  253MPD2     N 3895   4.530   3.499  15.633 -0.6036  0.0457 -0.2303
  253MPD2    H5 3896   4.560   3.443  15.712 -0.3699 -0.0629 -0.3952
  253MPD2    N1 3897   4.576   3.959  15.484  0.5637  0.1846  0.4358
  253MPD2    H7 3898   4.487   3.935  15.441  0.8744  0.4269 -0.3324
  254TMC3    C1 3899   4.336   3.360  15.630  0.1883  0.7566  0.2050
  254TMC3    C2 3900   4.200   3.374  15.629  0.0868  0.0449 -0.2135
  254TMC3    C3 3901   4.127   3.308  15.723  0.4921 -0.0186  0.2715
  254TMC3    C4 3902   4.396   3.282  15.724 -0.0009  0.3269 -0.6458
  254TMC3    C5 3903   4.319   3.207  15.812  0.0225  0.7791 -0.1795
  254TMC3    C6 3904   4.182   3.215  15.810 -0.4009 -0.3137  0.2629
  254TMC3     C 3905   4.414   3.471  15.569  0.6319  0.9243  0.6663
  254TMC3     O 3906   4.361   3.512  15.463  0.0100  0.4194 -0.2476
  254TMC3     H 3907   4.154   3.446  15.563 -1.1990  0.9850  1.7200
  254TMC3    H1 3908   4.504   3.271  15.725 -0.1863 -1.2739  0.9170
  254TMC3    H2 3909   4.119   3.172  15.888  0.1744  0.3051  1.0745
  254TMC3    C7 3910   4.361   3.172  15.949  0.0325 -0.3325  1.0008
  254TMC3    C8 3911   4.035   3.395  15.803 -0.9327 -0.6731 -0.3411
  254TMC3    O1 3912   4.287   3.106  16.025  0.2164  0.2589  0.2628
  254TMC3    O2 3913   4.048   3.390  15.927 -0.0786 -0.2677 -0.0745
  255MPD2     C 3914   3.743   1.239  10.161 -0.8128 -0.4745 -0.3518
  255MPD2    C1 3915   3.752   1.234  10.028 -0.6980  0.1886  0.0483
  255MPD2    C2 3916   3.780   1.113   9.966 -0.1649 -0.1726  0.9473
  255MPD2    C3 3917   3.794   1.001  10.042 -0.5880 -0.3480  0.0117
  255MPD2    C4 3918   3.792   1.004  10.181  0.7041  0.4222  1.4381
  255MPD2    C5 3919   3.773   1.126  10.234 -0.6801 -0.5919 -0.8209
  255MPD2     H 3920   3.796   1.118   9.859  0.0265 -2.1042  0.8703
  255MPD2    H1 3921   3.823   0.922  10.245  1.5723 -0.0634  0.3899
  255MPD2    H2 3922   3.730   1.335  10.211 -3.6887 -1.2000  0.2830
  255MPD2    H3 3923   3.766   1.148  10.340  2.3772 -0.1538 -0.7314
  255MPD2     N 3924   3.823   0.879   9.970  0.7225 -0.3155 -0.5527
  255MPD2    H5 3925   3.817   0.878   9.869 -0.2060  3.9791 -0.5133
  255MPD2    N1 3926   3.762   1.359   9.962  0.1263 -0.5304  0.0347
  255MPD2    H7 3927   3.731   1.439  10.017  3.1938  0.5836  0.1649
  256TMC3    C1 3928   3.751   1.515   9.802 -0.3077 -0.1131  0.6878
  256TMC3    C2 3929   3.701   1.521   9.673  0.7946  0.7240 -0.2756
  256TMC3    C3 3930   3.592   1.593   9.642  0.3503 -0.7660  0.4563
  256TMC3    C4 3931   3.698   1.598   9.898  0.2457  0.4845  0.7146
  256TMC3    C5 3932   3.581   1.661   9.866  0.1180 -0.1163 -0.6980
  256TMC3    C6 3933   3.529   1.662   9.741 -0.7649  0.2371 -0.3556
  256TMC3     C 3934   3.791   1.377   9.832  0.1814 -0.5975  0.0320
  256TMC3     O 3935   3.780   1.298   9.738 -0.2110 -0.1674  0.5234
  256TMC3     H 3936   3.742   1.469   9.587  0.4511  2.3146 -1.4212
  256TMC3    H1 3937   3.740   1.596   9.998 -0.0668 -1.2935  0.8106
  256TMC3    H2 3938   3.431   1.706   9.722 -1.3478 -0.2917  1.4661
  256TMC3    C7 3939   3.479   1.642   9.962 -0.2397 -0.1665 -0.2732
  256TMC3    C8 3940   3.527   1.595   9.518  0.4330  1.1069  0.3871
  256TMC3    O1 3941   3.373   1.589   9.930  0.0578  0.4350  0.2763
  256TMC3    O2 3942   3.526   1.500   9.445 -0.0564  0.5273 -0.7421
  257MPD2     C 3943   2.844   3.221  13.413 -0.1045  0.5237  0.8376
  257MPD2    C1 3944   2.749   3.172  13.332  0.2429  0.0147  0.5268
  257MPD2    C2 3945   2.656   3.086  13.386 -0.1268 -0.0459 -0.1961
  257MPD2    C3 3946   2.652   3.048  13.520 -0.0531  0.6650  0.1559
  257MPD2    C4 3947   2.743   3.115  13.600  0.5153 -0.3905  0.0965
  257MPD2    C5 3948   2.843   3.191  13.547  0.2363 -0.1011 -0.3206
  257MPD2     H 3949   2.582   3.036  13.325  0.1163  1.0191 -1.3534
  257MPD2    H1 3950   2.750   3.094  13.706  1.3490 -0.4631  0.0305
  257MPD2    H2 3951   2.920   3.290  13.378  0.8053 -0.8863  0.0262
  257MPD2    H3 3952   2.921   3.235  13.608  0.8153  0.9948 -1.8582
  257MPD2     N 3953   2.562   2.947  13.555 -0.5409  0.0266  0.1663
  257MPD2    H5 3954   2.492   2.920  13.486  0.0488  0.3062 -0.5487
  257MPD2    N1 3955   2.744   3.220  13.203 -0.1583  0.0788  0.6963
  257MPD2    H7 3956   2.819   3.282  13.173 -0.7728  0.4886  0.0351
  258TMC3    C1 3957   2.455   2.785  13.695  0.0365 -0.0403 -0.0428
  258TMC3    C2 3958   2.377   2.761  13.582  0.7172  0.2261  0.1736
  258TMC3    C3 3959   2.327   2.629  13.559 -0.7394  0.0793  0.7976
  258TMC3    C4 3960   2.502   2.682  13.776  0.1422 -0.4370  0.4340
  258TMC3    C5 3961   2.441   2.558  13.756  0.2376  0.4846 -0.1277
  258TMC3    C6 3962   2.349   2.527  13.650  0.0457 -1.0114  0.0304
  258TMC3     C 3963   2.552   2.896  13.682  0.1762 -0.5173  0.0312
  258TMC3     O 3964   2.635   2.903  13.773  0.4110  0.4087  0.1803
  258TMC3     H 3965   2.352   2.842  13.513 -0.1161 -1.3630 -1.3776
  258TMC3    H1 3966   2.563   2.716  13.859 -0.5417  4.9279 -1.2787
  258TMC3    H2 3967   2.326   2.422  13.632 -1.9113 -0.4907 -0.5617
  258TMC3    C7 3968   2.489   2.449  13.841 -0.4963 -0.3557 -0.6754
  258TMC3    C8 3969   2.227   2.599  13.460 -0.0224 -0.0994  0.1068
  258TMC3    O1 3970   2.434   2.342  13.829  0.4381  0.4100 -0.5182
  258TMC3    O2 3971   2.142   2.515  13.489  0.1240 -0.1330  0.0793
  259MPD2     C 3972   0.803   0.478   0.654  0.0605  0.0301 -0.0256
  259MPD2    C1 3973   0.890   0.374   0.616 -0.0261  0.5548  0.6046
  259MPD2    C2 3974   0.917   0.361   0.481 -0.1018 -0.1074 -0.1120
  259MPD2    C3 3975   0.872   0.454   0.394  0.5112  0.6624 -0.0904
  259MPD2    C4 3976   0.784   0.554   0.426 -0.0328  0.0816 -0.7521
  259MPD2    C5 3977   0.757   0.569   0.561  0.2471  0.1096 -0.6249
  259MPD2     H 3978   0.967   0.271   0.449  1.6299 -0.1631  2.7847
  259MPD2    H1 3979   0.757   0.627   0.351 -2.3141 -0.7363 -0.7226
  259MPD2    H2 3980   0.779   0.502   0.757  1.3176 -0.1099  0.2955
  259MPD2    H3 3981   0.700   0.654   0.595 -1.0012 -0.9847  0.0189
  259MPD2     N 3982   0.911   0.422   0.260  0.2189 -0.0179  0.3983
  259MPD2    H5 3983   0.962   0.337   0.240 -3.0117 -2.3268  1.9876
  259MPD2    N1 3984   0.948   0.289   0.711 -0.1217 -0.1401  0.5150
  259MPD2    H7 3985   0.901   0.302   0.800 -0.6471  1.0040  0.0748
  260TMC3    C1 3986   0.966   0.464   0.037  0.5397 -0.1224  0.6521
  260TMC3    C2 3987   1.070   0.533  17.739  0.1767 -0.3277  0.1213
  260TMC3    C3 3988   1.154   0.485  17.649 -0.2546 -0.5520 -0.1607
  260TMC3    C4 3989   0.959   0.327   0.022 -0.3802 -0.1800  0.2559
  260TMC3    C5 3990   1.045   0.276  17.671  0.5885  0.0258  0.1358
  260TMC3    C6 3991   1.142   0.352  17.608  0.1488  0.5204 -0.1743
  260TMC3     C 3992   0.903   0.512   0.161 -0.4172  0.5310  0.0524
  260TMC3     O 3993   0.862   0.625   0.159 -0.0762  0.0237  0.3661
  260TMC3     H 3994   1.084   0.637   0.027 -0.8685 -0.1761  0.1100
  260TMC3    H1 3995   0.866   0.276   0.043  0.4680 -2.3837 -1.3359
  260TMC3    H2 3996   1.206   0.317  17.528 -0.0633 -0.9649  0.3183
  260TMC3    C7 3997   1.028   0.139  17.618 -0.1723 -0.0144 -0.0163
  260TMC3    C8 3998   1.286   0.518  17.684  0.0527 -0.4803  0.0406
  260TMC3    O1 3999   1.110   0.108  17.536 -0.0253  0.6329  0.2409
  260TMC3    O2 4000   1.303   0.634  17.725  0.2374  0.0399 -0.4034
  261MPD2     C 4001   3.509   2.692  11.984 -0.8181 -0.0937 -0.2944
  261MPD2    C1 4002   3.545   2.782  12.088 -0.0047 -0.0110 -0.8243
  261MPD2    C2 4003   3.495   2.915  12.095  0.5895  0.3511 -0.9339
  261MPD2    C3 4004   3.397   2.942  12.003 -0.0252  0.6561  0.3748
  261MPD2    C4 4005   3.348   2.847  11.911  0.0007  0.6811 -0.0361
  261MPD2    C5 4006   3.407   2.725  11.900 -0.1307 -0.2395  0.3698
  261MPD2     H 4007   3.534   2.988  12.164 -2.2491  0.7884  0.1899
  261MPD2    H1 4008   3.268   2.868  11.841 -1.0506 -0.1997  0.9072
  261MPD2    H2 4009   3.547   2.591  11.979  0.8760  0.4224  2.1434
  261MPD2    H3 4010   3.369   2.644  11.837  1.3193 -0.7636  0.1695
  261MPD2     N 4011   3.340   3.070  12.014  0.7836 -0.6354  0.0611
  261MPD2    H5 4012   3.361   3.119  12.100 -0.0501 -0.0896 -0.0519
  261MPD2    N1 4013   3.645   2.749  12.182 -0.5486  0.0788  0.1208
  261MPD2    H7 4014   3.645   2.820  12.255  0.1158  0.3779 -0.1688
  262TMC3    C1 4015   3.234   3.282  11.957  0.3799  0.0485  0.6632
  262TMC3    C2 4016   3.192   3.311  12.090 -0.4966 -0.3729 -0.3836
  262TMC3    C3 4017   3.219   3.443  12.130 -0.1600  0.3212  0.4257
  262TMC3    C4 4018   3.261   3.373  11.858 -0.2549  0.6842  0.4621
  262TMC3    C5 4019   3.270   3.502  11.906 -0.2959  0.0982 -0.1856
  262TMC3    C6 4020   3.258   3.534  12.040  0.6149 -0.2664 -0.1909
  262TMC3     C 4021   3.268   3.142  11.913 -0.2163 -0.5628 -0.6766
  262TMC3     O 4022   3.237   3.112  11.802  0.6870  0.4657  0.7854
  262TMC3     H 4023   3.163   3.232  12.159  2.7759 -3.4211 -2.5217
  262TMC3    H1 4024   3.278   3.333  11.759 -2.1412 -1.9870  1.2024
  262TMC3    H2 4025   3.278   3.635  12.074  2.8724 -0.5757 -0.6253
  262TMC3    C7 4026   3.304   3.607  11.810 -0.4556  0.5873 -0.2900
  262TMC3    C8 4027   3.144   3.512  12.235  0.4959  0.4837  0.4220
  262TMC3    O1 4028   3.301   3.578  11.692  0.2254  0.4354 -0.1793
  262TMC3    O2 4029   3.171   3.633  12.255  0.6064  0.2080 -0.0484
  263MPD2     C 4030   4.245   2.315  11.535 -0.1036 -0.0759 -0.0145
  263MPD2    C1 4031   4.360   2.303  11.466  0.5728  0.2478 -0.7167
  263MPD2    C2 4032   4.353   2.323  11.331 -0.2627  0.1370 -0.0771
  263MPD2    C3 4033   4.227   2.336  11.265  0.1940 -0.3011  0.9652
  263MPD2    C4 4034   4.111   2.341  11.341 -0.0203 -0.2634  0.6021
  263MPD2    C5 4035   4.126   2.331  11.474 -0.4921 -0.5417  0.1308
  263MPD2     H 4036   4.437   2.319  11.261 -0.5255 -2.2405 -0.2512
  263MPD2    H1 4037   4.008   2.358  11.311  0.3629 -0.1379 -0.6648
  263MPD2    H2 4038   4.242   2.299  11.642  0.7018  1.4622  0.2490
  263MPD2    H3 4039   4.032   2.322  11.526 -1.9331 -1.0063 -2.5101
  263MPD2     N 4040   4.210   2.323  11.128 -0.9781 -0.1403  0.1928
  263MPD2    H5 4041   4.118   2.291  11.100  0.2751 -1.3220 -2.6182
  263MPD2    N1 4042   4.478   2.269  11.530 -0.3672 -0.4858 -0.2594
  263MPD2    H7 4043   4.473   2.284  11.630 -1.0344  0.6411 -0.4597
  264TMC3    C1 4044   4.277   2.259  10.908 -0.3826  0.9267 -0.1469
  264TMC3    C2 4045   4.163   2.192  10.909 -0.2784 -0.0712  0.3281
  264TMC3    C3 4046   4.115   2.166  10.783 -0.7437  0.5979  0.3066
  264TMC3    C4 4047   4.359   2.273  10.800  0.5446  0.5565  0.1253
  264TMC3    C5 4048   4.314   2.235  10.680 -0.4727 -0.4180 -0.4902
  264TMC3    C6 4049   4.186   2.185  10.669 -0.4301  0.4997 -0.3605
  264TMC3     C 4050   4.310   2.318  11.031 -0.5530 -0.9138 -0.1762
  264TMC3     O 4051   4.423   2.370  11.039 -0.6180 -0.4041  0.1445
  264TMC3     H 4052   4.112   2.162  11.000 -1.1805  0.8561  0.1370
  264TMC3    H1 4053   4.457   2.318  10.808  0.6844  0.2813 -0.0222
  264TMC3    H2 4054   4.148   2.168  10.569 -0.3872  1.7140 -0.5795
  264TMC3    C7 4055   4.384   2.282  10.563  0.0004  0.8793  0.3147
  264TMC3    C8 4056   3.975   2.134  10.762  0.1890 -0.2109 -1.3419
  264TMC3    O1 4057   4.456   2.200  10.514  0.5078  0.1364 -0.0115
  264TMC3    O2 4058   3.956   2.053  10.675  0.2030 -0.4589  0.4464
  265MPD2     C 4059   0.971   2.795  15.492  0.3413 -0.4867 -0.2607
  265MPD2    C1 4060   1.050   2.903  15.448 -0.4741 -0.6730  0.6740
  265MPD2    C2 4061   1.138   2.872  15.344 -0.6168  0.7379  0.0893
  265MPD2    C3 4062   1.162   2.737  15.311 -0.1230  0.0943 -1.2285
  265MPD2    C4 4063   1.106   2.643  15.384 -0.2693  0.3848 -0.3742
  265MPD2    C5 4064   1.007   2.671  15.470  0.3652 -0.2984  0.1469
  265MPD2     H 4065   1.193   2.950  15.293 -0.2470 -0.4535 -1.3273
  265MPD2    H1 4066   1.137   2.539  15.392  2.4580  1.2386  0.3505
  265MPD2    H2 4067   0.889   2.806  15.561  1.4374  1.5130  0.7176
  265MPD2    H3 4068   0.952   2.591  15.519 -0.5284  0.9093  1.0821
  265MPD2     N 4069   1.263   2.693  15.216 -0.3160 -0.3358 -0.2713
  265MPD2    H5 4070   1.278   2.593  15.223 -2.3126 -0.6757 -0.7263
  265MPD2    N1 4071   1.036   3.039  15.497 -0.0122  0.7706  0.0298
  265MPD2    H7 4072   1.077   3.111  15.440 -0.3641 -0.0916 -1.3170
  266TMC3    C1 4073   1.007   3.214  15.652  0.1615  0.1502  0.3408
  266TMC3    C2 4074   1.036   3.242  15.779 -0.2578  0.0584 -0.8034
  266TMC3    C3 4075   1.015   3.371  15.825 -0.1373  0.3834  0.0393
  266TMC3    C4 4076   0.942   3.301  15.567 -0.0113 -0.7335  0.0621
  266TMC3    C5 4077   0.915   3.425  15.618  0.5631 -0.1686  0.6131
  266TMC3    C6 4078   0.952   3.467  15.748  0.9944 -0.9216  0.4486
  266TMC3     C 4079   1.006   3.074  15.627 -0.0918 -0.4752 -0.0808
  266TMC3     O 4080   0.971   2.998  15.716  0.4461 -0.8716 -0.2749
  266TMC3     H 4081   1.091   3.168  15.837 -0.3737  0.8943  0.3696
  266TMC3    H1 4082   0.897   3.273  15.472  0.1541 -0.4324 -0.1018
  266TMC3    H2 4083   0.928   3.567  15.784 -1.7926 -0.8555 -1.6197
  266TMC3    C7 4084   0.862   3.522  15.530 -0.0137 -0.0751  0.4787
  266TMC3    C8 4085   1.086   3.408  15.949 -0.2632 -0.0380 -0.4634
  266TMC3    O1 4086   0.818   3.473  15.425  0.0398  0.0287  0.1685
  266TMC3    O2 4087   1.158   3.323  15.999 -0.0671 -0.0331 -0.1888
  267MPD2     C 4088   3.076   0.128   0.423  0.2836  0.2606  0.2206
  267MPD2    C1 4089   3.099   0.200   0.308  0.4246  0.2968 -0.3770
  267MPD2    C2 4090   2.985   0.238   0.240  0.0671 -0.1536  0.2456
  267MPD2    C3 4091   2.858   0.215   0.290  0.3230 -0.3067  0.0581
  267MPD2    C4 4092   2.828   0.145   0.402 -0.2526  0.1229  0.4173
  267MPD2    C5 4093   2.941   0.100   0.461  0.7813  0.1413  0.6919
  267MPD2     H 4094   2.994   0.283   0.142 -1.0334 -0.9137 -0.1992
  267MPD2    H1 4095   2.725   0.123   0.426 -0.3478  0.6652  0.5053
  267MPD2    H2 4096   3.158   0.078   0.473  2.4372  0.2233 -3.3039
  267MPD2    H3 4097   2.933   0.033   0.546 -1.6426  0.4137  0.6719
  267MPD2     N 4098   2.747   0.251   0.215 -0.5194 -0.0313 -0.0433
  267MPD2    H5 4099   2.656   0.207   0.227 -1.1719  2.0332  2.6037
  267MPD2    N1 4100   3.233   0.237   0.278  0.2979  0.5495  0.7621
  267MPD2    H7 4101   3.297   0.202   0.348 -1.0494  1.1082  2.2938
  268TMC3    C1 4102   3.414   0.335   0.147 -0.0181  0.0394  0.5006
  268TMC3    C2 4103   3.465   0.441   0.072 -0.7862 -1.0962  0.0528
  268TMC3    C3 4104   3.598   0.484   0.089  0.3859 -0.1766  0.2974
  268TMC3    C4 4105   3.500   0.257   0.220 -0.2389  0.2886  0.8404
  268TMC3    C5 4106   3.630   0.302   0.233  0.1642  0.2952 -0.2503
  268TMC3    C6 4107   3.680   0.416   0.169 -0.7229  0.6520 -0.3590
  268TMC3     C 4108   3.267   0.318   0.171  0.7557 -0.4073  0.4318
  268TMC3     O 4109   3.192   0.368   0.088 -0.0766  0.2405 -0.1050
  268TMC3     H 4110   3.398   0.491   0.004  1.8766  1.0426 -0.9918
  268TMC3    H1 4111   3.472   0.174   0.284  0.9255 -0.3242  0.5712
  268TMC3    H2 4112   3.781   0.451   0.182 -0.4048 -0.3402 -0.1617
  268TMC3    C7 4113   3.672   0.274   0.367 -0.2155  0.5413  0.7078
  268TMC3    C8 4114   3.648   0.585   0.005 -0.5249  0.0316  0.1697
  268TMC3    O1 4115   3.665   0.157   0.408 -0.1258 -0.5908  0.3806
  268TMC3    O2 4116   3.755   0.633   0.038  0.3885 -0.4575 -0.0469
  269MPD2     C 4117   3.009   3.933  15.134 -0.4299  0.6456 -0.1229
  269MPD2    C1 4118   3.092   3.880  15.226  0.1799 -0.0812 -0.9524
  269MPD2    C2 4119   3.207   3.958  15.260 -0.1809 -0.5604 -0.3345
  269MPD2    C3 4120   3.225   4.085  15.219  0.0310  0.6276 -0.2776
  269MPD2    C4 4121   3.141   4.130  15.119 -0.3856 -0.7123  0.1451
  269MPD2    C5 4122   3.034   4.052  15.085  0.0636  0.2287 -0.3164
  269MPD2     H 4123   3.283   3.918  15.326  0.7086 -0.5031 -1.3245
  269MPD2    H1 4124   3.138   4.228  15.071 -1.6542 -1.6652 -1.7208
  269MPD2    H2 4125   2.921   3.879  15.102  0.8183 -0.7289 -1.2574
  269MPD2    H3 4126   2.961   4.093  15.017 -2.0272 -1.2015  1.0916
  269MPD2     N 4127   3.326   4.169  15.274  0.0781  0.1951  0.7129
  269MPD2    H5 4128   3.366   4.132  15.360  1.0475 -0.8663 -0.1897
  269MPD2    N1 4129   3.076   3.747  15.275 -0.6327  0.0648  0.3434
  269MPD2    H7 4130   3.000   3.688  15.243  0.0756 -0.8786  0.3830
  270TMC3    C1 4131   3.149   3.546  15.376 -0.5600  0.5978 -0.0407
  270TMC3    C2 4132   3.103   3.470  15.274 -0.8187 -0.0477  0.5254
  270TMC3    C3 4133   3.147   3.344  15.281 -1.2362  0.0011  0.1312
  270TMC3    C4 4134   3.217   3.495  15.481  0.4237  0.3023  0.6622
  270TMC3    C5 4135   3.236   3.358  15.491 -0.9157  0.1292 -0.1380
  270TMC3    C6 4136   3.202   3.279  15.385  0.1552  0.6201  0.0493
  270TMC3     C 4137   3.177   3.687  15.352 -0.5136  0.1495 -0.8126
  270TMC3     O 4138   3.266   3.732  15.421  0.2501 -0.3330 -0.2415
  270TMC3     H 4139   3.061   3.509  15.182  0.3377 -0.8759 -0.3580
  270TMC3    H1 4140   3.253   3.553  15.565  1.2130  0.8721 -0.0738
  270TMC3    H2 4141   3.210   3.171  15.392 -0.3579  0.4089 -2.5760
  270TMC3    C7 4142   3.273   3.297  15.610 -0.4867 -0.1833 -0.0753
  270TMC3    C8 4143   3.123   3.261  15.166  0.4808 -0.1970  0.1724
  270TMC3    O1 4144   3.363   3.346  15.676  0.0708 -0.4277  0.1361
  270TMC3    O2 4145   3.018   3.281  15.108  0.0855  0.3076 -0.2848
  271MPD2     C 4146   3.246   3.318  13.704  0.0166  0.4501  0.5119
  271MPD2    C1 4147   3.217   3.342  13.832 -0.0226 -0.6920 -0.7360
  271MPD2    C2 4148   3.101   3.412  13.861  0.3511  0.0343 -0.6294
  271MPD2    C3 4149   3.031   3.468  13.762 -0.0358  0.0534 -0.0696
  271MPD2    C4 4150   3.075   3.461  13.633 -0.3830  0.3788  0.0104
  271MPD2    C5 4151   3.174   3.377  13.595  0.1221 -0.0784 -0.4622
  271MPD2     H 4152   3.071   3.418  13.965 -1.2199  0.9162 -1.1223
  271MPD2    H1 4153   3.019   3.508  13.553  0.7504 -1.5035 -1.8877
  271MPD2    H2 4154   3.329   3.258  13.667 -0.9859  0.0187 -1.0623
  271MPD2    H3 4155   3.210   3.368  13.493  1.0083 -2.7768  0.0924
  271MPD2     N 4156   2.909   3.541  13.779  0.6280 -0.6032 -0.1951
  271MPD2    H5 4157   2.863   3.587  13.701 -0.6058 -2.6854 -0.6995
  271MPD2    N1 4158   3.283   3.280  13.940 -0.3394 -0.3701  0.4955
  271MPD2    H7 4159   3.239   3.305  14.028 -0.6064 -0.6065  0.4307
  272TMC3    C1 4160   3.437   3.132  14.051 -0.9730  0.1127  1.1062
  272TMC3    C2 4161   3.523   3.020  14.037  0.0773 -0.9421  0.0587
  272TMC3    C3 4162   3.539   2.937  14.143  0.2850 -0.0147  0.2527
  272TMC3    C4 4163   3.392   3.164  14.168  0.2895 -0.0214 -0.0482
  272TMC3    C5 4164   3.402   3.073  14.270 -0.4284  0.8198 -0.1955
  272TMC3    C6 4165   3.475   2.957  14.258 -0.3185 -0.1945 -0.0130
  272TMC3     C 4166   3.388   3.191  13.927 -0.2202  1.1152  0.3992
  272TMC3     O 4167   3.450   3.177  13.825 -0.0091 -0.3135  0.0974
  272TMC3     H 4168   3.581   3.008  13.947 -0.8455  2.1978 -0.9479
  272TMC3    H1 4169   3.335   3.256  14.182  0.7438 -0.0196  1.8159
  272TMC3    H2 4170   3.497   2.898  14.346  1.4603 -0.2207 -0.4888
  272TMC3    C7 4171   3.393   3.122  14.408  0.1522  0.1431 -0.5622
  272TMC3    C8 4172   3.675   2.887  14.143 -0.6902  0.0014  0.3812
  272TMC3    O1 4173   3.394   3.042  14.500 -0.1119 -0.5953 -0.2550
  272TMC3    O2 4174   3.744   2.890  14.041 -0.2306  0.0975  0.9778
  273MPD2     C 4175   0.026   0.971  11.678  0.5482  0.3511  0.5765
  273MPD2    C1 4176   0.106   1.086  11.696  0.0834  0.1856  0.2424
  273MPD2    C2 4177   0.166   1.139  11.590 -0.2863 -0.0415 -0.2514
  273MPD2    C3 4178   0.156   1.082  11.467 -0.6761  0.1729  0.3992
  273MPD2    C4 4179   0.049   0.990  11.444 -0.5037 -0.1352 -0.1608
  273MPD2    C5 4180   4.727   0.928  11.550 -0.7953 -0.5910 -0.5765
  273MPD2     H 4181   0.247   1.207  11.615 -2.2920  2.8708 -1.6296
  273MPD2    H1 4182   0.031   0.937  11.351 -2.6168  0.4917 -0.0985
  273MPD2    H2 4183   4.722   0.926  11.769  1.2916 -0.2178  0.6119
  273MPD2    H3 4184   4.652   0.851  11.541 -1.9392  0.7111 -2.2781
  273MPD2     N 4185   0.240   1.123  11.361  0.0213  0.4061 -0.4651
  273MPD2    H5 4186   0.223   1.078  11.271 -2.9983  1.6309 -0.5073
  273MPD2    N1 4187   0.145   1.115  11.830 -0.0891  0.2899  0.1036
  273MPD2    H7 4188   0.101   1.061  11.905 -0.1794 -0.5544 -0.5556
  274TMC3    C1 4189   0.383   1.258  11.232  0.2262 -0.0267 -0.2407
  274TMC3    C2 4190   0.285   1.267  11.135  0.0876 -0.2490  0.2209
  274TMC3    C3 4191   0.301   1.355  11.035  0.2086  0.9050  0.0154
  274TMC3    C4 4192   0.497   1.334  11.219 -0.4243 -0.2418 -0.0637
  274TMC3    C5 4193   0.511   1.410  11.108 -0.0763  0.0295  0.4005
  274TMC3    C6 4194   0.416   1.418  11.007 -0.1292  0.4621 -0.3862
  274TMC3     C 4195   0.338   1.215  11.367 -0.0479  0.5934  0.9481
  274TMC3     O 4196   0.388   1.272  11.466  0.3661 -0.2513  0.7980
  274TMC3     H 4197   0.188   1.221  11.146  0.8783 -1.7179  1.0556
  274TMC3    H1 4198   0.562   1.342  11.305  1.5191 -1.4219 -1.4182
  274TMC3    H2 4199   0.427   1.499  10.935 -0.4595  0.3750 -0.5300
  274TMC3    C7 4200   0.569   1.539  11.140  0.5316 -0.0925 -0.0330
  274TMC3    C8 4201   0.179   1.380  10.958  0.2551 -0.1067  0.3996
  274TMC3    O1 4202   0.609   1.603  11.041 -0.9692 -0.5428 -0.1340
  274TMC3    O2 4203   0.070   1.379  11.018  0.1327  1.2011  0.2505
  275MPD2     C 4204   0.290   3.922  14.356  0.6612 -0.1449  0.0996
  275MPD2    C1 4205   0.204   4.019  14.323  0.3084  0.6549 -0.5079
  275MPD2    C2 4206   0.092   4.000  14.252 -0.5345  0.4587  0.2365
  275MPD2    C3 4207   0.049   3.873  14.227 -0.5275  0.0492 -0.1541
  275MPD2    C4 4208   0.135   3.771  14.265 -0.5542  0.1091 -0.1880
  275MPD2    C5 4209   0.252   3.794  14.329 -0.1465 -0.7014 -0.5541
  275MPD2     H 4210   0.026   4.086  14.241  0.1753  1.0228  0.3932
  275MPD2    H1 4211   0.104   3.667  14.260 -0.7538  0.1622 -0.0775
  275MPD2    H2 4212   0.394   3.941  14.383  0.9046 -2.0749  0.5370
  275MPD2    H3 4213   0.324   3.716  14.353  0.0205 -0.6617 -0.9155
  275MPD2     N 4214   4.658   3.834  14.173 -0.8669  0.1277 -1.1525
  275MPD2    H5 4215   4.630   3.738  14.191  0.1869 -0.0986 -0.6744
  275MPD2    N1 4216   0.224   4.148  14.369 -0.6436  0.3798 -0.7111
  275MPD2    H7 4217   0.143   4.208  14.382 -0.3518  0.4871  0.6660
  276TMC3    C1 4218   0.317   4.337  14.477 -0.0586 -0.1892  0.0519
  276TMC3    C2 4219   0.219   4.406  14.413 -1.0444 -0.7634 -0.0300
  276TMC3    C3 4220   0.188   4.527  14.475  0.4685  0.3075 -0.4397
  276TMC3    C4 4221   0.389   4.376  14.582  0.3801  0.1217 -0.4723
  276TMC3    C5 4222   0.359   4.488  14.647  0.5517  0.4354 -0.8745
  276TMC3    C6 4223   0.249   4.561  14.595 -0.6155  0.2581 -1.1020
  276TMC3     C 4224   0.338   4.198  14.428  1.1953  0.9569  0.0331
  276TMC3     O 4225   0.446   4.148  14.456  0.4245  0.9151  0.2172
  276TMC3     H 4226   0.155   4.370  14.334 -1.5539  0.7963 -0.3271
  276TMC3    H1 4227   0.466   4.306  14.609 -0.6707 -0.8078  0.1267
  276TMC3    H2 4228   0.215   4.657  14.636  1.7381  0.4663  0.3415
  276TMC3    C7 4229   0.431   4.535  14.764 -0.2770 -0.8031  0.7341
  276TMC3    C8 4230   0.045   4.535  14.480  0.4650 -0.1392 -0.3978
  276TMC3    O1 4231   0.371   4.612  14.838 -0.2844 -0.1216  0.7436
  276TMC3    O2 4232   4.711   4.501  14.382  0.2157 -0.2848 -0.2385
  277MPD2     C 4233   1.955   3.023  13.357 -0.0620 -0.3047 -0.1001
  277MPD2    C1 4234   1.843   3.090  13.399 -0.5496  0.2084  0.3507
  277MPD2    C2 4235   1.779   3.027  13.512  0.0525 -0.0780  0.1669
  277MPD2    C3 4236   1.820   2.914  13.571  0.1935 -0.2332  0.4454
  277MPD2    C4 4237   1.928   2.847  13.517  0.6641  0.2381  0.3619
  277MPD2    C5 4238   1.999   2.913  13.414 -0.8476 -0.2015 -0.0596
  277MPD2     H 4239   1.705   3.079  13.572  0.3282  1.1664 -0.5662
  277MPD2    H1 4240   1.960   2.750  13.551 -0.6812  0.0265  1.0152
  277MPD2    H2 4241   2.003   3.064  13.269 -0.4460 -0.0220 -0.1780
  277MPD2    H3 4242   2.086   2.869  13.366  1.6839  0.6430  3.7404
  277MPD2     N 4243   1.728   2.865  13.674 -0.0144 -0.0577  0.9325
  277MPD2    H5 4244   1.661   2.934  13.707 -0.1363  0.4580 -0.4284
  277MPD2    N1 4245   1.805   3.210  13.338  0.5674 -0.0136  0.0133
  277MPD2    H7 4246   1.855   3.229  13.251 -0.0972  0.3538 -0.2878
  278TMC3    C1 4247   1.685   2.735  13.869 -0.5745 -0.0668  0.0067
  278TMC3    C2 4248   1.691   2.613  13.926 -0.0491  0.3224  0.3202
  278TMC3    C3 4249   1.634   2.606  14.049  0.6934  0.2309 -0.0054
  278TMC3    C4 4250   1.605   2.839  13.921 -0.3959 -0.0441  1.1662
  278TMC3    C5 4251   1.557   2.821  14.046 -0.3141 -0.2192 -0.6854
  278TMC3    C6 4252   1.570   2.703  14.117  0.1592 -0.1754 -0.3367
  278TMC3     C 4253   1.743   2.742  13.737  0.6310 -0.1150 -0.2991
  278TMC3     O 4254   1.814   2.652  13.695 -0.7104 -0.4927  0.2256
  278TMC3     H 4255   1.750   2.531  13.887 -1.7081 -0.1232 -1.2442
  278TMC3    H1 4256   1.593   2.931  13.865 -0.3096  0.0706  1.3380
  278TMC3    H2 4257   1.525   2.676  14.212  2.7379  0.1102  0.9678
  278TMC3    C7 4258   1.444   2.902  14.089  0.3040 -0.8091  1.0091
  278TMC3    C8 4259   1.631   2.476  14.115 -0.3439 -0.7286 -0.0878
  278TMC3    O1 4260   1.375   2.867  14.185  0.4598 -0.6197  0.1353
  278TMC3    O2 4261   1.630   2.485  14.238  0.3680 -0.5600 -0.5860
  279MPD2     C 4262   0.865   3.406   0.062  0.4648 -0.3926 -0.1530
  279MPD2    C1 4263   0.755   3.335   0.018  0.0967 -0.0511 -0.3146
  279MPD2    C2 4264   0.737   3.297  17.633  0.0200 -0.0806  0.2998
  279MPD2    C3 4265   0.840   3.323  17.538 -0.1467 -0.1209 -0.2899
  279MPD2    C4 4266   0.956   3.392  17.578  0.0646 -0.5560 -0.1265
  279MPD2    C5 4267   0.954   3.445  17.709 -0.3045 -0.3936 -0.2301
  279MPD2     H 4268   0.640   3.271  17.590  0.6311  0.6380 -1.5199
  279MPD2    H1 4269   1.040   3.416  17.514  1.6848 -0.4786  2.0158
  279MPD2    H2 4270   0.879   3.439   0.165  0.7055  0.8295 -0.5830
  279MPD2    H3 4271   1.029   3.519  17.734 -0.7501  0.5323 -1.6371
  279MPD2     N 4272   0.844   3.284  17.399  0.1921 -0.4914 -0.2970
  279MPD2    H5 4273   0.921   3.320  17.343 -0.5012  1.0957 -0.2330
  279MPD2    N1 4274   0.651   3.320   0.112 -0.0011 -0.3073  0.0888
  279MPD2    H7 4275   0.660   3.364   0.203  2.8091  0.7228 -0.6783
  280TMC3    C1 4276   0.433   3.303   0.178 -0.5379 -0.4945  0.4581
  280TMC3    C2 4277   0.333   3.212   0.208  0.5599  0.3334  0.0780
  280TMC3    C3 4278   0.216   3.260   0.271  0.0941 -0.2845 -0.0380
  280TMC3    C4 4279   0.421   3.437   0.200  0.4446  0.0045  0.1100
  280TMC3    C5 4280   0.298   3.481   0.242 -0.4152  0.7217  0.0781
  280TMC3    C6 4281   0.195   3.396   0.278  0.2881  0.2767 -0.4505
  280TMC3     C 4282   0.537   3.252   0.083 -0.2182  0.5017  0.3295
  280TMC3     O 4283   0.506   3.182  17.727 -0.0229  0.4052 -0.1952
  280TMC3     H 4284   0.351   3.106   0.199 -0.3455 -0.0206  2.6777
  280TMC3    H1 4285   0.494   3.515   0.180 -2.2292  2.0572 -1.6119
  280TMC3    H2 4286   0.120   3.445   0.339  2.2257  3.0167 -0.2298
  280TMC3    C7 4287   0.292   3.627   0.265 -0.4429  0.5514  0.1122
  280TMC3    C8 4288   0.121   3.173   0.331 -0.2035 -0.3555 -0.4922
  280TMC3    O1 4289   0.388   3.679   0.316  0.4414 -0.0419  0.9958
  280TMC3    O2 4290   0.045   3.229   0.409 -0.1591 -0.1662  0.1620
  281TMC3    C1 4291   4.564   3.551  13.292 -0.0558 -0.4992  0.3039
  281TMC3    C2 4292   4.607   3.629  13.190  0.4099 -0.1696  0.4184
  281TMC3    C3 4293   4.638   3.552  13.074  0.7383 -0.2726  0.7183
  281TMC3    C4 4294   4.553   3.417  13.298 -0.3230 -0.1790 -0.4599
  281TMC3    C5 4295   4.597   3.343  13.188  0.4863  0.2016 -0.4137
  281TMC3    C6 4296   4.635   3.410  13.074 -0.0725 -0.9931  0.7530
  281TMC3     C 4297   4.487   3.618  13.393  0.1165  0.6261  1.3291
  281TMC3     O 4298   4.498   3.572  13.508  0.1850  0.0921  0.0223
  281TMC3     H 4299   4.625   3.736  13.191  2.1417 -0.4543  0.2005
  281TMC3    H1 4300   4.512   3.372  13.387 -1.1345 -3.2334 -2.3638
  281TMC3    H2 4301   4.652   3.361  12.978  0.2133 -0.5099  0.5531
  281TMC3    C7 4302   4.564   3.206  13.177  0.0627 -0.1442  0.0272
  281TMC3    C8 4303   4.693   3.625  12.955  0.4713  1.1745  0.2923
  281TMC3    O1 4304   4.597   3.138  13.083 -0.3302 -0.8285 -0.1539
  281TMC3    O2 4305   0.056   3.579  12.903  0.1206 -0.0296  0.4622
  282MPD2     C 4306   1.355   4.636  15.159 -0.2456 -0.0046  0.1130
  282MPD2    C1 4307   1.236   4.702  15.146  0.6624  0.0332 -0.4483
  282MPD2    C2 4308   1.185   4.709  15.015 -0.1919  0.6448  0.4586
  282MPD2    C3 4309   1.245   4.655  14.907 -0.7826  0.7480 -0.5005
  282MPD2    C4 4310   1.365   4.591  14.923  0.5022  0.0274 -0.2426
  282MPD2    C5 4311   1.418   4.586  15.049  0.3978  0.3386 -0.3615
  282MPD2     H 4312   1.091   0.026  14.999 -0.7412 -0.0131  1.5125
  282MPD2    H1 4313   1.433   4.553  14.849 -1.2632 -3.4973 -0.0302
  282MPD2    H2 4314   1.397   4.610  15.255  0.1068 -0.9044 -0.2863
  282MPD2    H3 4315   1.513   4.535  15.056 -1.3458 -2.6278  1.4948
  282MPD2     N 4316   1.184   4.668  14.779 -0.0178 -0.0876 -0.6179
  282MPD2    H5 4317   1.108   4.734  14.761 -0.3934 -0.0350  1.1463
  282MPD2    N1 4318   1.161   0.023  15.253  0.2555  0.0809 -0.0659
  282MPD2    H7 4319   1.066   0.059  15.247  0.6116  1.1133  0.4717
  283TMC3    C1 4320   1.114   0.094  15.467 -0.4112 -0.7692 -0.3857
  283TMC3    C2 4321   1.140   0.222  15.500  0.2142 -0.3499  0.2322
  283TMC3    C3 4322   1.077   0.252  15.617  0.1125 -0.5061  0.7353
  283TMC3    C4 4323   1.053   4.733  15.547 -0.6808 -0.4914  0.2419
  283TMC3    C5 4324   0.994   0.042  15.663  0.0189 -0.2334 -0.6794
  283TMC3    C6 4325   0.999   0.175  15.700  0.2593  0.4407  0.0609
  283TMC3     C 4326   1.207   0.034  15.381 -0.0055 -0.1661 -0.1154
  283TMC3     O 4327   1.324   0.036  15.426  0.2608 -0.4123 -0.4552
  283TMC3     H 4328   1.184   0.288  15.426 -2.3061  0.4390 -0.5277
  283TMC3    H1 4329   1.071   4.630  15.519 -2.8488 -0.9181  0.4610
  283TMC3    H2 4330   0.933   0.218  15.775 -1.4458 -1.7626 -0.2053
  283TMC3    C7 4331   0.915   4.688  15.747 -0.1967 -0.3029  0.0898
  283TMC3    C8 4332   1.094   0.383  15.673  0.3330  0.1058  0.4973
  283TMC3    O1 4333   0.860   0.008  15.840  0.0363 -0.3996 -0.7520
  283TMC3    O2 4334   1.063   0.405  15.791 -0.6258  0.1013  0.4660
  284MPD2     C 4335   3.982   3.380  11.862  0.3269  0.5500  0.5970
  284MPD2    C1 4336   4.043   3.489  11.798 -0.3130  0.4412 -0.2974
  284MPD2    C2 4337   4.147   3.548  11.853 -0.2107  0.3285  0.0859
  284MPD2    C3 4338   4.190   3.499  11.971 -0.5384 -0.4724 -0.8094
  284MPD2    C4 4339   4.132   3.392  12.036  0.3240 -0.6557 -0.6491
  284MPD2    C5 4340   4.025   3.334  11.982  0.0439 -0.3025  0.7947
  284MPD2     H 4341   4.206   3.619  11.796 -0.2280  0.6519  0.4748
  284MPD2    H1 4342   4.175   3.356  12.129 -0.2514  0.3372  0.0045
  284MPD2    H2 4343   3.894   3.335  11.817  0.3673  0.0572  1.0027
  284MPD2    H3 4344   3.977   3.249  12.029  0.9421 -0.0792  2.1174
  284MPD2     N 4345   4.317   3.539  12.027 -0.0347  0.2230 -0.1643
  284MPD2    H5 4346   4.355   3.481  12.101  1.0829 -0.0264 -0.9147
  284MPD2    N1 4347   3.994   3.538  11.673  0.1017 -0.4688 -0.0046
  284MPD2    H7 4348   4.020   3.631  11.642  1.7136 -0.3116  1.8761
  285TMC3    C1 4349   3.899   3.530  11.463  0.5676  0.1405 -0.5272
  285TMC3    C2 4350   3.864   3.458  11.351  0.1849  0.7742 -0.0079
  285TMC3    C3 4351   3.860   3.528  11.232  0.2776 -0.6574  0.0573
  285TMC3    C4 4352   3.911   3.663  11.470  0.3230 -0.3749 -0.0680
  285TMC3    C5 4353   3.909   3.726  11.351  0.9692  0.5104 -0.1709
  285TMC3    C6 4354   3.876   3.662  11.235 -0.0379 -0.4894  0.1465
  285TMC3     C 4355   3.929   3.459  11.581  0.3446  0.7538 -0.2857
  285TMC3     O 4356   3.939   3.336  11.572  0.5113 -0.0751 -0.2243
  285TMC3     H 4357   3.861   3.350  11.349  1.0655  0.7280  1.3013
  285TMC3    H1 4358   3.912   3.724  11.559 -0.7708 -2.1658  1.1597
  285TMC3    H2 4359   3.871   3.727  11.148 -0.2539  0.3516  0.7815
  285TMC3    C7 4360   3.914   3.876  11.352  0.3790 -0.6109 -0.6707
  285TMC3    C8 4361   3.921   3.457  11.121  1.0251  0.3248  0.5558
  285TMC3    O1 4362   4.018   3.924  11.400  0.6129  0.2604  0.6643
  285TMC3    O2 4363   3.928   3.338  11.136  0.0172  0.4649  0.1864
  286MPD2     C 4364   4.709   3.344   1.092  0.0519  0.1307 -0.3209
  286MPD2    C1 4365   4.673   3.280   0.975  0.1928  0.1568  0.8724
  286MPD2    C2 4366   4.697   3.142   0.965 -0.5079 -0.8877  0.8486
  286MPD2    C3 4367   0.017   3.067   1.066 -0.7642  0.6002  0.7839
  286MPD2    C4 4368   0.053   3.132   1.179  0.2995 -0.4440 -0.4091
  286MPD2    C5 4369   0.033   3.270   1.193 -0.0495 -0.0529 -0.1834
  286MPD2     H 4370   4.666   3.104   0.869 -2.7921  2.4151  0.2929
  286MPD2    H1 4371   0.103   3.076   1.258 -0.4149 -0.7567 -0.1819
  286MPD2    H2 4372   4.699   3.452   1.094  1.4785  0.1572  4.7507
  286MPD2    H3 4373   0.068   3.326   1.279  0.9480 -0.9520  0.0114
  286MPD2     N 4374   0.033   2.927   1.063  0.0219  0.3812 -0.4128
  286MPD2    H5 4375   0.051   2.878   1.150  0.4985  0.9899 -0.1727
  286MPD2    N1 4376   4.598   3.341   0.872 -0.0425 -0.4460  0.6202
  286MPD2    H7 4377   4.565   3.291   0.790  0.9853  0.8444 -0.5823
  287TMC3    C1 4378   0.027   2.706   0.977  0.5605 -0.1085 -0.0738
  287TMC3    C2 4379   4.695   2.621   0.897 -0.3458  0.1492 -0.0315
  287TMC3    C3 4380   4.679   2.491   0.938  0.3341 -0.3087  0.3932
  287TMC3    C4 4381   0.093   2.666   1.089 -0.1289 -0.3787 -0.4335
  287TMC3    C5 4382   0.065   2.537   1.129 -0.5829 -0.5338  0.4335
  287TMC3    C6 4383   4.722   2.449   1.059  0.0835  0.2295 -0.0114
  287TMC3     C 4384   0.009   2.849   0.953 -0.0384 -0.8193 -0.6168
  287TMC3     O 4385   4.717   2.878   0.839 -0.3984 -0.6863 -0.0892
  287TMC3     H 4386   4.643   2.661   0.810  0.2483 -0.4664 -0.6704
  287TMC3    H1 4387   0.138   2.736   1.158  0.6832 -2.8865  1.5711
  287TMC3    H2 4388   4.696   2.351   1.095 -2.6685  0.2328 -2.0006
  287TMC3    C7 4389   0.088   2.501   1.273 -0.1915 -0.1103 -0.0194
  287TMC3    C8 4390   4.611   2.403   0.848  0.1641  0.0142 -0.5533
  287TMC3    O1 4391   0.105   2.588   1.357  0.2672 -0.2476  0.4452
  287TMC3    O2 4392   4.581   2.293   0.887 -0.5546 -0.1554 -0.1276
  288TMC3    C1 4393   2.040   2.638  14.149 -0.1386 -0.7457  0.1909
  288TMC3    C2 4394   1.945   2.652  14.249  0.5341  0.0904 -0.2192
  288TMC3    C3 4395   1.882   2.775  14.249 -0.0181 -0.3713 -0.5809
  288TMC3    C4 4396   2.062   2.719  14.041  0.3255 -0.1120 -0.3394
  288TMC3    C5 4397   1.998   2.844  14.058  0.3340 -0.1384 -0.1995
  288TMC3    C6 4398   1.909   2.877  14.158  0.1231  0.6863 -0.6022
  288TMC3     C 4399   2.154   2.572  14.196  0.3658  0.4980  0.5841
  288TMC3     O 4400   2.247   2.575  14.117 -0.3083 -0.5359 -0.1258
  288TMC3     H 4401   1.933   2.578  14.328 -1.5372  1.4758  0.7699
  288TMC3    H1 4402   2.134   2.701  13.962 -0.9503 -0.7567 -1.3423
  288TMC3    H2 4403   1.843   2.963  14.156 -1.2761 -0.3667  0.0844
  288TMC3    C7 4404   2.043   2.943  13.962 -0.0600  0.1414 -0.1348
  288TMC3    C8 4405   1.790   2.810  14.359 -0.3156 -0.3004  0.3343
  288TMC3    O1 4406   2.100   2.900  13.863 -0.2913  0.1336 -0.0691
  288TMC3    O2 4407   1.791   2.928  14.389 -0.1235 -0.0816 -0.4273
  289MPD2     C 4408   1.850   1.601  14.676  0.3100 -0.4112  0.3837
  289MPD2    C1 4409   1.819   1.732  14.668  0.2443 -0.2992 -0.0241
  289MPD2    C2 4410   1.718   1.768  14.580  0.1848  0.2860 -0.4166
  289MPD2    C3 4411   1.642   1.674  14.509  0.7540 -0.3806  0.2344
  289MPD2    C4 4412   1.682   1.540  14.519 -0.0662 -0.4045  0.7624
  289MPD2    C5 4413   1.784   1.503  14.603  0.5419 -0.7288  0.5947
  289MPD2     H 4414   1.688   1.872  14.580 -3.0383 -0.6431  0.1790
  289MPD2    H1 4415   1.633   1.464  14.459  2.0202 -2.5050  1.7437
  289MPD2    H2 4416   1.943   1.581  14.729  1.4340  0.5094 -1.2424
  289MPD2    H3 4417   1.810   1.397  14.606  0.9631 -0.6524 -0.2825
  289MPD2     N 4418   1.540   1.705  14.423  0.3748  0.1743  0.1471
  289MPD2    H5 4419   1.510   1.630  14.361  3.0412 -0.2369 -0.6777
  289MPD2    N1 4420   1.898   1.818  14.753 -0.2403  0.3750  1.1896
  289MPD2    H7 4421   1.973   1.776  14.807  2.3644  2.9689 -0.4382
  290TMC3    C1 4422   1.385   1.839  14.284  0.2280  0.6093 -0.1495
  290TMC3    C2 4423   1.365   1.972  14.237  0.1897 -0.4090 -0.2363
  290TMC3    C3 4424   1.302   1.974  14.115  0.2136 -0.0537 -0.0189
  290TMC3    C4 4425   1.335   1.725  14.228 -0.4938 -0.2023  0.0364
  290TMC3    C5 4426   1.264   1.735  14.112  0.1037 -0.3451  0.0998
  290TMC3    C6 4427   1.263   1.861  14.046 -0.2815 -0.0506 -0.4960
  290TMC3     C 4428   1.491   1.829  14.391  0.3775 -0.3338 -0.1021
  290TMC3     O 4429   1.524   1.937  14.442 -0.2482  0.0840 -0.0927
  290TMC3     H 4430   1.384   2.062  14.294 -2.0463  1.6535 -2.7410
  290TMC3    H1 4431   1.345   1.631  14.281 -0.9092 -0.7347 -0.8219
  290TMC3    H2 4432   1.231   1.880  13.944  1.8074 -0.4726 -1.2322
  290TMC3    C7 4433   1.190   1.630  14.031  0.7892  0.6307 -0.1852
  290TMC3    C8 4434   1.266   2.104  14.050  0.8991 -0.2426  0.3655
  290TMC3    O1 4435   1.164   1.672  13.923  0.2833 -0.6018 -0.0877
  290TMC3    O2 4436   1.229   2.101  13.936 -0.5296  0.5117  0.2753
  291MPD2     C 4437   0.492   2.172  17.683 -0.6023 -0.2211  0.4353
  291MPD2    C1 4438   0.531   2.101   0.057  0.7809  0.0834  0.9702
  291MPD2    C2 4439   0.640   2.150   0.129  0.1965  0.1181  0.5536
  291MPD2    C3 4440   0.706   2.262   0.090  0.6640 -0.2883  0.0212
  291MPD2    C4 4441   0.653   2.335  17.731 -0.1157 -0.3977 -0.4489
  291MPD2    C5 4442   0.550   2.293  17.656  0.2062 -0.3784 -0.5744
  291MPD2     H 4443   0.672   2.091   0.214  2.1218  2.2821  1.3295
  291MPD2    H1 4444   0.716   2.418  17.700 -0.2517  0.8217  2.5186
  291MPD2    H2 4445   0.415   2.129  17.621 -0.6940 -0.5912  0.7998
  291MPD2    H3 4446   0.528   2.357  17.572  1.3342 -0.7908 -1.1840
  291MPD2     N 4447   0.821   2.316   0.146 -0.0207  0.7299  0.2424
  291MPD2    H5 4448   0.843   2.415   0.135  0.7478  0.3903 -1.2238
  291MPD2    N1 4449   0.460   1.991   0.108 -0.4137 -0.1916  0.3735
  291MPD2    H7 4450   0.503   1.935   0.180 -0.3162 -0.2556  0.2657
  292TMC3    C1 4451   0.274   1.856   0.159 -0.0549 -0.0491  0.1502
  292TMC3    C2 4452   0.296   1.855   0.293  0.2225  0.4596 -0.4397
  292TMC3    C3 4453   0.251   1.744   0.365 -0.3509  0.5299  0.4191
  292TMC3    C4 4454   0.200   1.763   0.094 -0.9068  0.0092 -0.1600
  292TMC3    C5 4455   0.163   1.653   0.169  0.6454 -0.2839 -0.0083
  292TMC3    C6 4456   0.186   1.639   0.303 -0.4597 -0.3695 -0.3348
  292TMC3     C 4457   0.325   1.966   0.073  0.3848  0.3546  1.0218
  292TMC3     O 4458   0.261   2.005  17.715 -0.4411  0.3382  0.0039
  292TMC3     H 4459   0.331   1.941   0.349  0.4397  0.3125 -0.3499
  292TMC3    H1 4460   0.170   1.771  17.729 -4.0448  0.0462  0.7521
  292TMC3    H2 4461   0.152   1.552   0.357  0.4033  0.6950  1.9021
  292TMC3    C7 4462   0.137   1.525   0.097 -0.0386 -0.0613  0.2016
  292TMC3    C8 4463   0.252   1.756   0.512  0.6421  0.1154  0.1428
  292TMC3    O1 4464   0.183   1.425   0.153  0.2090 -0.2498  0.2793
  292TMC3    O2 4465   0.323   1.840   0.566  0.3806 -0.0678 -0.3205
  293MPD2     C 4466   2.530   2.523  13.253  0.2709  0.6110  0.5196
  293MPD2    C1 4467   2.579   2.646  13.202 -0.1936  0.2111 -0.6050
  293MPD2    C2 4468   2.679   2.701  13.279  0.6989  0.2092  0.0553
  293MPD2    C3 4469   2.710   2.649  13.404 -0.4410 -0.8126 -0.4676
  293MPD2    C4 4470   2.657   2.529  13.459 -0.6769 -0.3581 -0.0403
  293MPD2    C5 4471   2.563   2.464  13.374 -0.0826  0.3136 -0.7411
  293MPD2     H 4472   2.738   2.786  13.247 -1.6886  1.3007 -1.4312
  293MPD2    H1 4473   2.674   2.491  13.559  1.1550  1.1036  0.2011
  293MPD2    H2 4474   2.461   2.456  13.203  0.6559 -0.1203  0.9659
  293MPD2    H3 4475   2.506   2.376  13.400 -2.0012  2.2811  1.7250
  293MPD2     N 4476   2.806   2.718  13.474  0.1043  0.0297  0.5200
  293MPD2    H5 4477   2.850   2.791  13.419  0.4288 -0.2669  0.3840
  293MPD2    N1 4478   2.556   2.688  13.070  0.0396 -0.0375 -0.0252
  293MPD2    H7 4479   2.512   2.622  13.006 -1.0727  1.4267 -0.7478
  294TMC3    C1 4480   2.611   2.803  12.870  0.6552  0.2267  0.0783
  294TMC3    C2 4481   2.500   2.735  12.821  0.3833  0.0950  0.1262
  294TMC3    C3 4482   2.506   2.684  12.693  0.0075  0.1099  0.0854
  294TMC3    C4 4483   2.730   2.808  12.802 -1.0204 -0.3711 -0.6226
  294TMC3    C5 4484   2.734   2.755  12.679 -0.6136  0.3083  0.8494
  294TMC3    C6 4485   2.623   2.693  12.624 -0.2276 -0.0342  0.7963
  294TMC3     C 4486   2.619   2.790  13.010  0.7318  0.4374  0.1683
  294TMC3     O 4487   2.699   2.872  13.050  0.1218  0.1543  0.6091
  294TMC3     H 4488   2.407   2.739  12.876  0.8702  1.1293  0.8628
  294TMC3    H1 4489   2.819   2.852  12.847 -2.3854  0.5464  1.1904
  294TMC3    H2 4490   2.629   2.660  12.521 -0.3722  2.1166  0.1085
  294TMC3    C7 4491   2.846   2.776  12.596  0.4239  1.3718  0.8990
  294TMC3    C8 4492   2.392   2.709  12.610 -0.2998 -0.2879 -0.3205
  294TMC3    O1 4493   2.892   2.889  12.599 -0.0913  0.1504 -0.4755
  294TMC3    O2 4494   2.321   2.806  12.621 -0.3832  0.4986 -0.3541
  295MPD2     C 4495   3.097   2.001   1.243 -0.7775 -0.5992 -0.5579
  295MPD2    C1 4496   2.992   2.088   1.252 -0.0349 -0.1579 -0.8721
  295MPD2    C2 4497   2.947   2.123   1.376  0.8380 -0.3720 -0.4542
  295MPD2    C3 4498   2.998   2.060   1.490  0.8301 -0.3973  0.7754
  295MPD2    C4 4499   3.108   1.969   1.477  0.2601 -0.0498  0.4421
  295MPD2    C5 4500   3.158   1.946   1.355 -0.3835 -0.1461  0.2359
  295MPD2     H 4501   2.863   2.190   1.381 -0.3561 -1.9003  0.0502
  295MPD2    H1 4502   3.147   1.916   1.562 -1.4500 -1.5065  0.3197
  295MPD2    H2 4503   3.138   1.974   1.147  0.2489 -1.1652  0.0426
  295MPD2    H3 4504   3.241   1.877   1.342 -0.7812 -0.8061  1.2392
  295MPD2     N 4505   2.961   2.086   1.622  0.7622 -0.9381 -0.2991
  295MPD2    H5 4506   3.012   2.044   1.699 -0.6486 -1.2878  0.4434
  295MPD2    N1 4507   2.940   2.155   1.144 -0.3398  1.1066  0.1162
  295MPD2    H7 4508   2.863   2.217   1.166 -2.1989 -0.8843 -0.7523
  296TMC3    C1 4509   2.832   2.130   1.807 -0.7236 -0.5232  0.1686
  296TMC3    C2 4510   2.838   2.242   1.881  0.1897  0.1275 -0.2440
  296TMC3    C3 4511   2.856   2.222   2.016 -0.7914  0.5201 -1.1601
  296TMC3    C4 4512   2.835   2.002   1.852 -0.0308 -0.4498 -0.7430
  296TMC3    C5 4513   2.853   1.995   1.985 -0.2823  0.1131 -0.1971
  296TMC3    C6 4514   2.868   2.102   2.069  0.3617 -0.7235  0.0479
  296TMC3     C 4515   2.855   2.162   1.666 -0.5771  0.2900 -0.1932
  296TMC3     O 4516   2.777   2.240   1.614 -0.2027 -0.1533  0.1381
  296TMC3     H 4517   2.852   2.335   1.828 -2.0217 -0.0598 -1.1620
  296TMC3    H1 4518   2.845   1.917   1.786 -1.1897  1.7350 -3.7911
  296TMC3    H2 4519   2.886   2.087   2.175 -0.3434  2.7705  0.6592
  296TMC3    C7 4520   2.872   1.860   2.037 -0.2267 -0.0077 -0.1151
  296TMC3    C8 4521   2.901   2.330   2.102  0.0494  0.0825  0.1122
  296TMC3    O1 4522   2.951   1.841   2.130 -1.0196  0.3561 -0.3937
  296TMC3    O2 4523   2.946   2.299   2.213 -0.7380  0.2133  0.3863
  297MPD2     C 4524   0.054   3.665  16.203  0.4354 -0.0244  0.4853
  297MPD2    C1 4525   0.056   3.782  16.136  0.0654  0.6243 -0.5619
  297MPD2    C2 4526   0.165   3.856  16.135  0.3683  0.1397 -0.2436
  297MPD2    C3 4527   0.280   3.816  16.203  0.8359 -0.1531 -0.3232
  297MPD2    C4 4528   0.276   3.696  16.272  0.0743  0.3768  0.5571
  297MPD2    C5 4529   0.164   3.624  16.277 -0.2520 -1.0184  0.7105
  297MPD2     H 4530   0.157   3.949  16.080  0.6905 -0.1311 -0.7500
  297MPD2    H1 4531   0.360   3.663  16.334  0.0413  0.3022  0.5627
  297MPD2    H2 4532   4.700   3.605  16.213  1.1201 -1.1391 -0.0461
  297MPD2    H3 4533   0.154   3.534  16.337  1.0921 -1.9805 -0.5259
  297MPD2     N 4534   0.390   3.903  16.205  0.6304 -0.3443  0.3685
  297MPD2    H5 4535   0.392   3.974  16.133 -1.1933  2.4560  3.1209
  297MPD2    N1 4536   4.680   3.829  16.064  0.4751 -0.5251 -0.1577
  297MPD2    H7 4537   4.697   3.899  15.993  0.3671 -1.1258 -0.7741
  298TMC3    C1 4538   4.469   3.901  16.021 -0.5838  0.2997 -0.9059
  298TMC3    C2 4539   4.518   3.978  15.914  0.0499  0.3905 -0.0831
  298TMC3    C3 4540   4.441   4.094  15.887 -0.1516 -0.3038 -0.6240
  298TMC3    C4 4541   4.354   3.926  16.089 -0.4937 -0.4705 -0.6984
  298TMC3    C5 4542   4.280   4.040  16.051 -0.2915  0.2231 -0.6700
  298TMC3    C6 4543   4.329   4.132  15.963 -0.3242  0.1219  0.3062
  298TMC3     C 4544   4.548   3.794  16.072 -0.7715  0.5695  0.8089
  298TMC3     O 4545   4.495   3.715  16.150 -0.4086  0.0728 -0.6232
  298TMC3     H 4546   4.602   3.950  15.850 -0.9207 -1.4584 -0.5338
  298TMC3    H1 4547   4.322   3.851  16.160  1.1032 -0.5855 -0.1042
  298TMC3    H2 4548   4.286   4.231  15.955 -0.9716 -0.3094 -1.6599
  298TMC3    C7 4549   4.166   4.075  16.125  0.0915  0.1990  0.5099
  298TMC3    C8 4550   4.508   4.189  15.807  0.2033  0.2413 -0.0076
  298TMC3    O1 4551   4.153   4.018  16.235  0.2957  0.4241 -0.2185
  298TMC3    O2 4552   4.632   4.194  15.814 -0.4882 -0.1895  0.0491
  299MPD2     C 4553   1.149   2.556  11.011 -0.4807 -0.3333  0.8315
  299MPD2    C1 4554   1.140   2.683  10.972  0.7030  0.6061 -0.6357
  299MPD2    C2 4555   1.060   2.718  10.864  0.1426 -0.5767 -0.4516
  299MPD2    C3 4556   1.004   2.618  10.783 -0.2167 -0.1565 -0.6541
  299MPD2    C4 4557   1.016   2.486  10.830 -0.2686 -0.2835  0.5158
  299MPD2    C5 4558   1.106   2.458  10.932  0.0717 -0.4760 -0.5499
  299MPD2     H 4559   1.051   2.823  10.842  2.6022 -0.0363  1.0856
  299MPD2    H1 4560   0.969   2.404  10.778 -0.6244 -1.2479  2.3769
  299MPD2    H2 4561   1.200   2.516  11.098 -0.6934 -1.0354  0.6316
  299MPD2    H3 4562   1.134   2.358  10.963 -1.7347 -1.2592 -1.4928
  299MPD2     N 4563   0.919   2.649  10.677 -0.0956  0.6966  0.4243
  299MPD2    H5 4564   0.868   2.577  10.627 -0.7708 -0.1176  2.3235
  299MPD2    N1 4565   1.194   2.791  11.048 -0.4952 -0.2943 -0.3638
  299MPD2    H7 4566   1.227   2.770  11.141 -0.7455  0.5748 -0.0768
  300TMC3    C1 4567   0.801   2.779  10.528 -0.5626  0.1962  0.1856
  300TMC3    C2 4568   0.798   2.896  10.455  0.3199  0.0118 -0.2529
  300TMC3    C3 4569   0.682   2.922  10.394 -0.1559 -0.2290  0.4385
  300TMC3    C4 4570   0.698   2.696  10.550 -0.5754 -0.0623 -0.1993
  300TMC3    C5 4571   0.579   2.734  10.487 -0.2737  0.7532 -0.8093
  300TMC3    C6 4572   0.564   2.846  10.414 -0.1777 -0.4932 -0.6791
  300TMC3     C 4573   0.903   2.777  10.628 -1.0220 -0.5899 -0.8661
  300TMC3     O 4574   0.979   2.875  10.639  0.2042  0.3302  0.3211
  300TMC3     H 4575   0.886   2.958  10.441 -0.2821  1.0435  0.4700
  300TMC3    H1 4576   0.697   2.618  10.626  1.9244  2.0492  2.0106
  300TMC3    H2 4577   0.464   2.875  10.382 -0.4779  1.2719  1.9013
  300TMC3    C7 4578   0.464   2.636  10.495  0.2450  0.8634  0.5463
  300TMC3    C8 4579   0.666   3.058  10.356  0.2861  0.0153  0.0063
  300TMC3    O1 4580   0.504   2.520  10.466 -0.0848 -0.0414  0.0320
  300TMC3    O2 4581   0.732   3.138  10.423  0.4592 -0.6334  0.2478
  301MPD2     C 4582   3.000   0.156   1.629 -0.1063 -0.0603  0.1151
  301MPD2    C1 4583   2.885   0.115   1.561  0.0999 -0.3594  0.2578
  301MPD2    C2 4584   2.889   4.731   1.493  0.6517 -0.1329 -0.0927
  301MPD2    C3 4585   3.000   4.658   1.473  0.2302 -0.4381 -0.6356
  301MPD2    C4 4586   3.112   4.695   1.540  0.1250 -0.5968  0.2542
  301MPD2    C5 4587   3.109   0.074   1.617  0.2958  0.3600 -0.3194
  301MPD2     H 4588   2.801   4.695   1.441  0.9928 -2.0805  0.6777
  301MPD2    H1 4589   3.211   4.651   1.531  0.8662  0.7122  1.9451
  301MPD2    H2 4590   2.994   0.246   1.690  0.2311 -0.2258  0.3883
  301MPD2    H3 4591   3.199   0.107   1.668  1.0017 -0.2622 -1.1492
  301MPD2     N 4592   3.004   4.538   1.398 -0.1695  0.2073 -0.4947
  301MPD2    H5 4593   3.073   4.467   1.418  0.2494  0.3566 -1.3851
  301MPD2    N1 4594   2.759   0.173   1.564 -0.4119 -0.9520 -0.0928
  301MPD2    H7 4595   2.685   0.128   1.511  0.3164  0.4224 -2.2649
  302TMC3    C1 4596   2.945   4.367   1.241  0.6686 -0.9141  0.0014
  302TMC3    C2 4597   3.063   4.296   1.279 -0.0641 -0.2489 -0.0147
  302TMC3    C3 4598   3.097   4.195   1.197 -0.6257 -0.1676 -1.2483
  302TMC3    C4 4599   2.885   4.347   1.121 -0.5100  0.1398 -0.5098
  302TMC3    C5 4600   2.924   4.238   1.045  0.9760  0.6109  0.2298
  302TMC3    C6 4601   3.035   4.164   1.075  1.0141  0.0462 -0.5262
  302TMC3     C 4602   2.911   4.501   1.306  1.1617  0.3843  0.8410
  302TMC3     O 4603   2.813   4.561   1.267 -0.0316  0.5451  0.5755
  302TMC3     H 4604   3.107   4.318   1.376 -0.7078  0.9937  0.0010
  302TMC3    H1 4605   2.798   4.406   1.096  1.0655  2.5347 -0.3230
  302TMC3    H2 4606   3.053   4.076   1.015  0.3108 -0.9763  0.7777
  302TMC3    C7 4607   2.847   4.213   0.925 -0.5818  0.9317 -1.0728
  302TMC3    C8 4608   3.207   4.104   1.230 -0.2715 -0.4870 -0.1985
  302TMC3    O1 4609   2.909   4.175   0.824  0.1089  0.9221 -0.2711
  302TMC3    O2 4610   3.274   4.057   1.136  0.2968  0.5954 -0.1575
  303MPD2     C 4611   3.341   2.949  10.790  0.0540  0.2298  0.3981
  303MPD2    C1 4612   3.258   2.877  10.871  0.1105 -0.0463  0.6531
  303MPD2    C2 4613   3.174   2.778  10.816 -0.3281 -0.6609  0.0138
  303MPD2    C3 4614   3.178   2.755  10.680 -0.2075 -0.2936  0.1881
  303MPD2    C4 4615   3.260   2.830  10.606  0.7227 -0.3133 -0.1779
  303MPD2    C5 4616   3.348   2.921  10.658 -0.0790 -0.1689  0.1665
  303MPD2     H 4617   3.129   2.701  10.876  1.5961 -1.7151  0.1094
  303MPD2    H1 4618   3.263   2.814  10.499 -1.0381  0.4002 -0.3289
  303MPD2    H2 4619   3.401   3.024  10.841  1.8778 -1.6371  1.0084
  303MPD2    H3 4620   3.417   2.980  10.598 -0.0612  1.7022  2.0108
  303MPD2     N 4621   3.097   2.652  10.618 -0.8866  0.5127  0.2056
  303MPD2    H5 4622   3.090   2.646  10.517 -0.1618 -3.6499  0.4199
  303MPD2    N1 4623   3.245   2.898  11.012 -0.5280 -0.0641 -0.1868
  303MPD2    H7 4624   3.171   2.848  11.060  0.7828 -0.8362  1.0108
  304TMC3    C1 4625   3.274   2.998  11.225 -0.7184 -0.4260  0.1942
  304TMC3    C2 4626   3.268   3.120  11.293 -0.1459  0.6296  0.5013
  304TMC3    C3 4627   3.247   3.118  11.429 -0.4474 -0.1417 -0.5968
  304TMC3    C4 4628   3.255   2.876  11.285 -0.3282 -0.2306  0.1097
  304TMC3    C5 4629   3.243   2.882  11.421  0.6974 -0.1071 -0.2026
  304TMC3    C6 4630   3.249   3.001  11.494 -0.3183 -0.2496 -0.1475
  304TMC3     C 4631   3.302   3.001  11.083  0.4201  0.1608  0.1870
  304TMC3     O 4632   3.365   3.102  11.042 -0.0450 -0.0901  0.0126
  304TMC3     H 4633   3.289   3.208  11.233 -2.6189  2.0061  1.6216
  304TMC3    H1 4634   3.264   2.784  11.228 -0.2963 -0.2810  0.1968
  304TMC3    H2 4635   3.231   2.994  11.601  0.0687 -0.2775 -0.0831
  304TMC3    C7 4636   3.140   2.796  11.473 -0.4317  1.0216  0.5694
  304TMC3    C8 4637   3.138   3.195  11.472 -0.1458 -1.0300  0.1731
  304TMC3    O1 4638   3.050   2.851  11.529 -0.0899  0.2816 -0.3143
  304TMC3    O2 4639   3.138   3.312  11.427  0.9943 -0.3094 -0.5583
  305MPD2     C 4640   1.683   0.479  14.032 -0.7601  0.5115 -0.0423
  305MPD2    C1 4641   1.617   0.363  14.064 -0.0150  0.0705  0.7475
  305MPD2    C2 4642   1.599   0.272  13.960 -0.0922 -0.4828  0.3655
  305MPD2    C3 4643   1.637   0.292  13.833 -0.5958  0.9163 -0.3480
  305MPD2    C4 4644   1.707   0.409  13.797  0.2879  0.1690  0.3099
  305MPD2    C5 4645   1.726   0.502  13.902  0.1140 -0.3772  0.2109
  305MPD2     H 4646   1.541   0.185  13.987  1.8661 -2.2794 -1.1450
  305MPD2    H1 4647   1.741   0.436  13.698  0.9314 -2.6019 -0.2206
  305MPD2    H2 4648   1.700   0.565  14.094  2.0351  0.8207 -1.2486
  305MPD2    H3 4649   1.775   0.597  13.884 -1.9220  0.7191  0.4569
  305MPD2     N 4650   1.622   0.190  13.731 -0.3242  0.8772  0.4101
  305MPD2    H5 4651   1.666   0.212  13.642 -1.4479 -0.5612 -0.4901
  305MPD2    N1 4652   1.580   0.347  14.201  0.6422 -0.1600  0.3132
  305MPD2    H7 4653   1.614   0.417  14.266  1.7466 -1.0778  0.7212
  306TMC3    C1 4654   1.530   0.249  14.400 -0.7415 -0.3483  0.6531
  306TMC3    C2 4655   1.540   0.131  14.476  0.4143  0.4868  0.1941
  306TMC3    C3 4656   1.548   0.153  14.614 -1.1424 -0.1167  0.0657
  306TMC3    C4 4657   1.510   0.377  14.454 -0.4250  0.3523 -0.0093
  306TMC3    C5 4658   1.515   0.379  14.592  0.5903  0.0848 -0.3324
  306TMC3    C6 4659   1.532   0.271  14.670 -0.4060 -0.0178 -0.7275
  306TMC3     C 4660   1.536   0.231  14.259 -0.5886 -0.1489  1.0937
  306TMC3     O 4661   1.518   0.118  14.209  0.4249 -0.4645 -0.3551
  306TMC3     H 4662   1.549   0.035  14.427  1.2017  0.4045  0.5001
  306TMC3    H1 4663   1.500   0.472  14.403  1.3346  0.8771  0.6318
  306TMC3    H2 4664   1.546   0.291  14.775 -1.1141 -0.3951 -0.5634
  306TMC3    C7 4665   1.574   0.504  14.644 -0.1058  0.3532 -0.7729
  306TMC3    C8 4666   1.617   0.051  14.688 -0.2078  0.5714  0.2588
  306TMC3    O1 4667   1.537   0.610  14.594  0.1585 -0.1931  0.0599
  306TMC3    O2 4668   1.639   4.683  14.625  0.1610 -0.7539 -0.0186
  307MPD2     C 4669   3.823   3.430   0.273  0.3285  0.0320  0.4068
  307MPD2    C1 4670   3.781   3.559   0.247 -0.7021 -0.7046 -0.3328
  307MPD2    C2 4671   3.768   3.657   0.347  0.4722 -0.0949  0.2560
  307MPD2    C3 4672   3.793   3.618   0.478 -0.4588 -0.5623  0.0847
  307MPD2    C4 4673   3.823   3.483   0.511 -0.6749 -0.4892  0.3539
  307MPD2    C5 4674   3.837   3.392   0.403  0.6710  0.1575 -0.0720
  307MPD2     H 4675   3.743   3.759   0.318 -2.1094 -0.5865  0.8264
  307MPD2    H1 4676   3.838   3.444   0.611  1.5768  0.0431  0.2248
  307MPD2    H2 4677   3.846   3.359   0.194 -0.0517 -1.7182  1.8578
  307MPD2    H3 4678   3.857   3.288   0.426 -1.2571 -0.2946 -0.4378
  307MPD2     N 4679   3.774   3.719   0.576 -1.3070 -0.1424  0.0302
  307MPD2    H5 4680   3.740   3.810   0.545 -1.1261  0.7362  2.4636
  307MPD2    N1 4681   3.755   3.599   0.114  0.1202 -0.4267 -0.1561
  307MPD2    H7 4682   3.729   3.696   0.100 -0.9883 -0.5631  1.0367
  308TMC3    C1 4683   3.473   3.795   0.888  0.4053  0.5192  0.1710
  308TMC3    C2 4684   3.447   3.915   0.835  0.0422  0.0895  0.2430
  308TMC3    C3 4685   3.551   3.977   0.764  0.0111 -0.5833 -0.0697
  308TMC3    C4 4686   3.591   3.731   0.863  0.3127 -0.1827  0.1067
  308TMC3    C5 4687   3.679   3.783   0.772  0.5456 -0.2747 -0.4580
  308TMC3    C6 4688   3.670   3.911   0.727  0.8062  0.1015  0.0526
  308TMC3     C 4689   3.382   3.736   0.992  0.4937 -0.1009  0.8017
  308TMC3     O 4690   3.439   3.687   1.089  0.2418  0.3111  0.4132
  308TMC3     H 4691   3.363   3.977   0.863 -1.1541 -1.3914 -0.1358
  308TMC3    H1 4692   3.616   3.632   0.898  1.0640  0.2358  0.7467
  308TMC3    H2 4693   3.752   3.952   0.671 -0.7507  0.2194 -2.1244
  308TMC3    C7 4694   3.768   3.690   0.710  0.2254  0.5934 -0.8646
  308TMC3    C8 4695   3.551   4.126   0.782 -0.2327  0.0318 -0.3806
  308TMC3    O1 4696   3.803   3.591   0.769 -0.2034 -0.3209 -0.7461
  308TMC3    O2 4697   3.509   4.171   0.887  0.6735 -0.6318  0.1359
  309MPD2     C 4698   2.866   3.670  17.422 -0.5394 -0.0605  0.3671
  309MPD2    C1 4699   2.781   3.695  17.322 -0.1437  0.3384  0.4035
  309MPD2    C2 4700   2.651   3.717  17.352 -0.6870 -0.2056 -0.4220
  309MPD2    C3 4701   2.591   3.695  17.478 -0.6216 -0.1562  0.0579
  309MPD2    C4 4702   2.673   3.666  17.579 -0.3050 -0.2915  0.2965
  309MPD2    C5 4703   2.816   3.662  17.553 -0.0039 -0.1279 -0.5491
  309MPD2     H 4704   2.590   3.744  17.266 -1.3875 -0.2679  0.0539
  309MPD2    H1 4705   2.637   3.644  17.679 -0.0736  1.7821  0.8193
  309MPD2    H2 4706   2.970   3.660  17.395  0.6857  0.2850  4.9423
  309MPD2    H3 4707   2.887   3.650  17.633  0.0214 -2.5489 -0.9382
  309MPD2     N 4708   2.456   3.720  17.497 -0.3746  0.0765  0.5857
  309MPD2    H5 4709   2.425   3.726  17.593 -1.4377  0.7455  0.1984
  309MPD2    N1 4710   2.832   3.697  17.189  0.7637  0.9741 -0.1683
  309MPD2    H7 4711   2.763   3.732  17.125 -0.4042  1.2954  1.2662
  310TMC3    C1 4712   2.957   3.631  16.998 -0.4904  0.2700 -0.6103
  310TMC3    C2 4713   2.865   3.686  16.915  0.5882  0.7958 -0.6461
  310TMC3    C3 4714   2.890   3.679  16.781 -0.0726 -0.3078  0.0054
  310TMC3    C4 4715   3.070   3.576  16.948  0.0879 -0.1384 -0.0909
  310TMC3    C5 4716   3.097   3.593  16.815  0.7353 -0.0353 -0.2530
  310TMC3    C6 4717   3.001   3.629  16.726  0.7216  0.5341 -1.0020
  310TMC3     C 4718   2.947   3.639  17.145  0.1678 -0.2648 -0.3018
  310TMC3     O 4719   3.036   3.585  17.209 -0.1389  0.1088  0.3446
  310TMC3     H 4720   2.779   3.739  16.956 -0.2887  1.7678 -3.7700
  310TMC3    H1 4721   3.145   3.520  17.003 -1.4070 -2.9766 -0.9496
  310TMC3    H2 4722   3.014   3.623  16.618  1.6865  1.7208 -0.9490
  310TMC3    C7 4723   3.223   3.544  16.762  0.0076  0.6303  0.2514
  310TMC3    C8 4724   2.788   3.741  16.692 -0.1619  0.8605 -0.0874
  310TMC3    O1 4725   3.280   3.465  16.838 -0.0271  0.7217 -0.7001
  310TMC3    O2 4726   2.667   3.738  16.718  0.1102  0.4863 -0.0454
  311MPD2     C 4727   0.548   4.250  12.629 -0.2037  0.0240  0.5547
  311MPD2    C1 4728   0.517   4.364  12.701 -0.0525 -0.5343 -0.6170
  311MPD2    C2 4729   0.381   4.385  12.733 -0.0525 -0.1172 -0.3884
  311MPD2    C3 4730   0.280   4.298  12.703 -0.0627 -0.0864  0.2903
  311MPD2    C4 4731   0.313   4.181  12.635  0.8013  0.6418 -0.4841
  311MPD2    C5 4732   0.445   4.161  12.603 -0.2131  0.3058  0.0633
  311MPD2     H 4733   0.354   4.468  12.797 -0.8624  1.4738 -2.7990
  311MPD2    H1 4734   0.244   4.105  12.601  4.1792 -2.2913 -0.7291
  311MPD2    H2 4735   0.646   4.228  12.588 -0.1785  1.0300  0.0876
  311MPD2    H3 4736   0.468   4.082  12.532  0.9434  0.4228  0.3089
  311MPD2     N 4737   0.149   4.323  12.745  0.5510 -0.1721 -0.2318
  311MPD2    H5 4738   0.133   4.407  12.800 -0.3296 -1.8912  2.1592
  311MPD2    N1 4739   0.609   4.467  12.732  0.3185  0.3321  0.1656
  311MPD2    H7 4740   0.580   4.549  12.784 -0.3338 -0.3825  0.9213
  312TMC3    C1 4741   4.649   4.313  12.750  0.2059  0.2034  0.5972
  312TMC3    C2 4742   4.548   4.302  12.657  0.4383  0.3036  0.1480
  312TMC3    C3 4743   4.451   4.392  12.658  0.4570  0.0378  0.2318
  312TMC3    C4 4744   4.647   4.407  12.847 -0.1985 -0.9622 -0.1133
  312TMC3    C5 4745   4.543   4.496  12.837  0.1711  0.8424 -0.1714
  312TMC3    C6 4746   4.447   4.500  12.743 -0.2681  0.2142  0.8587
  312TMC3     C 4747   0.038   4.248  12.715  0.2673  0.1922 -0.8051
  312TMC3     O 4748   0.024   4.142  12.653  0.0414 -0.3371  0.8481
  312TMC3     H 4749   4.544   4.224  12.582  0.5167 -0.1979  0.6596
  312TMC3    H1 4750   4.728   4.411  12.919 -3.0694  0.0340  3.0615
  312TMC3    H2 4751   4.361   4.566  12.749 -0.6206 -0.2721  1.1589
  312TMC3    C7 4752   4.521   4.591  12.948 -0.6387  0.3272  0.7271
  312TMC3    C8 4753   4.320   4.362  12.604 -0.4522  0.2182  0.4126
  312TMC3    O1 4754   4.434   4.669  12.923 -0.0868  0.1060  0.0483
  312TMC3    O2 4755   4.292   4.244  12.597 -0.1409 -0.1795 -0.2638
  313MPD2     C 4756   0.306   3.413  10.519 -0.4859  0.5512 -0.9028
  313MPD2    C1 4757   0.230   3.527  10.486  0.8361  0.3807 -0.2330
  313MPD2    C2 4758   0.171   3.520  10.362 -0.0009 -0.1830 -0.3907
  313MPD2    C3 4759   0.195   3.416  10.274  0.2867 -0.4302  0.5406
  313MPD2    C4 4760   0.276   3.315  10.307 -0.7975  0.2954  0.0426
  313MPD2    C5 4761   0.316   3.309  10.435  0.8284  0.2348 -0.4734
  313MPD2     H 4762   0.107   3.605  10.337  1.0380  1.2712  1.9129
  313MPD2    H1 4763   0.310   3.235  10.242  2.5557  0.7850  1.1876
  313MPD2    H2 4764   0.357   3.394  10.612 -1.1767  1.8003 -0.2735
  313MPD2    H3 4765   0.367   3.220  10.472 -1.1940 -0.8637 -0.3127
  313MPD2     N 4766   0.120   3.397  10.153 -0.4525 -0.3046  0.0900
  313MPD2    H5 4767   0.124   3.301  10.119 -0.0578 -0.7299  1.3309
  313MPD2    N1 4768   0.206   3.639  10.568 -0.4436 -0.6122 -0.4080
  313MPD2    H7 4769   0.142   3.713  10.540 -0.4363 -0.6568 -0.5448
  314TMC3    C1 4770   0.214   3.752  10.775 -0.6885 -0.6405  0.5261
  314TMC3    C2 4771   0.303   3.833  10.846 -0.3939 -0.5475  0.1853
  314TMC3    C3 4772   0.252   3.930  10.922 -0.7817  0.6144 -0.0048
  314TMC3    C4 4773   0.083   3.779  10.774  0.8167  0.4294  0.3336
  314TMC3    C5 4774   0.038   3.869  10.864  0.2148 -0.3526  0.0359
  314TMC3    C6 4775   0.121   3.947  10.937 -0.0043  0.7156 -1.2269
  314TMC3     C 4776   0.272   3.657  10.684 -0.1071 -0.5388 -0.5237
  314TMC3     O 4777   0.388   3.620  10.708 -0.2732 -0.5374 -0.2004
  314TMC3     H 4778   0.405   3.799  10.850 -1.0703 -2.3364  2.1460
  314TMC3    H1 4779   0.016   3.720  10.713  1.6897  0.4337 -0.6087
  314TMC3    H2 4780   0.087   4.027  11.001 -0.3219  1.6396 -2.5521
  314TMC3    C7 4781   4.660   3.940  10.804 -0.0184  1.2997  0.1634
  314TMC3    C8 4782   0.338   4.027  10.987 -0.0685  0.0070 -0.2887
  314TMC3    O1 4783   4.626   3.922  10.685 -0.3252 -0.0523 -0.0006
  314TMC3    O2 4784   0.313   4.073  11.097 -0.4298 -0.5482  0.1051
  315MPD2     C 4785   4.036   3.375  17.645 -0.0075  0.1606 -0.4428
  315MPD2    C1 4786   4.109   3.429   0.007 -0.2478 -1.0060 -1.1278
  315MPD2    C2 4787   4.169   3.553  17.729  0.4478 -0.4384  0.2444
  315MPD2    C3 4788   4.156   3.622  17.612  0.4198  0.0417 -0.8535
  315MPD2    C4 4789   4.080   3.572  17.511  0.5623  0.0944 -0.4529
  315MPD2    C5 4790   4.025   3.444  17.529 -0.4586  0.8785  0.1493
  315MPD2     H 4791   4.227   3.581   0.076 -1.6144  0.0746  1.4704
  315MPD2    H1 4792   4.063   3.618  17.414 -0.2651  0.6908 -0.0278
  315MPD2    H2 4793   3.987   3.279  17.643 -0.6950  0.5363 -1.7664
  315MPD2    H3 4794   3.973   3.409  17.440  0.0312  0.9966 -0.1808
  315MPD2     N 4795   4.217   3.749  17.608  0.4036 -0.7040  0.1122
  315MPD2    H5 4796   4.271   3.765  17.692  0.1599 -1.4428  0.4105
  315MPD2    N1 4797   4.149   3.375   0.129 -0.3009  0.3222  0.0416
  315MPD2    H7 4798   4.220   3.420   0.186 -1.5133  1.9889  0.2596
  316TMC3    C1 4799   4.256   3.975  17.550 -0.6547  0.1214 -0.4950
  316TMC3    C2 4800   4.363   3.976  17.641 -1.0867 -0.1464 -0.2044
  316TMC3    C3 4801   4.406   4.095  17.689  0.7409  0.7754  0.4223
  316TMC3    C4 4802   4.198   4.092  17.508 -0.1511 -0.1819 -0.1556
  316TMC3    C5 4803   4.239   4.206  17.563  0.1820  0.0106  0.6053
  316TMC3    C6 4804   4.348   4.209  17.648 -0.0315 -0.0860 -0.5232
  316TMC3     C 4805   4.200   3.846  17.516 -0.0739 -0.5084 -0.0622
  316TMC3     O 4806   4.130   3.845  17.417  0.0903  0.3664  0.4862
  316TMC3     H 4807   4.426   3.888  17.648 -1.3935 -0.2115  1.7508
  316TMC3    H1 4808   4.110   4.076  17.446  0.1936 -1.0876 -0.4161
  316TMC3    H2 4809   4.379   4.307  17.684  0.6747 -0.5235  0.0580
  316TMC3    C7 4810   4.198   4.334  17.511  0.6898  0.0250  0.5620
  316TMC3    C8 4811   4.510   4.106   0.050 -0.4435  0.7791 -0.6774
  316TMC3    O1 4812   4.208   4.429  17.589  0.2708  0.8067 -0.7139
  316TMC3    O2 4813   4.534   4.212   0.094 -0.1616  0.1561 -0.4008
  317MPD2     C 4814   1.821   1.299  12.154 -1.0017  0.1141 -0.3123
  317MPD2    C1 4815   1.951   1.293  12.205 -0.6234 -0.3231  0.3847
  317MPD2    C2 4816   1.966   1.266  12.341  0.1416 -0.1160  0.2077
  317MPD2    C3 4817   1.862   1.240  12.421 -0.3591 -0.3860 -0.8110
  317MPD2    C4 4818   1.731   1.240  12.369 -0.0471 -0.5291 -0.0525
  317MPD2    C5 4819   1.718   1.268  12.235  0.2817  0.5258 -0.1413
  317MPD2     H 4820   2.064   1.262  12.387  0.0557 -1.0841  0.3015
  317MPD2    H1 4821   1.637   1.219  12.418 -0.7125  1.1808 -0.6189
  317MPD2    H2 4822   1.792   1.323  12.052 -0.0412  1.1161 -0.3529
  317MPD2    H3 4823   1.623   1.264  12.183 -0.1004  1.6341  0.4666
  317MPD2     N 4824   1.899   1.216  12.554 -0.0866  0.3868 -0.3352
  317MPD2    H5 4825   1.998   1.208  12.573  0.0612  1.3569 -0.7479
  317MPD2    N1 4826   2.068   1.315  12.134  0.6032 -0.0582 -0.1807
  317MPD2    H7 4827   2.159   1.320  12.179  0.5844 -1.7201  0.0109
  318TMC3    C1 4828   1.880   1.208  12.786 -0.0367 -0.5752  0.7856
  318TMC3    C2 4829   1.840   1.117  12.876 -0.4193  0.1594 -0.0034
  318TMC3    C3 4830   1.883   1.132  13.004 -0.5597  0.2773  0.6780
  318TMC3    C4 4831   1.963   1.309  12.814  0.2924 -0.3012 -0.1296
  318TMC3    C5 4832   2.024   1.309  12.931 -0.2661 -0.1357  0.5590
  318TMC3    C6 4833   1.980   1.231  13.035 -0.2183  0.2813  0.2598
  318TMC3     C 4834   1.813   1.203  12.659 -0.7153 -0.6525 -0.1611
  318TMC3     O 4835   1.693   1.172  12.659 -0.5523  0.4003  0.4917
  318TMC3     H 4836   1.784   1.035  12.832 -1.6600 -0.2460  2.3333
  318TMC3    H1 4837   2.007   1.365  12.732 -1.2171 -1.1417 -1.4995
  318TMC3    H2 4838   2.028   1.227  13.132  0.5880 -0.0480 -0.1532
  318TMC3    C7 4839   2.136   1.405  12.953  0.3005 -0.5770 -0.3279
  318TMC3    C8 4840   1.836   1.037  13.102 -0.2322 -0.1192 -0.4516
  318TMC3    O1 4841   2.160   1.493  12.869  0.3407 -0.5402  0.1205
  318TMC3    O2 4842   1.833   1.069  13.220 -0.0511 -0.1749 -0.0425
  319MPD2     C 4843   2.337   2.923  16.698 -0.1394 -0.0120  0.0155
  319MPD2    C1 4844   2.220   2.989  16.736  1.1356  0.5642 -0.5073
  319MPD2    C2 4845   2.107   2.965  16.656 -0.3512  0.6528 -0.3819
  319MPD2    C3 4846   2.104   2.881  16.541  0.0059  0.5855 -0.4173
  319MPD2    C4 4847   2.232   2.827  16.507  0.0153 -0.4885 -0.3883
  319MPD2    C5 4848   2.344   2.846  16.586  0.2312 -0.0992  0.2619
  319MPD2     H 4849   2.007   2.999  16.680 -0.1237  1.4036 -0.4972
  319MPD2    H1 4850   2.238   2.761  16.421  1.5181  0.2704 -0.8647
  319MPD2    H2 4851   2.421   2.925  16.767 -0.4539 -3.5390  0.4808
  319MPD2    H3 4852   2.436   2.794  16.560 -0.5296 -1.5449  0.4718
  319MPD2     N 4853   1.990   2.852  16.464  0.2806 -0.4180 -0.4384
  319MPD2    H5 4854   2.003   2.792  16.382  1.6872  0.4425 -0.8540
  319MPD2    N1 4855   2.207   3.043  16.863  0.1778  0.0183  0.0518
  319MPD2    H7 4856   2.120   3.087  16.892  0.9065  0.5422  1.4342
  320TMC3    C1 4857   1.765   2.837  16.391  0.5124 -0.1765  0.6636
  320TMC3    C2 4858   1.655   2.907  16.338 -0.4954 -1.4795 -0.7671
  320TMC3    C3 4859   1.569   2.843  16.248  0.1453  0.2702  0.4731
  320TMC3    C4 4860   1.783   2.701  16.377  0.1437  0.6512 -0.0046
  320TMC3    C5 4861   1.683   2.638  16.300 -0.2400  0.6723 -0.2841
  320TMC3    C6 4862   1.587   2.706  16.232 -0.1494  0.9788  0.1176
  320TMC3     C 4863   1.858   2.899  16.478  0.2585  0.3320  0.0063
  320TMC3     O 4864   1.816   2.993  16.547 -0.3265 -0.5136 -0.1318
  320TMC3     H 4865   1.659   3.015  16.338  1.2132 -1.5532  1.4371
  320TMC3    H1 4866   1.857   2.642  16.430 -0.1159 -0.4479 -0.8637
  320TMC3    H2 4867   1.517   2.653  16.168 -0.1378  0.8365  0.2256
  320TMC3    C7 4868   1.638   2.503  16.331  0.5150 -0.2390  0.2439
  320TMC3    C8 4869   1.478   2.929  16.169  0.3618  0.0250 -0.6770
  320TMC3    O1 4870   1.556   2.449  16.255  0.3008  0.0945 -0.6000
  320TMC3    O2 4871   1.457   3.041  16.208 -0.2392 -0.5749 -0.1464
  321TMC3    C1 4872   2.274   3.137  17.065  0.4902 -1.1214  0.1345
  321TMC3    C2 4873   2.151   3.117  17.114 -0.1994 -0.2799 -0.4915
  321TMC3    C3 4874   2.126   3.193  17.229  0.0831 -0.1891 -0.0152
  321TMC3    C4 4875   2.365   3.237  17.103  0.1623  0.6927  0.0490
  321TMC3    C5 4876   2.328   3.318  17.205 -0.2371 -0.4254 -0.6812
  321TMC3    C6 4877   2.210   3.289  17.272 -0.2279  0.8920  0.0322
  321TMC3     C 4878   2.311   3.081  16.941  0.3645 -0.0904 -0.2809
  321TMC3     O 4879   2.432   3.074  16.923  0.5841  0.6691 -0.4128
  321TMC3     H 4880   2.111   3.018  17.101 -0.9288  0.0402 -0.6955
  321TMC3    H1 4881   2.460   3.242  17.051  0.7884  0.3954  1.1659
  321TMC3    H2 4882   2.182   3.361  17.349  0.7256  1.9033 -0.5647
  321TMC3    C7 4883   2.428   3.330  17.307 -0.1345 -0.4298  0.0491
  321TMC3    C8 4884   2.087   3.118  17.347  0.2013  0.1304 -0.0274
  321TMC3    O1 4885   2.378   3.328  17.417 -0.2020 -0.0236 -0.4833
  321TMC3    O2 4886   1.999   3.032  17.331 -0.1124  0.4096  0.3990
  322MPD2     C 4887   1.300   4.476  13.759 -0.0908  0.0868  0.3315
  322MPD2    C1 4888   1.337   4.382  13.848  0.4339 -0.3864  0.0378
  322MPD2    C2 4889   1.363   4.253  13.795 -0.0510 -0.2134 -0.5254
  322MPD2    C3 4890   1.363   4.222  13.664 -0.4771  0.3283 -0.1968
  322MPD2    C4 4891   1.324   4.323  13.577  0.0830  0.4806  0.7239
  322MPD2    C5 4892   1.298   4.452  13.625 -0.5162 -0.0348  0.9392
  322MPD2     H 4893   1.376   4.170  13.863 -0.2694 -0.0839 -0.3230
  322MPD2    H1 4894   1.321   4.307  13.470  0.8872  0.8325  0.6457
  322MPD2    H2 4895   1.280   4.575  13.796  1.8853 -0.2455  2.2823
  322MPD2    H3 4896   1.276   4.525  13.547  1.8714  1.3439  1.5553
  322MPD2     N 4897   1.396   4.096  13.619 -0.5486  0.7193  0.6213
  322MPD2    H5 4898   1.401   4.022  13.688  0.6986  0.0097 -0.2300
  322MPD2    N1 4899   1.335   4.410  13.985 -0.3291 -0.1486 -0.2290
  322MPD2    H7 4900   1.339   4.506  14.020 -0.8910  0.3404 -1.5116
  323TMC3    C1 4901   1.396   4.376  14.199  0.6412 -0.7989  0.6396
  323TMC3    C2 4902   1.512   4.451  14.185  0.0017  0.2146 -0.1037
  323TMC3    C3 4903   1.586   4.478  14.298  0.3803 -0.7841 -0.4623
  323TMC3    C4 4904   1.373   4.311  14.313  0.1564 -0.7042 -0.3825
  323TMC3    C5 4905   1.457   4.332  14.420 -0.0761 -0.8462 -1.4652
  323TMC3    C6 4906   1.557   4.422  14.417 -0.0802  0.3908 -0.3250
  323TMC3     C 4907   1.336   4.315  14.081 -0.6376 -0.2757 -0.2115
  323TMC3     O 4908   1.296   4.199  14.083 -0.9299 -0.5245  0.8208
  323TMC3     H 4909   1.550   4.474  14.086 -2.9665 -0.5051 -1.4222
  323TMC3    H1 4910   1.284   4.249  14.318 -0.2923 -0.0758 -0.6665
  323TMC3    H2 4911   1.624   4.446  14.499 -1.1656 -0.3708  0.7810
  323TMC3    C7 4912   1.449   4.247  14.538  0.0815 -0.4016 -0.1975
  323TMC3    C8 4913   1.724   4.513  14.275 -0.5480 -0.8225 -0.1760
  323TMC3    O1 4914   1.389   4.140  14.534  0.3908  0.7901  0.2540
  323TMC3    O2 4915   1.800   4.469  14.362 -0.1039 -0.0743  0.5453
  324MPD2     C 4916   2.827   0.747  14.994  0.0663 -0.0697 -0.5795
  324MPD2    C1 4917   2.835   0.795  14.866  0.1494 -0.8174 -0.4989
  324MPD2    C2 4918   2.731   0.769  14.776 -0.4023  1.2894 -0.2474
  324MPD2    C3 4919   2.614   0.697  14.816  0.1344  0.6056  0.3946
  324MPD2    C4 4920   2.608   0.658  14.948 -0.1070  0.2954 -0.1038
  324MPD2    C5 4921   2.711   0.686  15.036 -0.2118  0.1828  0.7808
  324MPD2     H 4922   2.741   0.813  14.678  0.6661 -0.5799 -0.9719
  324MPD2    H1 4923   2.523   0.609  14.994 -0.1096 -1.0235 -1.5125
  324MPD2    H2 4924   2.896   0.765  15.075  0.5987  1.6290 -1.3961
  324MPD2    H3 4925   2.717   0.650  15.138  0.7590 -1.9325 -0.0174
  324MPD2     N 4926   2.505   0.679  14.735 -0.0854 -0.1499  0.6156
  324MPD2    H5 4927   2.425   0.635  14.779 -1.1037  1.1417  0.0300
  324MPD2    N1 4928   2.944   0.874  14.824 -0.2422 -0.4402  0.0819
  324MPD2    H7 4929   2.957   0.900  14.727 -3.3159  0.8064  0.0009
  325TMC3    C1 4930   2.361   0.675  14.556 -0.6420 -0.4317  0.5727
  325TMC3    C2 4931   2.354   0.564  14.482  0.2027 -0.6710 -0.5139
  325TMC3    C3 4932   2.273   0.580  14.371 -0.1409 -0.0005 -0.1302
  325TMC3    C4 4933   2.301   0.794  14.522  0.3287  0.0257 -0.3645
  325TMC3    C5 4934   2.230   0.803  14.405  0.0799 -0.6563  0.5983
  325TMC3    C6 4935   2.220   0.693  14.322  0.9329  0.3767 -0.4696
  325TMC3     C 4936   2.495   0.701  14.604 -0.2699  0.0743 -0.0368
  325TMC3     O 4937   2.580   0.744  14.525  0.3818 -0.2955 -0.1072
  325TMC3     H 4938   2.420   0.479  14.491 -0.1491 -0.8940 -0.0399
  325TMC3    H1 4939   2.340   0.878  14.578 -2.3564  0.1905  1.2700
  325TMC3    H2 4940   2.170   0.704  14.226 -1.3821 -1.3377  0.5214
  325TMC3    C7 4941   2.181   0.928  14.353  0.0704 -0.1368 -0.1607
  325TMC3    C8 4942   2.300   0.483  14.264 -0.5981 -0.8834  0.1791
  325TMC3    O1 4943   2.196   0.950  14.235  0.5095  0.0464  0.8470
  325TMC3    O2 4944   2.393   0.404  14.277 -0.3674 -0.1011  0.1287
  326MPD2     C 4945   4.168   1.864  11.084 -0.4628 -0.6906 -0.0410
  326MPD2    C1 4946   4.237   1.855  10.964  0.6558  0.2382 -0.3113
  326MPD2    C2 4947   4.360   1.917  10.953 -0.5013  0.5593  0.0969
  326MPD2    C3 4948   4.409   1.996  11.057 -0.0315  0.2295  0.0331
  326MPD2    C4 4949   4.336   2.002  11.171 -0.2890  0.2402 -0.8665
  326MPD2    C5 4950   4.218   1.939  11.188 -0.3787 -0.1055  0.1525
  326MPD2     H 4951   4.414   1.901  10.860  1.1108 -1.9487  1.4835
  326MPD2    H1 4952   4.370   2.054  11.259  0.3834  1.9911 -2.1674
  326MPD2    H2 4953   4.087   1.798  11.112  1.1622 -1.6981  2.2874
  326MPD2    H3 4954   4.170   1.941  11.286  1.0193 -2.5826  0.9048
  326MPD2     N 4955   4.538   2.071  11.056  0.6724 -1.0767  0.2639
  326MPD2    H5 4956   4.566   2.114  11.144  0.2911 -0.5565  0.1338
  326MPD2    N1 4957   4.203   1.768  10.857 -0.5942 -0.0514  0.8509
  326MPD2    H7 4958   4.273   1.753  10.785  0.7614 -0.1375  2.2028
  327TMC3    C1 4959   4.103   1.607  10.738  0.5598  0.2741  0.4049
  327TMC3    C2 4960   4.001   1.584  10.653  0.3660  0.5536 -0.2787
  327TMC3    C3 4961   4.024   1.496  10.546  0.1274  0.7003  0.6678
  327TMC3    C4 4962   4.226   1.545  10.725 -0.2413  1.4084 -0.0727
  327TMC3    C5 4963   4.243   1.451  10.622  0.1786  0.5332 -0.0162
  327TMC3    C6 4964   4.143   1.432  10.533  0.1655  0.4144 -0.8967
  327TMC3     C 4965   4.085   1.697  10.848  0.0909 -0.2549  0.8637
  327TMC3     O 4966   3.978   1.716  10.904 -0.1114  0.6445  0.2958
  327TMC3     H 4967   3.909   1.640  10.665  0.5882  1.1303 -1.2614
  327TMC3    H1 4968   4.295   1.552  10.809 -1.1299  2.1467  0.5951
  327TMC3    H2 4969   4.165   1.366  10.449 -2.4217  1.1145 -2.1081
  327TMC3    C7 4970   4.382   1.431  10.570  0.1736  0.6781  0.1106
  327TMC3    C8 4971   3.979   1.561  10.422 -0.2499  0.7218  0.1105
  327TMC3    O1 4972   4.389   1.401  10.452  0.0176  0.0277  0.2221
  327TMC3    O2 4973   3.958   1.679  10.435  0.2817 -0.1996  0.2475
  328MPD2     C 4974   1.697   2.175  17.322 -0.2424 -0.1463 -0.0367
  328MPD2    C1 4975   1.638   2.061  17.280  0.0310 -0.1991  0.2562
  328MPD2    C2 4976   1.564   2.063  17.168 -0.0947 -0.1270 -0.2410
  328MPD2    C3 4977   1.543   2.186  17.095 -0.3541  0.4026  0.2888
  328MPD2    C4 4978   1.606   2.301  17.138 -0.2808 -0.3676  0.1091
  328MPD2    C5 4979   1.690   2.290  17.244 -0.1393  0.3584  0.5569
  328MPD2     H 4980   1.525   1.967  17.134  1.3937 -0.9170  0.2677
  328MPD2    H1 4981   1.591   2.397  17.090 -1.3526  0.5461  2.2515
  328MPD2    H2 4982   1.761   2.174  17.409 -1.1108 -1.9142  0.5813
  328MPD2    H3 4983   1.748   2.379  17.270  0.5361  0.2153 -0.4358
  328MPD2     N 4984   1.456   2.193  16.981  0.3103 -0.5205 -0.5060
  328MPD2    H5 4985   1.453   2.285  16.938 -1.3473  0.1479  1.0299
  328MPD2    N1 4986   1.645   1.947  17.372  0.1050  0.4580  0.3048
  328MPD2    H7 4987   1.707   1.961  17.451  0.3705  0.1773  0.1443
  329TMC3    C1 4988   1.626   1.730  17.460  0.2135 -1.0347  0.2150
  329TMC3    C2 4989   1.682   1.767  17.577 -0.0877 -0.0219  0.9446
  329TMC3    C3 4990   1.713   1.666  17.667  0.3616 -0.0386 -0.0806
  329TMC3    C4 4991   1.597   1.596  17.431  0.2462  0.1718 -0.4903
  329TMC3    C5 4992   1.634   1.501  17.523 -0.0049 -0.1400 -0.1739
  329TMC3    C6 4993   1.695   1.533  17.636  0.3196 -0.7350  0.8563
  329TMC3     C 4994   1.587   1.824  17.356 -0.6856  0.3006  0.5308
  329TMC3     O 4995   1.509   1.784  17.273  0.2329  0.5719  0.3491
  329TMC3     H 4996   1.699   1.873  17.590 -0.9744  0.1490  0.6976
  329TMC3    H1 4997   1.569   1.579  17.327 -2.2166  1.4462 -0.0376
  329TMC3    H2 4998   1.722   1.452  17.703 -0.6579 -1.6979  0.0935
  329TMC3    C7 4999   1.629   1.361  17.480 -0.4795 -0.0583  0.3326
  329TMC3    C8 5000   1.710   1.702   0.069  0.5982 -0.1145 -0.3503
  329TMC3    O1 5001   1.711   1.284  17.535  0.6977  0.3528  0.3910
  329TMC3    O2 5002   1.755   1.622   0.153  0.2185  0.3625 -0.2590
  330TMC3    C1 5003   0.378   0.511  10.220 -0.2854 -0.1039  0.1560
  330TMC3    C2 5004   0.281   0.475  10.137  0.7182  0.3675 -0.2287
  330TMC3    C3 5005   0.169   0.412  10.184 -1.2522  0.0241  0.3899
  330TMC3    C4 5006   0.384   0.469  10.350 -1.1621 -0.3584 -0.5311
  330TMC3    C5 5007   0.274   0.399  10.398  0.0129  0.0164 -0.7207
  330TMC3    C6 5008   0.169   0.366  10.319 -0.4153  0.6744  0.3559
  330TMC3     C 5009   0.456   0.626  10.200 -0.0770  0.0831 -0.6790
  330TMC3     O 5010   0.469   0.696  10.298  0.0833 -0.1743  0.2812
  330TMC3     H 5011   0.272   0.510  10.034 -1.9608  0.0446 -0.0892
  330TMC3    H1 5012   0.459   0.504  10.420 -1.0693 -1.0152 -0.3013
  330TMC3    H2 5013   0.077   0.325  10.358 -1.0451  0.7859 -0.9967
  330TMC3    C7 5014   0.256   0.399  10.539  0.2024 -0.0098 -0.2275
  330TMC3    C8 5015   0.080   0.339  10.091 -0.3348 -0.4596 -0.0534
  330TMC3    O1 5016   0.320   0.479  10.603 -0.3280  0.3053 -0.7099
  330TMC3    O2 5017   0.121   0.316   9.978  0.1931 -0.0102  0.1571
  331MPD2     C 5018   3.157   0.088  13.085 -0.2893 -0.4938 -0.0048
  331MPD2    C1 5019   3.120   0.084  12.952  0.1256 -0.0238 -0.5496
  331MPD2    C2 5020   2.995   0.031  12.922  0.0572 -0.0515  0.0894
  331MPD2    C3 5021   2.919   4.702  13.021  0.8461  0.4115 -0.0899
  331MPD2    C4 5022   2.956   4.717  13.151 -0.3554  0.2777 -0.1273
  331MPD2    C5 5023   3.080   0.034  13.180 -0.1441 -0.6960  0.4002
  331MPD2     H 5024   2.955   0.040  12.822  0.2678 -1.1637 -0.0980
  331MPD2    H1 5025   2.889   4.694  13.233  0.1236  0.5148  0.3302
  331MPD2    H2 5026   3.258   0.115  13.115 -1.4283  1.8711  1.6551
  331MPD2    H3 5027   3.113   0.037  13.283 -1.5854  0.9551  0.8196
  331MPD2     N 5028   2.808   4.635  12.970  0.0169 -0.3076 -0.3832
  331MPD2    H5 5029   2.797   4.651  12.871 -0.2822 -3.5246 -0.8769
  331MPD2    N1 5030   3.202   0.156  12.862  0.2531  0.3663  0.0314
  331MPD2    H7 5031   3.276   0.218  12.895  0.6635  1.2943 -2.6663
  332TMC3    C1 5032   2.633   4.481  12.962  0.3125 -0.3109  0.5647
  332TMC3    C2 5033   2.565   4.530  12.856  0.6007  0.8895  0.0735
  332TMC3    C3 5034   2.515   4.427  12.782  0.5571 -0.0627 -0.2821
  332TMC3    C4 5035   2.650   4.351  12.995 -0.1696 -0.3307 -0.6939
  332TMC3    C5 5036   2.590   4.259  12.919  0.0237 -0.1465  0.1515
  332TMC3    C6 5037   2.525   4.292  12.812 -0.6209  0.3357  0.0890
  332TMC3     C 5038   2.717   4.562  13.046 -0.3921 -0.2263 -0.3629
  332TMC3     O 5039   2.722   4.531  13.163  0.4791  0.2337 -0.2267
  332TMC3     H 5040   2.548   4.633  12.829  0.4650  1.1445  1.1306
  332TMC3    H1 5041   2.719   4.312  13.069  0.6929  0.7815 -0.9288
  332TMC3    H2 5042   2.500   4.210  12.746  0.3737 -2.0838  2.6912
  332TMC3    C7 5043   2.658   4.132  12.906 -0.1768  0.0374  0.3578
  332TMC3    C8 5044   2.483   4.475  12.647 -0.3363  0.0780 -0.3014
  332TMC3    O1 5045   2.597   4.030  12.924  0.1749  0.0659 -0.4243
  332TMC3    O2 5046   2.543   4.574  12.609 -0.2106  0.3859  0.1421
  333MPD2     C 5047   2.688   4.723  11.448 -0.1750  0.1895  0.1631
  333MPD2    C1 5048   2.718   4.604  11.376  0.9379  0.0123 -0.0684
  333MPD2    C2 5049   2.659   4.480  11.416  0.1284 -0.4456 -0.0400
  333MPD2    C3 5050   2.583   4.475  11.531  0.6619  0.7561 -0.4142
  333MPD2    C4 5051   2.553   4.592  11.595 -0.1456  0.3995  0.1405
  333MPD2    C5 5052   2.602   4.712  11.551 -0.6656 -0.0280 -0.4161
  333MPD2     H 5053   2.685   4.391  11.359  1.1940  0.2728 -0.6582
  333MPD2    H1 5054   2.495   4.591  11.686 -0.5764 -1.0160 -0.1469
  333MPD2    H2 5055   2.730   0.081  11.413 -1.2387  0.1448 -1.2475
  333MPD2    H3 5056   2.574   0.069  11.601 -0.8893 -1.1560  1.5424
  333MPD2     N 5057   2.546   4.350  11.576 -0.0719  0.8307 -0.1699
  333MPD2    H5 5058   2.576   4.270  11.522  1.8353  0.2595  1.7154
  333MPD2    N1 5059   2.820   4.613  11.277 -0.4015  0.2972 -0.1453
  333MPD2    H7 5060   2.859   4.704  11.255  0.2706 -0.5418 -2.3903
  334TMC3    C1 5061   2.981   4.545  11.133 -0.6657 -0.1811 -0.0323
  334TMC3    C2 5062   3.093   4.467  11.123 -0.0338  0.0441  0.3502
  334TMC3    C3 5063   3.207   4.519  11.075  0.2019 -0.1594 -0.5962
  334TMC3    C4 5064   2.975   4.662  11.071 -0.1040 -0.3376  0.3530
  334TMC3    C5 5065   3.088   4.703  11.005 -0.3994 -0.1491 -0.4417
  334TMC3    C6 5066   3.211   4.642  11.011 -0.2639 -0.2455  0.4184
  334TMC3     C 5067   2.886   4.508  11.226 -0.3552  0.1912  0.0215
  334TMC3     O 5068   2.877   4.388  11.245 -0.0515 -0.3302  0.4797
  334TMC3     H 5069   3.089   4.375  11.180  0.2816  0.9126  1.7710
  334TMC3    H1 5070   2.877   4.708  11.064 -0.6885 -0.9490  4.3134
  334TMC3    H2 5071   3.291   4.674  10.945 -0.3924  1.1800  0.9581
  334TMC3    C7 5072   3.096   0.106  10.957 -0.8651  1.0927  0.3854
  334TMC3    C8 5073   3.321   4.428  11.072 -0.1653 -0.5800  0.4152
  334TMC3    O1 5074   3.207   0.146  10.926  0.2111  0.4047 -0.5002
  334TMC3    O2 5075   3.300   4.313  11.103 -0.4415  0.4597  0.0109
  335TMC3    C1 5076   2.118   2.283  17.678  0.1604 -0.4050 -0.2088
  335TMC3    C2 5077   2.045   2.180  17.624 -0.8512  0.3655 -0.3971
  335TMC3    C3 5078   2.118   2.071  17.604 -0.0301  0.3334 -0.0317
  335TMC3    C4 5079   2.255   2.278  17.701 -0.3344  0.0825 -0.0257
  335TMC3    C5 5080   2.311   2.159  17.685  0.3970  0.1272 -0.2047
  335TMC3    C6 5081   2.245   2.053  17.636  0.3544 -0.3361  0.4420
  335TMC3     C 5082   2.036   2.391  17.727 -0.1339  0.1785  0.2575
  335TMC3     O 5083   1.919   2.398  17.696 -0.0565 -0.0418 -0.6034
  335TMC3     H 5084   1.937   2.183  17.610 -0.8899  0.9046  0.0009
  335TMC3    H1 5085   2.313   2.365  17.731 -0.9452 -0.8258  3.8006
  335TMC3    H2 5086   2.303   1.963  17.623 -2.9307 -2.2630 -0.8278
  335TMC3    C7 5087   2.455   2.151  17.670 -0.1838  0.2022  0.0141
  335TMC3    C8 5088   2.051   1.968  17.527  0.7352 -0.0307  0.2858
  335TMC3    O1 5089   2.503   2.070  17.593  0.4943 -0.2578  0.1721
  335TMC3    O2 5090   1.949   2.004  17.472  0.3394 -0.4688 -0.2606
  336MPD2     C 5091   2.042   4.078  16.278 -0.4164  0.3191  0.2120
  336MPD2    C1 5092   1.971   4.014  16.171 -0.3785 -0.3424 -0.5232
  336MPD2    C2 5093   1.946   3.879  16.172 -0.9950  0.0909 -0.1861
  336MPD2    C3 5094   1.992   3.805  16.277  0.2915 -0.3369 -0.3353
  336MPD2    C4 5095   2.060   3.865  16.377 -0.5484 -0.1188 -0.7986
  336MPD2    C5 5096   2.089   3.999  16.375  0.1171  1.2085 -0.0424
  336MPD2     H 5097   1.887   3.834  16.093  0.5420  0.2858 -1.4452
  336MPD2    H1 5098   2.081   3.810  16.468 -3.1912  0.4363  0.1464
  336MPD2    H2 5099   2.061   4.184  16.286 -1.0862  0.4935 -0.4770
  336MPD2    H3 5100   2.143   4.039  16.461  1.9733 -0.6591 -0.3300
  336MPD2     N 5101   1.966   3.667  16.287  0.1493  0.6933  0.0383
  336MPD2    H5 5102   1.969   3.622  16.378  1.0344  0.7023  0.0185
  336MPD2    N1 5103   1.916   4.090  16.068  0.2782  0.2428 -0.0442
  336MPD2    H7 5104   1.870   4.027  16.004  1.1152  2.4258 -2.7714
  337TMC3    C1 5105   1.857   4.274  15.928 -0.1444  0.1239 -0.4906
  337TMC3    C2 5106   1.762   4.201  15.865 -0.7390 -0.5738 -0.1259
  337TMC3    C3 5107   1.680   4.266  15.770 -1.0411  0.0956 -0.2517
  337TMC3    C4 5108   1.865   4.408  15.908  0.0787 -0.0762 -0.8925
  337TMC3    C5 5109   1.771   4.467  15.829 -0.5918 -0.5862 -0.8787
  337TMC3    C6 5110   1.690   4.400  15.747  0.6283 -0.2166  0.3807
  337TMC3     C 5111   1.919   4.221  16.046  0.0493 -0.5883 -0.4743
  337TMC3     O 5112   1.966   4.309  16.120 -0.2282  0.8102  0.3239
  337TMC3     H 5113   1.761   4.093  15.875  1.7882 -0.4769  1.2586
  337TMC3    H1 5114   1.936   4.465  15.967  0.8002 -2.2676  0.3497
  337TMC3    H2 5115   1.621   4.454  15.682  1.4749  1.5207  0.9095
  337TMC3    C7 5116   1.699   4.568  15.917  0.1630 -1.2937 -0.4972
  337TMC3    C8 5117   1.579   4.179  15.709 -0.3265 -0.2651  0.1688
  337TMC3    O1 5118   1.740   4.580  16.030  0.8815 -0.2122 -0.2707
  337TMC3    O2 5119   1.562   4.064  15.755 -0.5356  0.2211 -0.3565
  338MPD2     C 5120   2.096   3.804   1.282  0.0338  0.5107  0.1022
  338MPD2    C1 5121   2.064   3.847   1.158 -0.1950 -0.8284 -0.2169
  338MPD2    C2 5122   1.930   3.851   1.130  0.8651 -0.0116  0.0956
  338MPD2    C3 5123   1.832   3.824   1.219  0.6856  0.1434 -0.4634
  338MPD2    C4 5124   1.864   3.773   1.339 -0.3941  0.3047 -0.0432
  338MPD2    C5 5125   1.996   3.760   1.366 -0.8102 -0.7412  0.2441
  338MPD2     H 5126   1.912   3.886   1.029  3.9244  2.9898  0.5879
  338MPD2    H1 5127   1.787   3.744   1.410  0.2626  0.2982  0.6701
  338MPD2    H2 5128   2.195   3.794   1.325 -1.3651 -3.3619  2.4262
  338MPD2    H3 5129   2.021   3.707   1.457 -0.6062  0.7389  1.0600
  338MPD2     N 5130   1.695   3.858   1.177  0.3328 -0.0525 -0.4211
  338MPD2    H5 5131   1.673   3.914   1.096 -1.5303 -0.3620 -0.1294
  338MPD2    N1 5132   2.161   3.863   1.062 -0.3863  0.1551  0.1704
  338MPD2    H7 5133   2.133   3.889   0.968  1.2654  1.2375 -0.0193
  339TMC3    C1 5134   1.459   3.858   1.184 -0.2423 -0.8086 -0.2891
  339TMC3    C2 5135   1.353   3.779   1.210  0.0691 -0.2706  0.1385
  339TMC3    C3 5136   1.251   3.784   1.117 -0.4729 -0.2767 -0.9620
  339TMC3    C4 5137   1.458   3.947   1.084 -0.4943 -0.0460  0.1609
  339TMC3    C5 5138   1.350   3.951   0.997 -0.1887 -0.5437  0.0738
  339TMC3    C6 5139   1.244   3.865   1.014  0.1432 -0.0464 -0.2251
  339TMC3     C 5140   1.579   3.820   1.247 -0.7549  0.0979 -0.6305
  339TMC3     O 5141   1.567   3.748   1.345  0.2049  0.2184 -0.3705
  339TMC3     H 5142   1.358   3.696   1.280  1.3860  0.0620  0.4320
  339TMC3    H1 5143   1.539   4.019   1.071  1.6385 -2.9752 -2.5541
  339TMC3    H2 5144   1.158   3.879   0.949  0.1952  0.9277 -0.0920
  339TMC3    C7 5145   1.366   4.026   0.875 -0.0074 -0.6801 -0.3227
  339TMC3    C8 5146   1.137   3.693   1.140  0.4468  0.5154 -0.5027
  339TMC3    O1 5147   1.445   4.121   0.870 -0.0711 -0.0629 -0.0715
  339TMC3    O2 5148   1.066   3.680   1.040 -0.0123 -0.3857  0.2442
  340MPD2     C 5149   3.280   1.651  10.439 -0.6566 -0.1203 -0.7472
  340MPD2    C1 5150   3.252   1.562  10.340 -0.4054  0.1610  0.8474
  340MPD2    C2 5151   3.318   1.579  10.215  0.9880  0.0251  0.2468
  340MPD2    C3 5152   3.423   1.678  10.206  0.0065 -0.1794 -0.3733
  340MPD2    C4 5153   3.447   1.758  10.311  0.3744 -0.4425 -0.3811
  340MPD2    C5 5154   3.360   1.756  10.420 -0.3643  0.2003  0.1531
  340MPD2     H 5155   3.301   1.508  10.135  0.0055 -1.4264  1.7311
  340MPD2    H1 5156   3.529   1.829  10.309 -1.0157  1.1950  0.4456
  340MPD2    H2 5157   3.229   1.640  10.534 -0.6006  1.7700 -0.5077
  340MPD2    H3 5158   3.376   1.824  10.502 -1.8632  0.6712  0.0610
  340MPD2     N 5159   3.499   1.702  10.088 -0.2557  0.0399 -0.7222
  340MPD2    H5 5160   3.574   1.770  10.100 -0.8557  0.4334  0.8031
  340MPD2    N1 5161   3.151   1.460  10.363 -0.4034 -0.1356  0.5534
  340MPD2    H7 5162   3.108   1.450  10.455  1.7347 -1.5425  1.3773
  341TMC3    C1 5163   3.004   1.292  10.311 -0.4988 -0.1965 -0.1333
  341TMC3    C2 5164   2.956   1.290  10.438 -0.0660  0.3003  0.6283
  341TMC3    C3 5165   2.852   1.210  10.472  0.5445  0.6609 -0.0274
  341TMC3    C4 5166   2.936   1.220  10.210 -0.0148  0.5023 -0.0276
  341TMC3    C5 5167   2.834   1.147  10.248  0.3868  0.0655 -0.4732
  341TMC3    C6 5168   2.788   1.136  10.379 -0.2556 -0.6606  0.4775
  341TMC3     C 5169   3.089   1.388  10.262  0.6055  0.7595 -0.2218
  341TMC3     O 5170   3.107   1.387  10.140 -0.3642  0.4283  0.5451
  341TMC3     H 5171   2.996   1.362  10.508 -2.3426  1.1029  1.1128
  341TMC3    H1 5172   2.979   1.195  10.114  1.4269  1.3018  0.4185
  341TMC3    H2 5173   2.711   1.067  10.410 -0.7846 -0.1500  0.2891
  341TMC3    C7 5174   2.801   1.032  10.170  0.4102  0.1120  0.7285
  341TMC3    C8 5175   2.765   1.230  10.589  0.0162  0.1210  0.6659
  341TMC3    O1 5176   2.763   0.931  10.226  0.0906  0.1491 -0.7850
  341TMC3    O2 5177   2.652   1.192  10.582  0.0472  0.2712  0.4202
  342MPD2     C 5178   4.627   0.087  17.431  0.2615 -0.2609  0.5070
  342MPD2    C1 5179   0.029   0.102  17.411  0.0697 -0.2016  0.1052
  342MPD2    C2 5180   0.079   0.230  17.434 -0.2020  0.1887  0.6353
  342MPD2    C3 5181   0.010   0.337  17.480  0.0905 -0.6646  0.3250
  342MPD2    C4 5182   4.616   0.317  17.508  0.9097  0.0928 -0.2167
  342MPD2    C5 5183   4.558   0.193  17.476  0.0053 -0.3869 -0.1466
  342MPD2     H 5184   0.186   0.236  17.417 -0.2422  0.1714  0.3756
  342MPD2    H1 5185   4.554   0.398  17.542 -1.7834 -2.2583  0.5194
  342MPD2    H2 5186   4.569   4.731  17.420  1.1023 -1.0047  2.2340
  342MPD2    H3 5187   4.451   0.192  17.494  0.1883  0.2179  0.9818
  342MPD2     N 5188   0.060   0.463  17.510 -0.9214  0.7803 -0.4582
  342MPD2    H5 5189   4.731   0.537  17.539 -0.8259  0.2788  1.0511
  342MPD2    N1 5190   0.116   4.730  17.368 -0.4105  0.2701  0.0323
  342MPD2    H7 5191   0.210   0.027  17.344 -0.9241 -0.1710 -2.6427
  343TMC3    C1 5192   0.183   4.510  17.302 -0.1223  0.0873  0.0912
  343TMC3    C2 5193   0.292   4.556  17.230 -0.7022  0.2812  0.4046
  343TMC3    C3 5194   0.359   4.458  17.155  0.2211 -0.4819 -0.7505
  343TMC3    C4 5195   0.141   4.383  17.298 -0.4337  0.5957  0.5476
  343TMC3    C5 5196   0.208   4.287  17.225 -0.4711 -0.2716  0.1422
  343TMC3    C6 5197   0.322   4.326  17.159  0.2256 -0.3353  0.1402
  343TMC3     C 5198   0.082   4.600  17.361 -0.5097  0.7521 -0.1719
  343TMC3     O 5199   4.714   4.552  17.404  0.2831 -0.1762 -0.6593
  343TMC3     H 5200   0.332   4.655  17.247  1.6325 -0.0134 -3.4600
  343TMC3    H1 5201   0.061   4.344  17.360 -0.8300  0.5342 -0.0082
  343TMC3    H2 5202   0.372   4.246  17.105  0.9809  0.4416 -0.3092
  343TMC3    C7 5203   0.173   4.146  17.240  0.2174  0.2018  0.0453
  343TMC3    C8 5204   0.475   4.496  17.069 -0.1035 -0.2570 -0.1712
  343TMC3    O1 5205   0.206   4.077  17.146  0.3600 -0.6105 -0.3014
  343TMC3    O2 5206   0.511   4.610  17.094  0.1894  0.2845 -0.9432
  344MPD2     C 5207   1.748   3.440  11.065 -0.1952  1.0936 -0.1322
  344MPD2    C1 5208   1.634   3.406  10.997 -0.2351 -0.0509  0.2783
  344MPD2    C2 5209   1.605   3.483  10.883  0.6595 -0.2145  0.0432
  344MPD2    C3 5210   1.690   3.587  10.846  0.0775  0.1070 -0.7850
  344MPD2    C4 5211   1.810   3.610  10.912  0.7036 -0.8956 -0.3596
  344MPD2    C5 5212   1.831   3.539  11.023 -0.1094 -0.3594 -0.4485
  344MPD2     H 5213   1.513   3.464  10.829  0.5465 -3.8533  1.4987
  344MPD2    H1 5214   1.872   3.696  10.894  0.2705 -0.5431 -0.1642
  344MPD2    H2 5215   1.767   3.396  11.162 -2.6739 -1.5334 -0.8594
  344MPD2    H3 5216   1.912   3.564  11.090 -0.8440 -1.6192  0.8935
  344MPD2     N 5217   1.665   3.676  10.744 -0.1822  0.5529  0.2250
  344MPD2    H5 5218   1.737   3.736  10.705  0.2903 -0.7722 -0.9256
  344MPD2    N1 5219   1.548   3.298  11.035 -0.0378  0.2985  0.6076
  344MPD2    H7 5220   1.462   3.284  10.984  1.3453  0.9781 -1.8867
  345TMC3    C1 5221   1.562   3.770  10.553  0.7721 -0.1532  0.0370
  345TMC3    C2 5222   1.637   3.883  10.565  0.1149  0.4682 -0.2732
  345TMC3    C3 5223   1.643   3.966  10.457  0.6594  0.2319 -0.5472
  345TMC3    C4 5224   1.492   3.738  10.439  0.8589  0.2516 -0.2022
  345TMC3    C5 5225   1.497   3.834  10.342  0.1687 -0.0092  0.3991
  345TMC3    C6 5226   1.574   3.947  10.344 -0.0411 -0.5642  0.7762
  345TMC3     C 5227   1.552   3.671  10.662 -0.1905 -0.3736 -0.8132
  345TMC3     O 5228   1.455   3.600  10.672 -0.2113  0.3030  0.7347
  345TMC3     H 5229   1.682   3.910  10.660 -1.6093  1.2704  0.3344
  345TMC3    H1 5230   1.435   3.646  10.437  1.0238  0.1832 -1.5564
  345TMC3    H2 5231   1.581   4.016  10.261 -1.9673 -1.8753 -0.4844
  345TMC3    C7 5232   1.400   3.832  10.230 -1.1298  0.1420  0.5024
  345TMC3    C8 5233   1.710   4.093  10.476  0.4063  0.0116  0.6813
  345TMC3    O1 5234   1.408   3.921  10.143 -0.0434  0.3447 -0.0709
  345TMC3    O2 5235   1.651   4.185  10.420  0.0515 -0.1955  0.0748
  346MPD2     C 5236   1.389   0.637  14.026  1.0550  0.1350  0.4477
  346MPD2    C1 5237   1.454   0.761  14.038 -0.5229 -0.4445 -0.4807
  346MPD2    C2 5238   1.436   0.846  14.145 -0.2337  0.5315  0.0996
  346MPD2    C3 5239   1.360   0.793  14.252  0.0858 -0.2786 -0.0107
  346MPD2    C4 5240   1.322   0.655  14.254 -0.0618 -0.6279  0.2394
  346MPD2    C5 5241   1.323   0.587  14.134 -0.3541 -0.2115 -0.0775
  346MPD2     H 5242   1.470   0.948  14.135 -1.1689  0.9922  1.5346
  346MPD2    H1 5243   1.282   0.599  14.337  1.1947 -0.3261  1.0597
  346MPD2    H2 5244   1.388   0.584  13.931  1.6124  0.5490  0.2108
  346MPD2    H3 5245   1.287   0.484  14.129  0.1192 -0.2581 -2.6923
  346MPD2     N 5246   1.348   0.871  14.370 -0.5642  0.1023 -0.0130
  346MPD2    H5 5247   1.386   0.965  14.366  0.5587 -0.3155  0.8576
  346MPD2    N1 5248   1.526   0.813  13.926  0.5840  0.4486 -0.1446
  346MPD2    H7 5249   1.575   0.898  13.952  1.5277 -0.0885 -0.1460
  347TMC3    C1 5250   1.318   0.921  14.605 -0.3376 -0.2642  0.7890
  347TMC3    C2 5251   1.409   1.012  14.585 -0.4696  0.3295  0.4258
  347TMC3    C3 5252   1.490   1.054  14.691  0.3819  1.0018 -0.0920
  347TMC3    C4 5253   1.296   0.864  14.728 -0.1910 -0.7522  0.2400
  347TMC3    C5 5254   1.370   0.909  14.828  0.2168  0.7666 -1.4538
  347TMC3    C6 5255   1.476   0.995  14.812 -0.7428  0.4188  0.3205
  347TMC3     C 5256   1.280   0.837  14.490 -0.3147  0.1044 -0.3910
  347TMC3     O 5257   1.204   0.747  14.509 -0.6888  0.4437 -0.4473
  347TMC3     H 5258   1.431   1.052  14.486  1.6056 -0.2023  0.6691
  347TMC3    H1 5259   1.212   0.799  14.748  0.0532 -1.0514  0.3040
  347TMC3    H2 5260   1.544   1.022  14.891 -1.1482  0.9317  0.4966
  347TMC3    C7 5261   1.387   0.820  14.943  0.3618 -0.0627  0.1783
  347TMC3    C8 5262   1.623   1.080  14.656  0.2155 -0.1500 -0.7904
  347TMC3    O1 5263   1.409   0.867  15.056  0.5809 -0.2045  0.0893
  347TMC3    O2 5264   1.706   1.031  14.727 -0.2522 -0.4099  0.2719
  348MPD2     C 5265   0.459   0.614  12.220 -0.7447 -0.8966  0.9064
  348MPD2    C1 5266   0.435   0.550  12.105  0.1204  0.8843  0.4633
  348MPD2    C2 5267   0.430   0.625  11.995 -0.2590 -0.3182  0.3946
  348MPD2    C3 5268   0.460   0.757  11.998  0.0075 -0.3690 -0.1842
  348MPD2    C4 5269   0.500   0.819  12.112  0.3179  0.4501 -0.9099
  348MPD2    C5 5270   0.498   0.745  12.232  0.3555  0.2132  0.1653
  348MPD2     H 5271   0.411   0.576  11.900  0.0624  0.9913 -0.3570
  348MPD2    H1 5272   0.531   0.923  12.118  1.7297 -0.0525  0.4521
  348MPD2    H2 5273   0.427   0.573  12.315 -1.8669  0.7072  1.2292
  348MPD2    H3 5274   0.487   0.796  12.327  1.3139  1.3393 -0.3253
  348MPD2     N 5275   0.446   0.832  11.877 -0.1122 -0.6678  0.3741
  348MPD2    H5 5276   0.420   0.791  11.788  2.0000  0.6144 -0.8399
  348MPD2    N1 5277   0.406   0.415  12.094 -0.3804  0.2499 -0.6613
  348MPD2    H7 5278   0.402   0.377  12.000  1.5315 -0.8633 -0.2914
  349TMC3    C1 5279   0.430   0.182  12.132 -0.2143  0.2769 -0.5062
  349TMC3    C2 5280   0.535   0.106  12.165 -0.2761 -0.5741 -0.7572
  349TMC3    C3 5281   0.555   4.721  12.103 -0.0585  0.6940 -0.0323
  349TMC3    C4 5282   0.358   0.157  12.021 -0.2135 -0.1155 -0.0024
  349TMC3    C5 5283   0.372   0.036  11.958  0.5253 -0.3016  0.1886
  349TMC3    C6 5284   0.474   4.687  12.002  0.1966  0.3525 -0.1406
  349TMC3     C 5285   0.425   0.320  12.187  0.0512 -0.7808  0.2497
  349TMC3     O 5286   0.476   0.339  12.296 -0.4493 -1.0059  0.0228
  349TMC3     H 5287   0.593   0.119  12.255 -1.7055 -2.7787  0.4789
  349TMC3    H1 5288   0.283   0.230  11.992  1.8562  1.3395 -1.8044
  349TMC3    H2 5289   0.483   4.586  11.964 -0.7565  0.8218 -1.6108
  349TMC3    C7 5290   0.266   4.728  11.861  0.4670  0.7401  0.3300
  349TMC3    C8 5291   0.629   4.613  12.170  0.2844  0.0247 -0.2716
  349TMC3    O1 5292   0.163   0.060  11.863  0.1707 -0.2520 -0.5098
  349TMC3    O2 5293   0.685   4.650  12.272  0.1423 -0.7661  0.3650
  350MPD2     C 5294   3.842   3.540   9.733 -0.0244 -0.0268  0.5762
  350MPD2    C1 5295   3.890   3.415   9.718 -0.1926  0.2167  0.1038
  350MPD2    C2 5296   4.021   3.384   9.744  0.7770  0.3393  0.1347
  350MPD2    C3 5297   4.107   3.478   9.788  0.1542  0.3144 -0.2671
  350MPD2    C4 5298   4.058   3.610   9.803 -0.2604  0.4934  0.9901
  350MPD2    C5 5299   3.933   3.640   9.763  0.1961 -0.6329 -0.6128
  350MPD2     H 5300   4.068   3.287   9.735 -3.0362 -1.5983  0.8552
  350MPD2    H1 5301   4.116   3.691   9.845 -0.1980  0.1597  1.5554
  350MPD2    H2 5302   3.734   3.553   9.724  0.1971  1.4081 -0.0372
  350MPD2    H3 5303   3.892   3.741   9.767 -0.1435 -0.7960 -0.1230
  350MPD2     N 5304   4.239   3.440   9.818 -0.5636 -1.0367  0.3130
  350MPD2    H5 5305   4.258   3.340   9.814  0.9839 -0.6314 -1.8760
  350MPD2    N1 5306   3.817   3.306   9.676  0.2768  0.4216  0.0505
  350MPD2    H7 5307   3.875   3.223   9.666  0.5444  0.6650 -0.4510
  351TMC3    C1 5308   3.655   3.164   9.569  0.3427 -0.4440 -0.0161
  351TMC3    C2 5309   3.735   3.105   9.478 -0.1343  0.1953  0.2186
  351TMC3    C3 5310   3.725   2.970   9.455 -1.0902 -0.3142  0.6575
  351TMC3    C4 5311   3.543   3.102   9.604 -0.2104 -0.5680  1.4833
  351TMC3    C5 5312   3.530   2.972   9.577 -0.0358 -0.4453 -0.2584
  351TMC3    C6 5313   3.623   2.897   9.509 -0.9113  0.5235  0.3755
  351TMC3     C 5314   3.689   3.302   9.628  0.2898 -0.4296 -0.3611
  351TMC3     O 5315   3.606   3.389   9.635  0.4029 -0.5350 -0.1945
  351TMC3     H 5316   3.816   3.163   9.435  0.6589 -1.7983 -0.9610
  351TMC3    H1 5317   3.478   3.164   9.664  1.8933  2.8134  0.2548
  351TMC3    H2 5318   3.621   2.789   9.504 -0.0398  0.5353 -0.1844
  351TMC3    C7 5319   3.399   2.905   9.589  0.7723  0.0276 -0.3683
  351TMC3    C8 5320   3.843   2.910   9.384 -0.3581 -0.4085 -0.8353
  351TMC3    O1 5321   3.383   2.789   9.555 -0.2272  0.2309  0.1808
  351TMC3    O2 5322   3.915   2.981   9.315 -0.2355  0.4690  0.5398
  352MPD2     C 5323   2.477   1.161   1.660  0.1195  0.5128  0.5419
  352MPD2    C1 5324   2.376   1.088   1.598 -0.1252 -0.0202 -0.3353
  352MPD2    C2 5325   2.382   0.949   1.602  0.0482  0.0480  0.0693
  352MPD2    C3 5326   2.481   0.877   1.670 -1.0642  0.4556 -0.2513
  352MPD2    C4 5327   2.568   0.950   1.743 -0.4089 -0.2468 -0.1221
  352MPD2    C5 5328   2.571   1.089   1.730  0.1250  0.3118  0.1767
  352MPD2     H 5329   2.302   0.894   1.554 -1.1386  0.4964  1.5340
  352MPD2    H1 5330   2.651   0.898   1.789 -0.7827 -0.8483 -0.1269
  352MPD2    H2 5331   2.491   1.268   1.655  1.2195  0.2690 -1.3658
  352MPD2    H3 5332   2.647   1.146   1.782 -1.2084  3.0386 -0.8779
  352MPD2     N 5333   2.494   0.734   1.674  0.5010 -0.5487 -0.4510
  352MPD2    H5 5334   2.573   0.698   1.726  0.4143  0.5688  0.4612
  352MPD2    N1 5335   2.281   1.157   1.524 -0.1290  0.0579 -0.2352
  352MPD2    H7 5336   2.290   1.258   1.519  0.8357 -0.0786 -1.2070
  353TMC3    C1 5337   2.465   0.513   1.570 -0.6668  0.3433  0.0190
  353TMC3    C2 5338   2.577   0.461   1.630  0.3495 -0.0657  0.0098
  353TMC3    C3 5339   2.591   0.321   1.629 -0.2417  0.0317  0.1071
  353TMC3    C4 5340   2.375   0.435   1.503  0.2144 -1.0835  0.3975
  353TMC3    C5 5341   2.399   0.297   1.499 -0.0774 -0.5970  0.5236
  353TMC3    C6 5342   2.507   0.241   1.557 -0.4711  0.3922 -0.5201
  353TMC3     C 5343   2.421   0.651   1.594 -0.1158  1.1733 -0.4181
  353TMC3     O 5344   2.323   0.677   1.527 -0.2857 -0.0279 -0.4312
  353TMC3     H 5345   2.649   0.519   1.686  0.5107 -0.2860  0.0314
  353TMC3    H1 5346   2.274   0.464   1.476  0.6127  1.4418  1.6332
  353TMC3    H2 5347   2.512   0.133   1.563 -0.8327  0.4784  1.5579
  353TMC3    C7 5348   2.326   0.217   1.401  0.1868 -0.2887  0.0490
  353TMC3    C8 5349   2.720   0.266   1.662 -0.1156 -0.0200 -0.1932
  353TMC3    O1 5350   2.345   0.093   1.395  0.2382 -0.3972 -0.1346
  353TMC3    O2 5351   2.789   0.313   1.752 -0.4256 -0.5599  0.6623
  354TMC3    C1 5352   4.199   1.440  13.467 -0.3004  0.6760  0.3138
  354TMC3    C2 5353   4.129   1.514  13.378 -0.0703 -0.5548  0.2011
  354TMC3    C3 5354   4.192   1.540  13.261 -0.5654 -0.2455  0.6566
  354TMC3    C4 5355   4.323   1.385  13.442 -0.4402 -0.2368 -0.4341
  354TMC3    C5 5356   4.385   1.416  13.321 -0.4990 -0.1988  0.1119
  354TMC3    C6 5357   4.318   1.491  13.228 -0.1809 -1.0773  0.1812
  354TMC3     C 5358   4.142   1.434  13.597 -0.5797  0.1550  0.0519
  354TMC3     O 5359   4.055   1.513  13.635 -0.0076  0.2165 -0.6167
  354TMC3     H 5360   4.028   1.543  13.407  0.4191  0.6041  0.7505
  354TMC3    H1 5361   4.394   1.356  13.519  0.0318  2.7097  0.2410
  354TMC3    H2 5362   4.352   1.484  13.125 -0.3329  0.6937  0.0015
  354TMC3    C7 5363   4.518   1.369  13.299 -0.5909 -0.6232 -0.0229
  354TMC3    C8 5364   4.119   1.623  13.161  0.3806  0.5752 -0.3347
  354TMC3    O1 5365   4.563   1.274  13.367 -0.0996 -0.1471 -0.2052
  354TMC3    O2 5366   3.996   1.646  13.178 -0.1981  0.0258  0.1001
  355MPD2     C 5367   4.419   2.808  12.051  0.2072 -0.8074  0.0261
  355MPD2    C1 5368   4.512   2.785  11.955 -0.2711  0.1387  0.7696
  355MPD2    C2 5369   4.584   2.668  11.957 -0.4912 -0.9064  0.9850
  355MPD2    C3 5370   4.568   2.579  12.066  0.1046  0.6025  0.0508
  355MPD2    C4 5371   4.483   2.614  12.170  0.0075  0.3994 -0.2078
  355MPD2    C5 5372   4.409   2.731  12.163  0.3143  0.5789 -0.2999
  355MPD2     H 5373   4.656   2.643  11.879  0.6940  0.0487  1.7849
  355MPD2    H1 5374   4.474   2.539  12.247  0.9094 -0.2777 -0.7609
  355MPD2    H2 5375   4.374   2.907  12.053 -0.3637 -1.0863  0.8224
  355MPD2    H3 5376   4.344   2.760  12.244  3.9277 -1.4745  3.3325
  355MPD2     N 5377   4.640   2.455  12.078  0.1396  0.5033 -0.5226
  355MPD2    H5 5378   4.648   2.416  12.172  2.2420  0.7327 -0.5914
  355MPD2    N1 5379   4.518   2.877  11.847  0.3050  0.3407 -0.0927
  355MPD2    H7 5380   4.457   2.958  11.847 -0.5421 -0.2798 -2.3409
  356TMC3    C1 5381   0.111   2.373  11.999 -0.7339 -0.9351 -0.0055
  356TMC3    C2 5382   0.182   2.394  11.883  0.1305 -0.3285 -0.8210
  356TMC3    C3 5383   0.309   2.449  11.898 -0.4907 -0.4427 -0.2763
  356TMC3    C4 5384   0.152   2.437  12.121  0.3490 -0.1467 -0.5083
  356TMC3    C5 5385   0.263   2.513  12.116  0.3316 -0.6134 -0.2023
  356TMC3    C6 5386   0.348   2.514  12.010 -0.4139 -0.6422  0.6023
  356TMC3     C 5387   4.705   2.395  11.972  0.1223 -0.0460 -0.5378
  356TMC3     O 5388   4.676   2.410  11.857  0.3121  0.0810  0.4825
  356TMC3     H 5389   0.159   2.358  11.783 -1.9833 -1.5752  0.1099
  356TMC3    H1 5390   0.098   2.421  12.214  0.8651  2.0023  0.1483
  356TMC3    H2 5391   0.448   2.555  12.010  0.7082 -3.3950 -0.1803
  356TMC3    C7 5392   0.305   2.566  12.242  0.3399 -0.1396  0.5197
  356TMC3    C8 5393   0.396   2.456  11.781 -0.0307 -0.6094 -0.4289
  356TMC3    O1 5394   0.276   2.505  12.343 -0.3123  0.0756 -0.6938
  356TMC3    O2 5395   0.387   2.370  11.695  0.0016  0.0611  0.2313
  357MPD2     C 5396   3.621   3.139   1.541 -0.0023 -0.3646 -0.5129
  357MPD2    C1 5397   3.540   3.095   1.433 -0.6011 -0.0240  0.4833
  357MPD2    C2 5398   3.410   3.052   1.455 -0.1522  0.4957  0.4499
  357MPD2    C3 5399   3.358   3.067   1.579  0.4164  0.2644 -0.2546
  357MPD2    C4 5400   3.436   3.114   1.681  0.4086  0.5278 -0.6098
  357MPD2    C5 5401   3.564   3.155   1.664 -0.1467  0.3524  0.4114
  357MPD2     H 5402   3.344   3.003   1.384  2.5432  0.1917 -1.8428
  357MPD2    H1 5403   3.396   3.129   1.781 -1.7680 -1.1053 -1.2150
  357MPD2    H2 5404   3.718   3.185   1.528  0.9806 -2.5001 -0.7588
  357MPD2    H3 5405   3.617   3.203   1.745  0.8485 -0.5543  0.3019
  357MPD2     N 5406   3.231   3.015   1.605  0.0314  0.6319 -0.6529
  357MPD2    H5 5407   3.213   2.992   1.702 -0.1460  2.9200 -0.1524
  357MPD2    N1 5408   3.608   3.076   1.314 -0.1454  0.1932 -0.1388
  357MPD2    H7 5409   3.709   3.083   1.314 -0.2062  1.0706 -1.3662
  358TMC3    C1 5410   3.624   3.000   1.091 -0.4033  0.5809 -0.3954
  358TMC3    C2 5411   3.569   2.919   0.998 -0.5350 -0.3492 -0.9186
  358TMC3    C3 5412   3.636   2.826   0.927 -0.0436  0.1856 -0.0709
  358TMC3    C4 5413   3.759   2.992   1.104 -0.1975  0.0852  0.8434
  358TMC3    C5 5414   3.832   2.892   1.029 -0.3537  0.7206  0.0990
  358TMC3    C6 5415   3.771   2.815   0.940  0.6699 -0.0500  0.0571
  358TMC3     C 5416   3.538   3.056   1.195  0.5953 -0.3515  0.1008
  358TMC3     O 5417   3.419   3.065   1.171 -0.3472  0.0600  0.0276
  358TMC3     H 5418   3.460   2.918   0.992 -0.7232 -0.8269  2.4785
  358TMC3    H1 5419   3.814   3.054   1.173  0.0106  1.4960 -0.6015
  358TMC3    H2 5420   3.825   2.738   0.886 -0.5928 -0.1168 -1.1239
  358TMC3    C7 5421   3.978   2.858   1.061  0.8258 -0.5481 -0.6641
  358TMC3    C8 5422   3.563   2.723   0.855  0.0566  0.1106 -0.4067
  358TMC3    O1 5423   4.025   2.767   0.991 -0.1759 -0.7726 -0.5409
  358TMC3    O2 5424   3.442   2.717   0.878  0.2109  0.1975 -0.4363
  359MPD2     C 5425   0.153   0.713  12.333  0.1804  1.0961  0.0037
  359MPD2    C1 5426   0.059   0.798  12.273 -0.1156  1.1367  0.9106
  359MPD2    C2 5427   4.669   0.745  12.233 -0.5526 -0.6997  0.2836
  359MPD2    C3 5428   4.642   0.612  12.236 -0.2727  0.3774  0.0495
  359MPD2    C4 5429   4.733   0.530  12.289 -0.0398 -0.1462  0.3537
  359MPD2    C5 5430   0.120   0.579  12.333  0.7283  0.2663 -0.0906
  359MPD2     H 5431   4.601   0.819  12.192 -0.7208 -1.1244 -0.2055
  359MPD2    H1 5432   4.724   0.422  12.290 -0.5505 -0.1020  0.9267
  359MPD2    H2 5433   0.249   0.738  12.377 -0.1068  1.2996  0.5293
  359MPD2    H3 5434   0.197   0.504  12.351  1.1914  0.4043 -1.4970
  359MPD2     N 5435   4.531   0.556  12.167  0.7628 -0.1547  0.3359
  359MPD2    H5 5436   4.519   0.456  12.179  0.3745 -0.1141  0.2967
  359MPD2    N1 5437   0.087   0.934  12.245  0.0293  0.0383  0.0305
  359MPD2    H7 5438   0.017   0.984  12.192 -0.3340  0.4700  0.9088
  360TMC3    C1 5439   0.226   1.125  12.228 -0.3020 -0.2986  0.7021
  360TMC3    C2 5440   0.343   1.194  12.263  0.4687  1.0607  0.5364
  360TMC3    C3 5441   0.407   1.282  12.178 -0.1767  0.4004 -0.4999
  360TMC3    C4 5442   0.188   1.139  12.099 -0.2449  0.0469 -0.2625
  360TMC3    C5 5443   0.260   1.222  12.010 -0.2068  0.1020 -0.2069
  360TMC3    C6 5444   0.368   1.292  12.044  0.0091 -0.2252  0.2336
  360TMC3     C 5445   0.195   1.002  12.292  0.6133  0.6928  0.2006
  360TMC3     O 5446   0.282   0.973  12.372 -0.3317 -0.2453  1.0027
  360TMC3     H 5447   0.361   1.206  12.370  0.3482  0.4329  0.6301
  360TMC3    H1 5448   0.100   1.085  12.065  1.3266 -2.0463 -0.9724
  360TMC3    H2 5449   0.423   1.355  11.974  0.3290  1.8235  2.3368
  360TMC3    C7 5450   0.218   1.226  11.876  0.2555 -0.4278 -0.4406
  360TMC3    C8 5451   0.549   1.299  12.210  0.5164 -0.1926  0.4947
  360TMC3    O1 5452   0.249   1.329  11.814 -0.1077 -0.3823  0.2176
  360TMC3    O2 5453   0.590   1.355  12.314  0.1783  0.5499  0.5788
  361MPD2     C 5454   1.455   0.839  17.432 -0.1105 -0.0528 -0.1480
  361MPD2    C1 5455   1.392   0.741  17.359  0.2355  0.5167  0.1982
  361MPD2    C2 5456   1.429   0.608  17.379  0.9711 -0.4031 -0.2869
  361MPD2    C3 5457   1.541   0.580  17.453  0.2620 -0.3864 -0.0309
  361MPD2    C4 5458   1.615   0.681  17.517  0.0254 -0.0143 -0.2398
  361MPD2    C5 5459   1.563   0.805  17.503 -0.1294 -0.1556 -0.2086
  361MPD2     H 5460   1.377   0.538  17.315  0.6129 -1.0926  0.7600
  361MPD2    H1 5461   1.696   0.671  17.587 -1.5247  0.8928  1.6841
  361MPD2    H2 5462   1.440   0.946  17.422 -0.0140 -0.1272 -1.1102
  361MPD2    H3 5463   1.612   0.886  17.557 -2.8154  1.3279 -0.0252
  361MPD2     N 5464   1.588   0.449  17.452 -0.0867  0.2090 -0.4696
  361MPD2    H5 5465   1.682   0.434  17.486 -0.1417  2.9369  0.9077
  361MPD2    N1 5466   1.298   0.773  17.255  0.1935  0.1219 -0.4373
  361MPD2    H7 5467   1.264   0.704  17.189 -1.9210 -0.4042  1.1927
  362TMC3    C1 5468   1.113   0.883  17.144 -0.1519 -0.0540  0.3167
  362TMC3    C2 5469   0.978   0.882  17.172  0.2459 -0.2357  0.1239
  362TMC3    C3 5470   0.902   0.838  17.068 -0.0102  0.8568  0.5101
  362TMC3    C4 5471   1.172   0.852  17.029 -0.3084 -0.0918  0.5299
  362TMC3    C5 5472   1.092   0.807  16.932 -0.0939  0.8125 -0.7682
  362TMC3    C6 5473   0.953   0.810  16.946 -0.5382 -0.3211  0.0232
  362TMC3     C 5474   1.210   0.880  17.261 -0.5426  0.4711  0.0849
  362TMC3     O 5475   1.181   0.959  17.352 -0.1990  0.2610 -0.0361
  362TMC3     H 5476   0.941   0.891  17.273  2.2102  0.6491  0.7780
  362TMC3    H1 5477   1.279   0.873  17.024 -0.4710  0.8040  0.8656
  362TMC3    H2 5478   0.881   0.798  16.866 -0.2436 -0.1750 -0.2582
  362TMC3    C7 5479   1.119   0.873  16.809  0.2937  0.0164  0.0041
  362TMC3    C8 5480   0.755   0.840  17.073 -0.3589 -0.2299 -0.1072
  362TMC3    O1 5481   1.035   0.951  16.769 -0.2325  0.3915 -0.0407
  362TMC3    O2 5482   0.704   0.756  16.999 -0.7672 -0.1673 -0.5067
  363TMC3    C1 5483   0.058   2.691   9.604  0.6246 -0.6293  0.4466
  363TMC3    C2 5484   0.186   2.659   9.639 -0.3729 -0.9442 -0.2061
  363TMC3    C3 5485   0.253   2.760   9.707  0.3892  0.2747 -0.3577
  363TMC3    C4 5486   0.004   2.813   9.620 -0.0619 -0.1505 -0.4645
  363TMC3    C5 5487   0.083   2.916   9.657 -0.2240 -0.2758 -0.2266
  363TMC3    C6 5488   0.210   2.891   9.712 -0.3979  0.2730  0.4126
  363TMC3     C 5489   4.716   2.603   9.516 -0.0166 -0.3651 -0.6338
  363TMC3     O 5490   4.630   2.656   9.449  0.1054 -0.5142 -0.2985
  363TMC3     H 5491   0.222   2.560   9.611  2.4152 -0.2594  0.8916
  363TMC3    H1 5492   4.636   2.834   9.592  0.3736  0.4960 -1.5891
  363TMC3    H2 5493   0.263   2.970   9.763 -0.7494  0.6323  0.2230
  363TMC3    C7 5494   0.035   3.051   9.649  0.2809  0.0468  0.1778
  363TMC3    C8 5495   0.374   2.727   9.775 -0.1873 -0.1978 -0.5488
  363TMC3    O1 5496   4.655   3.072   9.620 -0.0368  0.2992  0.1758
  363TMC3    O2 5497   0.439   2.817   9.821  0.2874  0.1130 -0.6603
  364MPD2     C 5498   4.110   1.637   9.930  0.1418 -0.4381 -0.4409
  364MPD2    C1 5499   4.084   1.730  10.031 -0.5970  0.1903 -0.2320
  364MPD2    C2 5500   4.051   1.679  10.156 -0.4945 -0.2814 -0.0351
  364MPD2    C3 5501   4.035   1.542  10.176 -0.7469 -0.7770  0.7470
  364MPD2    C4 5502   4.042   1.449  10.070 -0.6605  0.3193  0.4560
  364MPD2    C5 5503   4.085   1.504   9.953  0.6610  0.2325 -0.1284
  364MPD2     H 5504   4.050   1.742  10.245  0.9511 -0.7896  0.3311
  364MPD2    H1 5505   4.000   1.352  10.089  1.3482 -0.5559  0.4399
  364MPD2    H2 5506   4.133   1.668   9.829 -0.6030  2.6397  0.3341
  364MPD2    H3 5507   4.074   1.435   9.870  1.5625  0.8285 -0.7354
  364MPD2     N 5508   4.005   1.494  10.306  0.4865 -0.0479  0.0459
  364MPD2    H5 5509   4.013   1.393  10.316  2.3614  0.0310 -0.7232
  364MPD2    N1 5510   4.114   1.867   9.999  0.9659 -0.0980  0.6523
  364MPD2    H7 5511   4.137   1.888   9.902 -1.4532  2.3816  0.6043
  365TMC3    C1 5512   4.179   2.089  10.055 -0.5952  0.3297 -0.3512
  365TMC3    C2 5513   4.316   2.066  10.021  0.3591 -0.1894  0.1313
  365TMC3    C3 5514   4.407   2.169  10.043 -0.0946  0.6544 -0.0735
  365TMC3    C4 5515   4.147   2.203  10.125 -0.1905  0.1029 -0.0336
  365TMC3    C5 5516   4.243   2.297  10.136  0.3034 -0.3139  0.1295
  365TMC3    C6 5517   4.375   2.279  10.112  0.3062 -0.1210 -0.1657
  365TMC3     C 5518   4.106   1.969  10.091  0.4823  0.1157 -0.2421
  365TMC3     O 5519   4.041   1.977  10.194  0.0888  0.5268  0.2006
  365TMC3     H 5520   4.348   1.978   9.966  0.3394 -0.1127 -0.0046
  365TMC3    H1 5521   4.041   2.217  10.143  0.0302 -1.0678  2.0583
  365TMC3    H2 5522   4.458   2.347  10.127  0.9404 -1.4699  2.5802
  365TMC3    C7 5523   4.209   2.420  10.214  0.2820  1.3265  0.3324
  365TMC3    C8 5524   4.549   2.125  10.062 -0.0682 -0.0487  0.1633
  365TMC3    O1 5525   4.276   2.520  10.203  1.0096  0.0154 -0.1452
  365TMC3    O2 5526   4.618   2.196  10.135 -0.0807 -0.4705 -0.0260
  366MPD2     C 5527   1.491   2.904  15.392 -0.3545  0.4553  0.6498
  366MPD2    C1 5528   1.593   2.988  15.347  0.5358 -0.2987 -0.1093
  366MPD2    C2 5529   1.724   2.940  15.346  0.4998 -0.4604 -0.4484
  366MPD2    C3 5530   1.755   2.809  15.372 -0.1050  0.6289  0.6355
  366MPD2    C4 5531   1.653   2.732  15.425 -0.5917 -0.0912 -0.0062
  366MPD2    C5 5532   1.522   2.776  15.436  0.7228  0.3666  0.7243
  366MPD2     H 5533   1.806   3.000  15.309  1.7708 -2.9102 -1.6536
  366MPD2    H1 5534   1.675   2.626  15.437 -1.0310  0.0449  2.0509
  366MPD2    H2 5535   1.388   2.934  15.402 -0.6391 -0.1815 -0.3710
  366MPD2    H3 5536   1.448   2.707  15.478  0.2287 -0.3926 -1.4103
  366MPD2     N 5537   1.889   2.765  15.355  0.4342  0.1709 -0.4615
  366MPD2    H5 5538   1.963   2.818  15.310  0.0661  3.1264  2.4300
  366MPD2    N1 5539   1.578   3.125  15.329  0.0914 -0.1168 -0.2059
  366MPD2    H7 5540   1.660   3.183  15.314  1.7853 -2.3990  0.3305
  367TMC3    C1 5541   1.491   3.333  15.326  0.2757  0.3870  0.1786
  367TMC3    C2 5542   1.591   3.381  15.405  0.1596 -0.3709  0.2570
  367TMC3    C3 5543   1.652   3.501  15.382  0.1407  0.4028  0.1611
  367TMC3    C4 5544   1.453   3.403  15.211  0.3184 -0.1176 -0.0460
  367TMC3    C5 5545   1.514   3.527  15.195  0.0527  0.4919  0.2179
  367TMC3    C6 5546   1.611   3.579  15.282  0.0474 -0.3083 -0.4690
  367TMC3     C 5547   1.458   3.193  15.323  0.6289 -0.0749  0.3756
  367TMC3     O 5548   1.343   3.150  15.296  0.3787 -0.2229 -0.2695
  367TMC3     H 5549   1.623   3.321  15.488 -0.4845  1.1527  1.6186
  367TMC3    H1 5550   1.376   3.351  15.153  0.8584 -2.8034  1.6397
  367TMC3    H2 5551   1.658   3.676  15.271  3.2635 -2.0135 -1.6765
  367TMC3    C7 5552   1.489   3.612  15.079 -0.8964  0.1732 -0.3337
  367TMC3    C8 5553   1.738   3.554  15.491  0.2019  0.0007  0.3934
  367TMC3    O1 5554   1.518   3.725  15.097  0.7756 -0.2858 -0.5800
  367TMC3    O2 5555   1.786   3.469  15.565 -0.1535 -0.2473  0.0604
  368MPD2     C 5556   3.600   0.528  13.538 -0.6571  0.2378  0.1924
  368MPD2    C1 5557   3.574   0.614  13.432  0.2619 -0.7188  0.2756
  368MPD2    C2 5558   3.629   0.580  13.307 -0.7349  0.5446 -0.0783
  368MPD2    C3 5559   3.709   0.467  13.289  0.4419  0.5751 -0.5766
  368MPD2    C4 5560   3.734   0.385  13.399 -0.1773 -0.6117  0.8259
  368MPD2    C5 5561   3.675   0.416  13.518 -0.1058  0.4224  0.3087
  368MPD2     H 5562   3.616   0.642  13.219  0.2308  1.3381  0.3520
  368MPD2    H1 5563   3.787   0.293  13.380  0.9022  0.1214  0.2631
  368MPD2    H2 5564   3.567   0.546  13.639  0.0784  1.3336  0.2468
  368MPD2    H3 5565   3.694   0.353  13.604  0.4307 -1.8358 -1.4721
  368MPD2     N 5566   3.757   0.432  13.165  0.6950  0.2297  0.4688
  368MPD2    H5 5567   3.811   0.347  13.158  1.2182  0.5734  0.3517
  368MPD2    N1 5568   3.488   0.728  13.456 -0.1431  0.7198  0.4905
  368MPD2    H7 5569   3.476   0.742  13.556  1.5434 -0.8413  0.8981
  369TMC3    C1 5570   3.391   0.769  13.239  0.2844 -0.3237  0.0432
  369TMC3    C2 5571   3.417   0.839  13.133 -0.3321 -0.1374 -0.1567
  369TMC3    C3 5572   3.363   0.806  13.016  0.3604 -0.0681  0.1209
  369TMC3    C4 5573   3.325   0.649  13.245  0.1284  0.1216 -0.3522
  369TMC3    C5 5574   3.297   0.605  13.119  1.0113 -0.1181  0.0922
  369TMC3    C6 5575   3.309   0.683  13.006 -0.2289  0.1086 -0.6016
  369TMC3     C 5576   3.444   0.821  13.364  0.3824  0.4708  0.1250
  369TMC3     O 5577   3.434   0.940  13.385 -0.6988  0.0045 -0.4079
  369TMC3     H 5578   3.465   0.936  13.145  0.3003 -0.3788 -0.7151
  369TMC3    H1 5579   3.305   0.597  13.338  2.8478  1.2090  0.8265
  369TMC3    H2 5580   3.261   0.651  12.914  0.6718 -1.1730 -0.6220
  369TMC3    C7 5581   3.210   0.493  13.114  0.2675  0.5217 -0.1828
  369TMC3    C8 5582   3.387   0.874  12.894 -0.1655  0.0625 -0.0606
  369TMC3    O1 5583   3.235   0.403  13.191 -0.1725  0.1883 -0.5363
  369TMC3    O2 5584   3.305   0.866  12.807  0.1503  0.0520 -0.3568
  370TMC3    C1 5585   2.422   1.258  16.340  0.0119  0.0060 -0.0355
  370TMC3    C2 5586   2.327   1.228  16.425 -0.3579 -0.7442 -0.1677
  370TMC3    C3 5587   2.272   1.103  16.418  0.1569  0.2139 -0.3611
  370TMC3    C4 5588   2.462   1.169  16.241 -0.9429 -0.2593 -0.1011
  370TMC3    C5 5589   2.388   1.052  16.221 -0.3095  0.6385  0.6771
  370TMC3    C6 5590   2.282   1.018  16.307  0.4749 -0.2388  0.4975
  370TMC3     C 5591   2.532   1.348  16.389 -0.1829 -0.0648  0.1179
  370TMC3     O 5592   2.522   1.394  16.500  0.1702 -0.6266  0.5776
  370TMC3     H 5593   2.301   1.295  16.506  0.6602 -0.2981 -0.2137
  370TMC3    H1 5594   2.549   1.190  16.181 -1.2145  1.6993  0.2099
  370TMC3    H2 5595   2.247   0.915  16.311  0.1296 -0.0574  2.2469
  370TMC3    C7 5596   2.439   0.951  16.138 -0.5684 -0.2910 -0.4885
  370TMC3    C8 5597   2.252   1.028  16.536  0.0072  0.1043 -0.0229
  370TMC3    O1 5598   2.556   0.972  16.102  0.1567  1.0303 -0.1022
  370TMC3    O2 5599   2.263   0.906  16.531  0.0656 -0.2491  0.4457
  371TMC3    C1 5600   3.456   4.355  15.310  1.1142  0.2538  0.0769
  371TMC3    C2 5601   3.410   4.367  15.441  0.4798  0.1035  0.2148
  371TMC3    C3 5602   3.500   4.418  15.526 -0.2322  0.0263 -0.8566
  371TMC3    C4 5603   3.578   4.394  15.262  0.8296 -0.1743 -0.4926
  371TMC3    C5 5604   3.659   4.445  15.355  0.2905 -0.4681  0.5139
  371TMC3    C6 5605   3.615   4.465  15.482 -0.2355  0.2942 -0.4372
  371TMC3     C 5606   3.358   4.293  15.218  0.7830  1.0847  0.3645
  371TMC3     O 5607   3.342   4.340  15.106  0.2582  0.2733 -0.5351
  371TMC3     H 5608   3.314   4.334  15.478  1.1768 -0.8548  1.1555
  371TMC3    H1 5609   3.610   4.373  15.160  0.5804  2.0813 -1.0373
  371TMC3    H2 5610   3.683   4.511  15.552  0.8068 -0.9792 -0.6166
  371TMC3    C7 5611   3.778   4.520  15.313 -0.1767 -0.3484  0.5383
  371TMC3    C8 5612   3.466   4.443  15.666 -0.1128  0.4970  0.3949
  371TMC3    O1 5613   3.838   4.589  15.394 -0.0318 -0.9092 -0.1435
  371TMC3    O2 5614   3.571   4.425  15.733 -0.0228 -0.0000 -0.7645
  372MPD2     C 5615   3.069   0.818  13.488 -0.6412  0.1931 -0.2712
  372MPD2    C1 5616   3.170   0.797  13.583 -0.1778 -0.2833  0.1489
  372MPD2    C2 5617   3.203   0.671  13.618  0.0644  0.4954  0.2960
  372MPD2    C3 5618   3.148   0.564  13.552  0.4809 -0.3189 -0.6041
  372MPD2    C4 5619   3.042   0.577  13.462  0.7130 -0.0076 -0.2673
  372MPD2    C5 5620   3.008   0.706  13.435 -0.0962 -0.6448 -0.6058
  372MPD2     H 5621   3.272   0.651  13.699  0.8573  0.8027 -0.2914
  372MPD2    H1 5622   2.991   0.491  13.420 -1.3529  0.5449  1.1412
  372MPD2    H2 5623   3.032   0.914  13.456 -0.5545  0.1122 -0.6125
  372MPD2    H3 5624   2.932   0.723  13.360  0.1066 -3.6281 -1.4945
  372MPD2     N 5625   3.188   0.433  13.594 -0.2157 -0.0248  0.8768
  372MPD2    H5 5626   3.267   0.424  13.657  0.3177  0.9009  0.3354
  372MPD2    N1 5627   3.245   0.898  13.642 -0.2156  0.1216 -0.2197
  372MPD2    H7 5628   3.314   0.869  13.711 -0.3531  0.9837  0.2847
  373TMC3    C1 5629   3.172   0.205  13.632  0.0261 -0.1780 -0.6683
  373TMC3    C2 5630   3.171   0.233  13.759  0.4032 -0.2594  0.4502
  373TMC3    C3 5631   3.228   0.143  13.838  0.0428  0.3556 -0.1558
  373TMC3    C4 5632   3.225   0.091  13.579 -0.1908  0.6613  0.8364
  373TMC3    C5 5633   3.292   0.003  13.666 -0.1772 -0.5095  0.1853
  373TMC3    C6 5634   3.292   0.022  13.809  0.1252  0.0757 -1.1022
  373TMC3     C 5635   3.118   0.315  13.558 -0.5827 -1.0058  0.1086
  373TMC3     O 5636   3.052   0.287  13.458 -0.2793  0.1839 -0.3508
  373TMC3     H 5637   3.121   0.316  13.808 -0.0380  0.3813 -1.0750
  373TMC3    H1 5638   3.236   0.077  13.472  1.0661  0.3714  0.9984
  373TMC3    H2 5639   3.345   4.690  13.875 -0.4209  1.7965  1.0768
  373TMC3    C7 5640   3.334   4.613  13.598 -0.0065 -0.1629  0.4820
  373TMC3    C8 5641   3.231   0.187  13.974  0.2420  0.1722 -0.6412
  373TMC3    O1 5642   3.354   4.620  13.476 -0.3758 -0.0680  0.4716
  373TMC3    O2 5643   3.207   0.304  14.006  0.6827 -0.1543  0.8674
  374TMC3    C1 5644   4.225   0.365   9.934 -0.1258  0.1916  0.0443
  374TMC3    C2 5645   4.335   0.438   9.934  0.8804  0.2073  0.7446
  374TMC3    C3 5646   4.417   0.435   9.823 -0.3277  0.1424  0.2944
  374TMC3    C4 5647   4.203   0.286   9.822  0.4969 -0.2777 -0.3201
  374TMC3    C5 5648   4.292   0.276   9.720  0.9661  0.0370  0.2707
  374TMC3    C6 5649   4.400   0.358   9.713  0.4744 -0.3273 -0.2439
  374TMC3     C 5650   4.128   0.369  10.045  0.1438  0.1564  0.0259
  374TMC3     O 5651   4.155   0.442  10.140  0.1328 -0.4823 -0.0737
  374TMC3     H 5652   4.341   0.520  10.005  2.6104 -2.1305  3.3092
  374TMC3    H1 5653   4.109   0.233   9.816  0.4877 -0.4275  1.0701
  374TMC3    H2 5654   4.476   0.354   9.636 -0.8181 -0.9124 -1.4847
  374TMC3    C7 5655   4.250   0.191   9.606  0.2645  0.0588  0.5356
  374TMC3    C8 5656   4.541   0.517   9.824  0.3088 -0.6250  0.1089
  374TMC3    O1 5657   4.187   0.092   9.633 -0.3350 -0.4723 -0.1223
  374TMC3    O2 5658   4.604   0.523   9.721  0.3128 -0.0094 -0.1222
  375MPD2     C 5659   3.832   1.870  17.440  0.4368 -0.5153  0.3102
  375MPD2    C1 5660   3.742   1.858  17.332 -0.0733  0.0248 -0.3510
  375MPD2    C2 5661   3.783   1.794  17.218  0.0290 -0.8632 -0.4432
  375MPD2    C3 5662   3.910   1.742  17.208  0.0247  0.2549 -0.1679
  375MPD2    C4 5663   3.993   1.748  17.311 -0.2425  0.5139 -0.0089
  375MPD2    C5 5664   3.955   1.807  17.428 -0.6652 -0.2783  0.0079
  375MPD2     H 5665   3.711   1.771  17.140 -1.2721  1.9500 -0.0904
  375MPD2    H1 5666   4.096   1.714  17.308 -0.2653  0.4915 -0.4843
  375MPD2    H2 5667   3.812   1.917  17.536  0.1452  1.0357 -0.5263
  375MPD2    H3 5668   4.034   1.823  17.501 -0.4754 -0.3377 -0.1848
  375MPD2     N 5669   3.953   1.665  17.101 -0.0007 -0.7800 -0.1702
  375MPD2    H5 5670   4.032   1.605  17.123  0.8585  0.4382  0.1088
  375MPD2    N1 5671   3.601   1.888  17.338  0.1896  0.2243  0.3342
  375MPD2    H7 5672   3.545   1.872  17.255  0.1702  1.3370  0.1326
  376TMC3    C1 5673   3.981   1.595  16.883 -0.5475  0.5681 -0.4818
  376TMC3    C2 5674   4.110   1.556  16.911  0.1296 -0.2670  0.3260
  376TMC3    C3 5675   4.168   1.471  16.829 -0.1008 -0.6424 -0.2892
  376TMC3    C4 5676   3.908   1.553  16.776 -0.0639  0.8807 -0.7488
  376TMC3    C5 5677   3.971   1.462  16.695 -0.0618  0.0332  0.1035
  376TMC3    C6 5678   4.103   1.419  16.717  0.8523 -0.1988  0.6037
  376TMC3     C 5679   3.904   1.667  16.978  0.3785  0.1413 -0.2128
  376TMC3     O 5680   3.804   1.731  16.941  0.1363  0.0621 -0.0771
  376TMC3     H 5681   4.169   1.618  16.978 -1.7359  1.7389  0.0975
  376TMC3    H1 5682   3.816   1.602  16.746  0.7656  0.8150 -3.3164
  376TMC3    H2 5683   4.161   1.376  16.637 -1.9163 -1.2118 -0.8200
  376TMC3    C7 5684   3.918   1.452  16.561 -0.7646 -0.6216  0.0462
  376TMC3    C8 5685   4.308   1.490  16.811 -0.4982  0.4874 -0.2498
  376TMC3    O1 5686   3.862   1.550  16.513 -0.0202 -0.0667 -0.1125
  376TMC3    O2 5687   4.346   1.608  16.814  0.1117 -0.0452  0.4652
  377MPD2     C 5688   2.928   0.869  12.919  0.4342 -0.5020  0.7420
  377MPD2    C1 5689   2.839   0.909  12.819  0.0520 -0.5923 -0.2948
  377MPD2    C2 5690   2.707   0.870  12.819  0.0577  0.5890  0.4963
  377MPD2    C3 5691   2.666   0.778  12.923  0.5767  0.5443  0.4143
  377MPD2    C4 5692   2.763   0.733  13.017  0.4004  0.9023  0.1276
  377MPD2    C5 5693   2.891   0.781  13.016 -0.2177 -0.3260 -0.2219
  377MPD2     H 5694   2.643   0.895  12.735  2.4683 -1.2320 -1.8699
  377MPD2    H1 5695   2.749   0.647  13.080 -1.2356  1.7259  0.8880
  377MPD2    H2 5696   3.033   0.885  12.900 -0.4387 -1.0553 -4.3634
  377MPD2    H3 5697   2.963   0.744  13.088 -0.9554 -2.7342 -0.6958
  377MPD2     N 5698   2.544   0.712  12.921 -0.2762  0.0938  0.3895
  377MPD2    H5 5699   2.542   0.621  12.966  0.6705  0.8452  1.9311
  377MPD2    N1 5700   2.895   0.986  12.716 -0.0562  0.1488  0.2589
  377MPD2    H7 5701   2.996   0.999  12.716 -0.1337  0.7542 -1.4115
  378TMC3    C1 5702   2.890   1.034  12.254  0.6266 -0.4353 -0.1933
  378TMC3    C2 5703   2.852   1.082  12.374  0.1417 -0.6228 -0.6918
  378TMC3    C3 5704   2.918   1.034  12.484 -0.0173  0.7461  0.6135
  378TMC3    C4 5705   2.983   0.933  12.237  0.4497 -0.1268 -0.2366
  378TMC3    C5 5706   3.049   0.886  12.355  0.3879 -0.0765 -1.0168
  378TMC3    C6 5707   3.018   0.935  12.482  0.7168  0.1248 -0.0080
  378TMC3     C 5708   2.784   1.041  12.153 -0.1908  0.3072  0.1407
  378TMC3     O 5709   2.683   1.083  12.198  0.1996  0.0992 -0.1824
  378TMC3     H 5710   2.772   1.153  12.387 -0.1687 -0.9523 -0.7939
  378TMC3    H1 5711   3.036   0.926  12.142 -2.0837  1.5797 -1.7933
  378TMC3    H2 5712   3.066   0.906  12.574 -2.5497 -1.0855  1.2898
  378TMC3    C7 5713   3.162   0.798  12.351 -0.1059  0.7633 -0.1349
  378TMC3    C8 5714   2.835   1.031  12.605  0.6655 -0.2903 -0.1793
  378TMC3    O1 5715   3.230   0.796  12.457 -0.0900  0.0611 -0.1135
  378TMC3    O2 5716   2.718   1.067  12.602 -0.3033 -0.2083 -0.0896
  379MPD2     C 5717   2.684   4.012  16.282  0.3537  0.2367 -0.6719
  379MPD2    C1 5718   2.618   3.912  16.347  0.1701  0.2299 -0.7448
  379MPD2    C2 5719   2.672   3.834  16.446  0.8136 -0.0025  0.0352
  379MPD2    C3 5720   2.796   3.871  16.488 -0.5618  0.3889  0.4959
  379MPD2    C4 5721   2.868   3.968  16.421  0.0942 -0.4684 -0.2377
  379MPD2    C5 5722   2.814   4.036  16.318 -0.4828  0.1476 -0.2225
  379MPD2     H 5723   2.617   3.757  16.500 -0.5695  0.8451 -0.1464
  379MPD2    H1 5724   2.969   3.994  16.453  0.0985  0.1542 -0.7506
  379MPD2    H2 5725   2.654   4.078  16.201  1.1218  1.8513  0.3397
  379MPD2    H3 5726   2.870   4.111  16.263 -2.3337  0.8505 -1.1339
  379MPD2     N 5727   2.853   3.813  16.595 -0.0774  0.0531  0.1523
  379MPD2    H5 5728   2.954   3.815  16.602  0.2214  0.5709 -4.4201
  379MPD2    N1 5729   2.489   3.883  16.290 -0.0892 -0.1122  0.9366
  379MPD2    H7 5730   2.464   3.936  16.207  1.3389  0.8616  1.1263
  380TMC3    C1 5731   2.322   3.728  16.227 -0.1990  0.2935 -0.2846
  380TMC3    C2 5732   2.346   3.595  16.187 -0.2343  0.3044 -0.0606
  380TMC3    C3 5733   2.288   3.552  16.073  0.2751  0.5268  0.2518
  380TMC3    C4 5734   2.276   3.822  16.141 -0.5450  0.3427 -0.4513
  380TMC3    C5 5735   2.233   3.774  16.014 -0.6638  0.3134  0.1747
  380TMC3    C6 5736   2.238   3.643  15.982 -0.3248  0.3552 -0.2670
  380TMC3     C 5737   2.416   3.771  16.330 -0.0658 -0.5413  0.0138
  380TMC3     O 5738   2.416   3.702  16.430  0.2059  0.2575 -0.0763
  380TMC3     H 5739   2.403   3.534  16.256 -0.0951  0.9313  0.3771
  380TMC3    H1 5740   2.255   3.924  16.170 -1.4625  0.0745 -0.1561
  380TMC3    H2 5741   2.237   3.620  15.876 -1.2369  0.4471 -0.2774
  380TMC3    C7 5742   2.155   3.861  15.924 -0.4848  0.2158 -1.2484
  380TMC3    C8 5743   2.348   3.439  16.009  0.2822 -0.3460 -0.6284
  380TMC3    O1 5744   2.164   3.981  15.933  0.1699 -0.3884 -0.6587
  380TMC3    O2 5745   2.330   3.427  15.891 -0.4011 -0.5827  0.6710
  381TMC3    C1 5746   2.211   0.387  16.339 -0.2851  0.6174 -0.1857
  381TMC3    C2 5747   2.323   0.463  16.312 -0.5174 -0.3688 -0.2469
  381TMC3    C3 5748   2.364   0.555  16.408 -0.2607  0.3282  0.4138
  381TMC3    C4 5749   2.152   0.401  16.460  0.2902  0.4709 -0.0194
  381TMC3    C5 5750   2.194   0.494  16.549  0.3427  0.4677  0.2162
  381TMC3    C6 5751   2.302   0.579  16.529 -0.0081 -0.7573 -0.1703
  381TMC3     C 5752   2.141   0.325  16.227  0.4025 -0.7893  1.0124
  381TMC3     O 5753   2.025   0.359  16.227  0.2649 -0.4152 -0.1963
  381TMC3     H 5754   2.378   0.451  16.219  0.4459  2.4973 -0.0287
  381TMC3    H1 5755   2.064   0.342  16.481  2.5682 -2.3997  1.4791
  381TMC3    H2 5756   2.348   0.640  16.605 -1.1362  1.0377 -0.9385
  381TMC3    C7 5757   2.160   0.457  16.683 -0.1635 -0.1446 -0.0583
  381TMC3    C8 5758   2.493   0.619  16.368  0.1338 -0.0820  0.2559
  381TMC3    O1 5759   2.150   0.337  16.696 -0.8959  0.2329 -0.2712
  381TMC3    O2 5760   2.582   0.555  16.312  0.3571 -0.2327  0.0385
  382MPD2     C 5761   1.827   3.108  16.922  0.3786 -0.1389  0.3816
  382MPD2    C1 5762   1.774   3.167  17.029  0.3512 -0.0077  0.0462
  382MPD2    C2 5763   1.678   3.101  17.095 -0.0316  1.2212 -0.4820
  382MPD2    C3 5764   1.637   2.976  17.064  0.1887  0.0378 -0.1553
  382MPD2    C4 5765   1.692   2.917  16.952 -0.5207 -0.1693  0.3937
  382MPD2    C5 5766   1.791   2.986  16.888 -0.4209  0.3247  0.3415
  382MPD2     H 5767   1.631   3.163  17.170 -0.9490 -1.3003  1.0561
  382MPD2    H1 5768   1.673   2.818  16.913 -3.2354 -0.1876  1.7635
  382MPD2    H2 5769   1.886   3.170  16.856  1.1704 -1.1287  0.1612
  382MPD2    H3 5770   1.819   2.951  16.789 -1.6723 -0.6121  0.3134
  382MPD2     N 5771   1.540   2.911  17.144  0.0695 -0.1428  0.2032
  382MPD2    H5 5772   1.518   2.815  17.118  1.1854  0.1758 -1.8825
  382MPD2    N1 5773   1.814   3.296  17.075  0.1822  0.4690  0.1590
  382MPD2    H7 5774   1.765   3.331  17.157 -2.0854 -2.4955  0.0857
  383TMC3    C1 5775   1.429   2.846  17.349  0.0780  0.4717 -0.0134
  383TMC3    C2 5776   1.374   2.743  17.284  0.3043 -0.1497 -0.3273
  383TMC3    C3 5777   1.328   2.636  17.354  0.1000  0.4198 -0.2723
  383TMC3    C4 5778   1.447   2.849  17.488  0.3728  0.3148 -0.1146
  383TMC3    C5 5779   1.406   2.739  17.552 -0.2685 -0.7011 -0.9429
  383TMC3    C6 5780   1.344   2.626  17.490  0.0748  0.0867  0.4450
  383TMC3     C 5781   1.506   2.943  17.276  0.3038  0.1468  0.6895
  383TMC3     O 5782   1.555   3.031  17.347 -0.0034  0.3152 -0.7347
  383TMC3     H 5783   1.353   2.746  17.178  1.3295 -0.1269 -0.5371
  383TMC3    H1 5784   1.493   2.928  17.547  1.5326  0.1877 -0.8529
  383TMC3    H2 5785   1.320   2.538  17.549 -0.5269  1.2090  1.8846
  383TMC3    C7 5786   1.401   2.746  17.697 -0.4492  0.4268  0.1436
  383TMC3    C8 5787   1.231   2.550  17.290 -0.5905 -0.3834 -0.0395
  383TMC3    O1 5788   1.409   2.857   0.004  0.2275 -0.0243 -0.0849
  383TMC3    O2 5789   1.156   2.601  17.206 -0.4113 -0.6177 -0.6092
  384MPD2     C 5790   3.610   3.560  11.815 -0.6608 -0.2504  0.5672
  384MPD2    C1 5791   3.618   3.462  11.908 -0.3563 -0.0602  0.1674
  384MPD2    C2 5792   3.618   3.332  11.860  0.2653 -0.1885  0.5287
  384MPD2    C3 5793   3.610   3.294  11.728 -0.2139  1.1887  0.0103
  384MPD2    C4 5794   3.599   3.398  11.640  0.5320  0.3017 -0.9337
  384MPD2    C5 5795   3.602   3.529  11.680 -0.2826  0.3661 -0.6448
  384MPD2     H 5796   3.629   3.251  11.931 -0.0232  0.5252  1.3977
  384MPD2    H1 5797   3.586   3.378  11.535  0.1539 -1.1107 -0.6254
  384MPD2    H2 5798   3.608   3.660  11.859 -1.0011  0.6308 -1.4403
  384MPD2    H3 5799   3.607   3.605  11.603  0.2134  0.3579 -0.6167
  384MPD2     N 5800   3.604   3.159  11.694 -0.6371  0.2638 -0.3950
  384MPD2    H5 5801   3.637   3.097  11.767 -0.8888  3.4383  2.4461
  384MPD2    N1 5802   3.633   3.474  12.043 -0.6558  0.6564  0.2068
  384MPD2    H7 5803   3.659   3.388  12.091  0.3709  1.4095  1.0034
  385TMC3    C1 5804   3.670   2.975  11.574 -0.0155  0.7486 -0.9746
  385TMC3    C2 5805   3.593   2.862  11.556  0.7071  0.2579  0.2669
  385TMC3    C3 5806   3.640   2.752  11.621 -0.5701 -0.3996 -0.2854
  385TMC3    C4 5807   3.783   2.981  11.653 -0.1912  0.3171 -0.4554
  385TMC3    C5 5808   3.819   2.871  11.719 -0.1454  0.0145  0.8430
  385TMC3    C6 5809   3.746   2.759  11.708  0.3230  0.9680  0.1469
  385TMC3     C 5810   3.598   3.105  11.573  0.4950  0.2237  0.8990
  385TMC3     O 5811   3.551   3.146  11.470  0.2289 -0.3522  0.6613
  385TMC3     H 5812   3.506   2.869  11.492  1.8336 -1.2132 -1.4294
  385TMC3    H1 5813   3.838   3.070  11.681  1.2928 -0.6666 -0.2862
  385TMC3    H2 5814   3.767   2.675  11.773 -2.2547  0.8323  0.8170
  385TMC3    C7 5815   3.823   2.920  11.853  0.0086  0.1816  0.0278
  385TMC3    C8 5816   3.565   2.625  11.609  0.1935 -0.4193  0.2126
  385TMC3    O1 5817   3.743   3.012  11.876  0.6743 -0.4154 -0.0248
  385TMC3    O2 5818   3.571   2.543  11.704 -0.1683 -0.1149 -0.3254
  386TMC3    C1 5819   4.149   0.558  11.584  0.2445  0.3198  0.3506
  386TMC3    C2 5820   4.144   0.513  11.453 -0.4615 -0.0467  0.1053
  386TMC3    C3 5821   4.040   0.540  11.378  0.3432  0.7248  0.2814
  386TMC3    C4 5822   4.061   0.646  11.634 -0.8194  0.0877  0.2770
  386TMC3    C5 5823   3.957   0.676  11.556 -0.2924 -0.2435  0.7605
  386TMC3    C6 5824   3.941   0.628  11.428  0.2906 -0.6493 -0.7947
  386TMC3     C 5825   4.263   0.534  11.660 -0.4440  0.2339 -0.3308
  386TMC3     O 5826   4.287   0.620  11.743  0.0536  0.7670 -0.0377
  386TMC3     H 5827   4.223   0.454  11.406  0.5222  1.3315  0.0107
  386TMC3    H1 5828   4.055   0.680  11.737  0.2392  1.3979 -0.0933
  386TMC3    H2 5829   3.850   0.637  11.371  0.4208 -1.0718 -1.0710
  386TMC3    C7 5830   3.864   0.775  11.608  0.2922  0.7754  0.2254
  386TMC3    C8 5831   4.045   0.486  11.247 -0.2602  0.0677 -0.1974
  386TMC3    O1 5832   3.880   0.833  11.715  0.0816 -0.6028 -0.1206
  386TMC3    O2 5833   4.086   0.373  11.230  0.4506  0.2929 -0.0925
  387MPD2     C 5834   0.917   4.727   9.602  0.9067  0.7113 -0.5401
  387MPD2    C1 5835   1.024   4.674   9.542  0.3171 -0.5671 -0.6049
  387MPD2    C2 5836   1.019   4.544   9.492 -0.0101 -0.1934 -0.6922
  387MPD2    C3 5837   0.903   4.472   9.513 -0.4853 -0.4098  0.3510
  387MPD2    C4 5838   0.789   4.531   9.561  0.4054  0.8029  0.1437
  387MPD2    C5 5839   0.795   4.662   9.602  0.2416 -0.4424 -0.2770
  387MPD2     H 5840   1.098   4.491   9.441  0.7638  1.4919 -1.2508
  387MPD2    H1 5841   0.697   4.475   9.570  2.0999 -2.3117 -1.7089
  387MPD2    H2 5842   0.919   0.090   9.649  0.8128 -0.4340  1.8686
  387MPD2    H3 5843   0.707   4.704   9.649 -0.0234 -0.6288 -0.6087
  387MPD2     N 5844   0.906   4.331   9.479 -0.0154  0.4790  0.2322
  387MPD2    H5 5845   0.995   4.303   9.440  0.8791  1.1153  1.7990
  387MPD2    N1 5846   1.152   4.730   9.532  0.2030 -0.8005 -0.1781
  387MPD2    H7 5847   1.222   4.687   9.473 -0.1280  0.2510 -1.3533
  388TMC3    C1 5848   1.332   0.141   9.591 -0.8514  0.2544 -0.4534
  388TMC3    C2 5849   1.369   0.244   9.677 -0.4288 -0.2384 -0.0105
  388TMC3    C3 5850   1.505   0.234   9.717 -0.0204 -0.6781  0.0554
  388TMC3    C4 5851   1.411   0.040   9.558  0.8115  0.6784  0.2625
  388TMC3    C5 5852   1.538   0.032   9.614 -0.7244 -0.1627  0.4177
  388TMC3    C6 5853   1.590   0.129   9.690  0.1757  0.1265 -0.3952
  388TMC3     C 5854   1.186   0.119   9.590 -0.2120 -0.2312  0.8048
  388TMC3     O 5855   1.125   0.202   9.652  0.3998  0.2168  0.5899
  388TMC3     H 5856   1.298   0.311   9.724 -1.1162 -1.1583  0.2782
  388TMC3    H1 5857   1.379   4.700   9.487  2.2322  1.5399 -1.2959
  388TMC3    H2 5858   1.682   0.101   9.739 -1.3496  0.0672  2.4288
  388TMC3    C7 5859   1.594   4.635   9.624  0.5034 -0.5625  0.1740
  388TMC3    C8 5860   1.546   0.339   9.802  0.4369  1.1214 -0.3314
  388TMC3    O1 5861   1.703   4.620   9.677 -0.3578 -0.8185  0.0130
  388TMC3    O2 5862   1.465   0.423   9.837  0.1541  0.0743 -0.4138
  389MPD2     C 5863   1.046   4.052  10.891 -0.8703  0.3046  0.7279
  389MPD2    C1 5864   0.950   3.961  10.886 -0.4300 -0.2673  0.2620
  389MPD2    C2 5865   0.892   3.923  11.011  0.7920 -0.7116  0.6654
  389MPD2    C3 5866   0.928   3.983  11.126  0.9240  0.2209 -0.2230
  389MPD2    C4 5867   1.020   4.086  11.129  0.1347 -0.2383 -0.4721
  389MPD2    C5 5868   1.082   4.121  11.009 -0.2383 -0.4128  0.0644
  389MPD2     H 5869   0.824   3.839  11.004 -0.4287  0.4890 -1.6984
  389MPD2    H1 5870   1.029   4.136  11.225  0.3713  0.1717 -0.7061
  389MPD2    H2 5871   1.090   4.073  10.794  1.1193 -0.2382  1.5212
  389MPD2    H3 5872   1.154   4.202  11.010 -0.0476 -0.5837  0.2658
  389MPD2     N 5873   0.881   3.942  11.255  0.8846  0.5302 -0.3003
  389MPD2    H5 5874   0.925   3.987  11.334  1.2190  0.8162 -0.6446
  389MPD2    N1 5875   0.908   3.914  10.753  0.3759 -0.4368 -0.7792
  389MPD2    H7 5876   0.960   3.944  10.671 -1.2530 -0.6575 -1.8917
  390TMC3    C1 5877   0.796   3.794  11.413  0.1556 -0.3579 -0.6602
  390TMC3    C2 5878   0.767   3.662  11.438  0.1176  0.1200  0.2760
  390TMC3    C3 5879   0.738   3.633  11.571 -0.6137  0.4635  0.8976
  390TMC3    C4 5880   0.806   3.897  11.503 -0.7319 -0.4758 -0.7447
  390TMC3    C5 5881   0.785   3.859  11.634  0.2652 -0.1299  0.0549
  390TMC3    C6 5882   0.751   3.728  11.667  0.3882  0.3088  0.0010
  390TMC3     C 5883   0.801   3.836  11.275  0.1521 -0.1801  0.3004
  390TMC3     O 5884   0.749   3.757  11.197 -0.3625  0.1207  0.3583
  390TMC3     H 5885   0.761   3.589  11.357  3.0341  0.9443 -0.6670
  390TMC3    H1 5886   0.818   4.001  11.477 -2.6604 -0.1437 -0.3118
  390TMC3    H2 5887   0.725   3.705  11.770 -1.1094  1.0180 -0.2165
  390TMC3    C7 5888   0.706   3.957  11.703 -0.4651  0.7033  0.3122
  390TMC3    C8 5889   0.639   3.528  11.589 -0.1330  0.1410 -0.0553
  390TMC3    O1 5890   0.747   4.068  11.704  0.5180 -0.4397  0.2169
  390TMC3    O2 5891   0.584   3.488  11.486 -0.0065 -0.3076  0.0602
  391MPD2     C 5892   0.074   0.639  11.390 -0.2587  0.2937  0.2489
  391MPD2    C1 5893   0.188   0.693  11.345  0.1530  0.1592  0.3317
  391MPD2    C2 5894   0.207   0.709  11.213  0.2916 -0.7921 -0.1974
  391MPD2    C3 5895   0.118   0.662  11.119 -0.1092 -0.4541 -0.3109
  391MPD2    C4 5896   4.730   0.596  11.166 -0.4304  0.0462 -0.4852
  391MPD2    C5 5897   4.713   0.588  11.304  0.2080  0.1644  0.3892
  391MPD2     H 5898   0.294   0.755  11.168 -0.7060  0.3007 -0.9947
  391MPD2    H1 5899   4.651   0.553  11.106 -1.3027  0.5058  0.3261
  391MPD2    H2 5900   0.049   0.630  11.496  1.7494 -0.2524  0.6684
  391MPD2    H3 5901   4.629   0.535  11.347 -0.2540  0.9388  0.4526
  391MPD2     N 5902   0.149   0.682  10.981  0.0109  0.0289  0.0884
  391MPD2    H5 5903   0.245   0.714  10.969 -0.2526  0.3890 -1.1163
  391MPD2    N1 5904   0.284   0.730  11.441 -0.4566 -0.2651 -0.1124
  391MPD2    H7 5905   0.266   0.702  11.537 -0.7816  2.7049  0.6959
  392TMC3    C1 5906   0.131   0.722  10.756  0.9188 -0.4653 -0.0270
  392TMC3    C2 5907   0.065   0.698  10.638  0.7153  0.0741  0.4869
  392TMC3    C3 5908   0.130   0.739  10.525  0.4089 -0.3226 -0.4109
  392TMC3    C4 5909   0.260   0.777  10.760  0.4215  0.1178 -0.0003
  392TMC3    C5 5910   0.319   0.817  10.643  0.4129  0.4164 -0.0992
  392TMC3    C6 5911   0.256   0.801  10.520 -0.3719  0.2987  0.0735
  392TMC3     C 5912   0.068   0.665  10.877  0.3728 -0.2403 -0.4263
  392TMC3     O 5913   4.692   0.617  10.870 -0.1751  0.0872 -0.0538
  392TMC3     H 5914   4.698   0.663  10.640  0.2879  1.2612 -0.7767
  392TMC3    H1 5915   0.307   0.815  10.850 -0.6031  0.6370  0.3189
  392TMC3    H2 5916   0.295   0.835  10.426 -2.1522  0.9667 -0.4218
  392TMC3    C7 5917   0.454   0.859  10.649 -0.0557 -0.1811 -0.8145
  392TMC3    C8 5918   0.061   0.704  10.406 -0.7023 -0.7181 -0.4382
  392TMC3    O1 5919   0.503   0.894  10.757 -0.0793  0.2338 -0.5198
  392TMC3    O2 5920   4.697   0.635  10.406  0.4180 -0.3390  0.1548
  393TMC3    C1 5921   3.787   2.856  10.261 -0.2794  0.6590 -0.1782
  393TMC3    C2 5922   3.703   2.757  10.301 -0.2952  0.1198 -0.3351
  393TMC3    C3 5923   3.734   2.638  10.243 -0.2394  0.5008 -0.0723
  393TMC3    C4 5924   3.908   2.838  10.199  1.0006  0.6249 -0.1090
  393TMC3    C5 5925   3.930   2.712  10.154  0.3658 -0.6952 -0.1716
  393TMC3    C6 5926   3.845   2.611  10.171  0.3919  0.3235  0.4083
  393TMC3     C 5927   3.776   2.981  10.331 -0.7901 -0.2763  0.2511
  393TMC3     O 5928   3.658   3.014  10.347 -0.5431  0.4784 -0.4795
  393TMC3     H 5929   3.609   2.776  10.350  0.1688  1.5071  0.0017
  393TMC3    H1 5930   3.959   2.927  10.164  1.1879  0.5946  0.0893
  393TMC3    H2 5931   3.870   2.515  10.128  0.9273 -0.4057  2.3441
  393TMC3    C7 5932   4.016   2.685  10.043 -0.3681  0.2266 -0.2290
  393TMC3    C8 5933   3.635   2.531  10.251 -0.1459 -0.4447  0.7639
  393TMC3    O1 5934   4.010   2.589   9.969 -0.6835  0.1444 -0.1164
  393TMC3    O2 5935   3.641   2.451  10.156 -0.3288  0.1547 -0.2203
  394TMC3    C1 5936   0.774   3.815  10.586  0.2974 -0.0442 -0.1683
  394TMC3    C2 5937   0.684   3.720  10.545 -0.1720 -0.1524  0.0049
  394TMC3    C3 5938   0.643   3.714  10.414 -0.1528 -0.3288  0.3173
  394TMC3    C4 5939   0.825   3.909  10.502 -0.2939 -0.6823  0.7943
  394TMC3    C5 5940   0.808   3.875  10.364  0.5184 -0.3496  0.2855
  394TMC3    C6 5941   0.708   3.792  10.323 -0.8014  0.3133  0.2364
  394TMC3     C 5942   0.801   3.827  10.730 -0.1834 -0.3183  0.5112
  394TMC3     O 5943   0.734   3.765  10.809  0.1852 -0.3444 -0.3442
  394TMC3     H 5944   0.647   3.654  10.623  0.4410 -0.4153  0.0743
  394TMC3    H1 5945   0.884   3.995  10.531  0.5789 -0.7104 -0.9232
  394TMC3    H2 5946   0.682   3.792  10.218 -0.7368  1.2690  0.2239
  394TMC3    C7 5947   0.870   3.967  10.272  0.6270 -0.1287 -0.5928
  394TMC3    C8 5948   0.632   3.571  10.382 -0.1651  0.2799 -0.6617
  394TMC3    O1 5949   0.821   3.989  10.160 -0.3646 -0.0334  0.2224
  394TMC3    O2 5950   0.664   3.489  10.466  0.4890 -0.0872 -0.4931
  395TMC3    C1 5951   0.422   1.378  14.653 -0.2506 -0.6086  0.2846
  395TMC3    C2 5952   0.371   1.311  14.547  0.3429 -0.6812  0.1466
  395TMC3    C3 5953   0.414   1.356  14.424  0.2585 -0.4116  0.1810
  395TMC3    C4 5954   0.500   1.489  14.644 -0.2915 -0.7928  0.1924
  395TMC3    C5 5955   0.539   1.523  14.517  0.3569 -0.1126  0.4085
  395TMC3    C6 5956   0.505   1.455  14.399 -0.3372  0.3183 -0.4272
  395TMC3     C 5957   0.405   1.330  14.784 -0.3292 -1.1024  1.3724
  395TMC3     O 5958   0.391   1.419  14.868  0.1853  0.0716 -0.0547
  395TMC3     H 5959   0.301   1.229  14.560  0.6167 -0.9255  0.0938
  395TMC3    H1 5960   0.529   1.542  14.734 -3.4827  0.2337  0.6025
  395TMC3    H2 5961   0.529   1.495  14.302  0.0300  2.5687  0.5783
  395TMC3    C7 5962   0.637   1.631  14.510 -0.0545  0.0129 -0.5888
  395TMC3    C8 5963   0.319   1.350  14.323 -0.4392 -0.2646 -0.4814
  395TMC3    O1 5964   0.648   1.697  14.611 -0.0488 -0.2051  0.4927
  395TMC3    O2 5965   0.317   1.452  14.257  0.2445  0.8035  0.1974
  396MPD2     C 5966   4.234   2.180  16.936  0.2663  0.1492 -0.3350
  396MPD2    C1 5967   4.342   2.223  17.016 -0.3876 -0.4498 -0.0059
  396MPD2    C2 5968   4.403   2.348  16.990  0.0020  0.3198  0.6803
  396MPD2    C3 5969   4.358   2.425  16.887  0.4443  0.3019  0.5949
  396MPD2    C4 5970   4.255   2.375  16.807  0.6595  0.8797  0.7062
  396MPD2    C5 5971   4.193   2.252  16.831  0.7189 -0.3637 -0.2001
  396MPD2     H 5972   4.477   2.382  17.061  1.0926  1.1721 -0.8629
  396MPD2    H1 5973   4.213   2.426  16.721  2.2900  0.2746 -0.4694
  396MPD2    H2 5974   4.205   2.077  16.951 -1.7798  0.4473 -2.2455
  396MPD2    H3 5975   4.119   2.219  16.759  0.5203  2.1814 -1.1987
  396MPD2     N 5976   4.419   2.553  16.867 -0.2550 -1.7151  0.4357
  396MPD2    H5 5977   4.511   2.574  16.904 -0.4173  0.4909 -0.3901
  396MPD2    N1 5978   4.397   2.124  17.105 -0.1841 -0.0537 -0.4231
  396MPD2    H7 5979   4.357   2.031  17.098 -2.4324  0.7702  1.7277
  397TMC3    C1 5980   4.550   2.016  17.233  0.2275  0.4566 -0.5483
  397TMC3    C2 5981   4.662   1.988  17.166  0.4649 -0.1728 -0.0372
  397TMC3    C3 5982   4.659   1.883  17.082 -0.1684  0.1812 -0.4395
  397TMC3    C4 5983   4.452   1.917  17.244 -0.1768  1.3426 -0.3622
  397TMC3    C5 5984   4.477   1.795  17.187  1.1365  0.5231 -0.2767
  397TMC3    C6 5985   4.560   1.789  17.083  0.4313 -0.7752 -0.5187
  397TMC3     C 5986   4.506   2.149  17.190 -0.0658 -0.7627 -0.4156
  397TMC3     O 5987   4.566   2.249  17.213  0.0993  0.1211  0.5351
  397TMC3     H 5988   0.002   2.066  17.151  0.3280 -0.3408 -1.6234
  397TMC3    H1 5989   4.356   1.950  17.282  0.1255  2.4854 -0.5999
  397TMC3    H2 5990   4.558   1.702  17.019  3.1821 -1.5421  0.4182
  397TMC3    C7 5991   4.426   1.676  17.254 -0.9124 -0.1504  0.6042
  397TMC3    C8 5992   4.701   1.923  16.953  0.5542 -0.2627 -0.2611
  397TMC3    O1 5993   4.429   1.563  17.199  0.2524  0.4113 -0.0154
  397TMC3    O2 5994   4.631   1.879  16.860  0.1312 -0.0254  0.2636
  398MPD2     C 5995   2.852   4.350   0.331  0.3052  0.0145 -0.6456
  398MPD2    C1 5996   2.959   4.262   0.337 -0.8067  0.7927 -0.7553
  398MPD2    C2 5997   3.081   4.319   0.311 -0.0490  0.0057  0.3991
  398MPD2    C3 5998   3.098   4.449   0.272 -0.6993  0.0448 -0.0536
  398MPD2    C4 5999   2.986   4.530   0.276  0.0375  1.2144 -0.4123
  398MPD2    C5 6000   2.866   4.484   0.310 -0.3255 -0.0888 -0.4092
  398MPD2     H 6001   3.175   4.266   0.323 -0.5229 -0.9574 -0.1013
  398MPD2    H1 6002   2.987   4.636   0.252 -0.0816  1.3973  0.4100
  398MPD2    H2 6003   2.756   4.313   0.364  0.4832  0.8471  0.7833
  398MPD2    H3 6004   2.781   4.551   0.311  1.1905  1.8395 -1.3162
  398MPD2     N 6005   3.225   4.498   0.242  0.0285  0.0465 -0.2634
  398MPD2    H5 6006   3.303   4.436   0.258  2.3916  2.8592 -0.8879
  398MPD2    N1 6007   2.942   4.129   0.379 -0.8325 -0.4219 -0.8574
  398MPD2    H7 6008   3.026   4.076   0.400 -1.1804 -0.6148  0.0118
  399TMC3    C1 6009   2.839   3.937   0.439  0.1870 -0.5024 -0.6649
  399TMC3    C2 6010   2.950   3.896   0.508 -0.5155  0.3262  0.0401
  399TMC3    C3 6011   2.963   3.765   0.518 -1.0487  0.0430 -0.0924
  399TMC3    C4 6012   2.741   3.852   0.389 -0.9261 -0.4350 -0.3660
  399TMC3    C5 6013   2.752   3.721   0.428 -0.2905 -0.2733  0.3159
  399TMC3    C6 6014   2.864   3.676   0.493  0.4119  0.2280  0.2962
  399TMC3     C 6015   2.830   4.066   0.381  0.3414  0.2232 -1.0612
  399TMC3     O 6016   2.712   4.098   0.364  0.3930  0.2769  0.3606
  399TMC3     H 6017   3.022   3.963   0.553 -0.1557  0.2661 -0.4487
  399TMC3    H1 6018   2.644   3.882   0.349 -1.2743 -1.4863 -0.3298
  399TMC3    H2 6019   2.871   3.573   0.525  0.7488 -0.4781 -1.9993
  399TMC3    C7 6020   2.639   3.640   0.392 -0.0463 -0.1196 -0.6444
  399TMC3    C8 6021   3.081   3.721   0.594  0.0389  0.0241  0.1425
  399TMC3    O1 6022   2.568   3.663   0.295 -0.5713 -0.0033  0.3123
  399TMC3    O2 6023   3.143   3.803   0.665  0.1153 -0.3094  0.0321
  400TMC3    C1 6024   1.345   2.144  16.787 -0.1053 -0.2330  0.4550
  400TMC3    C2 6025   1.253   2.071  16.718 -0.1483  0.4450 -0.3503
  400TMC3    C3 6026   1.185   2.139  16.627 -0.5839  0.5902  0.7338
  400TMC3    C4 6027   1.400   2.261  16.734  0.1623  0.3371  0.1596
  400TMC3    C5 6028   1.335   2.322  16.629 -0.0215  0.9374  0.5032
  400TMC3    C6 6029   1.213   2.265  16.583 -0.0407 -0.1185  0.5955
  400TMC3     C 6030   1.400   2.091  16.915 -0.5868  0.1412 -0.0969
  400TMC3     O 6031   1.385   1.974  16.943 -0.0182 -0.0044  0.0190
  400TMC3     H 6032   1.220   1.981  16.768 -0.1607  0.3021 -0.6146
  400TMC3    H1 6033   1.493   2.301  16.773 -1.6488  1.9161  2.8274
  400TMC3    H2 6034   1.159   2.301  16.497 -1.6970  1.5006  2.3347
  400TMC3    C7 6035   1.350   2.470  16.614  0.0214 -0.9199  0.4287
  400TMC3    C8 6036   1.058   2.083  16.592 -0.3569  0.6370 -0.1894
  400TMC3    O1 6037   1.414   2.530  16.703  0.1584  0.1651 -0.0206
  400TMC3    O2 6038   0.965   2.158  16.584  0.1610  0.1628 -0.2039
  401MPD2     C 6039   3.889   1.132   0.752  0.3125  0.6537 -0.0841
  401MPD2    C1 6040   3.980   1.062   0.822 -0.0397 -0.4074 -0.0693
  401MPD2    C2 6041   3.992   0.925   0.803  0.1820  0.0602  0.2410
  401MPD2    C3 6042   3.922   0.857   0.710  0.3570 -0.1910 -0.2459
  401MPD2    C4 6043   3.835   0.930   0.637  0.3240 -0.0341  0.3936
  401MPD2    C5 6044   3.815   1.063   0.662  0.7892 -0.1536 -0.1262
  401MPD2     H 6045   4.070   0.873   0.858  1.7903  0.1424 -1.9437
  401MPD2    H1 6046   3.778   0.891   0.553 -1.3464  2.6110  0.2818
  401MPD2    H2 6047   3.882   1.239   0.767  1.0311  0.9423 -1.7700
  401MPD2    H3 6048   3.740   1.106   0.597 -0.4244 -3.3167 -0.7797
  401MPD2     N 6049   3.967   0.721   0.674  0.1170  0.3037  0.8487
  401MPD2    H5 6050   4.037   0.681   0.734 -0.1636 -1.6377 -0.1205
  401MPD2    N1 6051   4.075   1.122   0.895 -0.3346 -0.4993 -0.8549
  401MPD2    H7 6052   4.123   1.062   0.961 -1.0129 -0.4348 -0.3028
  402TMC3    C1 6053   4.001   0.532   0.534 -0.2969 -0.5530 -0.1981
  402TMC3    C2 6054   4.056   0.471   0.645  0.4582  0.0526 -0.0273
  402TMC3    C3 6055   4.156   0.380   0.621  0.2635 -0.4378  0.0664
  402TMC3    C4 6056   4.027   0.495   0.405 -0.5683 -0.1437 -0.1592
  402TMC3    C5 6057   4.126   0.403   0.390 -0.0005 -0.3606 -0.3134
  402TMC3    C6 6058   4.198   0.345   0.491  0.6281 -0.3297 -0.3881
  402TMC3     C 6059   3.929   0.657   0.557 -0.2820 -0.6821 -0.6478
  402TMC3     O 6060   3.883   0.709   0.457  0.4617 -0.1378  0.4790
  402TMC3     H 6061   4.017   0.488   0.744  3.6806  3.0023  0.7272
  402TMC3    H1 6062   3.958   0.522   0.325 -0.0833 -0.2990 -0.6291
  402TMC3    H2 6063   4.279   0.276   0.474  0.2576 -1.0854  0.9231
  402TMC3    C7 6064   4.118   0.323   0.265  0.6712  0.3458 -0.3820
  402TMC3    C8 6065   4.223   0.301   0.727  0.3487 -0.4197  0.8200
  402TMC3    O1 6066   4.004   0.311   0.216 -0.3193 -0.4093  0.0906
  402TMC3    O2 6067   4.314   0.227   0.697 -0.2096  0.4959 -0.3070
  403MPD2     C 6068   3.140   3.156  13.205 -0.3624 -0.0442 -0.5655
  403MPD2    C1 6069   3.217   3.121  13.317  0.5767 -0.3491  0.7576
  403MPD2    C2 6070   3.343   3.184  13.331  0.3059  0.2235  0.1314
  403MPD2    C3 6071   3.387   3.277  13.241  0.1191  0.1663  0.2723
  403MPD2    C4 6072   3.306   3.303  13.126  0.4553  0.7350  0.7157
  403MPD2    C5 6073   3.183   3.251  13.113 -0.8045 -0.5710  0.6978
  403MPD2     H 6074   3.410   3.166  13.415 -0.2360  1.3763  0.8128
  403MPD2    H1 6075   3.329   3.376  13.049  1.2356 -0.0884  0.1754
  403MPD2    H2 6076   3.044   3.109  13.184  0.8572 -3.0566  0.5430
  403MPD2    H3 6077   3.128   3.264  13.021  0.3915 -1.0258 -0.0673
  403MPD2     N 6078   3.508   3.353  13.251 -0.0553  0.0889  1.0742
  403MPD2    H5 6079   3.520   3.442  13.204 -1.6513  1.2994  2.9461
  403MPD2    N1 6080   3.160   3.035  13.411  0.3272 -0.0947 -0.1754
  403MPD2    H7 6081   3.070   2.992  13.391  1.3082 -1.5356 -1.4118
  404TMC3    C1 6082   3.130   2.921  13.616 -0.4343 -0.4015 -0.0600
  404TMC3    C2 6083   3.151   2.936  13.746 -0.2984 -0.3764  0.1771
  404TMC3    C3 6084   3.067   2.870  13.837 -0.8115 -0.6881 -0.2282
  404TMC3    C4 6085   3.027   2.852  13.563 -0.3080  0.3325 -0.3729
  404TMC3    C5 6086   2.945   2.784  13.650  0.3697 -0.6823 -0.1503
  404TMC3    C6 6087   2.969   2.792  13.784  0.2150 -1.1867  0.1462
  404TMC3     C 6088   3.220   2.997  13.530  0.9284  0.4001 -0.5256
  404TMC3     O 6089   3.334   3.003  13.573  0.3182  0.1083 -0.5059
  404TMC3     H 6090   3.239   2.987  13.785 -1.4051  1.0405  0.8023
  404TMC3    H1 6091   3.015   2.841  13.456 -1.3519 -2.2607  0.0202
  404TMC3    H2 6092   2.912   2.720  13.841  0.6488 -1.8549 -0.2615
  404TMC3    C7 6093   2.842   2.694  13.600  0.7782 -0.2640  0.1359
  404TMC3    C8 6094   3.114   2.838  13.969  0.1296 -0.5528  0.1415
  404TMC3    O1 6095   2.791   2.623  13.685 -0.2613  0.1601 -0.1113
  404TMC3    O2 6096   3.233   2.857  13.982 -0.2327  0.2621  0.0658
  405MPD2     C 6097   2.681   3.848  14.732 -0.4520  0.6801 -0.4170
  405MPD2    C1 6098   2.812   3.804  14.697  0.6984 -0.1559 -0.4356
  405MPD2    C2 6099   2.914   3.894  14.700  0.1761  0.5750  0.7312
  405MPD2    C3 6100   2.896   4.028  14.731 -0.4263 -0.6304 -0.6735
  405MPD2    C4 6101   2.771   4.075  14.745  0.2493  0.0183  0.9446
  405MPD2    C5 6102   2.666   3.987  14.741 -0.5206 -0.1753 -0.3099
  405MPD2     H 6103   3.012   3.855  14.674 -1.1957 -1.5932 -1.2162
  405MPD2    H1 6104   2.757   4.179  14.774  0.6406  0.0683  0.9595
  405MPD2    H2 6105   2.594   3.784  14.733 -1.6272  2.2825 -1.7226
  405MPD2    H3 6106   2.571   4.039  14.747 -0.8449 -0.9938  1.7967
  405MPD2     N 6107   3.013   4.108  14.734 -0.4135 -0.1352 -0.3247
  405MPD2    H5 6108   3.103   4.063  14.727 -1.7806 -2.6800 -1.8311
  405MPD2    N1 6109   2.819   3.670  14.670 -0.2674  0.2047 -0.8210
  405MPD2    H7 6110   2.734   3.615  14.663 -0.3404  0.1725  0.4393
  406TMC3    C1 6111   3.090   4.465  14.497 -0.1909 -0.6641  0.9244
  406TMC3    C2 6112   3.150   4.382  14.405  0.7040  0.1023 -0.4301
  406TMC3    C3 6113   3.211   4.267  14.450 -0.4418 -0.1658  0.3055
  406TMC3    C4 6114   3.086   4.435  14.626  0.5619 -0.0188 -0.3024
  406TMC3    C5 6115   3.127   4.308  14.664  0.0251  0.1634 -0.4683
  406TMC3    C6 6116   3.196   4.225  14.582 -0.2308  0.2599 -0.4054
  406TMC3     C 6117   2.965   4.527  14.453  0.3556 -0.1968  0.2616
  406TMC3     O 6118   2.964   4.606  14.362  0.7705  0.2568 -0.5522
  406TMC3     H 6119   3.161   4.412  14.302  1.2500 -0.8390 -0.6463
  406TMC3    H1 6120   3.061   4.507  14.703 -1.2178  1.5742 -2.3697
  406TMC3    H2 6121   3.251   4.140  14.619 -1.3558 -0.5590 -0.6109
  406TMC3    C7 6122   3.012   4.245  14.725  0.2645 -0.4500 -0.2038
  406TMC3    C8 6123   3.255   4.172  14.350  0.3833  0.6020 -0.2756
  406TMC3    O1 6124   2.929   4.328  14.749  1.0300 -0.1958 -0.1793
  406TMC3    O2 6125   3.299   4.217  14.245 -0.0519  0.2785 -0.4495
  407MPD2     C 6126   0.694   0.336   9.852  0.1027 -0.1821 -0.0902
  407MPD2    C1 6127   0.749   0.417   9.757 -0.7181  0.1593  0.8545
  407MPD2    C2 6128   0.828   0.526   9.798  0.4631 -0.2508  0.7445
  407MPD2    C3 6129   0.843   0.558   9.932  0.7935  0.2303 -0.3821
  407MPD2    C4 6130   0.776   0.477  10.021 -0.5107  0.3801 -0.2898
  407MPD2    C5 6131   0.704   0.373   9.980  0.6615 -0.5544 -0.2414
  407MPD2     H 6132   0.884   0.589   9.730 -1.2540 -0.0299 -0.4586
  407MPD2    H1 6133   0.761   0.518  10.121 -1.0254  0.3429 -0.3494
  407MPD2    H2 6134   0.641   0.247   9.821  0.2704 -1.1970  2.5429
  407MPD2    H3 6135   0.656   0.314  10.057  0.2974 -0.4285 -0.3659
  407MPD2     N 6136   0.902   0.677   9.981  0.0746  0.2160  0.0042
  407MPD2    H5 6137   0.894   0.699  10.080 -0.3362 -1.8490  0.4175
  407MPD2    N1 6138   0.735   0.393   9.617  0.0799  0.5322  0.9153
  407MPD2    H7 6139   0.779   0.461   9.557  2.6707 -2.1795 -0.2310
  408TMC3    C1 6140   0.721   0.264   9.420  0.8802 -0.4186  0.3989
  408TMC3    C2 6141   0.858   0.268   9.397  0.5027 -0.6364 -0.7967
  408TMC3    C3 6142   0.912   0.177   9.307 -0.3354 -0.5117 -0.9666
  408TMC3    C4 6143   0.642   0.171   9.355 -0.3923  0.2696  0.1397
  408TMC3    C5 6144   0.706   0.074   9.276  0.3582  0.2898  0.3216
  408TMC3    C6 6145   0.839   0.074   9.255 -0.8310  0.0736  0.5817
  408TMC3     C 6146   0.671   0.289   9.554 -0.4378 -0.7543 -0.0957
  408TMC3     O 6147   0.586   0.209   9.596  0.3633 -0.0492  0.0205
  408TMC3     H 6148   0.915   0.337   9.458 -0.5758 -1.2167  0.8523
  408TMC3    H1 6149   0.535   0.185   9.364 -0.1962  2.7045 -1.2812
  408TMC3    H2 6150   0.884   0.012   9.178 -0.7751  0.3174  0.4188
  408TMC3    C7 6151   0.650   4.678   9.251 -0.0148  0.8749  0.1088
  408TMC3    C8 6152   1.055   0.181   9.283  0.4386 -0.0510  0.6022
  408TMC3    O1 6153   0.716   4.594   9.196 -0.4297 -0.3561 -0.3283
  408TMC3    O2 6154   1.097   0.074   9.235 -0.2078  0.2083  0.0702
  409MPD2     C 6155   0.164   1.568  16.894  0.4993 -0.5293 -0.0285
  409MPD2    C1 6156   0.219   1.640  17.000 -0.3809  0.2558  0.1078
  409MPD2    C2 6157   0.321   1.737  16.969  0.8510  0.8698 -0.1370
  409MPD2    C3 6158   0.356   1.766  16.839 -0.1390  1.4706 -0.2362
  409MPD2    C4 6159   0.288   1.696  16.735  0.6424  0.9157  0.7664
  409MPD2    C5 6160   0.202   1.593  16.764 -0.8139  0.0311 -0.7452
  409MPD2     H 6161   0.368   1.785  17.053 -2.3017  0.2674  1.9575
  409MPD2    H1 6162   0.296   1.719  16.629 -2.6307  0.4450  0.4400
  409MPD2    H2 6163   0.094   1.486  16.911 -0.5424  0.7699  2.0648
  409MPD2    H3 6164   0.158   1.536  16.682 -1.1440 -0.5093 -0.1892
  409MPD2     N 6165   0.445   1.871  16.800 -0.3132 -0.8286  0.0966
  409MPD2    H5 6166   0.441   1.886  16.700 -0.2412 -0.1508  0.1982
  409MPD2    N1 6167   0.178   1.603  17.129 -0.4503  0.0651  0.1330
  409MPD2    H7 6168   0.141   1.510  17.145  1.2122 -0.4207  1.1619
  410TMC3    C1 6169   0.612   2.038  16.823 -0.5724  0.0653 -0.2924
  410TMC3    C2 6170   0.703   2.098  16.908  0.3073  0.0217 -0.1252
  410TMC3    C3 6171   0.754   2.218  16.874 -0.5393 -0.0553  0.4366
  410TMC3    C4 6172   0.571   2.093  16.707  0.2911  0.5756 -0.7296
  410TMC3    C5 6173   0.628   2.219  16.675 -0.8316  1.2329 -0.6319
  410TMC3    C6 6174   0.709   2.290  16.764  0.6153 -0.2161 -0.1539
  410TMC3     C 6175   0.532   1.935  16.879  0.2668 -0.1336 -0.2388
  410TMC3     O 6176   0.554   1.909  16.995  0.4459  0.3783 -0.4171
  410TMC3     H 6177   0.736   2.050  16.999 -1.4099 -0.6351  0.1480
  410TMC3    H1 6178   0.520   2.038  16.629  0.3832 -1.4700  0.6591
  410TMC3    H2 6179   0.761   2.381  16.733  0.2526 -0.1683 -0.6277
  410TMC3    C7 6180   0.628   2.238  16.531  0.5852 -0.5921 -0.0997
  410TMC3    C8 6181   0.868   2.268  16.951  0.7569  0.1131 -0.1892
  410TMC3    O1 6182   0.578   2.154  16.458  0.2253  0.5135 -0.1591
  410TMC3    O2 6183   0.894   2.390  16.938 -0.2194 -0.2446 -0.7509
  411MPD2     C 6184   0.766   2.370  14.432 -0.0258 -0.9269  0.3724
  411MPD2    C1 6185   0.652   2.348  14.512 -0.3275 -0.7010 -0.6756
  411MPD2    C2 6186   0.552   2.251  14.474  0.1236  0.0729 -0.1187
  411MPD2    C3 6187   0.587   2.164  14.368  0.0959 -0.4226 -0.0209
  411MPD2    C4 6188   0.708   2.180  14.301 -0.1057  0.3192  0.1173
  411MPD2    C5 6189   0.798   2.277  14.335 -0.3977  0.1701  0.3893
  411MPD2     H 6190   0.464   2.230  14.533 -0.6655 -1.2985 -1.7984
  411MPD2    H1 6191   0.739   2.123  14.214 -1.3806 -1.4141  0.7805
  411MPD2    H2 6192   0.828   2.458  14.447 -2.1164  0.6881 -0.4033
  411MPD2    H3 6193   0.893   2.283  14.283 -1.6546  1.1618 -1.7628
  411MPD2     N 6194   0.500   2.060  14.314 -0.7841  0.2148  0.0243
  411MPD2    H5 6195   0.531   1.999  14.238  2.9546  2.3306 -0.1022
  411MPD2    N1 6196   0.642   2.429  14.624  0.5638 -0.0735 -0.2668
  411MPD2    H7 6197   0.722   2.487  14.645 -0.5348  0.8355  1.4264
  412TMC3    C1 6198   0.325   1.924  14.275 -0.5670  0.0963 -0.0428
  412TMC3    C2 6199   0.229   1.954  14.184  0.2512  0.0257 -0.2679
  412TMC3    C3 6200   0.236   1.888  14.066 -0.2544 -0.3744  0.1044
  412TMC3    C4 6201   0.425   1.835  14.252 -0.0060  0.3791  0.3130
  412TMC3    C5 6202   0.432   1.773  14.133  0.5618  0.1517  0.1797
  412TMC3    C6 6203   0.340   1.801  14.039 -0.2269 -1.3060 -0.3761
  412TMC3     C 6204   0.375   2.031  14.359 -0.0338 -0.2900 -0.5362
  412TMC3     O 6205   0.291   2.088  14.427 -0.0863 -0.4944 -0.4396
  412TMC3     H 6206   0.155   2.030  14.209  0.7826  0.2115  0.7352
  412TMC3    H1 6207   0.492   1.811  14.333  0.9467 -3.3727 -1.6130
  412TMC3    H2 6208   0.346   1.750  13.944 -1.1288 -0.6180 -0.7936
  412TMC3    C7 6209   0.560   1.795  14.074 -0.9809 -0.6994 -0.2702
  412TMC3    C8 6210   0.213   1.977  13.955  0.2943 -0.4995 -0.6860
  412TMC3    O1 6211   0.592   1.911  14.089  0.0849 -0.1502 -0.3720
  412TMC3    O2 6212   0.108   2.038  13.953  0.2329 -0.0529  0.0152
  413MPD2     C 6213   2.461   0.110  15.724 -0.1511 -0.1925 -0.2799
  413MPD2    C1 6214   2.392   0.091  15.607  0.2134 -0.0802  0.5957
  413MPD2    C2 6215   2.421   4.716  15.531  0.1961  0.4655 -0.0979
  413MPD2    C3 6216   2.529   4.634  15.557 -0.6212  0.8522  0.2733
  413MPD2    C4 6217   2.603   4.659  15.672  0.3313 -0.0996  0.1976
  413MPD2    C5 6218   2.573   0.035  15.749  0.0196  0.3653  0.1096
  413MPD2     H 6219   2.359   4.690  15.446 -1.2922 -0.4166  1.2592
  413MPD2    H1 6220   2.687   4.604  15.712 -0.9676 -0.3245  2.6286
  413MPD2    H2 6221   2.438   0.185  15.798  0.4739 -0.0543 -0.2192
  413MPD2    H3 6222   2.642   0.062  15.828 -1.6255  0.3751  1.5556
  413MPD2     N 6223   2.553   4.520  15.479  0.5738 -1.0007  0.4405
  413MPD2    H5 6224   2.511   4.503  15.388  1.2113 -0.1676 -0.0047
  413MPD2    N1 6225   2.280   0.172  15.588 -0.0143 -0.7166 -0.0036
  413MPD2    H7 6226   2.269   0.260  15.639 -0.7728 -0.2617 -0.9604
  414TMC3    C1 6227   2.632   4.311  15.418  0.1929  0.2485  0.2703
  414TMC3    C2 6228   2.648   4.181  15.456 -0.1943  0.1737 -0.3836
  414TMC3    C3 6229   2.702   4.098  15.361 -0.6995 -0.1101  0.6181
  414TMC3    C4 6230   2.662   4.359  15.293 -0.0615  0.4225  0.5865
  414TMC3    C5 6231   2.710   4.271  15.199 -0.7356 -0.0495 -0.4581
  414TMC3    C6 6232   2.725   4.139  15.234 -0.8262 -0.2260  0.2719
  414TMC3     C 6233   2.624   4.409  15.518 -0.0299 -0.1941 -0.3940
  414TMC3     O 6234   2.674   4.377  15.628  0.2856  0.1915 -0.4953
  414TMC3     H 6235   2.613   4.149  15.553 -1.7975  0.5524 -0.8281
  414TMC3    H1 6236   2.671   4.466  15.273 -0.1699  0.2524 -0.3644
  414TMC3    H2 6237   2.773   4.073  15.164 -1.0459 -0.8642  0.7212
  414TMC3    C7 6238   2.823   4.335  15.142 -0.0796  0.5602 -0.1881
  414TMC3    C8 6239   2.732   3.953  15.384 -0.0978  0.0321 -0.8395
  414TMC3    O1 6240   2.932   4.317  15.191  0.0032  0.1684  0.4257
  414TMC3    O2 6241   2.716   3.874  15.294 -0.2422  0.2931 -0.4025
  415TMC3    C1 6242   2.907   2.518  10.589 -0.2715 -0.8982 -0.0932
  415TMC3    C2 6243   2.941   2.478  10.463 -0.5285  1.1869  0.6101
  415TMC3    C3 6244   2.845   2.421  10.384  0.4990  0.8155 -0.0162
  415TMC3    C4 6245   2.778   2.495  10.631  0.4718 -0.0031  0.2990
  415TMC3    C5 6246   2.694   2.417  10.560 -0.9406  0.1997  0.4485
  415TMC3    C6 6247   2.723   2.389  10.430 -0.5367  0.7026  0.1135
  415TMC3     C 6248   3.002   2.575  10.678 -0.1652  0.1011 -0.3163
  415TMC3     O 6249   2.966   2.560  10.797  0.0437 -0.1049  0.2361
  415TMC3     H 6250   3.044   2.482  10.430 -0.4533  0.2335  0.7230
  415TMC3    H1 6251   2.750   2.540  10.725 -1.9059 -0.1325 -0.3482
  415TMC3    H2 6252   2.652   2.335  10.368  0.8620 -2.0613  0.9626
  415TMC3    C7 6253   2.556   2.427  10.603  0.1777  0.5847  0.1828
  415TMC3    C8 6254   2.865   2.361  10.251  0.2239 -0.2231  0.0389
  415TMC3    O1 6255   2.476   2.457  10.518  0.1844  0.0129  0.7652
  415TMC3    O2 6256   2.787   2.278  10.205  0.0165  0.7937  0.0614
  416MPD2     C 6257   0.561   1.986  11.368  0.4848 -0.0456  0.1365
  416MPD2    C1 6258   0.455   1.910  11.412  0.0475  0.5817  0.4587
  416MPD2    C2 6259   0.450   1.777  11.378 -0.4154  1.0149 -0.3332
  416MPD2    C3 6260   0.543   1.712  11.300 -0.1483 -0.3769 -0.2402
  416MPD2    C4 6261   0.648   1.791  11.259  0.4044  0.4783  0.2040
  416MPD2    C5 6262   0.661   1.927  11.291 -0.3530  0.0020  0.1580
  416MPD2     H 6263   0.368   1.720  11.421  2.4376 -2.3441  0.6352
  416MPD2    H1 6264   0.728   1.752  11.197 -0.1683  0.2581 -0.3906
  416MPD2    H2 6265   0.565   2.092  11.392 -1.5042  0.7339 -3.0193
  416MPD2    H3 6266   0.753   1.983  11.274  0.8957 -2.2427 -0.5740
  416MPD2     N 6267   0.524   1.577  11.260  0.4718 -0.5490 -0.1020
  416MPD2    H5 6268   0.441   1.527  11.292  2.2073 -3.1704  0.3044
  416MPD2    N1 6269   0.341   1.972  11.474 -0.6051  0.5759  0.0508
  416MPD2    H7 6270   0.265   1.916  11.513  0.0507 -0.6165 -0.3705
  417TMC3    C1 6271   0.198   2.139  11.546  0.0369 -1.0967  0.5145
  417TMC3    C2 6272   0.181   2.080  11.668 -0.6920  0.4893  0.6945
  417TMC3    C3 6273   0.069   2.092  11.734 -0.4158  0.1656  0.8504
  417TMC3    C4 6274   0.090   2.202  11.489 -0.1858 -0.3613 -0.2701
  417TMC3    C5 6275   4.704   2.198  11.551  0.0478  0.2621  0.9783
  417TMC3    C6 6276   4.690   2.149  11.678 -0.6417  0.0691 -1.2931
  417TMC3     C 6277   0.318   2.106  11.475 -0.1969  0.5537 -0.1278
  417TMC3     O 6278   0.353   2.193  11.400  0.0262 -0.0548 -0.1146
  417TMC3     H 6279   0.264   2.026  11.711 -0.4209  0.0506 -0.3808
  417TMC3    H1 6280   0.097   2.253  11.394 -0.7033 -1.2517 -0.7929
  417TMC3    H2 6281   4.593   2.124  11.720 -0.0082  1.0554  0.7669
  417TMC3    C7 6282   4.588   2.216  11.463  0.4976 -0.3690  0.2704
  417TMC3    C8 6283   0.067   2.060  11.881  0.1323 -0.2862 -0.4902
  417TMC3    O1 6284   4.605   2.182  11.348  0.1731 -0.4423  0.3125
  417TMC3    O2 6285   4.693   2.067  11.936 -0.6051  0.6589 -0.0940
  418TMC3    C1 6286   3.550   4.594  17.721 -0.0411  0.7202 -0.1903
  418TMC3    C2 6287   3.422   4.629   0.010  0.0164  0.2231 -0.0498
  418TMC3    C3 6288   3.386   4.635   0.141 -0.2588  0.6292  0.4079
  418TMC3    C4 6289   3.650   4.568   0.074  0.1578  0.8156  0.7253
  418TMC3    C5 6290   3.607   4.602   0.208 -0.5456 -0.0839 -0.1844
  418TMC3    C6 6291   3.481   4.622   0.243  0.4395 -0.2491  0.5766
  418TMC3     C 6292   3.581   4.548  17.581  0.0246  0.4964  0.4380
  418TMC3     O 6293   3.534   4.612  17.489 -0.2722 -0.1742 -0.2126
  418TMC3     H 6294   3.354   4.626  17.665 -0.9255  3.6129  0.6154
  418TMC3    H1 6295   3.748   4.558   0.029 -0.9363 -0.6471 -1.3439
  418TMC3    H2 6296   3.459   4.617   0.349  1.7528 -0.4251  0.8427
  418TMC3    C7 6297   3.687   4.543   0.309 -0.3400  0.9435  0.1892
  418TMC3    C8 6298   3.244   4.614   0.169  0.3899  0.4149 -0.1029
  418TMC3    O1 6299   3.763   4.447   0.285  0.4955  0.5707  0.2695
  418TMC3    O2 6300   3.166   4.682   0.103  0.1486  0.8159  0.7515
  419MPD2     C 6301   1.918   1.702  12.602  0.5900 -0.2413  0.5191
  419MPD2    C1 6302   1.905   1.833  12.573 -0.5203 -0.3211 -0.2147
  419MPD2    C2 6303   1.895   1.919  12.682 -0.7808 -0.0695  0.2630
  419MPD2    C3 6304   1.870   1.866  12.810 -0.8750  1.1174  0.1196
  419MPD2    C4 6305   1.861   1.729  12.832  0.5119 -1.0040 -0.0025
  419MPD2    C5 6306   1.890   1.645  12.726 -0.2407 -0.7520  0.3161
  419MPD2     H 6307   1.890   2.026  12.669  0.4590  0.0928  1.2247
  419MPD2    H1 6308   1.820   1.675  12.917 -0.9717  1.1712  0.6803
  419MPD2    H2 6309   1.943   1.634  12.521  1.3837 -0.0030  0.5679
  419MPD2    H3 6310   1.881   1.538  12.741 -1.6181 -0.9033 -1.7762
  419MPD2     N 6311   1.845   1.961  12.916 -0.1915  0.4357 -0.5518
  419MPD2    H5 6312   1.827   2.057  12.889  0.5568  0.5872 -0.5230
  419MPD2    N1 6313   1.917   1.891  12.439  0.0746  0.0187  0.9278
  419MPD2    H7 6314   1.907   1.992  12.427  3.3711  0.1851 -0.2387
  420TMC3    C1 6315   1.833   2.027  13.142  0.1284  0.5374  0.0735
  420TMC3    C2 6316   1.752   2.132  13.107 -0.0260 -0.7728 -0.5366
  420TMC3    C3 6317   1.736   2.237  13.194  0.3140 -0.2849  0.0421
  420TMC3    C4 6318   1.891   2.022  13.267 -0.5041 -0.8761 -0.2150
  420TMC3    C5 6319   1.867   2.125  13.352 -0.4041  0.1262 -0.3763
  420TMC3    C6 6320   1.800   2.241  13.313  0.0207 -0.4796 -0.0119
  420TMC3     C 6321   1.861   1.922  13.048 -0.3421  0.6624  0.0636
  420TMC3     O 6322   1.896   1.820  13.104  0.2560 -0.1306 -0.1058
  420TMC3     H 6323   1.692   2.127  13.018  0.6898 -1.9938 -0.9585
  420TMC3    H1 6324   1.958   1.939  13.287 -0.0191 -0.4389 -0.0320
  420TMC3    H2 6325   1.774   2.314  13.390  0.5866 -0.8493  0.5320
  420TMC3    C7 6326   1.933   2.113  13.483 -0.2737 -0.6407  0.1653
  420TMC3    C8 6327   1.673   2.355  13.131  0.8605  0.5890  0.4093
  420TMC3    O1 6328   1.979   2.007  13.507  0.6666 -0.4882 -0.9954
  420TMC3    O2 6329   1.596   2.335  13.036  0.2972  0.3703  0.4104
  421TMC3    C1 6330   3.715   3.407  13.362 -0.0772 -0.2436  0.4454
  421TMC3    C2 6331   3.682   3.537  13.392 -0.2041  0.7198 -0.2484
  421TMC3    C3 6332   3.777   3.615  13.443 -0.0886 -0.0083  0.6003
  421TMC3    C4 6333   3.838   3.357  13.397  0.1543 -0.9771  0.9916
  421TMC3    C5 6334   3.928   3.441  13.458  0.2404  0.7765  0.0751
  421TMC3    C6 6335   3.905   3.572  13.467  0.2166 -0.4538  0.1119
  421TMC3     C 6336   3.615   3.311  13.329 -0.0909  0.2234 -0.1134
  421TMC3     O 6337   3.636   3.203  13.378  0.4072  0.3251 -0.5956
  421TMC3     H 6338   3.580   3.574  13.386  0.3153  1.9678 -1.1748
  421TMC3    H1 6339   3.860   3.253  13.375 -0.9714 -1.0506  0.1572
  421TMC3    H2 6340   3.978   3.640  13.511  1.3351 -1.7072  0.1786
  421TMC3    C7 6341   4.019   3.386  13.552  0.0387 -0.5127  0.1824
  421TMC3    C8 6342   3.739   3.741  13.505 -0.2827 -0.4441 -0.1065
  421TMC3    O1 6343   4.122   3.451  13.565  0.3603  0.4650 -0.0984
  421TMC3    O2 6344   3.680   3.828  13.441  0.9970 -0.8880  0.3564
  422TMC3    C1 6345   0.940   0.018  12.573 -0.3819  0.2999  0.3579
  422TMC3    C2 6346   0.954   0.095  12.682 -0.1578 -0.4358  0.5247
  422TMC3    C3 6347   0.869   0.063  12.791 -0.3247 -0.5092 -0.7256
  422TMC3    C4 6348   0.860   4.647  12.563  0.4727 -0.0047  0.5327
  422TMC3    C5 6349   0.783   4.619  12.671 -0.0890  0.4373 -0.4120
  422TMC3    C6 6350   0.787   4.687  12.794  0.0327 -0.0949 -0.0995
  422TMC3     C 6351   1.031   0.036  12.459  0.2586  0.2748  0.8709
  422TMC3     O 6352   1.071   0.146  12.435 -0.0282 -0.0228  0.1005
  422TMC3     H 6353   1.041   0.159  12.695 -0.0152 -0.7415  1.1091
  422TMC3    H1 6354   0.840   4.606  12.465 -1.2691 -0.8185  1.2345
  422TMC3    H2 6355   0.720   4.657  12.873  0.0771  1.9155  0.6820
  422TMC3    C7 6356   0.727   4.482  12.662  0.6030  0.6418  0.3057
  422TMC3    C8 6357   0.876   0.160  12.904  0.1234  0.4131  0.2259
  422TMC3    O1 6358   0.779   4.416  12.572 -0.1086 -0.2498 -0.2747
  422TMC3    O2 6359   0.964   0.247  12.901 -0.1181 -0.2718  0.1281
  423MPD2     C 6360   2.412   1.391   0.832 -0.1819 -1.0944 -0.2657
  423MPD2    C1 6361   2.313   1.293   0.845  0.0735 -0.6310  0.4133
  423MPD2    C2 6362   2.301   1.199   0.745  0.1749 -0.5064 -0.8562
  423MPD2    C3 6363   2.386   1.199   0.635 -0.5271  0.7137 -0.6740
  423MPD2    C4 6364   2.492   1.283   0.636  0.4489 -0.2159 -0.3098
  423MPD2    C5 6365   2.496   1.386   0.723  0.0138 -0.2625  0.2671
  423MPD2     H 6366   2.217   1.131   0.754  0.3784 -0.5517  0.6041
  423MPD2    H1 6367   2.547   1.286   0.543  0.8714  1.0495 -0.0186
  423MPD2    H2 6368   2.428   1.472   0.902 -0.5095 -2.8145  1.7743
  423MPD2    H3 6369   2.560   1.472   0.706  0.9180 -0.6612  1.6123
  423MPD2     N 6370   2.371   1.112   0.524 -0.2384  0.1850 -0.0292
  423MPD2    H5 6371   2.437   1.131   0.449  2.1406  0.1761  2.0741
  423MPD2    N1 6372   2.222   1.288   0.949  0.4221 -0.0806  0.5858
  423MPD2    H7 6373   2.148   1.221   0.933  2.4999 -1.9870 -1.1006
  424TMC3    C1 6374   2.138   1.304   1.168 -0.3775 -0.4978 -0.1250
  424TMC3    C2 6375   2.182   1.281   1.297 -0.5721 -0.0271 -0.1966
  424TMC3    C3 6376   2.102   1.214   1.391  0.1578  0.2618 -0.0635
  424TMC3    C4 6377   2.015   1.272   1.132 -0.7218 -0.3005  0.4106
  424TMC3    C5 6378   1.933   1.213   1.228  0.1246  0.4005 -0.7366
  424TMC3    C6 6379   1.971   1.181   1.353  0.9240  0.4820  0.6157
  424TMC3     C 6380   2.241   1.335   1.072 -0.6141  0.0146  0.1266
  424TMC3     O 6381   2.341   1.391   1.115 -0.1010 -0.5513  0.0094
  424TMC3     H 6382   2.284   1.303   1.324 -0.5310 -2.7380  1.8877
  424TMC3    H1 6383   1.966   1.301   1.040  0.6247 -2.6549 -1.0481
  424TMC3    H2 6384   1.903   1.138   1.426 -0.9950 -2.9527 -3.2433
  424TMC3    C7 6385   1.792   1.241   1.228 -0.4728  0.1606 -0.1415
  424TMC3    C8 6386   2.163   1.114   1.473 -0.3219 -0.3529 -0.3655
  424TMC3    O1 6387   1.724   1.165   1.300  0.0266 -0.1538  0.2035
  424TMC3    O2 6388   2.111   1.007   1.492  0.2850 -0.1869  0.5537
  425MPD2     C 6389   0.977   0.521  17.378 -0.0983 -0.4072  0.3100
  425MPD2    C1 6390   0.874   0.435  17.345 -1.4265  0.6794  0.8305
  425MPD2    C2 6391   0.751   0.489  17.362 -0.6374 -0.4653  0.0426
  425MPD2    C3 6392   0.732   0.617  17.405  0.5748  0.0546 -0.1972
  425MPD2    C4 6393   0.835   0.702  17.439 -0.0715 -0.4733 -0.3336
  425MPD2    C5 6394   0.963   0.647  17.421 -0.6634 -0.7966  0.2939
  425MPD2     H 6395   0.660   0.430  17.360 -0.6676 -0.3866 -0.7605
  425MPD2    H1 6396   0.828   0.803  17.478 -0.9611 -0.5302 -0.3632
  425MPD2    H2 6397   1.079   0.498  17.349  0.5923  0.4519  2.0995
  425MPD2    H3 6398   1.051   0.707  17.440 -1.1487 -0.2888  0.9154
  425MPD2     N 6399   0.598   0.652  17.429 -0.3000  0.0543  0.0663
  425MPD2    H5 6400   0.523   0.594  17.391  2.0347 -1.5201 -2.1277
  425MPD2    N1 6401   0.896   0.296  17.319  0.0323  0.5578 -0.1834
  425MPD2    H7 6402   0.991   0.267  17.299 -0.7886 -1.1479 -1.6077
  426TMC3    C1 6403   0.856   0.077  17.263 -0.0719 -0.3123  0.4453
  426TMC3    C2 6404   0.956   0.067  17.159 -0.2605 -0.2870  0.3447
  426TMC3    C3 6405   0.971   4.681  17.094  0.2693 -0.0480 -0.3972
  426TMC3    C4 6406   0.775   4.700  17.288 -0.4069  0.1829 -0.1922
  426TMC3    C5 6407   0.807   4.579  17.233 -0.3983 -0.1696 -0.2472
  426TMC3    C6 6408   0.904   4.568  17.137  0.1732 -0.6558 -0.5329
  426TMC3     C 6409   0.798   0.198  17.301  0.1334  0.7789  0.4109
  426TMC3     O 6410   0.675   0.207  17.314 -0.0867 -0.3911  0.6456
  426TMC3     H 6411   1.010   0.151  17.118 -1.6223  0.5641  0.3233
  426TMC3    H1 6412   0.689   4.711  17.352 -0.9103  0.5357 -0.9325
  426TMC3    H2 6413   0.933   4.474  17.091 -0.1370 -1.7568  1.5354
  426TMC3    C7 6414   0.737   4.455  17.279  0.7654 -0.1528  0.2946
  426TMC3    C8 6415   1.052   4.667  16.973  0.5172  0.0120  0.0131
  426TMC3    O1 6416   0.754   4.357  17.207  0.2166  0.2404  0.4444
  426TMC3    O2 6417   1.101   4.556  16.960  0.1562  0.1342 -0.3084
  427MPD2     C 6418   4.710   2.341  14.821 -0.6087 -0.3752  0.1582
  427MPD2    C1 6419   4.655   2.324  14.948  0.0319 -0.1972  0.1470
  427MPD2    C2 6420   4.520   2.345  14.954  0.2386 -0.2021  0.1866
  427MPD2    C3 6421   4.448   2.402  14.851 -0.3186 -0.1215 -0.2182
  427MPD2    C4 6422   4.511   2.412  14.727 -0.2849 -0.6648 -0.0434
  427MPD2    C5 6423   4.640   2.373  14.708 -1.2255  0.0972 -0.1400
  427MPD2     H 6424   4.484   2.331  15.055  2.5584 -1.9149  0.7676
  427MPD2    H1 6425   4.465   2.449  14.636  1.8085 -1.3376 -1.3695
  427MPD2    H2 6426   0.080   2.319  14.808 -0.4448 -0.2571  1.2651
  427MPD2    H3 6427   4.682   2.381  14.609 -2.3314 -0.5471 -0.6537
  427MPD2     N 6428   4.313   2.435  14.862 -0.0871  0.2453 -0.2193
  427MPD2    H5 6429   4.264   2.461  14.777 -2.2599 -1.7058  0.4257
  427MPD2    N1 6430   4.727   2.289  15.059 -0.1576 -0.0815  0.1413
  427MPD2    H7 6431   4.677   2.269  15.145 -0.0007  1.0625  0.4979
  428TMC3    C1 6432   0.157   2.256  15.210  0.0099 -0.4896 -0.0209
  428TMC3    C2 6433   0.093   2.160  15.276 -0.2624 -0.2775  0.1549
  428TMC3    C3 6434   0.114   2.145  15.409 -0.3668  0.3993  0.0033
  428TMC3    C4 6435   0.250   2.336  15.273 -0.9706  0.0599 -0.1897
  428TMC3    C5 6436   0.265   2.329  15.406 -0.3256  0.0021  0.1261
  428TMC3    C6 6437   0.193   2.236  15.479  0.6485  0.6143  0.1526
  428TMC3     C 6438   0.119   2.296  15.071  0.1280  0.2155  0.5721
  428TMC3     O 6439   0.204   2.344  14.996 -0.3381  0.2412  0.7656
  428TMC3     H 6440   0.036   2.084  15.223  1.5273 -0.8325 -0.9927
  428TMC3    H1 6441   0.311   2.400  15.211 -0.9080  0.5139  0.3400
  428TMC3    H2 6442   0.205   2.233  15.587  1.4303  1.9595  0.0925
  428TMC3    C7 6443   0.358   2.420  15.474 -0.2732  0.0533  0.2253
  428TMC3    C8 6444   0.097   2.011  15.473 -0.8008 -0.2314 -0.0581
  428TMC3    O1 6445   0.384   2.395  15.590 -0.1452  0.1962 -0.0888
  428TMC3    O2 6446   0.125   1.917  15.402  0.6204 -0.0701 -0.3422
  429MPD2     C 6447   1.093   2.894  17.641  0.2606  0.0131  0.1035
  429MPD2    C1 6448   1.052   2.814  17.536 -0.3819 -1.1255  0.4563
  429MPD2    C2 6449   1.037   2.864  17.409  0.5984  0.0571 -0.0745
  429MPD2    C3 6450   1.079   3.001  17.380  0.1863  0.8604  1.0762
  429MPD2    C4 6451   1.106   3.075  17.493 -0.2203 -0.0002  0.1803
  429MPD2    C5 6452   1.115   3.025  17.618 -0.1658  0.4872 -0.4025
  429MPD2     H 6453   1.023   2.803  17.321  0.1180  1.2020 -0.7885
  429MPD2    H1 6454   1.114   3.183  17.487  0.7923 -0.0004  1.7179
  429MPD2    H2 6455   1.094   2.870   0.008  0.2126  0.3227  0.1755
  429MPD2    H3 6456   1.142   3.094  17.697  0.6557  0.7383 -0.9007
  429MPD2     N 6457   1.101   3.038  17.248  0.3942 -0.1238 -0.0607
  429MPD2    H5 6458   1.089   2.961  17.182 -2.3024  0.5904 -0.4088
  429MPD2    N1 6459   1.035   2.673  17.549 -0.0753  0.1135  0.0378
  429MPD2    H7 6460   1.005   2.625  17.465 -1.4385  0.1527  0.5035
  430TMC3    C1 6461   1.178   3.174  17.077  0.5047  0.0158 -0.0209
  430TMC3    C2 6462   1.141   3.281  17.003  0.5290  0.0768 -0.5848
  430TMC3    C3 6463   1.196   3.299  16.878  0.3596  0.3773  0.4930
  430TMC3    C4 6464   1.261   3.077  17.030 -0.1185  0.2821  0.2916
  430TMC3    C5 6465   1.313   3.092  16.910 -0.2866  0.6098  0.0824
  430TMC3    C6 6466   1.285   3.206  16.839  0.4900  0.2098  0.6572
  430TMC3     C 6467   1.133   3.166  17.206 -0.1004  0.1418  0.9424
  430TMC3     O 6468   1.109   3.267  17.266  0.0608  0.3039 -0.2016
  430TMC3     H 6469   1.065   3.349  17.041  1.2244 -0.4489  1.7646
  430TMC3    H1 6470   1.269   2.983  17.084  0.7048  1.7324  2.7000
  430TMC3    H2 6471   1.327   3.216  16.739  0.0918  0.3206  0.5023
  430TMC3    C7 6472   1.316   2.966  16.834 -0.4808  0.2373 -0.1709
  430TMC3    C8 6473   1.094   3.312  16.770  0.9414  0.2967  0.3851
  430TMC3    O1 6474   1.330   2.865  16.902  0.0018  0.2601  0.3792
  430TMC3    O2 6475   1.103   3.250  16.665  0.1916  0.0723  0.1416
  431MPD2     C 6476   2.186   2.686  12.384  0.1320  0.2390 -0.3341
  431MPD2    C1 6477   2.269   2.586  12.427 -0.3626 -0.3958 -0.4065
  431MPD2    C2 6478   2.259   2.462  12.370 -0.3685 -0.4830  0.0552
  431MPD2    C3 6479   2.165   2.424  12.273 -1.1231 -0.2843 -0.4886
  431MPD2    C4 6480   2.085   2.529  12.227 -0.0911 -0.1480  0.2761
  431MPD2    C5 6481   2.097   2.653  12.281 -0.4182  0.1248 -0.0877
  431MPD2     H 6482   2.309   2.377  12.416 -0.6901 -0.2797  0.7797
  431MPD2    H1 6483   2.015   2.512  12.147 -0.5603 -0.0267  0.6607
  431MPD2    H2 6484   2.173   2.781  12.433 -2.0176  0.0759 -0.5627
  431MPD2    H3 6485   2.030   2.728  12.239 -2.5148 -1.7777 -0.1016
  431MPD2     N 6486   2.152   2.290  12.231  0.0330  0.3249  0.1477
  431MPD2    H5 6487   2.194   2.219  12.290  1.8114  0.7560 -0.5943
  431MPD2    N1 6488   2.361   2.599  12.530  0.6072  0.0994  0.0188
  431MPD2    H7 6489   2.419   2.518  12.550 -0.0072 -0.6025 -1.0601
  432TMC3    C1 6490   2.067   2.103  12.122  0.3549  0.2754 -0.0254
  432TMC3    C2 6491   2.088   2.033  12.009 -0.0895  0.0167  0.1890
  432TMC3    C3 6492   2.038   1.910  11.986 -0.3255  0.2828  0.3598
  432TMC3    C4 6493   1.991   2.045  12.219  0.3594  0.4545  0.6493
  432TMC3    C5 6494   1.949   1.911  12.202 -0.2396  0.1344  0.0050
  432TMC3    C6 6495   1.957   1.843  12.084 -0.6117  0.0327  0.4917
  432TMC3     C 6496   2.086   2.249  12.120  0.6401  0.5516 -0.9460
  432TMC3     O 6497   2.059   2.300  12.011  0.0265 -0.8613 -0.1597
  432TMC3     H 6498   2.146   2.076  11.928 -0.5981  1.0923  0.4000
  432TMC3    H1 6499   1.990   2.097  12.314  1.1416  2.3274 -0.3807
  432TMC3    H2 6500   1.947   1.735  12.078  0.1525 -0.0035 -0.2514
  432TMC3    C7 6501   1.945   1.824  12.320 -0.0302  0.2614 -0.3919
  432TMC3    C8 6502   2.086   1.834  11.872 -0.5492  0.1129  0.5752
  432TMC3    O1 6503   1.966   1.706  12.302  0.5530 -0.0113 -0.3625
  432TMC3    O2 6504   2.016   1.754  11.813  0.1797 -0.2828  0.0136
  433MPD2     C 6505   1.060   1.055  10.848 -0.0061 -0.3855  0.3675
  433MPD2    C1 6506   0.959   0.999  10.920  0.6451  0.2772 -0.1406
  433MPD2    C2 6507   0.950   1.034  11.053 -0.1765  0.2060  0.2872
  433MPD2    C3 6508   1.049   1.107  11.115 -0.6570  0.1029 -0.5242
  433MPD2    C4 6509   1.158   1.156  11.041 -0.2613  0.1200  0.3073
  433MPD2    C5 6510   1.162   1.120  10.909  0.1164  0.1595  0.0150
  433MPD2     H 6511   0.877   0.988  11.120 -2.0121 -1.7576 -3.0418
  433MPD2    H1 6512   1.241   1.205  11.090 -0.8428  2.4828 -1.1130
  433MPD2    H2 6513   1.065   1.035  10.741  2.1296  0.6548  0.2522
  433MPD2    H3 6514   1.239   1.157  10.842  1.5550 -1.0332  1.0336
  433MPD2     N 6515   1.043   1.095  11.255 -0.2088  0.4063  0.0901
  433MPD2    H5 6516   0.957   1.061  11.297  0.5729 -1.1406  0.4271
  433MPD2    N1 6517   0.870   0.912  10.858  0.0943 -0.3318  0.5861
  433MPD2    H7 6518   0.889   0.890  10.761  1.5391 -2.4445  1.3359
  434TMC3    C1 6519   0.753   0.706  10.853 -0.0383  0.4259  0.0945
  434TMC3    C2 6520   0.838   0.645  10.764  0.1726 -0.4121 -0.2011
  434TMC3    C3 6521   0.788   0.540  10.692 -0.0091  0.3386 -0.1481
  434TMC3    C4 6522   0.635   0.651  10.887 -0.6434  0.4948 -0.4799
  434TMC3    C5 6523   0.585   0.546  10.816  0.1591 -0.2152 -0.2888
  434TMC3    C6 6524   0.654   0.493  10.705  0.4465  0.5859 -0.5369
  434TMC3     C 6525   0.783   0.835  10.920 -0.2340 -0.1730 -0.5650
  434TMC3     O 6526   0.710   0.869  11.011  0.3575 -0.5082 -0.2357
  434TMC3     H 6527   0.940   0.679  10.751  0.3276  0.4445  3.2351
  434TMC3    H1 6528   0.572   0.700  10.960  0.9818 -0.2701  1.4091
  434TMC3    H2 6529   0.611   0.409  10.654 -0.8098  0.1180  1.2835
  434TMC3    C7 6530   0.520   0.441  10.895  0.2977  0.2345 -0.1915
  434TMC3    C8 6531   0.884   0.432  10.687 -0.4763  0.4104  0.1591
  434TMC3    O1 6532   0.441   0.476  10.987 -0.1241 -0.4017  0.0905
  434TMC3    O2 6533   0.845   0.325  10.741  0.2344 -0.0877 -0.8933
  435MPD2     C 6534   2.572   0.479  15.588 -0.3636 -0.5311  0.1495
  435MPD2    C1 6535   2.554   0.616  15.626 -0.4102  0.2386 -0.1350
  435MPD2    C2 6536   2.659   0.682  15.686 -0.3974  0.3605  0.0478
  435MPD2    C3 6537   2.780   0.617  15.687  0.2871  0.1429  0.5240
  435MPD2    C4 6538   2.801   0.490  15.644 -0.5912 -0.3937  0.8195
  435MPD2    C5 6539   2.693   0.417  15.597 -0.0785  0.7192 -0.4134
  435MPD2     H 6540   2.649   0.785  15.718 -1.1907 -0.4802  2.4807
  435MPD2    H1 6541   2.896   0.439  15.649 -1.4029 -2.2446 -2.4743
  435MPD2    H2 6542   2.494   0.418  15.543  1.2249 -2.2084 -0.3091
  435MPD2    H3 6543   2.706   0.314  15.564 -0.0243  0.1643  1.3495
  435MPD2     N 6544   2.886   0.701  15.733 -0.6651 -0.5504  0.0961
  435MPD2    H5 6545   2.847   0.785  15.775 -1.1401  0.1458 -1.7321
  435MPD2    N1 6546   2.425   0.680  15.629  0.4787 -0.2565  0.1445
  435MPD2    H7 6547   2.425   0.778  15.654  0.3918 -0.7936  2.2114
  436TMC3    C1 6548   2.116   0.899  15.753 -0.2162  0.1573  1.2968
  436TMC3    C2 6549   2.220   0.817  15.719 -0.2142 -0.9088 -0.2919
  436TMC3    C3 6550   2.199   0.725  15.615  0.0749 -1.1824  0.0708
  436TMC3    C4 6551   2.004   0.910  15.671 -0.4755  0.2372 -0.0982
  436TMC3    C5 6552   1.990   0.821  15.565  0.1776  0.3849 -0.1268
  436TMC3    C6 6553   2.083   0.719  15.552  0.2352 -0.8466  0.1637
  436TMC3     C 6554   2.149   1.000  15.852 -0.5911  0.0686  0.1895
  436TMC3     O 6555   2.264   1.036  15.854 -0.1643 -0.3386 -0.1344
  436TMC3     H 6556   2.315   0.820  15.771 -0.5509  3.7260  0.0574
  436TMC3    H1 6557   1.929   0.986  15.686 -0.1031  0.1842  2.0681
  436TMC3    H2 6558   2.070   0.646  15.473  1.7627  0.4428 -1.2841
  436TMC3    C7 6559   1.927   0.860  15.441 -0.5941  0.5876  1.0389
  436TMC3    C8 6560   2.304   0.624  15.598  0.0611  0.2049 -0.6084
  436TMC3    O1 6561   1.919   0.764  15.363  0.1699  0.1342  0.1355
  436TMC3    O2 6562   2.276   0.516  15.554 -0.3651 -0.0261  0.4415
  437TMC3    C1 6563   1.890   3.171  12.354  0.1821 -0.0437  0.1185
  437TMC3    C2 6564   1.856   3.259  12.256 -0.3768 -0.6442  0.3672
  437TMC3    C3 6565   1.892   3.229  12.125 -0.3669  0.0937 -0.7328
  437TMC3    C4 6566   1.962   3.057  12.323 -0.7523  0.3725 -0.1011
  437TMC3    C5 6567   1.998   3.036  12.194 -0.4605 -0.0830  0.0838
  437TMC3    C6 6568   1.968   3.119  12.096  0.4157  0.1464 -0.8432
  437TMC3     C 6569   1.823   3.193  12.479  0.4126  0.9621  0.2348
  437TMC3     O 6570   1.724   3.262  12.477 -0.4715  0.4807 -0.5509
  437TMC3     H 6571   1.788   3.343  12.267  0.8243  0.6147 -1.8236
  437TMC3    H1 6572   1.971   2.975  12.393  1.0864  1.2547  0.6730
  437TMC3    H2 6573   2.021   3.104  12.003  0.2415  2.0327 -1.2469
  437TMC3    C7 6574   2.129   2.980  12.167 -0.5547 -0.3181 -0.2189
  437TMC3    C8 6575   1.854   3.321  12.023 -0.2205  0.1083  0.8272
  437TMC3    O1 6576   2.152   2.931  12.057  0.4855  0.0801  0.0737
  437TMC3    O2 6577   1.799   3.431  12.054 -0.0471 -0.0478 -0.3806
  438MPD2     C 6578   3.493   4.089  16.663  1.1817  0.5818  0.1168
  438MPD2    C1 6579   3.597   4.026  16.733  0.5503  0.0690  0.4919
  438MPD2    C2 6580   3.602   4.029  16.871 -0.3279  0.0291 -0.0763
  438MPD2    C3 6581   3.500   4.086  16.945 -0.4550 -0.1021  0.6366
  438MPD2    C4 6582   3.400   4.155  16.878 -0.3979  0.4341 -0.1449
  438MPD2    C5 6583   3.399   4.152  16.741 -0.3762  0.0227  0.7719
  438MPD2     H 6584   3.677   3.974  16.927  0.2527  2.1344  1.2113
  438MPD2    H1 6585   3.321   4.207  16.931 -0.1070  1.3006 -0.5609
  438MPD2    H2 6586   3.466   4.085  16.558 -0.3719  0.3722  0.5246
  438MPD2    H3 6587   3.312   4.195  16.692 -1.1360 -2.3645  0.0396
  438MPD2     N 6588   3.489   4.077  17.085  0.3410 -0.3176  0.1166
  438MPD2    H5 6589   3.428   4.140  17.136 -0.8988 -0.4743 -1.1501
  438MPD2    N1 6590   3.697   3.955  16.663  0.3271  0.1128 -0.0257
  438MPD2    H7 6591   3.768   3.930  16.731 -0.5039 -0.5029  0.6217
  439TMC3    C1 6592   3.829   3.833  16.502 -0.1675  0.3773  0.2324
  439TMC3    C2 6593   3.872   3.842  16.368 -0.4724 -0.7779  0.3511
  439TMC3    C3 6594   3.986   3.785  16.326  0.1872 -0.0225  0.4365
  439TMC3    C4 6595   3.907   3.769  16.591 -0.0766 -0.3428 -0.4016
  439TMC3    C5 6596   4.016   3.696  16.541  0.5662 -0.0739  0.3003
  439TMC3    C6 6597   4.062   3.710  16.412 -0.2908 -0.7234 -0.4490
  439TMC3     C 6598   3.707   3.913  16.533 -0.2926  0.7875 -0.2121
  439TMC3     O 6599   3.649   3.966  16.440  0.2702 -0.3963  0.2870
  439TMC3     H 6600   3.811   3.901  16.299  2.1331 -1.3736 -2.4695
  439TMC3    H1 6601   3.860   3.727  16.679  0.1064  1.1926  0.4203
  439TMC3    H2 6602   4.145   3.648  16.382  1.3761  0.1683  2.3136
  439TMC3    C7 6603   4.092   3.614  16.625 -0.6293  0.1533 -0.0744
  439TMC3    C8 6604   3.993   3.744  16.188 -0.3017 -0.5718  0.4366
  439TMC3    O1 6605   4.209   3.593  16.592  0.0328  1.0380 -0.2193
  439TMC3    O2 6606   4.054   3.643  16.167  0.4960 -0.8002 -0.3949
  440MPD2     C 6607   2.095   3.706  15.257 -0.7352  0.1456  0.1266
  440MPD2    C1 6608   2.214   3.722  15.325  0.1458 -0.5571  0.0098
  440MPD2    C2 6609   2.301   3.616  15.327 -0.6426 -0.5347  0.0790
  440MPD2    C3 6610   2.269   3.482  15.299  1.1655 -0.1051 -0.0563
  440MPD2    C4 6611   2.136   3.471  15.242  0.7692  0.2935 -0.1604
  440MPD2    C5 6612   2.061   3.585  15.219 -0.3466 -0.5076 -0.2106
  440MPD2     H 6613   2.401   3.630  15.367 -1.0330  1.2920  0.4209
  440MPD2    H1 6614   2.100   3.378  15.199  0.7764 -0.4703  1.4689
  440MPD2    H2 6615   2.022   3.784  15.241  2.0640  2.4707 -1.1997
  440MPD2    H3 6616   1.961   3.580  15.178 -0.7389 -1.3474  0.8606
  440MPD2     N 6617   2.356   3.364  15.307  0.8750 -0.1290  0.2260
  440MPD2    H5 6618   2.308   3.276  15.296  0.9190 -0.1372  0.0881
  440MPD2    N1 6619   2.262   3.844  15.363 -0.0569  0.2040  0.2209
  440MPD2    H7 6620   2.339   3.844  15.429 -2.4232  0.0659  3.0204
  441TMC3    C1 6621   2.554   3.250  15.332  0.3535  0.2902 -0.0114
  441TMC3    C2 6622   2.691   3.261  15.335 -0.4045 -0.0597 -0.1977
  441TMC3    C3 6623   2.769   3.207  15.440 -0.4149  0.7613  0.0643
  441TMC3    C4 6624   2.493   3.167  15.428  0.6168  0.3728 -0.3455
  441TMC3    C5 6625   2.572   3.100  15.519 -0.0904 -0.1641  0.2637
  441TMC3    C6 6626   2.708   3.121  15.524  0.1068 -0.6133 -0.3661
  441TMC3     C 6627   2.491   3.373  15.310  0.2544 -0.3623 -0.1993
  441TMC3     O 6628   2.563   3.472  15.306 -0.0063 -0.3932 -0.1048
  441TMC3     H 6629   2.747   3.318  15.261 -1.0730 -1.0642 -1.4680
  441TMC3    H1 6630   2.386   3.152  15.426  0.9662 -2.1091 -0.2758
  441TMC3    H2 6631   2.768   3.087  15.608 -0.1542  0.6722  0.3322
  441TMC3    C7 6632   2.503   3.124  15.640  0.4341 -0.3152  0.5352
  441TMC3    C8 6633   2.848   3.312  15.510  0.9045  0.0126  0.1797
  441TMC3    O1 6634   2.414   3.208  15.635 -0.3309  0.5833 -0.2965
  441TMC3    O2 6635   2.914   3.267  15.602 -0.6225 -1.0218 -0.9797
  442MPD2     C 6636   0.751   0.062  16.533 -0.3692  0.5310 -0.3751
  442MPD2    C1 6637   0.657   4.709  16.592  0.1335 -0.2351  0.2307
  442MPD2    C2 6638   0.660   4.574  16.558 -0.0230  0.1739 -0.1799
  442MPD2    C3 6639   0.752   4.530  16.458  0.1002 -0.2673  0.3542
  442MPD2    C4 6640   0.841   4.622  16.404 -0.6224  0.5795  0.8250
  442MPD2    C5 6641   0.837   0.019  16.438  0.9688  0.6312 -0.0334
  442MPD2     H 6642   0.590   4.504  16.603 -0.9556  0.8752 -0.5355
  442MPD2    H1 6643   0.916   4.597  16.330 -1.2775 -2.3632  1.1392
  442MPD2    H2 6644   0.744   0.168  16.552  1.5763  0.8133 -1.2908
  442MPD2    H3 6645   0.916   0.082  16.398  0.0212  0.1945 -2.5896
  442MPD2     N 6646   0.773   4.402  16.409 -0.2516  0.6314  0.1520
  442MPD2    H5 6647   0.850   4.388  16.344 -0.5792  0.8606 -0.2904
  442MPD2    N1 6648   0.553   0.017  16.675  0.3761  0.0687  0.0748
  442MPD2    H7 6649   0.481   4.687  16.703  2.0521 -1.6376  0.4147
  443TMC3    C1 6650   0.415   0.171  16.794  0.0698 -0.3486  0.5955
  443TMC3    C2 6651   0.346   0.270  16.735  0.8016  0.6654 -0.2502
  443TMC3    C3 6652   0.208   0.280  16.740 -0.2205 -1.1334 -0.3276
  443TMC3    C4 6653   0.343   0.071  16.846  0.0992 -0.5880  0.1700
  443TMC3    C5 6654   0.210   0.087  16.868  0.1724  0.9931  0.5291
  443TMC3    C6 6655   0.138   0.191  16.815 -0.2611 -0.1906  1.5141
  443TMC3     C 6656   0.541   0.140  16.729  0.0903 -0.4621  0.9396
  443TMC3     O 6657   0.619   0.235  16.727 -0.4563  0.0221 -0.3391
  443TMC3     H 6658   0.403   0.351  16.691 -0.4595  0.5184 -2.1811
  443TMC3    H1 6659   0.403   4.723  16.881  0.7304 -0.9464 -1.7601
  443TMC3    H2 6660   0.030   0.185  16.810 -0.1488  0.0501 -1.0075
  443TMC3    C7 6661   0.143   4.714  16.932 -0.1072 -0.3628  0.3737
  443TMC3    C8 6662   0.125   0.372  16.667  0.1409 -0.1275  0.3558
  443TMC3    O1 6663   0.187   4.599  16.925 -0.1750 -1.2480 -0.1470
  443TMC3    O2 6664   0.031   0.403  16.733 -0.3594  0.2552 -0.2601
  444MPD2     C 6665   0.716   4.503  16.898 -0.4708  0.0417  0.0237
  444MPD2    C1 6666   0.644   4.391  16.922 -1.2308 -0.3641  0.1779
  444MPD2    C2 6667   0.681   4.270  16.873 -0.2445  0.1301 -0.7111
  444MPD2    C3 6668   0.796   4.254  16.792  0.2269  0.2708  0.1198
  444MPD2    C4 6669   0.867   4.369  16.781 -0.2877  0.2409  0.0398
  444MPD2    C5 6670   0.822   4.488  16.819 -0.4342  0.6176 -0.0411
  444MPD2     H 6671   0.630   4.175  16.881  0.3581 -0.1121  0.2318
  444MPD2    H1 6672   0.971   4.373  16.750  0.7782  0.4429  3.6240
  444MPD2    H2 6673   0.691   4.604  16.927  0.9099  0.3224  0.2485
  444MPD2    H3 6674   0.881   4.577  16.802 -0.3289  0.1974 -1.9184
  444MPD2     N 6675   0.839   4.127  16.763  0.1626 -0.5418 -0.6817
  444MPD2    H5 6676   0.773   4.052  16.782 -1.3024  1.0002  0.2631
  444MPD2    N1 6677   0.526   4.393  16.997 -0.4450 -0.0738 -0.7655
  444MPD2    H7 6678   0.471   4.308  16.994  0.6511 -0.8575  1.0422
  445TMC3    C1 6679   0.974   3.961  16.681  0.7450  0.0121 -0.7461
  445TMC3    C2 6680   0.913   3.916  16.572  0.7152 -0.0627 -0.7779
  445TMC3    C3 6681   0.950   3.795  16.523 -0.7758 -0.1385 -0.3048
  445TMC3    C4 6682   1.078   3.894  16.736  0.3784 -0.0197 -0.0965
  445TMC3    C5 6683   1.106   3.769  16.692  0.6709 -0.7557 -0.2892
  445TMC3    C6 6684   1.045   3.713  16.578 -0.3674  0.9891 -0.3550
  445TMC3     C 6685   0.965   4.096  16.723  0.1507 -0.8792 -0.7157
  445TMC3     O 6686   1.070   4.161  16.723 -0.0188  0.0034 -0.0259
  445TMC3     H 6687   0.848   3.987  16.520 -0.4304 -0.8501 -0.4254
  445TMC3    H1 6688   1.136   3.939  16.816 -1.8178 -0.3583  1.6653
  445TMC3    H2 6689   1.072   3.617  16.536 -0.3253  1.6055 -1.7567
  445TMC3    C7 6690   1.205   3.693  16.766  0.5458 -0.7658  0.3522
  445TMC3    C8 6691   0.881   3.760  16.401 -0.0107 -0.2791  0.0484
  445TMC3    O1 6692   1.212   3.721  16.884  0.4962  0.6962  0.2906
  445TMC3    O2 6693   0.845   3.860  16.340  0.4679 -0.3740  0.5518
  446MPD2     C 6694   0.698   0.554  11.259 -0.4596  0.2082  0.5474
  446MPD2    C1 6695   0.760   0.434  11.215 -0.6851 -0.7834  0.8551
  446MPD2    C2 6696   0.887   0.436  11.161 -0.5640  0.0283  0.1964
  446MPD2    C3 6697   0.955   0.556  11.146 -0.4031 -0.2798  0.1776
  446MPD2    C4 6698   0.897   0.670  11.196  0.5994  0.3458  0.0106
  446MPD2    C5 6699   0.772   0.664  11.249 -0.3682 -0.1281 -0.0643
  446MPD2     H 6700   0.919   0.347  11.107 -2.8562 -0.8638  0.3130
  446MPD2    H1 6701   0.954   0.762  11.201 -0.5733  1.0944 -0.5035
  446MPD2    H2 6702   0.609   0.556  11.320 -0.9255  1.0947 -0.1700
  446MPD2    H3 6703   0.723   0.747  11.299  1.9885 -0.1149  2.2332
  446MPD2     N 6704   1.086   0.560  11.089 -0.3522  0.2031  0.4724
  446MPD2    H5 6705   1.131   0.651  11.087 -0.7773  0.4199  0.6891
  446MPD2    N1 6706   0.676   0.322  11.228  0.1990  0.0885 -0.0167
  446MPD2    H7 6707   0.583   0.339  11.265  0.4665 -0.9002  1.1313
  447TMC3    C1 6708   1.298   0.489  11.027  0.0093  0.2077  0.2007
  447TMC3    C2 6709   1.299   0.575  10.922  0.2098 -0.7382  0.6868
  447TMC3    C3 6710   1.415   0.600  10.860 -0.9024  0.3378 -0.2280
  447TMC3    C4 6711   1.410   0.431  11.072  0.3009 -0.4658  0.7936
  447TMC3    C5 6712   1.532   0.454  11.007  0.0547  0.5738  0.3428
  447TMC3    C6 6713   1.534   0.542  10.901 -0.1809  0.1276 -0.3198
  447TMC3     C 6714   1.168   0.456  11.091  0.1096  0.1300 -0.2061
  447TMC3     O 6715   1.161   0.349  11.154  0.0270 -0.5781  0.3639
  447TMC3     H 6716   1.211   0.631  10.893  1.2178  0.7401  0.4740
  447TMC3    H1 6717   1.409   0.350  11.143  0.0362 -0.4182  0.8411
  447TMC3    H2 6718   1.629   0.557  10.851  0.9606  2.7843  2.6289
  447TMC3    C7 6719   1.652   0.433  11.083 -0.1790  0.0360  0.1089
  447TMC3    C8 6720   1.412   0.681  10.734  0.3036  0.3816  0.3179
  447TMC3    O1 6721   1.758   0.425  11.026 -0.6091  0.2950 -0.1790
  447TMC3    O2 6722   1.304   0.723  10.701  0.4624 -0.4761  0.2618
  448TMC3    C1 6723   3.290   0.750  16.752 -0.0390  0.3678  0.1087
  448TMC3    C2 6724   3.286   0.613  16.730  0.6745  0.0447 -0.0897
  448TMC3    C3 6725   3.339   0.540  16.835 -0.3744  0.1933  0.3383
  448TMC3    C4 6726   3.333   0.811  16.867 -0.6751 -0.3807 -0.0651
  448TMC3    C5 6727   3.387   0.732  16.966 -0.2037  0.1243  0.2619
  448TMC3    C6 6728   3.399   0.595  16.947  0.4697 -0.1212  0.0970
  448TMC3     C 6729   3.271   0.839  16.634  0.1263  0.0392  0.5647
  448TMC3     O 6730   3.303   0.785  16.529 -0.4192  0.3764 -0.5335
  448TMC3     H 6731   3.232   0.567  16.648  3.0914 -1.5382 -0.8085
  448TMC3    H1 6732   3.346   0.919  16.860  1.1401 -0.5145  1.1687
  448TMC3    H2 6733   3.453   0.532  17.017 -0.4559  0.6866  1.5321
  448TMC3    C7 6734   3.476   0.792  17.062  0.2277 -0.3159 -0.8716
  448TMC3    C8 6735   3.376   0.405  16.803 -0.6204 -0.4513 -0.3098
  448TMC3    O1 6736   3.535   0.897  17.041  0.1160 -0.5006 -0.3747
  448TMC3    O2 6737   3.390   0.334  16.901 -0.0917 -0.0453 -0.4220
  449MPD2     C 6738   1.024   3.600  13.720 -0.6586  0.2694 -0.4023
  449MPD2    C1 6739   0.891   3.637  13.693  0.6586 -0.0576 -0.3879
  449MPD2    C2 6740   0.799   3.542  13.685 -0.5977  1.0769 -0.1508
  449MPD2    C3 6741   0.830   3.413  13.716  0.1485  0.2944  0.2921
  449MPD2    C4 6742   0.957   3.369  13.748 -0.2581 -0.4319  1.0638
  449MPD2    C5 6743   1.058   3.469  13.747 -0.0895 -0.1075 -0.5250
  449MPD2     H 6744   0.698   3.569  13.657 -0.4057  2.0535  0.0900
  449MPD2    H1 6745   0.981   3.264  13.752  0.8321 -0.2005  0.7826
  449MPD2    H2 6746   1.104   3.670  13.738 -1.1363  0.3356  1.4051
  449MPD2    H3 6747   1.161   3.446  13.768 -0.6491 -1.1948  1.0369
  449MPD2     N 6748   0.731   3.320  13.675 -0.4361  0.8265  0.7022
  449MPD2    H5 6749   0.651   3.360  13.626  0.0552  1.2899  0.2756
  449MPD2    N1 6750   0.848   3.768  13.681 -0.0063  0.1404  0.6397
  449MPD2    H7 6751   0.749   3.782  13.662 -0.0301 -0.2408  0.4936
  450TMC3    C1 6752   0.862   3.996  13.626 -0.7635  0.0444 -0.0121
  450TMC3    C2 6753   0.890   4.006  13.492  0.8274  0.0067  0.6164
  450TMC3    C3 6754   0.782   4.015  13.402  0.5179 -1.1752  0.3251
  450TMC3    C4 6755   0.733   4.003  13.672  0.2871  0.3487 -0.3978
  450TMC3    C5 6756   0.627   4.003  13.580  0.8015  0.7871 -0.5707
  450TMC3    C6 6757   0.651   4.009  13.448  0.5013 -0.0273  0.5003
  450TMC3     C 6758   0.934   3.876  13.671  0.2420 -0.8137 -0.0162
  450TMC3     O 6759   1.050   3.864  13.639  0.6954  0.3292  0.4771
  450TMC3     H 6760   0.995   4.003  13.467  1.1059  1.0727  1.6374
  450TMC3    H1 6761   0.726   3.986  13.779  0.8863  0.3801 -0.3566
  450TMC3    H2 6762   0.571   3.995  13.376  1.4877 -0.9145 -0.4167
  450TMC3    C7 6763   0.539   3.893  13.603  0.3428 -0.5162 -0.3509
  450TMC3    C8 6764   0.795   3.924  13.289  0.4660 -0.0539  0.0970
  450TMC3    O1 6765   0.585   3.796  13.661  0.1171 -0.0534  0.1716
  450TMC3    O2 6766   0.693   3.891  13.229  0.1414  0.1815 -0.5740
  451MPD2     C 6767   1.955   3.382   1.383 -0.1274  0.4047 -0.0231
  451MPD2    C1 6768   1.839   3.334   1.436  0.0289  0.4867 -0.1382
  451MPD2    C2 6769   1.770   3.239   1.367  1.0780  0.5455  0.2824
  451MPD2    C3 6770   1.806   3.203   1.238  1.0905  0.5332 -0.0752
  451MPD2    C4 6771   1.927   3.252   1.193 -0.8024 -0.2690  0.6700
  451MPD2    C5 6772   2.012   3.333   1.267  0.1819  0.2112 -0.0135
  451MPD2     H 6773   1.674   3.205   1.404  0.8027 -1.4478 -2.2457
  451MPD2    H1 6774   1.952   3.224   1.092 -0.3646  1.6344  0.2573
  451MPD2    H2 6775   2.010   3.455   1.442  1.9078 -0.3686 -0.9734
  451MPD2    H3 6776   2.110   3.364   1.232  1.7214 -2.0100  2.3055
  451MPD2     N 6777   1.713   3.149   1.148 -0.9653  0.7759  0.1048
  451MPD2    H5 6778   1.746   3.144   1.052 -3.3131  2.2049 -0.7789
  451MPD2    N1 6779   1.790   3.398   1.554  0.0226  0.6382  0.0586
  451MPD2    H7 6780   1.856   3.456   1.606 -0.9656  0.0531  1.9857
  452TMC3    C1 6781   1.504   3.096   1.066 -0.8271  0.2022 -0.2989
  452TMC3    C2 6782   1.378   3.066   1.092 -0.5046 -0.4577 -0.3309
  452TMC3    C3 6783   1.290   3.088   0.987 -0.1560  0.4020 -0.1065
  452TMC3    C4 6784   1.552   3.152   0.946 -0.8930 -0.4624 -0.1036
  452TMC3    C5 6785   1.462   3.161   0.846  0.4209 -0.7047 -0.3527
  452TMC3    C6 6786   1.331   3.133   0.870 -0.2013  0.4630 -0.3377
  452TMC3     C 6787   1.585   3.111   1.187  0.5063  0.2913 -0.4131
  452TMC3     O 6788   1.540   3.069   1.292  0.0152 -0.3887 -0.0541
  452TMC3     H 6789   1.343   3.014   1.181 -1.8746  0.1360 -0.5274
  452TMC3    H1 6790   1.656   3.165   0.917 -1.2924  0.3662 -1.1604
  452TMC3    H2 6791   1.253   3.174   0.807 -0.6377 -0.2800 -0.2763
  452TMC3    C7 6792   1.499   3.162   0.701  0.7453  0.0284 -0.3923
  452TMC3    C8 6793   1.152   3.028   0.991 -0.7087  0.3700 -0.4773
  452TMC3    O1 6794   1.612   3.189   0.673  0.4341 -0.4364 -0.0048
  452TMC3    O2 6795   1.069   3.069   0.909  0.0470  0.1191  0.0116
  453TMC3    C1 6796   2.935   4.225  12.397  0.1632 -0.2942 -0.7140
  453TMC3    C2 6797   2.901   4.103  12.464  0.0051 -0.1356  0.4395
  453TMC3    C3 6798   2.768   4.068  12.473 -0.0249 -0.2864 -0.3492
  453TMC3    C4 6799   2.843   4.288  12.322  0.1310  0.0286  0.2227
  453TMC3    C5 6800   2.714   4.240  12.320  0.1122 -0.2973 -0.3624
  453TMC3    C6 6801   2.673   4.132  12.401 -0.1858  0.9162  0.1345
  453TMC3     C 6802   3.074   4.250  12.360 -0.1842  0.4471  0.6571
  453TMC3     O 6803   3.110   4.367  12.362 -0.3939  0.5387 -0.3832
  453TMC3     H 6804   2.982   4.051  12.512  0.8414  2.2216  1.5791
  453TMC3    H1 6805   2.877   4.370  12.260  1.0464  0.0018  0.6850
  453TMC3    H2 6806   2.577   4.085  12.388  0.0819  0.0725  1.2089
  453TMC3    C7 6807   2.662   4.239  12.185 -0.7198  0.3793  0.0347
  453TMC3    C8 6808   2.733   3.924  12.503 -0.0769  0.4213 -0.5705
  453TMC3    O1 6809   2.629   4.124  12.154 -0.0973 -0.4767 -0.0589
  453TMC3    O2 6810   2.633   3.904  12.565  0.0120  0.5660 -0.0363
  454MPD2     C 6811   1.624   3.843  16.176 -0.4502 -0.2804  0.1379
  454MPD2    C1 6812   1.586   3.905  16.063 -0.1333 -0.2464 -0.6368
  454MPD2    C2 6813   1.563   4.041  16.068  0.2745 -0.3107 -0.5840
  454MPD2    C3 6814   1.567   4.107  16.191 -0.0169  1.2734 -0.0607
  454MPD2    C4 6815   1.615   4.040  16.302  0.9446 -0.5716 -0.0945
  454MPD2    C5 6816   1.639   3.908  16.291  0.0440  0.1776 -0.0632
  454MPD2     H 6817   1.538   4.095  15.977 -0.2974 -0.8524 -0.7540
  454MPD2    H1 6818   1.630   4.079  16.402 -1.8558  1.0611 -0.3306
  454MPD2    H2 6819   1.651   3.738  16.179  2.0961  0.4105  0.9760
  454MPD2    H3 6820   1.666   3.862  16.386  0.4410  1.0665  0.2525
  454MPD2     N 6821   1.517   4.238  16.211  0.2205 -0.4534  0.1635
  454MPD2    H5 6822   1.517   4.267  16.308  2.5859 -0.7383  0.2577
  454MPD2    N1 6823   1.565   3.846  15.936 -0.4457  0.4326  0.3411
  454MPD2    H7 6824   1.536   3.905  15.859  0.8100 -0.9872 -1.2257
  455TMC3    C1 6825   1.320   4.356  16.172  0.7259  0.2977  0.2429
  455TMC3    C2 6826   1.324   4.424  16.293  0.3742 -0.5384  0.4029
  455TMC3    C3 6827   1.265   4.369  16.402 -0.3174 -0.1735 -0.1313
  455TMC3    C4 6828   1.256   4.237  16.170 -0.2557  0.0229  0.7313
  455TMC3    C5 6829   1.209   4.179  16.288 -0.0025 -0.9573 -0.0214
  455TMC3    C6 6830   1.201   4.251  16.398 -0.4561 -0.8138  0.0754
  455TMC3     C 6831   1.449   4.317  16.121  0.0226  0.0976 -0.8681
  455TMC3     O 6832   1.459   4.313  16.001  0.4680 -0.2695  0.1436
  455TMC3     H 6833   1.397   4.503  16.304  1.1586 -1.7023  3.6018
  455TMC3    H1 6834   1.273   4.178  16.081 -0.6813  0.3159  0.4539
  455TMC3    H2 6835   1.158   4.211  16.490 -1.6535  1.9231  0.7097
  455TMC3    C7 6836   1.231   4.037  16.298 -0.2002 -0.6580 -0.1628
  455TMC3    C8 6837   1.268   4.463  16.518  1.2594  0.8058 -0.2354
  455TMC3    O1 6838   1.260   4.004  16.412 -0.4729 -0.4505 -0.3250
  455TMC3    O2 6839   1.280   4.410  16.625  0.0301  0.5572  0.7379
  456MPD2     C 6840   3.870   4.269  16.024 -0.0765 -0.0619 -0.6542
  456MPD2    C1 6841   3.956   4.206  16.108  0.7803 -0.3236  0.5943
  456MPD2    C2 6842   3.929   4.208  16.240  0.3917 -0.0186 -0.3323
  456MPD2    C3 6843   3.818   4.271  16.292 -0.2194  0.4862  0.6943
  456MPD2    C4 6844   3.724   4.314  16.198 -0.0708 -0.3164  0.5927
  456MPD2    C5 6845   3.750   4.318  16.068 -0.0002  0.1843  0.7615
  456MPD2     H 6846   3.993   4.171  16.320  1.1913  0.8744 -0.5501
  456MPD2    H1 6847   3.627   4.360  16.213  0.2122  0.9300 -1.4063
  456MPD2    H2 6848   3.895   4.291  15.921 -0.8749  2.5559 -0.2781
  456MPD2    H3 6849   3.683   4.374  16.004 -0.7524  0.2135  1.5867
  456MPD2     N 6850   3.800   4.284  16.433 -0.1378 -0.5563 -0.2726
  456MPD2    H5 6851   3.873   4.254  16.497 -0.0416 -0.9850 -0.5877
  456MPD2    N1 6852   4.069   4.148  16.050 -0.4726 -0.0281 -0.4862
  456MPD2    H7 6853   4.082   4.166  15.951  2.2078 -0.1145 -0.1592
  457TMC3    C1 6854   3.697   4.349  16.637  0.6504 -0.1917 -0.8044
  457TMC3    C2 6855   3.589   4.424  16.686 -0.6185  0.0276  0.2032
  457TMC3    C3 6856   3.597   4.496  16.803 -0.6788 -0.0144 -0.9182
  457TMC3    C4 6857   3.818   4.349  16.699  0.7811  0.2961 -0.5843
  457TMC3    C5 6858   3.820   4.416  16.820  0.3473  1.1451 -0.3526
  457TMC3    C6 6859   3.713   4.491  16.873  0.2195 -0.3253 -0.0746
  457TMC3     C 6860   3.691   4.340  16.497  0.5046 -0.1027 -0.4736
  457TMC3     O 6861   3.601   4.411  16.447 -0.4203 -0.4212  0.1849
  457TMC3     H 6862   3.489   4.400  16.653 -0.0619 -2.7994  0.6144
  457TMC3    H1 6863   3.908   4.292  16.676  0.5994  0.0059 -0.5722
  457TMC3    H2 6864   3.710   4.536  16.971 -0.0744  0.8764 -0.6340
  457TMC3    C7 6865   3.930   4.397  16.912 -0.1645  0.4796 -0.4215
  457TMC3    C8 6866   3.555   4.636  16.780  1.2609 -0.4450  0.2576
  457TMC3    O1 6867   3.996   4.297  16.918 -0.3415  0.0606 -0.0376
  457TMC3    O2 6868   3.527   4.702  16.877  0.3562 -0.5136  0.1996
  458MPD2     C 6869   2.619   2.937  12.338  0.4927  0.1952  0.1429
  458MPD2    C1 6870   2.548   3.004  12.432 -0.3810 -0.1526  0.6026
  458MPD2    C2 6871   2.414   3.029  12.400  0.2672  0.1135 -0.2644
  458MPD2    C3 6872   2.345   2.976  12.294  0.0778  0.6775 -0.3331
  458MPD2    C4 6873   2.425   2.902  12.209 -0.2264  0.0987 -0.1850
  458MPD2    C5 6874   2.559   2.891  12.228 -0.0960 -0.1608  0.9250
  458MPD2     H 6875   2.351   3.092  12.462  0.0034 -0.0407 -0.3807
  458MPD2    H1 6876   2.389   2.847  12.122 -1.4970  0.6496 -0.0054
  458MPD2    H2 6877   2.727   2.928  12.335  0.6144  2.2242 -1.0180
  458MPD2    H3 6878   2.627   2.838  12.162 -0.6971  0.3614 -0.1107
  458MPD2     N 6879   2.207   3.006  12.277  0.0384 -0.7260  0.4066
  458MPD2    H5 6880   2.166   3.058  12.355 -1.3295  1.0825 -1.5252
  458MPD2    N1 6881   2.619   3.052  12.547  0.4772 -0.2138 -0.2129
  458MPD2    H7 6882   2.715   3.023  12.558  0.0892 -1.6667 -0.6235
  459TMC3    C1 6883   2.649   3.156  12.756 -0.3396 -0.2845  0.2881
  459TMC3    C2 6884   2.766   3.204  12.719  0.4624  0.4415  0.3375
  459TMC3    C3 6885   2.843   3.267  12.813  0.3094 -0.1595  0.2876
  459TMC3    C4 6886   2.607   3.165  12.885 -0.2786 -0.7057  0.1668
  459TMC3    C5 6887   2.689   3.225  12.978  0.1038  0.1999 -0.2331
  459TMC3    C6 6888   2.815   3.257  12.947  0.1664  0.6117  0.7478
  459TMC3     C 6889   2.553   3.102  12.654  0.1938 -0.8330  0.0118
  459TMC3     O 6890   2.436   3.131  12.662 -0.7857  0.1016 -0.0638
  459TMC3     H 6891   2.793   3.206  12.614  1.2810  1.4216  0.5640
  459TMC3    H1 6892   2.502   3.145  12.901 -0.5748 -0.7815 -1.7887
  459TMC3    H2 6893   2.895   3.275  13.018  0.1877  2.5619  0.2405
  459TMC3    C7 6894   2.645   3.202  13.115 -0.7484  0.1548 -0.4202
  459TMC3    C8 6895   2.967   3.333  12.766  0.4939 -0.2634  0.1224
  459TMC3    O1 6896   2.536   3.148  13.131 -0.0208 -0.1543  0.2444
  459TMC3    O2 6897   3.023   3.284  12.670  0.0090  0.2364 -0.2857
  460MPD2     C 6898   1.676   0.824  10.535 -0.6948 -0.5072  0.4403
  460MPD2    C1 6899   1.551   0.770  10.554 -0.7434  0.0576 -0.3344
  460MPD2    C2 6900   1.456   0.818  10.464  0.0647  0.1637 -0.4119
  460MPD2    C3 6901   1.482   0.893  10.351 -0.5094 -0.7667  0.2274
  460MPD2    C4 6902   1.611   0.938  10.334 -0.4119 -1.2309 -0.0406
  460MPD2    C5 6903   1.707   0.916  10.432 -0.1122 -0.0967  0.2959
  460MPD2     H 6904   1.352   0.796  10.482  0.1687  0.8346  0.9950
  460MPD2    H1 6905   1.635   0.988  10.241 -0.0354 -1.7150 -0.2050
  460MPD2    H2 6906   1.765   0.804  10.593 -0.3790 -0.2042  0.0631
  460MPD2    H3 6907   1.806   0.959  10.421  0.4147 -1.9059 -2.0366
  460MPD2     N 6908   1.383   0.923  10.247  0.2188  0.4914 -0.6257
  460MPD2    H5 6909   1.414   0.966  10.160  1.0558 -0.4223 -0.7707
  460MPD2    N1 6910   1.530   0.695  10.674  0.0792  0.1614  0.2626
  460MPD2    H7 6911   1.610   0.660  10.725 -0.6370 -4.2196 -1.6059
  461TMC3    C1 6912   1.181   0.938  10.142 -0.1940  0.9965  0.0512
  461TMC3    C2 6913   1.084   0.853  10.105 -0.4804  0.3619 -0.8513
  461TMC3    C3 6914   1.028   0.877   9.980  0.2822  0.0645 -0.5441
  461TMC3    C4 6915   1.217   1.052  10.077 -0.7617 -0.4088  0.2208
  461TMC3    C5 6916   1.149   1.083   9.964 -0.1046  0.0091  0.0878
  461TMC3    C6 6917   1.060   0.997   9.913 -0.1372  0.1778 -0.3008
  461TMC3     C 6918   1.252   0.895  10.258  0.1168 -0.2971 -0.7001
  461TMC3     O 6919   1.183   0.839  10.343 -0.5996  0.1354 -0.4548
  461TMC3     H 6920   1.080   0.755  10.151  0.5860  0.6438 -0.1782
  461TMC3    H1 6921   1.282   1.127  10.122 -1.2742  0.8124 -1.0758
  461TMC3    H2 6922   1.000   1.014   9.824 -0.8125 -2.0830 -0.2680
  461TMC3    C7 6923   1.149   1.215   9.916 -0.1568  0.3258 -0.6669
  461TMC3    C8 6924   0.962   0.772   9.909  0.1497 -0.5127 -0.0138
  461TMC3    O1 6925   1.045   1.238   9.851 -0.0233  0.2117 -0.4436
  461TMC3    O2 6926   0.982   0.770   9.787 -0.7131  0.2486 -0.5002
  462TMC3    C1 6927   1.099   2.511   0.370 -0.0935  0.8382 -0.7900
  462TMC3    C2 6928   1.218   2.450   0.410 -0.9923 -0.0082 -0.3059
  462TMC3    C3 6929   1.225   2.314   0.374  0.4015  0.0759  0.5258
  462TMC3    C4 6930   0.996   2.451   0.304  0.0278 -0.3068 -0.6357
  462TMC3    C5 6931   1.012   2.315   0.280 -0.0670 -0.1745 -0.0495
  462TMC3    C6 6932   1.128   2.246   0.305  0.3668  0.5088  0.5031
  462TMC3     C 6933   1.082   2.646   0.414  0.4125  0.4923  0.0233
  462TMC3     O 6934   1.142   2.680   0.516  1.0325 -0.5874 -0.2128
  462TMC3     H 6935   1.296   2.511   0.454 -1.9693 -0.3039  1.8672
  462TMC3    H1 6936   0.898   2.498   0.302 -0.9539 -2.3255  0.0847
  462TMC3    H2 6937   1.118   2.138   0.310  2.4296  0.4001  2.4837
  462TMC3    C7 6938   0.912   2.235   0.214  0.6065  0.4728  0.0310
  462TMC3    C8 6939   1.343   2.235   0.404  0.3232  0.9468  0.3096
  462TMC3    O1 6940   0.907   2.110   0.217 -0.2020 -0.7739 -0.1277
  462TMC3    O2 6941   1.416   2.276   0.493 -0.1007 -0.3906 -0.1522
  463MPD2     C 6942   2.275   0.400   1.856  0.2560  0.2031 -0.0418
  463MPD2    C1 6943   2.166   0.471   1.803 -0.5103 -0.5905 -0.1831
  463MPD2    C2 6944   2.156   0.607   1.811 -0.5703 -0.1437 -0.6752
  463MPD2    C3 6945   2.247   0.682   1.887  0.0543  0.0697 -0.6075
  463MPD2    C4 6946   2.348   0.615   1.955  0.3559 -0.3538 -0.5804
  463MPD2    C5 6947   2.360   0.477   1.932  0.4913 -0.5834  0.3815
  463MPD2     H 6948   2.080   0.667   1.761  0.8961  0.5249 -2.1347
  463MPD2    H1 6949   2.423   0.666   2.015  1.6533  0.9527 -3.3409
  463MPD2    H2 6950   2.285   0.293   1.849  0.2326 -0.0101  2.9075
  463MPD2    H3 6951   2.440   0.423   1.981  0.0988 -1.2283  0.3071
  463MPD2     N 6952   2.236   0.828   1.908 -0.6325  0.0139  0.3392
  463MPD2    H5 6953   2.309   0.870   1.964  0.8002 -0.9719 -0.8100
  463MPD2    N1 6954   2.067   0.416   1.714 -0.0534  0.0492 -0.1196
  463MPD2    H7 6955   1.983   0.465   1.686  0.9269  1.8760  0.1934
  464TMC3    C1 6956   1.954   0.256   1.589  0.4078 -0.1776  0.6210
  464TMC3    C2 6957   1.837   0.316   1.626  0.1679 -0.8271  0.1597
  464TMC3    C3 6958   1.722   0.266   1.565  0.5350  1.2522 -0.8614
  464TMC3    C4 6959   1.968   0.156   1.493 -0.8671 -0.1405 -0.4727
  464TMC3    C5 6960   1.850   0.119   1.431 -0.5138 -0.4469  0.4786
  464TMC3    C6 6961   1.726   0.166   1.470 -0.1140 -0.8710  0.1925
  464TMC3     C 6962   2.080   0.285   1.656  0.4873 -0.7611 -0.4870
  464TMC3     O 6963   2.171   0.203   1.659 -0.5488 -0.0195  0.1604
  464TMC3     H 6964   1.834   0.385   1.709 -3.8061  0.8479 -1.3924
  464TMC3    H1 6965   2.067   0.120   1.466  0.2563  2.7297 -0.2872
  464TMC3    H2 6966   1.635   0.118   1.438 -0.7514 -0.5250  1.5148
  464TMC3    C7 6967   1.854   4.731   1.352  0.6519  0.1920  0.7058
  464TMC3    C8 6968   1.595   0.344   1.572 -0.0775 -0.8539  0.6243
  464TMC3    O1 6969   1.957   4.659   1.368 -0.2848  0.0792  0.1541
  464TMC3    O2 6970   1.518   0.345   1.474  0.0628  0.2319 -0.0584
  465MPD2     C 6971   3.142   3.921  17.080 -0.3022  0.7519 -0.1330
  465MPD2    C1 6972   3.025   3.986  17.128  0.6174 -0.2768  0.6779
  465MPD2    C2 6973   2.948   4.056  17.043  0.3469  0.2768  0.8677
  465MPD2    C3 6974   2.987   4.071  16.911 -0.3732  0.3093 -0.4382
  465MPD2    C4 6975   3.103   4.009  16.867  0.4085 -0.0412  0.1643
  465MPD2    C5 6976   3.176   3.935  16.948  0.6678  0.0063 -1.2888
  465MPD2     H 6977   2.853   4.092  17.080  0.2782  0.9717  0.0250
  465MPD2    H1 6978   3.137   4.015  16.765  2.5837  2.2559  1.0049
  465MPD2    H2 6979   3.198   3.847  17.134 -1.2079  1.8683  2.3557
  465MPD2    H3 6980   3.250   3.878  16.894  1.5697  1.9700 -2.1201
  465MPD2     N 6981   2.896   4.135  16.824  0.3617 -0.1334 -0.7477
  465MPD2    H5 6982   2.801   4.133  16.860  0.6113  1.7718  0.0365
  465MPD2    N1 6983   2.983   3.991  17.260  0.1292 -0.4298 -0.4000
  465MPD2    H7 6984   2.897   4.043  17.272  1.4597  1.9882 -1.2681
  466TMC3    C1 6985   2.577   4.194  16.561 -0.3116 -0.7284 -0.0290
  466TMC3    C2 6986   2.583   4.305  16.478 -0.6358 -0.2708 -0.3438
  466TMC3    C3 6987   2.703   4.365  16.479  0.0961  0.7826  0.3103
  466TMC3    C4 6988   2.685   4.144  16.633 -0.4634 -0.3610 -0.1072
  466TMC3    C5 6989   2.799   4.217  16.631 -0.1113 -0.0467 -0.7181
  466TMC3    C6 6990   2.813   4.333  16.561  0.5152  0.6792 -0.5317
  466TMC3     C 6991   2.454   4.161  16.631 -0.8051 -0.1996  0.5105
  466TMC3     O 6992   2.473   4.101  16.736 -0.2103  0.7262  0.3294
  466TMC3     H 6993   2.505   4.352  16.418  0.4832 -0.9842 -2.3566
  466TMC3    H1 6994   2.681   4.057  16.698  1.3055 -0.1678  0.2471
  466TMC3    H2 6995   2.902   4.393  16.575 -1.0461  2.3981  1.8976
  466TMC3    C7 6996   2.915   4.173  16.693  0.5038 -0.8456  0.6088
  466TMC3    C8 6997   2.701   4.497  16.422 -0.4853  0.2561 -0.1241
  466TMC3    O1 6998   3.026   4.202  16.647 -0.5179  0.4977 -0.7071
  466TMC3    O2 6999   2.670   4.518  16.301 -0.2211 -0.3654 -0.2180
  467TMC3    C1 7000   4.421   2.762  13.922  0.3012 -0.4856 -0.7863
  467TMC3    C2 7001   4.354   2.824  13.815  0.2392 -0.2932  0.6116
  467TMC3    C3 7002   4.223   2.785  13.790 -0.6050 -0.1427 -0.8327
  467TMC3    C4 7003   4.364   2.676  14.005  0.0584 -0.1098  0.0785
  467TMC3    C5 7004   4.227   2.650  13.980  0.2521 -0.5008 -0.4748
  467TMC3    C6 7005   4.159   2.697  13.874 -0.3479 -0.6023 -0.2280
  467TMC3     C 7006   4.559   2.777  13.923 -0.0001  0.2353 -0.7014
  467TMC3     O 7007   4.611   2.871  13.862 -0.0941  0.3005 -0.1316
  467TMC3     H 7008   4.416   2.885  13.750 -0.9504 -0.6186 -0.8160
  467TMC3    H1 7009   4.408   2.646  14.099 -0.2459 -0.0595  0.2366
  467TMC3    H2 7010   4.068   2.649  13.839 -1.1338  1.2524 -0.7382
  467TMC3    C7 7011   4.174   2.546  14.066  0.2005  0.9258  0.1800
  467TMC3    C8 7012   4.202   2.778  13.649  0.3237  0.4007 -0.6648
  467TMC3    O1 7013   4.255   2.482  14.132  0.0761  0.4291 -0.5650
  467TMC3    O2 7014   4.158   2.672  13.613 -0.1816 -0.3977  0.5676
  468MPD2     C 7015   2.875   0.544  10.824 -0.3380  0.1731  0.2812
  468MPD2    C1 7016   3.009   0.511  10.843  0.2797 -0.0137 -1.1911
  468MPD2    C2 7017   3.038   0.382  10.864 -0.0951 -0.4721  0.0416
  468MPD2    C3 7018   2.937   0.292  10.908 -0.1857 -0.0152  0.8187
  468MPD2    C4 7019   2.808   0.332  10.919 -0.5083 -0.1384 -0.7537
  468MPD2    C5 7020   2.775   0.452  10.867  0.1891 -0.3423 -0.3526
  468MPD2     H 7021   3.140   0.344  10.859 -1.0389 -2.6560 -2.6387
  468MPD2    H1 7022   2.730   0.262  10.947 -1.4759  1.2147 -0.0565
  468MPD2    H2 7023   2.849   0.647  10.801  0.3059 -0.6538 -4.1072
  468MPD2    H3 7024   2.668   0.468  10.861  0.2381  0.5930  1.1647
  468MPD2     N 7025   2.966   0.164  10.950 -0.0272 -0.5638 -0.1516
  468MPD2    H5 7026   2.891   0.107  10.989 -1.6503  1.6895 -0.0223
  468MPD2    N1 7027   3.113   0.601  10.825  0.0394 -0.3112 -0.7168
  468MPD2    H7 7028   3.201   0.556  10.847  1.2455  3.1102  1.5253
  469TMC3    C1 7029   3.242   0.801  10.747 -0.5745 -0.2780 -0.4947
  469TMC3    C2 7030   3.344   0.709  10.723 -0.4342 -0.0403 -0.0464
  469TMC3    C3 7031   3.465   0.760  10.725  0.4934 -0.5282  0.4087
  469TMC3    C4 7032   3.265   0.927  10.793 -0.1233 -0.0397  0.1471
  469TMC3    C5 7033   3.400   0.961  10.806 -0.4786 -0.6302 -0.6453
  469TMC3    C6 7034   3.502   0.883  10.769  0.2190  0.3305 -0.3352
  469TMC3     C 7035   3.112   0.733  10.778 -0.2765  0.9834  0.0446
  469TMC3     O 7036   3.011   0.797  10.756 -0.9151 -0.1262  0.3068
  469TMC3     H 7037   3.334   0.602  10.703 -1.9752  0.1803 -0.4334
  469TMC3    H1 7038   3.189   1.003  10.809  0.5319  0.8368 -0.9101
  469TMC3    H2 7039   3.597   0.929  10.745 -0.1588  1.6406  0.6425
  469TMC3    C7 7040   3.439   1.084  10.879  0.5475  0.5210 -0.8495
  469TMC3    C8 7041   3.568   0.661  10.713  0.3324  0.6938 -0.2465
  469TMC3    O1 7042   3.355   1.170  10.897 -0.6408  0.2227 -0.4343
  469TMC3    O2 7043   3.552   0.564  10.640  0.3293  0.4077 -0.6272
  470TMC3    C1 7044   4.723   2.037   0.517  0.2093  0.3678 -0.0615
  470TMC3    C2 7045   0.051   2.156   0.530 -0.4134  0.5988  0.1786
  470TMC3    C3 7046   0.095   2.189   0.659  0.4265 -0.1535 -0.8114
  470TMC3    C4 7047   4.684   1.965   0.626  0.4799 -0.0739 -0.0387
  470TMC3    C5 7048   4.722   2.008   0.750  0.7925 -0.4066  0.3826
  470TMC3    C6 7049   0.056   2.126   0.774  1.2183 -0.6604 -0.1245
  470TMC3     C 7050   4.697   1.984   0.384 -0.0951 -0.5743 -0.7433
  470TMC3     O 7051   0.010   2.040   0.285 -0.3670 -0.1530 -0.2718
  470TMC3     H 7052   0.073   2.212   0.440 -1.4669  1.5126  0.4932
  470TMC3    H1 7053   4.637   1.867   0.630  0.1926  0.1250  1.5686
  470TMC3    H2 7054   0.099   2.150   0.871 -0.1676 -1.0083  0.5765
  470TMC3    C7 7055   4.657   1.937   0.859  0.6445  0.6038 -0.2594
  470TMC3    C8 7056   0.176   2.307   0.677  0.2185 -0.1219  0.1949
  470TMC3    O1 7057   4.626   1.818   0.855  0.1658 -0.0910 -0.3053
  470TMC3    O2 7058   0.216   2.329   0.794 -0.0739 -0.1964 -0.2394
  471MPD2     C 7059   0.665   3.523  16.604 -1.0191 -0.2028  0.9312
  471MPD2    C1 7060   0.725   3.404  16.568 -0.0199 -0.3675 -0.1936
  471MPD2    C2 7061   0.834   3.371  16.638  0.6767 -0.3872 -0.1146
  471MPD2    C3 7062   0.888   3.445  16.732 -0.0031  0.3259 -0.5194
  471MPD2    C4 7063   0.828   3.563  16.761 -0.5314 -0.1504 -0.5322
  471MPD2    C5 7064   0.712   3.593  16.704 -0.3392  0.1447 -0.1598
  471MPD2     H 7065   0.877   3.273  16.619  0.2381 -0.5612 -0.2172
  471MPD2    H1 7066   0.861   3.635  16.835  0.0750  0.3502 -1.2867
  471MPD2    H2 7067   0.579   3.567  16.554 -0.6745 -1.2208 -0.5507
  471MPD2    H3 7068   0.665   3.685  16.737  1.8441  1.5340 -0.9758
  471MPD2     N 7069   1.001   3.404  16.812 -0.1178 -0.7022 -0.1227
  471MPD2    H5 7070   1.018   3.449  16.901  0.0704 -1.0413  0.0108
  471MPD2    N1 7071   0.685   3.322  16.466 -0.2707 -0.5254 -0.9060
  471MPD2    H7 7072   0.754   3.255  16.435  0.0869 -0.1942 -0.8219
  472TMC3    C1 7073   0.546   3.237  16.298 -0.5800 -0.1727 -0.0171
  472TMC3    C2 7074   0.457   3.259  16.197 -0.0823 -0.1277 -0.1748
  472TMC3    C3 7075   0.415   3.144  16.128  0.9500 -0.7394  1.2389
  472TMC3    C4 7076   0.591   3.108  16.328 -0.1341 -0.2899  0.1073
  472TMC3    C5 7077   0.552   3.002  16.245  0.4245 -0.7135  0.5286
  472TMC3    C6 7078   0.456   3.018  16.153 -0.3209 -0.5444 -0.9054
  472TMC3     C 7079   0.567   3.346  16.389 -0.3129  0.3782  0.0666
  472TMC3     O 7080   0.503   3.453  16.386  0.6153 -0.3354 -0.2318
  472TMC3     H 7081   0.395   3.348  16.194  0.3484  0.2432  2.2266
  472TMC3    H1 7082   0.660   3.092  16.410 -0.4717 -0.7950  0.2995
  472TMC3    H2 7083   0.426   2.929  16.100 -0.6908 -1.1017  0.2393
  472TMC3    C7 7084   0.589   2.865  16.296  0.4842  0.4581  0.4256
  472TMC3    C8 7085   0.288   3.146  16.061 -0.2610  0.1138  0.3976
  472TMC3    O1 7086   0.645   2.860  16.405  0.1674  0.0865 -0.3681
  472TMC3    O2 7087   0.273   3.213  15.959  0.6894 -0.3490 -0.1293
  473MPD2     C 7088   1.199   0.211  13.591  0.6503  0.2982 -1.2775
  473MPD2    C1 7089   1.076   0.208  13.654  0.5774  0.3601  0.8968
  473MPD2    C2 7090   1.049   0.308  13.746 -0.1837 -0.0248  0.2032
  473MPD2    C3 7091   1.135   0.407  13.788 -0.1366  1.2564 -0.3163
  473MPD2    C4 7092   1.254   0.414  13.720 -0.0886 -0.0334  0.3468
  473MPD2    C5 7093   1.286   0.316  13.628 -0.5900 -0.5144 -0.4402
  473MPD2     H 7094   0.951   0.296  13.789 -0.1936 -3.2846 -0.7429
  473MPD2    H1 7095   1.330   0.487  13.747 -0.5835  0.3888  0.5994
  473MPD2    H2 7096   1.247   0.141  13.524 -1.0325 -1.0483 -1.0762
  473MPD2    H3 7097   1.388   0.310  13.592  0.5642 -0.8673  2.8913
  473MPD2     N 7098   1.102   0.497  13.897  0.0290 -0.4048 -0.3968
  473MPD2    H5 7099   1.167   0.569  13.927 -2.1289  0.9371  1.1023
  473MPD2    N1 7100   0.981   0.103  13.631  0.6625  0.2710 -0.9717
  473MPD2    H7 7101   0.890   0.101  13.677  0.1719  0.2386 -1.9447
  474TMC3    C1 7102   0.987   0.592  14.082  0.1735  0.1459 -0.7809
  474TMC3    C2 7103   1.033   0.713  14.043 -0.5061  0.5567  0.4681
  474TMC3    C3 7104   1.001   0.818  14.124  0.2417 -0.3342  0.3355
  474TMC3    C4 7105   0.923   0.564  14.201 -0.4416  0.2264 -0.4034
  474TMC3    C5 7106   0.891   0.674  14.274  0.5543 -0.1738 -0.6571
  474TMC3    C6 7107   0.927   0.800  14.234 -0.0893  0.3703  0.4032
  474TMC3     C 7108   0.995   0.481  13.987 -0.5099  0.7646 -0.0580
  474TMC3     O 7109   0.920   0.387  14.007  0.2300  0.1441 -0.1048
  474TMC3     H 7110   1.080   0.741  13.949  1.0480 -1.3812  0.6638
  474TMC3    H1 7111   0.876   0.467  14.213 -1.2116  0.6301 -0.1667
  474TMC3    H2 7112   0.894   0.888  14.288  0.3817  1.2265 -0.6947
  474TMC3    C7 7113   0.840   0.644  14.409 -0.4434  0.1780 -0.5172
  474TMC3    C8 7114   0.970   0.935  14.044 -0.2149 -0.0635  0.2226
  474TMC3    O1 7115   0.765   0.548  14.434 -0.1478 -0.1627  0.7869
  474TMC3    O2 7116   0.938   0.913  13.924  0.1984  0.2830  0.0700
  475MPD2     C 7117   4.359   2.882   9.709  0.4087  0.2511  0.3207
  475MPD2    C1 7118   4.376   2.937   9.835  0.0039  0.1143 -0.0791
  475MPD2    C2 7119   4.288   2.912   9.934  0.3686  0.8132 -0.2583
  475MPD2    C3 7120   4.189   2.819   9.920 -0.5556  0.7692  0.2069
  475MPD2    C4 7121   4.171   2.763   9.797 -0.8109 -0.3665  0.6429
  475MPD2    C5 7122   4.258   2.794   9.698 -0.0580 -0.0862  0.2065
  475MPD2     H 7123   4.294   2.955  10.033  1.0783 -1.0517  0.5101
  475MPD2    H1 7124   4.109   2.675   9.784  0.9854 -2.0318  3.2408
  475MPD2    H2 7125   4.432   2.893   9.630 -0.7901 -0.9388 -0.9872
  475MPD2    H3 7126   4.247   2.736   9.608 -2.3127 -1.4229  1.3334
  475MPD2     N 7127   4.117   2.781  10.038 -0.5041 -0.5865  0.7949
  475MPD2    H5 7128   4.124   2.836  10.123  2.8076 -2.4404  1.7112
  475MPD2    N1 7129   4.477   3.038   9.844 -0.4860 -0.1392  0.1855
  475MPD2    H7 7130   4.517   3.077   9.759 -1.5485  2.1668  0.7358
  476TMC3    C1 7131   4.556   3.235   9.937  0.1826  0.1435  0.4803
  476TMC3    C2 7132   4.454   3.303   9.884  0.1113 -0.1219 -0.2019
  476TMC3    C3 7133   4.449   3.430   9.913 -0.4994 -0.6414 -0.2529
  476TMC3    C4 7134   4.663   3.281  10.005 -0.5337 -0.1439 -0.5627
  476TMC3    C5 7135   4.654   3.416  10.025  0.2092  0.7068 -0.9056
  476TMC3    C6 7136   4.545   3.494   9.989 -0.0281  0.1999 -0.5796
  476TMC3     C 7137   4.517   3.100   9.959 -0.7235  0.1284 -0.4528
  476TMC3     O 7138   4.515   3.061  10.077 -0.3684  0.0271 -0.1153
  476TMC3     H 7139   4.371   3.246   9.842  0.3539  0.3483 -1.3168
  476TMC3    H1 7140   4.734   3.208  10.041 -0.6818  0.4200  0.9011
  476TMC3    H2 7141   4.540   3.599  10.015 -1.0559 -0.0455  0.2240
  476TMC3    C7 7142   0.021   3.479  10.106  0.9148  0.0574 -0.5177
  476TMC3    C8 7143   4.333   3.509   9.891 -1.0657  0.2486  0.5737
  476TMC3    O1 7144   0.018   3.602  10.105 -0.0810 -0.3507 -0.7215
  476TMC3    O2 7145   4.341   3.626   9.919 -0.2662  0.3131 -0.6451
  477MPD2     C 7146   1.639   0.169  11.608  0.0573  0.1541 -0.0236
  477MPD2    C1 7147   1.592   0.042  11.583  0.7251  0.8371  0.3196
  477MPD2    C2 7148   1.593   4.684  11.686  0.1035 -0.0954  0.1003
  477MPD2    C3 7149   1.603   4.725  11.818  0.6518  0.3821 -0.1298
  477MPD2    C4 7150   1.653   0.121  11.842 -0.2434  0.8959 -0.4153
  477MPD2    C5 7151   1.678   0.196  11.734 -0.3898  0.5337 -0.2283
  477MPD2     H 7152   1.537   4.594  11.665  1.1527 -0.7679  0.1752
  477MPD2    H1 7153   1.682   0.156  11.941 -1.6994 -1.0668  0.6915
  477MPD2    H2 7154   1.648   0.239  11.526 -1.9018  0.9067  0.4307
  477MPD2    H3 7155   1.717   0.296  11.752 -0.5776  0.7329 -0.9264
  477MPD2     N 7156   1.576   4.637  11.920  0.8286 -0.2526 -0.8601
  477MPD2    H5 7157   1.559   4.539  11.899 -2.0586  0.4081 -1.6309
  477MPD2    N1 7158   1.536   0.014  11.458  0.2287  0.2844  0.2295
  477MPD2    H7 7159   1.515   0.089  11.393  2.5393  0.3651 -0.3977
  478TMC3    C1 7160   1.381   4.662  11.309  0.0354  0.3014 -0.5377
  478TMC3    C2 7161   1.249   4.646  11.339  1.0102  0.4219 -0.5395
  478TMC3    C3 7162   1.149   4.708  11.267 -0.1030  0.5704  0.0731
  478TMC3    C4 7163   1.425   0.008  11.209 -0.2538  0.2861  0.0922
  478TMC3    C5 7164   1.327   0.055  11.133  0.1999  0.0357 -0.2304
  478TMC3    C6 7165   1.192   0.057  11.163 -0.1057  0.2534  0.5197
  478TMC3     C 7166   1.473   4.631  11.415  0.0210  0.2345  0.1380
  478TMC3     O 7167   1.458   4.522  11.472 -0.8715 -0.6503  0.0407
  478TMC3     H 7168   1.228   4.592  11.431  2.6829 -0.4459 -0.6729
  478TMC3    H1 7169   1.528   0.034  11.186  0.0058  0.9271  1.9268
  478TMC3    H2 7170   1.114   0.113  11.113  0.9920  1.8351  0.5670
  478TMC3    C7 7171   1.365   0.106  10.997  0.6515 -0.4110 -0.0369
  478TMC3    C8 7172   1.038   0.020  11.350 -0.1509  0.3857  0.2188
  478TMC3    O1 7173   1.483   0.116  10.971  0.1101  0.3330 -0.1792
  478TMC3    O2 7174   0.990   4.675  11.430  0.3568  0.3036  0.6032
  479MPD2     C 7175   0.548   2.700  15.333  0.1987  0.2534 -0.0053
  479MPD2    C1 7176   0.505   2.611  15.429 -0.3268  0.0918 -0.0279
  479MPD2    C2 7177   0.519   2.649  15.563  0.5454 -0.8647 -0.3397
  479MPD2    C3 7178   0.565   2.779  15.589 -0.1839 -1.0870 -0.0448
  479MPD2    C4 7179   0.618   2.855  15.486 -0.4432  0.1219  0.2011
  479MPD2    C5 7180   0.621   2.807  15.363 -0.2563 -0.8225 -0.9769
  479MPD2     H 7181   0.479   2.594  15.647 -1.4286  1.3421  0.1666
  479MPD2    H1 7182   0.685   2.936  15.514 -0.5910  0.4752 -0.4741
  479MPD2    H2 7183   0.539   2.670  15.229 -2.5873 -0.3939  0.4096
  479MPD2    H3 7184   0.665   2.863  15.282 -1.3042  0.2114 -0.8264
  479MPD2     N 7185   0.576   2.844  15.716 -0.5615 -0.3238 -0.1490
  479MPD2    H5 7186   0.646   2.917  15.731  0.2375 -1.1731  0.2477
  479MPD2    N1 7187   0.437   2.492  15.391  0.5220 -0.6900 -0.0826
  479MPD2    H7 7188   0.427   2.470  15.292 -2.1353  1.0331 -0.2133
  480TMC3    C1 7189   0.202   2.634  15.920  0.3100  0.0629 -0.1049
  480TMC3    C2 7190   0.113   2.663  15.819  0.1418 -0.0314  0.2620
  480TMC3    C3 7191   0.152   2.748  15.719 -0.6930  0.2675  0.1007
  480TMC3    C4 7192   0.332   2.679  15.918 -0.4534  0.0259 -0.3489
  480TMC3    C5 7193   0.374   2.748  15.809 -0.0712  0.1894  0.7057
  480TMC3    C6 7194   0.284   2.789  15.709 -0.2944  0.0143  0.6024
  480TMC3     C 7195   0.171   2.519  16.002  0.7611 -0.0829  0.3066
  480TMC3     O 7196   0.097   2.435  15.947  0.2074  0.2770  0.4133
  480TMC3     H 7197   0.025   2.599  15.810 -1.1860  1.5969  1.6445
  480TMC3    H1 7198   0.395   2.659  16.003 -0.1449 -0.5870 -0.7226
  480TMC3    H2 7199   0.312   2.872  15.644 -0.1882  0.2923  0.9977
  480TMC3    C7 7200   0.510   2.802  15.832 -0.4566  0.2451  0.0343
  480TMC3    C8 7201   0.080   2.731  15.598 -1.0284  0.1839 -0.0366
  480TMC3    O1 7202   0.542   2.820  15.948 -0.1219  0.2894  0.0034
  480TMC3    O2 7203   4.692   2.718  15.614 -0.4792  0.1012  0.6726
  481MPD2     C 7204   2.242   1.342  14.524 -0.7829 -0.0737  0.2255
  481MPD2    C1 7205   2.211   1.474  14.550  0.7076  0.1248 -0.1395
  481MPD2    C2 7206   2.191   1.515  14.680 -0.1271  0.0592 -0.4846
  481MPD2    C3 7207   2.222   1.430  14.787 -0.1434 -0.2956 -0.1132
  481MPD2    C4 7208   2.280   1.310  14.760 -0.1031 -0.3474 -0.3921
  481MPD2    C5 7209   2.278   1.265  14.630  0.3448  0.4400  0.1936
  481MPD2     H 7210   2.160   1.615  14.706  0.7103  0.0814  0.4146
  481MPD2    H1 7211   2.306   1.248  14.845 -0.2910  2.4881  1.7366
  481MPD2    H2 7212   2.243   1.296  14.426  1.4294 -0.0604  0.2453
  481MPD2    H3 7213   2.311   1.164  14.606 -1.8151 -0.2217 -0.0389
  481MPD2     N 7214   2.205   1.454  14.927 -0.1912 -0.1202  0.0256
  481MPD2    H5 7215   2.231   1.377  14.989  0.6038  0.7630  0.7949
  481MPD2    N1 7216   2.176   1.546  14.433  0.0058 -0.2907 -0.1678
  481MPD2    H7 7217   2.179   1.493  14.346  0.3188  2.8750 -2.0848
  482TMC3    C1 7218   2.104   1.720  14.296  0.1524 -0.0195 -0.5052
  482TMC3    C2 7219   2.044   1.619  14.215 -0.6477  0.2831 -0.0907
  482TMC3    C3 7220   1.972   1.663  14.108 -0.0023 -0.7373 -0.7652
  482TMC3    C4 7221   2.083   1.855  14.269  0.0237  0.1973 -0.0122
  482TMC3    C5 7222   2.021   1.887  14.154 -0.2154 -0.1539 -0.0989
  482TMC3    C6 7223   1.962   1.792  14.076 -0.1383 -0.0177  0.1358
  482TMC3     C 7224   2.151   1.679  14.429  0.7403 -1.0366  0.1672
  482TMC3     O 7225   2.165   1.763  14.514 -0.2629 -0.1862 -0.3037
  482TMC3     H 7226   2.046   1.515  14.242 -0.2510  0.6203  1.1746
  482TMC3    H1 7227   2.136   1.927  14.332 -1.6310  1.2675  0.1494
  482TMC3    H2 7228   1.887   1.812  14.001 -1.7306 -2.5589  1.0495
  482TMC3    C7 7229   2.040   2.027  14.107  0.2383 -0.1340 -0.4186
  482TMC3    C8 7230   1.942   1.563  14.004 -0.5357 -0.4740 -0.2406
  482TMC3    O1 7231   2.041   2.109  14.201  0.6594 -0.0549 -0.6614
  482TMC3    O2 7232   1.954   1.444  14.031 -0.1198  0.5798  0.2022
  483TMC3    C1 7233   4.239   1.296   0.942 -0.2082  0.3244  0.9961
  483TMC3    C2 7234   4.344   1.351   0.874  0.2318 -0.9104  0.3123
  483TMC3    C3 7235   4.463   1.345   0.936  0.9184  0.0277 -0.2710
  483TMC3    C4 7236   4.250   1.253   1.072 -0.0638 -0.4232  0.5622
  483TMC3    C5 7237   4.374   1.247   1.122  0.1714  0.2857 -0.2329
  483TMC3    C6 7238   4.486   1.276   1.053  0.0328 -0.2740 -0.2656
  483TMC3     C 7239   4.114   1.257   0.871  0.2045 -0.0012  0.0838
  483TMC3     O 7240   4.083   1.329   0.776  0.5945 -0.4028  0.5567
  483TMC3     H 7241   4.324   1.399   0.779  0.5886  0.5298  0.9665
  483TMC3    H1 7242   4.163   1.218   1.126  1.3437 -1.8314  1.9233
  483TMC3    H2 7243   4.583   1.275   1.101 -0.1277 -1.1053  0.0399
  483TMC3    C7 7244   4.384   1.165   1.243 -0.2082 -0.0819 -0.5075
  483TMC3    C8 7245   4.569   1.413   0.868 -0.9640  0.4487  0.2206
  483TMC3    O1 7246   4.294   1.161   1.328  0.2057  0.3732  0.4182
  483TMC3    O2 7247   4.543   1.457   0.755 -0.3965  0.4420  0.0595
  484MPD2     C 7248   3.161   3.592  12.943  0.2016 -0.9275  0.1844
  484MPD2    C1 7249   3.126   3.512  12.839 -0.5418 -0.0417 -0.5672
  484MPD2    C2 7250   3.214   3.497  12.734 -0.2398 -0.1658  0.2249
  484MPD2    C3 7251   3.333   3.577  12.729  0.1417  0.2883 -0.4491
  484MPD2    C4 7252   3.357   3.668  12.828 -0.0430  0.5134 -0.4624
  484MPD2    C5 7253   3.266   3.684  12.928  0.1373  0.1078 -0.2275
  484MPD2     H 7254   3.184   3.442  12.645 -3.4957  0.4330  0.9355
  484MPD2    H1 7255   3.447   3.730  12.822 -1.0112  1.7541 -2.1015
  484MPD2    H2 7256   3.091   3.615  13.022 -0.0789 -0.0502 -0.3146
  484MPD2    H3 7257   3.291   3.760  13.000 -0.2306  1.1460 -1.2051
  484MPD2     N 7258   3.418   3.578  12.615  0.2237  0.1560 -0.5859
  484MPD2    H5 7259   3.498   3.640  12.621  0.4293 -0.0871 -0.8289
  484MPD2    N1 7260   3.011   3.437  12.846  0.6047  0.4930  0.1641
  484MPD2    H7 7261   2.956   3.463  12.928  1.1174 -1.3763  1.1143
  485TMC3    C1 7262   3.546   3.471  12.447 -0.1736 -0.4045 -0.5740
  485TMC3    C2 7263   3.645   3.372  12.456 -0.1706 -0.0194 -0.6359
  485TMC3    C3 7264   3.746   3.367  12.362  0.4103  0.9124  0.5054
  485TMC3    C4 7265   3.555   3.567  12.351 -0.4243  0.0453  0.1675
  485TMC3    C5 7266   3.657   3.554  12.264  0.2854 -0.1616 -0.1637
  485TMC3    C6 7267   3.750   3.454  12.268  0.0683 -0.3157 -0.7464
  485TMC3     C 7268   3.427   3.474  12.529 -0.0805 -0.9139  0.0585
  485TMC3     O 7269   3.357   3.376  12.512  0.5603 -0.0832  0.6527
  485TMC3     H 7270   3.621   3.291  12.524 -0.4987 -1.5445 -2.6073
  485TMC3    H1 7271   3.471   3.636  12.346  0.2777  0.8195 -1.0659
  485TMC3    H2 7272   3.832   3.452  12.197  0.6049 -0.1588 -0.1239
  485TMC3    C7 7273   3.611   3.582  12.125 -0.7716  0.7692 -0.3796
  485TMC3    C8 7274   3.753   3.240  12.297  0.3395  0.6017 -0.1490
  485TMC3    O1 7275   3.579   3.695  12.090 -0.4152  0.0973  0.4840
  485TMC3    O2 7276   3.691   3.229  12.194  0.3669 -0.9043  0.1499
  486MPD2     C 7277   4.707   2.189  13.002 -0.1412  0.0778 -0.1156
  486MPD2    C1 7278   0.067   2.203  12.899  0.0381  0.0301 -0.2832
  486MPD2    C2 7279   0.087   2.329  12.848 -0.5086 -0.6146  0.4040
  486MPD2    C3 7280   0.009   2.440  12.904 -0.9492  0.4586 -0.3614
  486MPD2    C4 7281   4.664   2.425  13.010 -0.4372  0.2906 -0.0708
  486MPD2    C5 7282   4.643   2.298  13.058  0.0638 -0.4365 -0.2312
  486MPD2     H 7283   0.157   2.353  12.768 -0.3906 -0.3122  0.5971
  486MPD2    H1 7284   4.612   2.505  13.060  0.4172  1.3593 -0.9015
  486MPD2    H2 7285   4.683   2.092  13.044  2.1828 -0.1697  0.6393
  486MPD2    H3 7286   4.579   2.293  13.145  0.6268  1.4527  0.2882
  486MPD2     N 7287   0.031   2.568  12.846  0.3005 -0.4970 -0.2476
  486MPD2    H5 7288   0.091   2.580  12.765  0.3541 -2.0846 -0.4531
  486MPD2    N1 7289   0.142   2.098  12.853  0.0853 -0.6603  0.0828
  486MPD2    H7 7290   0.126   2.007  12.896 -1.5379 -0.2818  0.2723
  487TMC3    C1 7291   0.316   1.991  12.754 -0.3265  0.6504  0.2228
  487TMC3    C2 7292   0.275   1.874  12.814  0.2705  0.3021 -0.3332
  487TMC3    C3 7293   0.371   1.776  12.840 -0.4186  0.4368  0.6052
  487TMC3    C4 7294   0.445   2.018  12.739 -0.2121  0.3759  0.2621
  487TMC3    C5 7295   0.538   1.931  12.780  0.1910  0.1534  0.2965
  487TMC3    C6 7296   0.505   1.800  12.822  1.0799 -0.0495 -0.2817
  487TMC3     C 7297   0.235   2.104  12.758 -0.4297 -0.0779 -1.1656
  487TMC3     O 7298   0.266   2.186  12.674 -0.4797 -0.0010 -0.2151
  487TMC3     H 7299   0.171   1.845  12.814  0.9219 -2.1191  1.6995
  487TMC3    H1 7300   0.481   2.115  12.705 -0.9451  0.7538  0.5723
  487TMC3    H2 7301   0.582   1.749  12.880  0.5993 -0.7034 -0.2222
  487TMC3    C7 7302   0.657   1.988  12.832  0.1500  0.6002  0.3128
  487TMC3    C8 7303   0.345   1.661  12.920 -0.7728 -0.1042 -0.4340
  487TMC3    O1 7304   0.657   2.108  12.851 -0.0795  0.5942  0.2827
  487TMC3    O2 7305   0.443   1.593  12.947  0.5421  0.1852 -0.2911
  488MPD2     C 7306   0.003   4.016  16.388  0.0247  0.4989  0.1741
  488MPD2    C1 7307   0.073   4.104  16.477  0.4842 -0.6261  0.4816
  488MPD2    C2 7308   0.031   4.091  16.613 -0.1557  0.0619 -0.0196
  488MPD2    C3 7309   4.675   3.998  16.659  0.2026  0.0942 -0.0530
  488MPD2    C4 7310   4.610   3.913  16.572 -0.3263  0.3419  0.4683
  488MPD2    C5 7311   4.651   3.925  16.436 -0.8545  0.5184  0.7100
  488MPD2     H 7312   0.083   4.148  16.688  1.5536 -1.3015 -0.1701
  488MPD2    H1 7313   4.526   3.848  16.595 -1.3573  1.6908  0.5158
  488MPD2    H2 7314   0.023   4.008  16.282  0.3745 -1.3856  0.3905
  488MPD2    H3 7315   4.597   3.861  16.366 -2.1168  0.3390  1.8412
  488MPD2     N 7316   4.656   3.988  16.801  0.0334  0.0290 -0.4516
  488MPD2    H5 7317   4.697   4.059  16.860 -1.3900 -0.3256  0.9760
  488MPD2    N1 7318   0.174   4.196  16.435  0.5827  0.6967 -0.4326
  488MPD2    H7 7319   0.217   4.246  16.512 -0.8021  1.0446  0.1261
  489TMC3    C1 7320   4.565   3.931  17.003  0.7513  0.5851 -0.3756
  489TMC3    C2 7321   4.552   4.071  17.034 -0.6913 -0.3372  0.1828
  489TMC3    C3 7322   4.527   4.101  17.166 -0.1415  0.1203 -0.0506
  489TMC3    C4 7323   4.566   3.836  17.106  1.2472  0.3065 -0.6397
  489TMC3    C5 7324   4.544   3.878  17.235  0.5236  0.0711 -0.0332
  489TMC3    C6 7325   4.534   4.011  17.270  0.2883 -0.0352 -0.4320
  489TMC3     C 7326   4.595   3.887  16.871  0.6921 -0.3477  0.3183
  489TMC3     O 7327   4.561   3.778  16.826 -0.1577 -0.4443 -0.0613
  489TMC3     H 7328   4.525   4.140  16.954 -1.2738 -0.8629 -0.0757
  489TMC3    H1 7329   4.595   3.733  17.091  2.8617  0.7329 -0.4588
  489TMC3    H2 7330   4.532   4.036  17.375  1.4638 -1.8429  0.0185
  489TMC3    C7 7331   4.548   3.782  17.351 -0.7579  0.3854 -0.1862
  489TMC3    C8 7332   4.517   4.242  17.206 -0.1404 -0.2058 -1.2333
  489TMC3    O1 7333   4.581   3.825  17.462 -0.2692 -0.0111 -0.2627
  489TMC3    O2 7334   4.481   4.268  17.321  0.1228 -0.2440 -0.5752
  490MPD2     C 7335   0.505   3.741  17.127  0.2607 -0.6231 -0.1808
  490MPD2    C1 7336   0.638   3.713  17.119  0.5034  0.1654 -0.4535
  490MPD2    C2 7337   0.730   3.810  17.126  0.6163 -0.4925  0.4629
  490MPD2    C3 7338   0.694   3.939  17.140 -0.6124  0.6117 -1.2121
  490MPD2    C4 7339   0.559   3.968  17.152  0.8513 -0.5798  0.2583
  490MPD2    C5 7340   0.467   3.873  17.136 -0.4966 -0.3903  0.1818
  490MPD2     H 7341   0.835   3.784  17.121  0.8379  0.4324  0.3403
  490MPD2    H1 7342   0.519   4.067  17.168  0.8883 -0.8859  2.2711
  490MPD2    H2 7343   0.430   3.664  17.116 -2.3464  1.9321 -0.4933
  490MPD2    H3 7344   0.364   3.904  17.125 -0.2880 -0.9016 -3.3027
  490MPD2     N 7345   0.781   4.047  17.141 -0.0800  0.3583  0.3882
  490MPD2    H5 7346   0.749   4.136  17.176  1.6882  0.9516  0.4912
  490MPD2    N1 7347   0.690   3.585  17.091  0.3332  0.3452 -0.4064
  490MPD2    H7 7348   0.790   3.574  17.092 -0.1436 -4.1034  0.4674
  491TMC3    C1 7349   0.700   3.357  17.031 -0.3290  0.3657 -0.1720
  491TMC3    C2 7350   0.778   3.326  17.142 -0.7339 -0.7141 -0.0434
  491TMC3    C3 7351   0.755   3.207  17.201 -0.4084 -0.1240  0.6374
  491TMC3    C4 7352   0.632   3.256  16.965 -0.7496  0.3359  0.3970
  491TMC3    C5 7353   0.620   3.135  17.025  0.1020 -1.3142  0.1326
  491TMC3    C6 7354   0.679   3.112  17.147  0.3617 -0.4141  0.6501
  491TMC3     C 7355   0.616   3.480  17.043 -0.4894  0.7936  0.1505
  491TMC3     O 7356   0.496   3.463  17.023  0.0426  0.3454  0.8167
  491TMC3     H 7357   0.821   3.407  17.201  0.2402 -0.8414 -0.5778
  491TMC3    H1 7358   0.586   3.290  16.873 -0.4627  1.1331  0.5452
  491TMC3    H2 7359   0.678   3.015  17.194  0.7797 -1.0901 -0.7213
  491TMC3    C7 7360   0.526   3.044  16.972 -0.1350  0.1645  0.7892
  491TMC3    C8 7361   0.748   3.207  17.338 -0.1390 -0.4713 -0.2890
  491TMC3    O1 7362   0.430   3.096  16.921  0.8324 -0.6120 -0.1483
  491TMC3    O2 7363   0.662   3.132  17.381  0.0177 -0.1692  0.0855
  492MPD2     C 7364   1.387   3.235  11.749 -0.3597 -0.0306 -0.5556
  492MPD2    C1 7365   1.303   3.148  11.691  0.6522 -0.4807 -0.2696
  492MPD2    C2 7366   1.203   3.090  11.772 -0.5166  0.1326 -0.1309
  492MPD2    C3 7367   1.200   3.108  11.913 -0.2377 -0.5021  0.3521
  492MPD2    C4 7368   1.285   3.207  11.964 -0.0455 -0.6977  0.9294
  492MPD2    C5 7369   1.378   3.267  11.882  0.1377 -0.4029  0.3668
  492MPD2     H 7370   1.142   3.015  11.723 -0.0393 -0.6274  0.4241
  492MPD2    H1 7371   1.284   3.239  12.067 -0.2654 -2.1584  1.3820
  492MPD2    H2 7372   1.440   3.295  11.676  1.9475 -2.1170 -0.6088
  492MPD2    H3 7373   1.452   3.336  11.920 -0.1044  0.0801 -0.0411
  492MPD2     N 7374   1.098   3.047  11.999  0.0210  0.4232 -0.3815
  492MPD2    H5 7375   1.085   3.096  12.087  0.1837 -0.2211  0.0001
  492MPD2    N1 7376   1.325   3.127  11.551 -0.2166 -0.3696 -0.0279
  492MPD2    H7 7377   1.400   3.178  11.504 -2.4376  0.5929 -2.5515
  493TMC3    C1 7378   1.308   3.034  11.340  0.3560  0.1580 -0.1542
  493TMC3    C2 7379   1.414   3.109  11.302  0.0339 -0.2461  0.1325
  493TMC3    C3 7380   1.440   3.138  11.171 -0.4431  0.2593  0.5438
  493TMC3    C4 7381   1.221   2.983  11.245 -0.3349 -0.4186  0.8232
  493TMC3    C5 7382   1.251   3.007  11.110  0.3127  0.8296 -0.0688
  493TMC3    C6 7383   1.355   3.092  11.072 -0.5547  0.5470 -0.8882
  493TMC3     C 7384   1.246   3.048  11.468 -0.4398  0.0424 -0.2934
  493TMC3     O 7385   1.134   2.996  11.484 -1.0496 -0.0775  0.0117
  493TMC3     H 7386   1.485   3.137  11.378 -2.5567  2.2931  1.6124
  493TMC3    H1 7387   1.134   2.924  11.271 -1.6716  0.6472 -1.2537
  493TMC3    H2 7388   1.367   3.110  10.965  3.9425  1.3202 -0.2449
  493TMC3    C7 7389   1.205   2.921  11.009  0.1484 -0.5345  0.3116
  493TMC3    C8 7390   1.560   3.217  11.142 -0.1802  0.2666 -0.4770
  493TMC3    O1 7391   1.210   2.971  10.897  0.9921 -0.4510  0.5847
  493TMC3    O2 7392   1.640   3.230  11.237 -0.3512 -0.2225  0.0880
  494TMC3    C1 7393   1.337   0.590   0.609  0.0611 -0.4639  0.2887
  494TMC3    C2 7394   1.398   0.468   0.620 -0.3772  0.7871 -0.2108
  494TMC3    C3 7395   1.518   0.449   0.561  0.7945 -0.6790  0.5324
  494TMC3    C4 7396   1.400   0.692   0.541  0.3352 -0.7954 -0.2921
  494TMC3    C5 7397   1.520   0.661   0.489  0.4032  0.2764  0.8149
  494TMC3    C6 7398   1.591   0.543   0.495  0.0877  0.3738 -0.4376
  494TMC3     C 7399   1.239   0.626   0.705 -0.0461 -0.6133 -0.9353
  494TMC3     O 7400   1.232   0.563   0.806  0.2288 -0.0653  0.1556
  494TMC3     H 7401   1.347   0.392   0.678 -2.1472  1.0314 -1.4538
  494TMC3    H1 7402   1.363   0.793   0.554 -1.2831 -1.3832 -0.3866
  494TMC3    H2 7403   1.679   0.516   0.438 -0.5489 -3.4454  0.3884
  494TMC3    C7 7404   1.567   0.753   0.384  0.2090 -0.1107  1.3822
  494TMC3    C8 7405   1.575   0.317   0.559  0.9224  0.7650  0.5549
  494TMC3    O1 7406   1.680   0.739   0.338  0.4505 -0.5007 -0.6315
  494TMC3    O2 7407   1.693   0.297   0.546 -0.7080 -0.0195 -0.2724
  495TMC3    C1 7408   0.561   2.556  14.791 -0.8604  0.1072  0.8940
  495TMC3    C2 7409   0.640   2.656  14.734 -0.1418 -0.1136 -0.5274
  495TMC3    C3 7410   0.601   2.786  14.741 -0.0690 -0.6933  0.7015
  495TMC3    C4 7411   0.455   2.591  14.867  0.0918  0.7483  0.2033
  495TMC3    C5 7412   0.445   2.723  14.897  1.0550  0.0726  0.5224
  495TMC3    C6 7413   0.501   2.827  14.828 -0.0488  0.1005  0.2709
  495TMC3     C 7414   0.540   2.436  14.710  0.1843 -0.0964 -0.4558
  495TMC3     O 7415   0.437   2.372  14.724 -0.5376  0.7233 -0.5626
  495TMC3     H 7416   0.722   2.640  14.665  1.7290  3.4174  0.9505
  495TMC3    H1 7417   0.400   2.512  14.916  2.5253 -1.1492 -0.1341
  495TMC3    H2 7418   0.498   2.928  14.865 -0.2784  0.0505  0.3880
  495TMC3    C7 7419   0.361   2.767  15.006  0.0294  0.2919 -0.8384
  495TMC3    C8 7420   0.692   2.888  14.697  0.3597  1.0330 -0.4289
  495TMC3    O1 7421   0.398   2.866  15.077  0.1133 -0.1266  0.4998
  495TMC3    O2 7422   0.731   2.974  14.775 -0.0249  0.3395 -0.6635
  496MPD2     C 7423   2.208   2.326  15.106 -0.3911 -0.4576  0.4609
  496MPD2    C1 7424   2.288   2.293  15.215 -0.7113 -0.1728 -0.5543
  496MPD2    C2 7425   2.237   2.287  15.345 -0.0286  0.1092 -0.4001
  496MPD2    C3 7426   2.104   2.338  15.364 -0.0864  0.4908 -0.6134
  496MPD2    C4 7427   2.029   2.385  15.256  0.1045 -1.0338  0.3541
  496MPD2    C5 7428   2.083   2.382  15.133 -0.3547 -0.3650 -0.4673
  496MPD2     H 7429   2.307   2.270  15.426 -2.5763  0.0091  1.7832
  496MPD2    H1 7430   1.939   2.444  15.274  1.3971  1.2493 -0.6056
  496MPD2    H2 7431   2.249   2.328  15.006 -0.1869  0.2256  0.5555
  496MPD2    H3 7432   2.022   2.425  15.054 -2.4397 -3.2604 -0.4167
  496MPD2     N 7433   2.041   2.343  15.496  0.4704  0.3847  0.4339
  496MPD2    H5 7434   1.946   2.377  15.499  0.3671  0.3040 -1.8599
  496MPD2    N1 7435   2.418   2.249  15.172  0.6570  0.2014  0.3299
  496MPD2    H7 7436   2.447   2.259  15.075  2.1904  1.3775  0.9126
  497TMC3    C1 7437   2.002   2.319  15.722 -0.3468 -0.7089 -0.9003
  497TMC3    C2 7438   1.875   2.289  15.693 -0.5708  0.2506  0.0206
  497TMC3    C3 7439   1.786   2.303  15.798  0.8888 -0.1213 -0.1029
  497TMC3    C4 7440   2.049   2.347  15.850 -0.7980  0.3509 -0.1718
  497TMC3    C5 7441   1.956   2.340  15.951  0.0072 -0.7020 -0.5566
  497TMC3    C6 7442   1.826   2.328  15.929  0.5109 -0.0559  0.0738
  497TMC3     C 7443   2.100   2.332  15.613  0.1222 -0.2411 -0.0017
  497TMC3     O 7444   2.215   2.349  15.641  0.0577 -0.1078 -0.7837
  497TMC3     H 7445   1.837   2.268  15.593 -2.8560 -0.7242  1.0899
  497TMC3    H1 7446   2.157   2.354  15.864 -0.6594 -2.8505  0.4032
  497TMC3    H2 7447   1.757   2.351  16.010  0.2041 -1.6658  0.2803
  497TMC3    C7 7448   1.996   2.350  16.091 -0.2358  0.1809  0.1873
  497TMC3    C8 7449   1.647   2.327  15.759  0.5968  0.6159 -0.5702
  497TMC3    O1 7450   1.924   2.313  16.181  0.5901 -0.5886  0.3634
  497TMC3    O2 7451   1.625   2.328  15.641  0.2680  0.3460  0.3673
  498MPD2     C 7452   3.168   2.292   9.830 -0.1145  0.4197 -0.1324
  498MPD2    C1 7453   3.232   2.375   9.925  0.6775 -0.1389  1.0805
  498MPD2    C2 7454   3.169   2.417  10.040 -0.0799 -0.5202 -0.7516
  498MPD2    C3 7455   3.041   2.374  10.075 -0.3771 -0.6122 -0.5351
  498MPD2    C4 7456   2.986   2.286   9.988  0.1448 -0.2418 -0.4755
  498MPD2    C5 7457   3.045   2.252   9.871 -0.3203  0.0832 -0.3968
  498MPD2     H 7458   3.208   2.490  10.109  0.3100 -0.2848 -1.2195
  498MPD2    H1 7459   2.897   2.228  10.009 -0.7770  1.3873  0.1770
  498MPD2    H2 7460   3.205   2.258   9.734  1.2560  0.0982  0.5178
  498MPD2    H3 7461   2.988   2.188   9.806 -0.8340  0.2299 -0.0889
  498MPD2     N 7462   2.987   2.402  10.203  0.0981  0.3770 -0.3350
  498MPD2    H5 7463   3.037   2.473  10.256  0.4100  0.8071 -1.2010
  498MPD2    N1 7464   3.363   2.421   9.910 -0.2011  0.1979 -0.3174
  498MPD2    H7 7465   3.396   2.487   9.979 -2.9626  1.4261 -0.1758
  499TMC3    C1 7466   3.575   2.435   9.812 -0.1421 -0.7785 -0.3820
  499TMC3    C2 7467   3.681   2.364   9.771  0.3159  0.0181 -0.2800
  499TMC3    C3 7468   3.799   2.434   9.752  0.6747 -0.5847 -0.0755
  499TMC3    C4 7469   3.573   2.572   9.827 -0.3999 -0.4153  0.5531
  499TMC3    C5 7470   3.692   2.632   9.801 -0.0314 -0.2458  0.1581
  499TMC3    C6 7471   3.807   2.572   9.765  0.8539  0.3848 -0.8946
  499TMC3     C 7472   3.451   2.358   9.833 -0.3130  0.9221 -0.7167
  499TMC3     O 7473   3.437   2.266   9.752  0.7316 -0.1461  0.2323
  499TMC3     H 7474   3.670   2.259   9.744  2.5236  0.2344 -2.0277
  499TMC3    H1 7475   3.476   2.618   9.839  0.8499  2.0847  0.9567
  499TMC3    H2 7476   3.900   2.627   9.754  1.5289 -0.5646  0.0108
  499TMC3    C7 7477   3.710   2.769   9.848 -0.3035 -0.3249  0.0644
  499TMC3    C8 7478   3.912   2.361   9.704  1.1730  0.3204 -0.2968
  499TMC3    O1 7479   3.803   2.837   9.801 -0.1306  0.0052 -0.4183
  499TMC3    O2 7480   3.887   2.258   9.636  0.0356  0.2375  0.3984
  500MPD2     C 7481   0.389   4.180  10.200 -0.5182 -0.4148 -0.0727
  500MPD2    C1 7482   0.384   4.287  10.286 -0.7217  0.4594  0.3881
  500MPD2    C2 7483   0.283   4.376  10.269  0.3624 -0.0187  0.3155
  500MPD2    C3 7484   0.187   4.366  10.173  0.1190 -0.2017 -0.2289
  500MPD2    C4 7485   0.197   4.265  10.082 -0.0659 -0.1179  0.7504
  500MPD2    C5 7486   0.301   4.167  10.097  0.3485 -0.4290  0.1776
  500MPD2     H 7487   0.288   4.462  10.335  2.3492  1.0319 -1.2297
  500MPD2    H1 7488   0.129   4.243  10.001 -1.6864  0.0935  2.0545
  500MPD2    H2 7489   0.461   4.099  10.212 -1.8710 -1.6390 -0.2366
  500MPD2    H3 7490   0.304   4.079  10.034 -2.3632  1.0617 -2.0276
  500MPD2     N 7491   0.072   4.439  10.166  0.8637  0.8294 -0.1873
  500MPD2    H5 7492   4.731   4.390  10.119  1.0965  0.3067 -0.0172
  500MPD2    N1 7493   0.479   4.319  10.386 -0.3107 -0.1331  0.5538
  500MPD2    H7 7494   0.474   4.402  10.443  0.7158  0.2062  0.1497
  501TMC3    C1 7495   0.691   4.324  10.484 -0.0764 -0.0211  0.2366
  501TMC3    C2 7496   0.664   4.435  10.567 -0.7187 -0.3664  0.3762
  501TMC3    C3 7497   0.764   4.479  10.640  0.4381 -0.3723  0.2594
  501TMC3    C4 7498   0.815   4.277  10.465  0.4494 -0.0167  0.1500
  501TMC3    C5 7499   0.918   4.337  10.526 -0.3457 -0.8137  0.4602
  501TMC3    C6 7500   0.894   4.436  10.622  0.3141 -0.0160  0.2742
  501TMC3     C 7501   0.595   4.249  10.410  0.2025 -0.1112  0.0562
  501TMC3     O 7502   0.626   4.141  10.367 -0.3028  0.9040 -0.1987
  501TMC3     H 7503   0.566   4.482  10.570 -0.4563  0.0203  3.3267
  501TMC3    H1 7504   0.831   4.196  10.395  1.5727 -0.2574  0.6774
  501TMC3    H2 7505   0.963   4.464  10.701  0.1048 -0.1476  0.5017
  501TMC3    C7 7506   1.047   4.277  10.538  0.0750 -0.6255  0.9829
  501TMC3    C8 7507   0.732   4.598  10.720  0.3272  0.4647 -0.3689
  501TMC3    O1 7508   1.048   4.160  10.574  0.0387  0.0160 -0.2661
  501TMC3    O2 7509   0.826   4.678  10.735 -0.2479 -0.2706  0.4220
  502TMC3    C1 7510   4.541   4.152  15.385  0.0799  0.1098  0.3634
  502TMC3    C2 7511   4.584   4.192  15.261 -0.3453  1.0902 -0.2302
  502TMC3    C3 7512   4.489   4.253  15.178  0.3800  0.3698 -0.1968
  502TMC3    C4 7513   4.410   4.158  15.418  0.0125 -0.1079  0.2806
  502TMC3    C5 7514   4.317   4.212  15.336  0.7103 -0.2563  0.8387
  502TMC3    C6 7515   4.355   4.257  15.213 -0.2830 -0.2294  0.0746
  502TMC3     C 7516   4.632   4.075  15.454  0.4441 -0.0484 -0.4447
  502TMC3     O 7517   0.010   4.118  15.460 -0.7793 -0.1430 -0.2947
  502TMC3     H 7518   4.689   4.189  15.234  0.1833  1.8761  1.6904
  502TMC3    H1 7519   4.381   4.120  15.515  3.3686 -1.8510  0.5926
  502TMC3    H2 7520   4.291   4.328  15.161 -0.7749 -1.3769 -0.8804
  502TMC3    C7 7521   4.176   4.199  15.375 -0.4715  0.7133  0.2190
  502TMC3    C8 7522   4.545   4.304  15.057  0.3701 -0.2775 -0.2020
  502TMC3    O1 7523   4.155   4.151  15.484 -0.6748 -0.0325  0.1787
  502TMC3    O2 7524   4.664   4.293  15.031  0.1482 -0.0642  0.0629
  503MPD2     C 7525   1.661   4.359  17.171 -0.0198  0.0422 -0.3599
  503MPD2    C1 7526   1.712   4.381  17.296 -0.7367 -0.3086  0.4027
  503MPD2    C2 7527   1.789   4.284  17.361 -0.4102 -0.2231  0.7698
  503MPD2    C3 7528   1.824   4.174  17.289 -0.5435 -0.3645  0.2172
  503MPD2    C4 7529   1.777   4.154  17.161 -0.2736 -1.0060  0.0546
  503MPD2    C5 7530   1.692   4.243  17.104  0.2063  0.5649 -0.0370
  503MPD2     H 7531   1.835   4.303  17.457  0.7263 -0.4224  0.2669
  503MPD2    H1 7532   1.806   4.069  17.100  1.8699  0.7345 -1.3481
  503MPD2    H2 7533   1.600   4.437  17.125 -1.2265 -0.8710 -0.3106
  503MPD2    H3 7534   1.655   4.235  17.002 -0.5857  0.3766  0.2671
  503MPD2     N 7535   1.897   4.075  17.360  0.0134 -0.1592  0.3007
  503MPD2    H5 7536   1.934   4.101  17.451 -0.9853 -0.4583  0.7906
  503MPD2    N1 7537   1.695   4.500  17.374 -0.5132  0.4164  0.0681
  503MPD2    H7 7538   1.732   4.507  17.468  0.7656  2.1887 -0.5806
  504TMC3    C1 7539   2.034   3.893  17.397  0.4944  0.4296  0.1723
  504TMC3    C2 7540   2.000   3.889  17.528  0.1881  0.3205 -0.6573
  504TMC3    C3 7541   2.082   3.829  17.620 -0.0948 -0.7416  0.0202
  504TMC3    C4 7542   2.147   3.827  17.352  0.2186  0.2103 -0.6395
  504TMC3    C5 7543   2.230   3.775  17.448  0.0706 -0.0834 -0.7072
  504TMC3    C6 7544   2.200   3.770  17.582 -0.1538 -0.5963 -0.1526
  504TMC3     C 7545   1.943   3.957  17.308  0.4829  0.2386 -0.0755
  504TMC3     O 7546   1.947   3.929  17.188 -0.1634  0.7033 -0.1940
  504TMC3     H 7547   1.911   3.932  17.572  0.1341  0.2211 -0.6692
  504TMC3    H1 7548   2.169   3.825  17.246  2.0746 -2.3662 -0.2010
  504TMC3    H2 7549   2.263   3.732  17.662 -1.4067 -1.1626  0.5681
  504TMC3    C7 7550   2.355   3.720  17.399  0.3242  0.7535 -0.6728
  504TMC3    C8 7551   2.027   3.794   0.012 -0.4499  0.4072 -0.3419
  504TMC3    O1 7552   2.364   3.711  17.277  0.4378 -0.1512  0.1497
  504TMC3    O2 7553   1.908   3.789   0.015 -0.4452  0.7019  0.5837
  505MPD2     C 7554   2.611   3.230  11.504 -0.4685 -0.7214 -0.8260
  505MPD2    C1 7555   2.656   3.102  11.538 -0.0528 -0.1361  0.3880
  505MPD2    C2 7556   2.789   3.071  11.540 -0.0256 -0.0644  0.5379
  505MPD2    C3 7557   2.891   3.162  11.520  0.5283  0.3087  0.0179
  505MPD2    C4 7558   2.845   3.289  11.479 -0.5744 -0.0526  0.0669
  505MPD2    C5 7559   2.710   3.314  11.471 -0.2385  0.5009  0.0828
  505MPD2     H 7560   2.809   2.968  11.566 -0.7799 -0.1688  0.7156
  505MPD2    H1 7561   2.916   3.366  11.451 -0.6400 -0.2522 -0.6410
  505MPD2    H2 7562   2.507   3.256  11.490 -0.4592 -1.1311 -1.6453
  505MPD2    H3 7563   2.678   3.413  11.442 -1.4116  0.4747  1.3135
  505MPD2     N 7564   3.030   3.121  11.520 -0.2638  0.6238 -0.2992
  505MPD2    H5 7565   3.047   3.025  11.550  0.1810  1.2401  1.4241
  505MPD2    N1 7566   2.556   3.002  11.552  0.0493 -0.1428  0.0011
  505MPD2    H7 7567   2.459   3.034  11.546 -0.0577  0.0466  2.5905
  506TMC3    C1 7568   2.463   2.775  11.555  0.5237 -0.4863  0.0029
  506TMC3    C2 7569   2.381   2.795  11.446  0.1544 -0.2353  0.3155
  506TMC3    C3 7570   2.380   2.689  11.360 -0.1551  0.4999  0.3235
  506TMC3    C4 7571   2.490   2.646  11.602  0.5380  0.2698 -0.2689
  506TMC3    C5 7572   2.472   2.542  11.512 -0.1877 -0.5514 -0.1547
  506TMC3    C6 7573   2.424   2.561  11.390 -0.5091  0.4490  0.8543
  506TMC3     C 7574   2.580   2.866  11.574 -0.0510  0.0380  0.4178
  506TMC3     O 7575   2.684   2.805  11.597 -0.4225 -0.7002  0.0324
  506TMC3     H 7576   2.361   2.896  11.412  2.8256  0.1413 -0.0749
  506TMC3    H1 7577   2.551   2.629  11.690  0.6665 -0.4452 -0.4934
  506TMC3    H2 7578   2.413   2.470  11.332 -1.2610  1.0367  0.0710
  506TMC3    C7 7579   2.586   2.456  11.512 -0.2485  0.3085  0.2161
  506TMC3    C8 7580   2.332   2.714  11.224 -0.6612  0.1906 -0.1177
  506TMC3    O1 7581   2.565   2.344  11.464  0.2374  0.0137  0.3287
  506TMC3    O2 7582   2.237   2.790  11.210  0.0101 -0.1086 -0.9658
  507TMC3    C1 7583   2.802   3.408  14.367  1.5320  0.3889 -0.2877
  507TMC3    C2 7584   2.914   3.366  14.309 -0.2956 -0.6006  0.4102
  507TMC3    C3 7585   3.029   3.390  14.380  0.0033 -0.5462  0.3125
  507TMC3    C4 7586   2.790   3.460  14.492 -0.3094  0.6309 -0.5000
  507TMC3    C5 7587   2.906   3.475  14.559 -0.3526  0.3734  0.2669
  507TMC3    C6 7588   3.022   3.434  14.512  0.6567 -0.0221  0.2154
  507TMC3     C 7589   2.693   3.438  14.277  0.6562  0.3523  0.9672
  507TMC3     O 7590   2.637   3.545  14.302 -0.1394 -0.1351 -0.4377
  507TMC3     H 7591   2.924   3.332  14.206  0.3965 -1.4029  0.7421
  507TMC3    H1 7592   2.694   3.498  14.524 -0.1414 -1.2240  2.1939
  507TMC3    H2 7593   3.113   3.449  14.569  0.0482 -1.5271  1.6156
  507TMC3    C7 7594   2.931   3.605  14.615 -0.0382  1.2944  0.0771
  507TMC3    C8 7595   3.130   3.469  14.304 -0.5921 -0.9670 -0.2575
  507TMC3    O1 7596   3.041   3.653  14.600  0.3943 -0.6592 -0.7293
  507TMC3    O2 7597   3.163   3.430  14.194 -0.1462  0.3392 -0.4842
  508MPD2     C 7598   3.962   1.176  16.320  0.2358  0.0669  0.3632
  508MPD2    C1 7599   3.964   1.310  16.364 -1.1012  0.5629 -0.4530
  508MPD2    C2 7600   3.960   1.413  16.267 -0.1671  0.1077 -0.3359
  508MPD2    C3 7601   3.962   1.388  16.133 -0.8106  0.1528  0.2430
  508MPD2    C4 7602   3.969   1.253  16.091 -0.0941 -0.1736  0.0723
  508MPD2    C5 7603   3.969   1.153  16.187 -0.0487  0.2944 -0.3327
  508MPD2     H 7604   3.956   1.517  16.297 -3.8806 -0.4712  1.0515
  508MPD2    H1 7605   3.985   1.223  15.988  1.2830  2.7299 -0.5590
  508MPD2    H2 7606   3.976   1.084  16.376  0.3093 -1.0408 -1.4777
  508MPD2    H3 7607   3.968   1.050  16.154 -0.4794 -1.0508  3.8422
  508MPD2     N 7608   3.964   1.499  16.045  0.0634  0.1876 -0.3874
  508MPD2    H5 7609   3.958   1.589  16.090 -0.9524  0.7666 -1.6774
  508MPD2    N1 7610   3.960   1.332  16.497  0.4448 -0.4323 -0.3069
  508MPD2    H7 7611   3.984   1.255  16.559  0.2519 -1.1529 -1.1297
  509TMC3    C1 7612   3.892   1.727  15.643 -0.1133 -0.9633  0.7442
  509TMC3    C2 7613   3.802   1.805  15.706  0.0575  0.0453  0.4265
  509TMC3    C3 7614   3.794   1.804  15.843  0.6322  0.4689 -0.0465
  509TMC3    C4 7615   3.959   1.627  15.713 -0.5446 -0.0039  0.3792
  509TMC3    C5 7616   3.948   1.625  15.851  1.0505  0.2332 -0.0146
  509TMC3    C6 7617   3.869   1.712  15.917 -0.3531 -0.7391 -0.4675
  509TMC3     C 7618   3.903   1.733  15.497 -0.3378 -0.3251 -0.3720
  509TMC3     O 7619   3.933   1.631  15.438 -0.1801 -0.2377  0.1545
  509TMC3     H 7620   3.738   1.868  15.644  0.5445 -1.3175 -1.4594
  509TMC3    H1 7621   4.016   1.553  15.659 -1.5206 -1.1892  0.9596
  509TMC3    H2 7622   3.836   1.701  16.020  0.6850 -1.9657 -0.2645
  509TMC3    C7 7623   3.964   1.490  15.905  0.0862  0.9068 -1.0918
  509TMC3    C8 7624   3.758   1.935  15.902 -0.1651 -0.2281 -0.6282
  509TMC3    O1 7625   3.997   1.402  15.832  0.1837 -0.0454 -0.0390
  509TMC3    O2 7626   3.686   2.006  15.837 -0.0120  0.1526  0.1430
  510MPD2     C 7627   1.886   3.047  14.786  0.5826 -0.4845  0.0227
  510MPD2    C1 7628   1.913   2.929  14.854 -0.1689 -0.1930 -0.5624
  510MPD2    C2 7629   2.045   2.888  14.852 -0.0329 -0.2716 -0.2269
  510MPD2    C3 7630   2.154   2.939  14.782  0.4934 -1.0645 -0.3811
  510MPD2    C4 7631   2.128   3.059  14.718  0.5280 -0.1135  0.6600
  510MPD2    C5 7632   1.995   3.115  14.721  0.1188 -0.8828 -0.5189
  510MPD2     H 7633   2.064   2.794  14.903 -1.1210  1.4380  3.3563
  510MPD2    H1 7634   2.212   3.108  14.670 -0.0397 -0.5035 -0.7335
  510MPD2    H2 7635   1.779   3.065  14.778  0.7391  0.8770  0.9403
  510MPD2    H3 7636   1.984   3.203  14.658 -1.2415 -0.4064  0.3690
  510MPD2     N 7637   2.277   2.862  14.781 -0.3138 -0.3088 -0.2456
  510MPD2    H5 7638   2.285   2.776  14.835 -0.7330 -0.5881 -0.6195
  510MPD2    N1 7639   1.812   2.860  14.926  1.0832  0.7578 -0.3895
  510MPD2    H7 7640   1.719   2.893  14.901  1.0620 -0.1996 -1.5476
  511TMC3    C1 7641   1.686   2.694  15.040  0.2123  0.1484  0.1372
  511TMC3    C2 7642   1.569   2.767  15.050  0.2343  0.1410  0.0337
  511TMC3    C3 7643   1.456   2.695  15.073  0.5419  0.8354  0.6193
  511TMC3    C4 7644   1.696   2.560  15.057  0.4013 -0.5459 -0.0391
  511TMC3    C5 7645   1.575   2.492  15.071  0.6264  0.1127 -0.7659
  511TMC3    C6 7646   1.455   2.559  15.083  0.2893  0.7893  0.5959
  511TMC3     C 7647   1.818   2.753  15.010 -0.0016 -0.2291 -0.1177
  511TMC3     O 7648   1.922   2.684  15.025 -0.4245  0.5488 -0.6388
  511TMC3     H 7649   1.565   2.873  15.027 -3.2592  0.2181  1.0921
  511TMC3    H1 7650   1.791   2.509  15.047  2.3594  2.7511  1.5243
  511TMC3    H2 7651   1.351   2.530  15.074  0.7184 -0.0127 -1.8415
  511TMC3    C7 7652   1.570   2.355  15.019 -0.7045 -0.0350 -0.6676
  511TMC3    C8 7653   1.344   2.771  15.137 -0.7879  0.0056  0.5498
  511TMC3    O1 7654   1.670   2.302  14.986 -0.5516 -0.0587  0.4639
  511TMC3    O2 7655   1.336   2.895  15.117  0.4640 -0.2238 -0.0745
  512TMC3    C1 7656   1.534   1.754  13.519  0.4430 -0.0844 -0.5164
  512TMC3    C2 7657   1.604   1.795  13.635  0.1198  0.3662 -0.4608
  512TMC3    C3 7658   1.597   1.715  13.745  0.2405  0.0441 -0.4350
  512TMC3    C4 7659   1.443   1.656  13.525 -0.5322  0.4395 -0.2503
  512TMC3    C5 7660   1.453   1.574  13.633  1.0762 -0.1102 -0.7417
  512TMC3    C6 7661   1.536   1.596  13.741 -0.2901 -0.1562  0.6730
  512TMC3     C 7662   1.530   1.844  13.403  0.2251 -0.5900  0.0555
  512TMC3     O 7663   1.571   1.959  13.412  0.3595 -0.4414  0.2312
  512TMC3     H 7664   1.652   1.892  13.635 -1.5076  1.1737 -0.1506
  512TMC3    H1 7665   1.379   1.624  13.443 -1.2345 -2.0455  1.2507
  512TMC3    H2 7666   1.539   1.526  13.823  1.4629  0.4831  1.1523
  512TMC3    C7 7667   1.364   1.458  13.644 -0.1706 -0.4242  0.2167
  512TMC3    C8 7668   1.591   1.781  13.876  0.0355 -0.3144  0.1819
  512TMC3    O1 7669   1.410   1.366  13.709  0.3063  0.7503  0.2404
  512TMC3    O2 7670   1.596   1.706  13.977  0.3798  0.2167  0.5708
  513MPD2     C 7671   2.923   2.152  13.201  0.7331  0.3678  0.0391
  513MPD2    C1 7672   3.060   2.128  13.200 -0.3127  0.2197 -0.5286
  513MPD2    C2 7673   3.145   2.213  13.262  0.6645  0.0357  0.9135
  513MPD2    C3 7674   3.095   2.330  13.320  0.5075  0.2272  0.2343
  513MPD2    C4 7675   2.957   2.358  13.328 -0.0073 -0.6898 -0.1541
  513MPD2    C5 7676   2.876   2.265  13.260  0.3808  0.2107  0.1228
  513MPD2     H 7677   3.253   2.208  13.264  0.5900 -1.6522  0.6173
  513MPD2    H1 7678   2.912   2.451  13.360  1.9480  0.8633 -1.9036
  513MPD2    H2 7679   2.858   2.080  13.153  0.0225  0.1413  1.3300
  513MPD2    H3 7680   2.769   2.281  13.257  0.3704 -0.0377 -0.7934
  513MPD2     N 7681   3.191   2.414  13.384  0.1573 -0.3948 -0.0231
  513MPD2    H5 7682   3.288   2.384  13.387 -0.1170 -1.5070 -2.4551
  513MPD2    N1 7683   3.103   2.019  13.125 -0.0042  0.1438 -0.6542
  513MPD2    H7 7684   3.032   1.968  13.075  0.0177 -0.8246  0.3152
  514TMC3    C1 7685   3.264   1.912  13.006  0.7057 -0.4570  0.2491
  514TMC3    C2 7686   3.156   1.885  12.930 -0.5593 -0.0907  0.3671
  514TMC3    C3 7687   3.160   1.910  12.796 -0.5330 -0.1315  0.4287
  514TMC3    C4 7688   3.374   1.971  12.954  0.2102 -0.2231  0.4595
  514TMC3    C5 7689   3.366   2.015  12.826  0.2670  0.4175 -0.3144
  514TMC3    C6 7690   3.260   1.979  12.743  0.6568 -0.7708  0.1617
  514TMC3     C 7691   3.232   1.975  13.132 -0.7720  0.0623  0.2651
  514TMC3     O 7692   3.323   2.011  13.205 -0.6071 -0.3821  0.8199
  514TMC3     H 7693   3.074   1.831  12.977 -1.1337 -0.1490 -0.6953
  514TMC3    H1 7694   3.454   2.015  13.014 -1.1538  0.4791  1.7705
  514TMC3    H2 7695   3.261   2.003  12.638 -1.4026  1.0094  0.5549
  514TMC3    C7 7696   3.398   2.153  12.817 -0.1725 -0.1004  0.0643
  514TMC3    C8 7697   3.040   1.891  12.716 -0.9968  0.1973 -0.5027
  514TMC3    O1 7698   3.506   2.187  12.865 -0.2346  0.3989  0.0763
  514TMC3    O2 7699   2.938   1.913  12.781 -0.6681  0.0611 -0.0128
  515MPD2     C 7700   1.087   3.560  15.130  0.1596  0.4134 -0.3144
  515MPD2    C1 7701   1.017   3.597  15.014 -0.2322  0.6259  0.5702
  515MPD2    C2 7702   0.975   3.725  15.003 -0.0125 -0.3635 -0.2907
  515MPD2    C3 7703   1.015   3.825  15.091 -0.2212 -0.2792 -0.2075
  515MPD2    C4 7704   1.081   3.786  15.203 -0.1512  0.2902 -0.5790
  515MPD2    C5 7705   1.115   3.656  15.221 -0.0440  0.2433  0.7585
  515MPD2     H 7706   0.927   3.752  14.910 -0.1184  1.8343  0.3883
  515MPD2    H1 7707   1.110   3.857  15.279 -1.6844  1.1134 -0.7676
  515MPD2    H2 7708   1.133   3.462  15.138 -0.5974  0.0596 -0.2484
  515MPD2    H3 7709   1.179   3.629  15.304  0.6554  0.9002  0.4302
  515MPD2     N 7710   0.990   3.965  15.074  0.0289 -0.2177  0.1036
  515MPD2    H5 7711   1.031   4.028  15.143  0.0990 -0.4595  0.2844
  515MPD2    N1 7712   0.988   3.503  14.914 -0.2814  0.4382 -0.4109
  515MPD2    H7 7713   0.942   3.541  14.832 -1.0215  0.1746 -0.1136
  516TMC3    C1 7714   0.960   3.304  14.812  0.3980 -0.3988  0.0285
  516TMC3    C2 7715   1.001   3.311  14.688 -0.1302  0.8785  0.5627
  516TMC3    C3 7716   0.912   3.319  14.586  0.2030 -0.6865 -0.5358
  516TMC3    C4 7717   0.822   3.316  14.837  0.1520 -0.8534  0.0506
  516TMC3    C5 7718   0.738   3.320  14.728 -0.0399  0.1125 -0.6403
  516TMC3    C6 7719   0.781   3.310  14.596  0.2414 -0.5589 -0.2200
  516TMC3     C 7720   1.034   3.372  14.911  0.3484 -0.2710 -0.4766
  516TMC3     O 7721   1.126   3.314  14.971  0.4098 -0.4697  0.9940
  516TMC3     H 7722   1.106   3.334  14.669 -0.2606  0.7988 -0.2647
  516TMC3    H1 7723   0.797   3.318  14.942  1.4133  0.1649  0.3386
  516TMC3    H2 7724   0.709   3.329  14.518 -0.6579  0.5933  0.8840
  516TMC3    C7 7725   0.599   3.303  14.753 -0.0392 -0.7186  0.1519
  516TMC3    C8 7726   0.971   3.369  14.462 -0.4262 -0.3922 -0.5733
  516TMC3    O1 7727   0.564   3.342  14.865  0.2027 -0.0482 -0.1118
  516TMC3    O2 7728   1.082   3.325  14.427  0.0651  0.3631 -0.1338
  517MPD2     C 7729   4.705   1.227  17.448 -0.0195 -0.0899 -0.2528
  517MPD2    C1 7730   0.072   1.204  17.532 -0.0598  0.4757  0.2770
  517MPD2    C2 7731   0.103   1.304  17.621  0.0606 -0.1790  0.0811
  517MPD2    C3 7732   0.042   1.433  17.623 -0.7476 -0.4493 -0.1351
  517MPD2    C4 7733   4.697   1.452  17.518 -0.0590 -0.1947 -0.3516
  517MPD2    C5 7734   4.666   1.351  17.435  0.8810  0.5515 -0.3405
  517MPD2     H 7735   0.186   1.292  17.690  2.9484 -0.7883 -3.5363
  517MPD2    H1 7736   4.649   1.547  17.499 -0.0635  0.2730  1.9636
  517MPD2    H2 7737   4.682   1.163  17.362 -3.6727 -0.0978  0.7182
  517MPD2    H3 7738   4.609   1.376  17.346  0.4371  0.3468 -0.1132
  517MPD2     N 7739   0.073   1.538  17.713 -0.0573  0.0155 -0.2280
  517MPD2    H5 7740   0.025   1.621  17.679  1.8599  0.8693 -0.8647
  517MPD2    N1 7741   0.156   1.090  17.535 -0.2219  0.2354  0.2681
  517MPD2    H7 7742   0.224   1.083  17.610  0.0240  1.8514  0.1960
  518TMC3    C1 7743   0.207   0.864  17.486 -0.4976  0.0899  0.0961
  518TMC3    C2 7744   0.144   0.742  17.470  0.1701 -0.0965 -0.2297
  518TMC3    C3 7745   0.226   0.635  17.499  0.2596  0.0022  0.2375
  518TMC3    C4 7746   0.340   0.880  17.498  0.2213  0.1818 -0.1979
  518TMC3    C5 7747   0.413   0.764  17.511  0.8490  0.7089  0.0653
  518TMC3    C6 7748   0.357   0.640  17.520  0.7470  0.8733  0.0617
  518TMC3     C 7749   0.130   0.985  17.456 -0.2155 -0.3095  0.3817
  518TMC3     O 7750   0.056   0.974  17.360  0.0459  0.4458  0.2683
  518TMC3     H 7751   0.036   0.741  17.458  0.1567  0.3027 -0.1683
  518TMC3    H1 7752   0.387   0.976  17.481 -0.6510  0.4501 -1.1102
  518TMC3    H2 7753   0.412   0.553  17.555 -0.3876  0.1591  0.0463
  518TMC3    C7 7754   0.557   0.774  17.488 -0.4463 -0.2889 -0.4613
  518TMC3    C8 7755   0.182   0.500  17.466  0.5318 -0.3179 -0.0350
  518TMC3    O1 7756   0.616   0.861  17.551 -0.1114  0.8137  0.1125
  518TMC3    O2 7757   0.271   0.437  17.413 -0.1793 -0.2120  0.2955
  519MPD2     C 7758   2.245   3.923  14.506 -0.3734 -0.5004  0.9847
  519MPD2    C1 7759   2.227   3.977  14.382  0.1299 -0.4214 -0.1751
  519MPD2    C2 7760   2.319   3.941  14.281  0.2645  0.3377  0.3065
  519MPD2    C3 7761   2.415   3.843  14.297 -0.1685  0.3728 -0.1299
  519MPD2    C4 7762   2.423   3.786  14.421  0.2732  1.0501 -0.3912
  519MPD2    C5 7763   2.346   3.834  14.531 -0.1781 -0.5595 -0.0344
  519MPD2     H 7764   2.302   3.994  14.189  2.2338  2.9416  1.4602
  519MPD2    H1 7765   2.490   3.705  14.448  0.5980  1.6072  0.4894
  519MPD2    H2 7766   2.183   3.953  14.590  1.3049  1.7794  1.4038
  519MPD2    H3 7767   2.385   3.818  14.631 -0.4995  1.9220  0.4953
  519MPD2     N 7768   2.493   3.791  14.189  0.0233 -0.1614 -0.2265
  519MPD2    H5 7769   2.546   3.706  14.207  1.9394  1.0614 -0.1772
  519MPD2    N1 7770   2.119   4.069  14.369  0.5943  0.0263 -0.7444
  519MPD2    H7 7771   2.066   4.090  14.453 -1.2824 -2.3245 -1.3384
  520TMC3    C1 7772   2.531   3.731  13.965 -0.0539  0.3071 -0.0589
  520TMC3    C2 7773   2.455   3.715  13.853 -0.2477  0.2815  0.0522
  520TMC3    C3 7774   2.510   3.626  13.761  0.6433  0.0934 -0.2298
  520TMC3    C4 7775   2.656   3.679  13.981 -0.1323  0.0941  0.2639
  520TMC3    C5 7776   2.705   3.596  13.886 -0.6361  0.4827  0.1508
  520TMC3    C6 7777   2.629   3.564  13.774  0.4686 -0.7761  0.5011
  520TMC3     C 7778   2.480   3.831  14.060 -0.0990  0.3645  0.4518
  520TMC3     O 7779   2.407   3.922  14.014  0.3709 -0.3989  0.2705
  520TMC3     H 7780   2.363   3.772  13.842  0.3821  1.3332  0.1586
  520TMC3    H1 7781   2.718   3.718  14.062  0.2235  1.9038 -0.8883
  520TMC3    H2 7782   2.671   3.507  13.692 -1.0205 -1.3909  0.1614
  520TMC3    C7 7783   2.845   3.561  13.894  0.9289 -0.5260 -0.0627
  520TMC3    C8 7784   2.447   3.612  13.636  0.1759 -0.4535 -0.0996
  520TMC3    O1 7785   2.897   3.561  14.005 -0.2689 -0.5461  0.1504
  520TMC3    O2 7786   2.512   3.567  13.539 -0.3171 -0.1252 -0.8056
  521MPD2     C 7787   2.717   2.322   0.123 -0.4212  0.1198 -0.5493
  521MPD2    C1 7788   2.670   2.251   0.020  0.3494  0.6167 -0.2963
  521MPD2    C2 7789   2.758   2.193  17.671  0.5266  0.9129  0.0225
  521MPD2    C3 7790   2.897   2.206  17.697  0.1328  0.0231  0.5442
  521MPD2    C4 7791   2.936   2.287   0.062 -0.6727 -0.0723 -0.3848
  521MPD2    C5 7792   2.847   2.345   0.144 -0.2086  0.5755  0.4449
  521MPD2     H 7793   2.713   2.160  17.577 -0.7166 -0.8775  1.2441
  521MPD2    H1 7794   3.043   2.288   0.078 -0.6027  2.2702 -0.9460
  521MPD2    H2 7795   2.651   2.355   0.202 -0.2788 -0.9322  0.0142
  521MPD2    H3 7796   2.879   2.389   0.238  2.5100 -1.0037  0.2530
  521MPD2     N 7797   2.990   2.155  17.603 -0.2217 -0.0376 -0.6835
  521MPD2    H5 7798   2.948   2.119  17.517 -0.2856  1.3897 -1.2494
  521MPD2    N1 7799   2.533   2.230   0.019 -0.1919 -0.3504  0.1058
  521MPD2    H7 7800   2.476   2.278   0.088 -1.2569  0.6726 -1.4893
  522TMC3    C1 7801   3.196   2.075  17.519 -0.1441  0.2466 -0.1660
  522TMC3    C2 7802   3.320   2.010  17.539 -0.1466 -0.4770  1.1498
  522TMC3    C3 7803   3.400   1.982  17.423 -0.1770  0.4156 -0.1935
  522TMC3    C4 7804   3.163   2.110  17.391 -0.8929  0.4808 -0.1351
  522TMC3    C5 7805   3.244   2.079  17.284  0.9354 -0.3512 -0.7705
  522TMC3    C6 7806   3.363   2.016  17.296  0.2104 -0.9720 -0.0997
  522TMC3     C 7807   3.122   2.133  17.629 -0.0850 -1.0941 -0.5228
  522TMC3     O 7808   3.183   2.124  17.736 -0.4716 -0.5677 -0.0765
  522TMC3     H 7809   3.352   1.987  17.639  1.7194 -1.0476  0.4064
  522TMC3    H1 7810   3.078   2.174  17.373 -1.0869  0.6177  1.2909
  522TMC3    H2 7811   3.424   1.998  17.208  0.5603 -1.5552  0.2648
  522TMC3    C7 7812   3.214   2.137  17.156  0.6910  0.5179  0.7958
  522TMC3    C8 7813   3.532   1.927  17.453 -0.5309  0.8692 -0.0899
  522TMC3    O1 7814   3.303   2.165  17.077 -0.0142  0.6105 -0.0329
  522TMC3    O2 7815   3.565   1.928  17.572  0.0584  0.2876 -0.0683
  523MPD2     C 7816   1.384   1.503   9.922  0.2008  0.6975  0.2626
  523MPD2    C1 7817   1.268   1.427   9.917  0.1315  0.6520  0.0827
  523MPD2    C2 7818   1.146   1.499   9.895  0.1814  0.0166 -0.4671
  523MPD2    C3 7819   1.152   1.632   9.854  0.1584  0.3540 -0.1083
  523MPD2    C4 7820   1.269   1.700   9.852 -0.3661  0.5798  0.4529
  523MPD2    C5 7821   1.386   1.635   9.880  0.1075 -0.0891  0.0393
  523MPD2     H 7822   1.048   1.455   9.910  0.5169 -0.4124  0.4871
  523MPD2    H1 7823   1.272   1.802   9.815 -2.3470  0.6626  0.5288
  523MPD2    H2 7824   1.481   1.457   9.942 -0.2698  0.5404  2.2532
  523MPD2    H3 7825   1.481   1.685   9.865  0.1325 -0.0448  0.3446
  523MPD2     N 7826   1.032   1.707   9.820 -0.6768  0.1049  0.5681
  523MPD2    H5 7827   1.024   1.805   9.796  1.4808  0.2414  0.3487
  523MPD2    N1 7828   1.259   1.295   9.947 -0.3791  0.4814 -0.5188
  523MPD2    H7 7829   1.339   1.243   9.982 -1.3369  0.0893  1.1210
  524TMC3    C1 7830   0.802   1.756   9.799  0.0794 -0.3154 -0.5853
  524TMC3    C2 7831   0.684   1.707   9.745  0.5563  0.2385  0.3270
  524TMC3    C3 7832   0.595   1.802   9.697  0.8473 -0.1700  0.2703
  524TMC3    C4 7833   0.839   1.885   9.792 -0.2164 -0.4116  0.3115
  524TMC3    C5 7834   0.750   1.976   9.733  0.2528  0.0512  0.2393
  524TMC3    C6 7835   0.619   1.930   9.698 -0.0234 -0.1540 -0.4439
  524TMC3     C 7836   0.906   1.651   9.827  0.1819 -0.1929  0.1457
  524TMC3     O 7837   0.867   1.534   9.825  0.4757 -0.3222 -0.1604
  524TMC3     H 7838   0.651   1.607   9.768  0.0719  0.1975 -0.5560
  524TMC3    H1 7839   0.923   1.921   9.851 -0.1555 -0.7107  0.4103
  524TMC3    H2 7840   0.544   1.999   9.661  0.8844  0.4122 -1.2372
  524TMC3    C7 7841   0.780   2.111   9.754  0.3419  0.9916  0.0441
  524TMC3    C8 7842   0.461   1.766   9.649 -0.7787 -0.4385  0.8796
  524TMC3    O1 7843   0.893   2.136   9.792  0.0328 -0.7597  0.2882
  524TMC3    O2 7844   0.370   1.847   9.657 -0.2254  0.0558  0.3320
  525MPD2     C 7845   3.866   3.217  14.163  0.5784  0.7274  0.5929
  525MPD2    C1 7846   3.962   3.253  14.259 -0.1837 -0.3506 -0.5784
  525MPD2    C2 7847   4.073   3.329  14.221  0.2802  0.2971  0.3642
  525MPD2    C3 7848   4.083   3.372  14.092  0.3110 -0.6374 -0.1031
  525MPD2    C4 7849   3.978   3.350  14.002  0.8345  0.4894  0.6210
  525MPD2    C5 7850   3.874   3.266  14.039 -0.2120  0.1702  0.9625
  525MPD2     H 7851   4.136   3.362  14.303 -0.5657 -1.5857  1.7703
  525MPD2    H1 7852   3.982   3.373  13.896  0.4925  0.5350  0.6191
  525MPD2    H2 7853   3.792   3.142  14.190  0.7987  0.4290  0.3623
  525MPD2    H3 7854   3.796   3.245  13.966  1.1932 -1.6935  0.0092
  525MPD2     N 7855   4.180   3.461  14.044  0.4722 -0.2578 -0.0518
  525MPD2    H5 7856   4.164   3.501  13.952 -3.0025 -1.3512  0.0965
  525MPD2    N1 7857   3.956   3.208  14.394  0.0368  0.3544  0.0688
  525MPD2    H7 7858   4.041   3.212  14.450  0.3550  1.1847 -0.4681
  526TMC3    C1 7859   3.850   3.084  14.566 -0.0577  0.7566 -0.7773
  526TMC3    C2 7860   3.735   3.059  14.633  0.6815 -0.1382  0.5948
  526TMC3    C3 7861   3.745   2.994  14.753 -0.5436 -0.2158 -0.9044
  526TMC3    C4 7862   3.972   3.042  14.612 -0.9049 -0.4138 -0.0864
  526TMC3    C5 7863   3.976   2.991  14.741  0.4139  0.3264  0.0455
  526TMC3    C6 7864   3.862   2.962  14.811 -0.8447  0.0081  0.2868
  526TMC3     C 7865   3.839   3.156  14.448  0.3053 -1.1591 -0.1105
  526TMC3     O 7866   3.727   3.180  14.409 -0.0684 -0.1332 -0.0768
  526TMC3     H 7867   3.643   3.109  14.605  0.7074 -0.7915 -0.6696
  526TMC3    H1 7868   4.063   3.053  14.555  0.1600  0.6321  1.8119
  526TMC3    H2 7869   3.873   2.936  14.916  1.0460  0.6803  0.2547
  526TMC3    C7 7870   4.093   2.921  14.788  0.2012 -0.6360  0.2106
  526TMC3    C8 7871   3.651   3.004  14.857  0.0700  0.0763  0.4739
  526TMC3    O1 7872   4.079   2.882  14.907 -0.5023  0.2243 -0.0936
  526TMC3    O2 7873   3.683   3.055  14.961 -0.0838  0.4067  0.1928
  527MPD2     C 7874   1.376   1.498   1.089 -0.2403  0.2011 -0.2608
  527MPD2    C1 7875   1.483   1.575   1.063  0.4435 -0.2958 -1.5391
  527MPD2    C2 7876   1.615   1.522   1.077 -0.5753  0.7573  0.3126
  527MPD2    C3 7877   1.626   1.394   1.114 -0.0726  0.0536  0.6012
  527MPD2    C4 7878   1.522   1.306   1.129 -0.3992 -0.0725  0.3458
  527MPD2    C5 7879   1.394   1.367   1.122 -0.2649  0.3346 -0.1657
  527MPD2     H 7880   1.704   1.582   1.060 -0.5787  1.1155  1.5186
  527MPD2    H1 7881   1.533   1.206   1.170  1.4101 -0.5174 -1.2307
  527MPD2    H2 7882   1.275   1.534   1.070  0.7876  1.4082 -3.5223
  527MPD2    H3 7883   1.305   1.306   1.136  0.6466 -1.6916 -3.1316
  527MPD2     N 7884   1.758   1.349   1.150  0.7005  0.0850  0.6715
  527MPD2    H5 7885   1.831   1.408   1.112 -0.5446  1.7509  0.8920
  527MPD2    N1 7886   1.470   1.709   1.016 -0.2125 -0.4487 -0.6233
  527MPD2    H7 7887   1.558   1.755   0.992  0.4219 -0.8920  0.8537
  528TMC3    C1 7888   1.377   1.912   0.972 -0.2174  0.0145  0.4074
  528TMC3    C2 7889   1.264   1.987   0.939  0.5153  0.8387 -0.5115
  528TMC3    C3 7890   1.294   2.102   0.874  0.4883  0.3319 -0.1870
  528TMC3    C4 7891   1.504   1.961   0.958  0.3599 -0.2824  0.6406
  528TMC3    C5 7892   1.520   2.092   0.920  0.3545  1.0697  0.1047
  528TMC3    C6 7893   1.417   2.159   0.863 -0.3099 -0.3179  0.3627
  528TMC3     C 7894   1.358   1.787   1.028  0.5470 -0.0716 -0.3960
  528TMC3     O 7895   1.252   1.766   1.088  0.0335  0.2446  0.1722
  528TMC3     H 7896   1.166   1.940   0.940  1.7226 -1.6394  0.5333
  528TMC3    H1 7897   1.592   1.913   0.998  0.3485 -0.5268  0.3754
  528TMC3    H2 7898   1.421   2.264   0.835  1.9100 -1.2515 -2.7773
  528TMC3    C7 7899   1.652   2.161   0.940  0.1025  0.4813  0.8695
  528TMC3    C8 7900   1.183   2.165   0.796  0.2315 -0.5829 -0.0758
  528TMC3    O1 7901   1.734   2.083   0.988  0.2223  0.4908  0.5794
  528TMC3    O2 7902   1.200   2.281   0.765  0.1842 -0.0081 -0.4389
  529MPD2     C 7903   3.767   0.401   0.846  0.4796 -0.6342 -0.2545
  529MPD2    C1 7904   3.807   0.294   0.770  0.1770  0.4977  0.8497
  529MPD2    C2 7905   3.776   0.294   0.638  0.4269 -0.3935  0.6489
  529MPD2    C3 7906   3.694   0.389   0.581  0.4615 -0.1476  0.3845
  529MPD2    C4 7907   3.644   0.498   0.663 -1.1465  0.4051  0.2303
  529MPD2    C5 7908   3.681   0.502   0.794  0.7562  0.1590 -0.6227
  529MPD2     H 7909   3.819   0.214   0.580  0.8142  0.7415 -0.6296
  529MPD2    H1 7910   3.580   0.576   0.623 -0.7850 -0.3488 -1.7973
  529MPD2    H2 7911   3.810   0.420   0.943  1.7167  0.4603 -1.0176
  529MPD2    H3 7912   3.657   0.594   0.846  2.4738  0.1239  0.2422
  529MPD2     N 7913   3.673   0.388   0.442 -0.0561  0.4719  0.4663
  529MPD2    H5 7914   3.631   0.474   0.407  2.4552  1.0905 -1.0575
  529MPD2    N1 7915   3.867   0.176   0.828 -0.2537  0.2239  0.1411
  529MPD2    H7 7916   3.904   0.113   0.758  1.0678 -0.4358  1.4226
  530TMC3    C1 7917   3.957   0.042   1.014 -0.1032  0.0063  0.0196
  530TMC3    C2 7918   4.005   0.035   1.147  0.9000  0.5456  0.3357
  530TMC3    C3 7919   4.054   4.647   1.186 -0.0076  0.2338 -0.3882
  530TMC3    C4 7920   3.967   4.662   0.934  0.3622  0.5533  0.1636
  530TMC3    C5 7921   4.018   4.545   0.989  0.0694  0.3553 -0.0657
  530TMC3    C6 7922   4.068   4.534   1.111 -0.3444  0.7547  0.0766
  530TMC3     C 7923   3.898   0.163   0.967  0.2111  0.1427  0.4069
  530TMC3     O 7924   3.853   0.232   1.055  0.9165  0.1279  0.1285
  530TMC3     H 7925   4.023   0.124   1.207  1.3699  0.6408  0.0542
  530TMC3    H1 7926   3.926   4.655   0.834  3.3320 -1.0951 -0.9337
  530TMC3    H2 7927   4.130   4.449   1.136 -0.3239  1.0991  1.1697
  530TMC3    C7 7928   4.013   4.426   0.901 -0.1815  0.2696  0.2974
  530TMC3    C8 7929   4.133   4.648   1.313 -0.6208 -0.4778  0.3910
  530TMC3    O1 7930   4.009   4.435   0.778 -0.2310  0.9372  0.3074
  530TMC3    O2 7931   4.102   4.727   1.401 -0.0033  0.2445 -0.4334
  531MPD2     C 7932   3.254   2.640  12.812  0.2782  0.0679 -0.9103
  531MPD2    C1 7933   3.332   2.587  12.909  0.0921 -0.3300 -0.9905
  531MPD2    C2 7934   3.357   2.446  12.890 -0.0597 -0.5288  0.5609
  531MPD2    C3 7935   3.305   2.379  12.775  0.5250  0.4384 -0.5070
  531MPD2    C4 7936   3.229   2.442  12.682  0.3662 -0.2472  0.7808
  531MPD2    C5 7937   3.198   2.574  12.707 -0.1891  0.2667 -0.3928
  531MPD2     H 7938   3.419   2.385  12.953  1.7714  0.1252 -0.6085
  531MPD2    H1 7939   3.188   2.387  12.598  0.9085 -1.0240  1.0282
  531MPD2    H2 7940   3.229   2.745  12.809 -1.3297 -0.2884 -0.1462
  531MPD2    H3 7941   3.125   2.629  12.649  0.0439  0.3875 -0.5739
  531MPD2     N 7942   3.304   2.235  12.763 -0.1321  0.0290  0.1083
  531MPD2    H5 7943   3.239   2.201  12.692  0.8659 -1.9482  0.1483
  531MPD2    N1 7944   3.366   2.660  13.022  0.1766  0.0663  0.2076
  531MPD2    H7 7945   3.321   2.750  13.034 -0.6715 -0.4913  1.1972
  532TMC3    C1 7946   3.454   2.673  13.247 -0.8484 -0.7689 -0.0646
  532TMC3    C2 7947   3.327   2.669  13.298 -0.4470 -0.0288 -0.3255
  532TMC3    C3 7948   3.302   2.605  13.416  0.1404  0.0920  0.5202
  532TMC3    C4 7949   3.557   2.634  13.323 -0.0287  0.0620 -0.2046
  532TMC3    C5 7950   3.529   2.567  13.444  0.7006 -0.4614 -0.1273
  532TMC3    C6 7951   3.401   2.539  13.486  0.3311  0.1093  0.2430
  532TMC3     C 7952   3.461   2.616  13.114  0.4684  0.7819  0.0482
  532TMC3     O 7953   3.533   2.519  13.101  0.3296  0.4244  0.2198
  532TMC3     H 7954   3.244   2.707  13.241  0.1156  2.1448  0.3190
  532TMC3    H1 7955   3.657   2.629  13.282 -0.0161 -0.4683 -0.1097
  532TMC3    H2 7956   3.377   2.512  13.588 -0.5480 -1.2311 -0.3217
  532TMC3    C7 7957   3.640   2.547  13.531  0.1063  0.7094  0.3516
  532TMC3    C8 7958   3.170   2.544  13.421 -0.2572  0.0744 -0.1683
  532TMC3    O1 7959   3.728   2.631  13.544 -0.6051  0.0614  0.3292
  532TMC3    O2 7960   3.071   2.614  13.392  0.2279  0.8877 -0.0506
  533TMC3    C1 7961   4.320   3.656  14.059 -0.6594  0.4753  0.0792
  533TMC3    C2 7962   4.438   3.719  14.099 -0.0980  0.3970 -0.3398
  533TMC3    C3 7963   4.449   3.852  14.093  0.0430  0.7185  0.3999
  533TMC3    C4 7964   4.219   3.728  14.004 -0.3889  0.0013  0.4874
  533TMC3    C5 7965   4.219   3.860  14.014 -0.2212  0.2268  0.3096
  533TMC3    C6 7966   4.331   3.922  14.067  0.7136  0.3723 -0.1396
  533TMC3     C 7967   4.278   3.524  14.112  0.5772  0.3273  0.1176
  533TMC3     O 7968   4.324   3.494  14.223 -0.0935 -0.1655  0.0099
  533TMC3     H 7969   4.519   3.662  14.143  0.8196  2.0170  0.0503
  533TMC3    H1 7970   4.124   3.676  13.991 -0.1439 -0.8063  1.8726
  533TMC3    H2 7971   4.326   4.028  14.092 -0.0300 -0.4078  3.0080
  533TMC3    C7 7972   4.092   3.899  14.070 -0.6671 -0.1377  0.1024
  533TMC3    C8 7973   4.565   3.929  14.130  0.1886 -0.2270  0.0009
  533TMC3    O1 7974   4.042   3.820  14.153  0.1343  0.8362  0.1247
  533TMC3    O2 7975   4.564   4.047  14.125  0.3259 -0.6263 -0.7337
  534MPD2     C 7976   1.749   4.490   1.215  0.1339  0.0442  0.3404
  534MPD2    C1 7977   1.705   4.621   1.188  0.3305 -0.6640  0.0215
  534MPD2    C2 7978   1.600   4.642   1.099  1.0376  0.1764 -0.0085
  534MPD2    C3 7979   1.532   4.535   1.043 -0.3622  0.1315 -0.2476
  534MPD2    C4 7980   1.583   4.411   1.058 -0.3604  0.9505 -0.3197
  534MPD2    C5 7981   1.682   4.388   1.155  0.3334 -0.2847 -0.0581
  534MPD2     H 7982   1.571   0.011   1.085 -0.7183 -0.5901 -2.1148
  534MPD2    H1 7983   1.529   4.325   1.020 -0.1140  0.7215 -0.1528
  534MPD2    H2 7984   1.829   4.471   1.285 -1.2477 -2.1189  1.3348
  534MPD2    H3 7985   1.707   4.284   1.169  1.4889 -0.2137 -1.7093
  534MPD2     N 7986   1.416   4.558   0.959 -0.3522  0.3896 -0.0813
  534MPD2    H5 7987   1.366   4.477   0.924 -0.4106  0.7017 -0.7202
  534MPD2    N1 7988   1.748   4.731   1.263  0.2151 -0.5968  0.5121
  534MPD2    H7 7989   1.684   0.073   1.247 -0.7938 -1.4340  0.4721
  535TMC3    C1 7990   1.242   4.680   0.868 -0.2347 -0.4840 -0.4207
  535TMC3    C2 7991   1.146   4.620   0.936 -0.3831 -0.3221 -0.0055
  535TMC3    C3 7992   1.026   4.671   0.920 -0.8883 -1.0285  0.0560
  535TMC3    C4 7993   1.216   0.060   0.790  0.3350  0.0080 -0.0446
  535TMC3    C5 7994   1.098   0.117   0.786 -0.4394 -0.5019  0.0474
  535TMC3    C6 7995   0.995   0.052   0.849  0.0243 -0.1116  0.1778
  535TMC3     C 7996   1.378   4.681   0.922  0.6749 -0.2803 -0.6374
  535TMC3     O 7997   1.445   0.047   0.905  0.1285  0.2108  0.4868
  535TMC3     H 7998   1.165   4.538   1.004 -0.5881 -0.5806 -0.2572
  535TMC3    H1 7999   1.296   0.118   0.745  0.1817  1.0551  1.0262
  535TMC3    H2 8000   0.898   0.097   0.864  0.3228  0.2475  1.0207
  535TMC3    C7 8001   1.070   0.221   0.686  0.5122  0.1065 -0.6784
  535TMC3    C8 8002   0.918   4.632   1.008 -0.1976 -0.1908 -0.2397
  535TMC3    O1 8003   1.146   0.234   0.593 -0.0019 -0.2777  0.3705
  535TMC3    O2 8004   0.829   4.560   0.964  0.9971 -0.4993  0.1191
  536MPD2     C 8005   4.727   3.204  16.311 -0.0992  0.5038  0.3095
  536MPD2    C1 8006   4.619   3.120  16.304 -0.1420 -0.3094  0.3971
  536MPD2    C2 8007   4.529   3.129  16.199  0.2639  0.1456 -0.5377
  536MPD2    C3 8008   4.557   3.219  16.100 -0.2883  0.1641  0.0432
  536MPD2    C4 8009   4.664   3.296  16.101  0.0689 -0.1849  0.2980
  536MPD2    C5 8010   0.020   3.291  16.205  0.3324  0.1244  0.4796
  536MPD2     H 8011   4.437   3.071  16.209  0.1281  0.6666  1.1541
  536MPD2    H1 8012   4.686   3.366  16.021 -2.3285  0.7986  0.4772
  536MPD2    H2 8013   0.072   3.191  16.383 -1.3386  1.9570  1.9185
  536MPD2    H3 8014   0.111   3.350  16.199 -0.4284  1.1527 -0.8511
  536MPD2     N 8015   4.479   3.239  15.984 -0.3271  0.7691  0.4027
  536MPD2    H5 8016   4.505   3.318  15.926 -1.1713 -0.0662 -1.1110
  536MPD2    N1 8017   4.617   3.024  16.409 -0.4804  0.3078 -0.0530
  536MPD2    H7 8018   4.680   3.055  16.482 -0.0495 -1.4747  0.3295
  537TMC3    C1 8019   4.548   2.868  16.567 -0.1863 -0.0366 -0.0779
  537TMC3    C2 8020   4.672   2.872  16.631 -0.1395 -0.0075 -0.0287
  537TMC3    C3 8021   4.681   2.814  16.753 -0.6837 -0.3366 -0.3563
  537TMC3    C4 8022   4.447   2.804  16.624 -0.3302 -0.3190  0.1473
  537TMC3    C5 8023   4.468   2.738  16.740  0.1245  1.2897 -0.2986
  537TMC3    C6 8024   4.581   2.744  16.812  0.0324 -0.1559 -0.2578
  537TMC3     C 8025   4.524   2.925  16.436 -0.3749 -0.0439  0.2870
  537TMC3     O 8026   4.423   2.882  16.380  0.2858 -0.1864 -0.3852
  537TMC3     H 8027   0.017   2.936  16.595 -0.4763 -0.0341 -0.8330
  537TMC3    H1 8028   4.349   2.803  16.577 -1.1330 -1.2141  1.8492
  537TMC3    H2 8029   4.590   2.723  16.918 -2.1956 -2.6820 -0.5385
  537TMC3    C7 8030   4.364   2.645  16.785 -0.0517 -0.3666 -0.8290
  537TMC3    C8 8031   0.074   2.821  16.810  0.1867 -0.2773  1.0451
  537TMC3    O1 8032   4.249   2.660  16.738 -0.1604 -0.0297 -0.4098
  537TMC3    O2 8033   0.129   2.926  16.799 -0.2349 -0.6118  0.2367
  538TMC3    C1 8034   1.623   0.917  11.033 -0.6611 -0.3602  0.1597
  538TMC3    C2 8035   1.730   0.848  10.987 -0.3520  0.3486  0.3733
  538TMC3    C3 8036   1.810   0.914  10.892  0.9290 -0.4745 -0.6110
  538TMC3    C4 8037   1.564   1.023  10.968  0.2781  0.0993 -0.6594
  538TMC3    C5 8038   1.644   1.080  10.866  0.0313  0.4739 -0.3473
  538TMC3    C6 8039   1.769   1.029  10.830 -0.3211  0.2047  0.0693
  538TMC3     C 8040   1.553   0.874  11.158 -0.3040  0.4598 -0.2224
  538TMC3     O 8041   1.433   0.886  11.160 -0.6707 -0.0598 -0.2165
  538TMC3     H 8042   1.754   0.750  11.026 -1.4460  0.4916  1.4221
  538TMC3    H1 8043   1.471   1.067  11.001  0.5330  2.3739 -2.9502
  538TMC3    H2 8044   1.820   1.074  10.745  0.2128 -0.7345 -0.0994
  538TMC3    C7 8045   1.595   1.204  10.813  0.1590  0.4157 -1.0994
  538TMC3    C8 8046   1.895   0.824  10.820  0.2843 -0.5731 -0.0048
  538TMC3    O1 8047   1.501   1.248  10.881 -0.0685  0.4380 -0.4967
  538TMC3    O2 8048   1.868   0.702  10.823 -0.3934  0.0707  0.1000
  539MPD2     C 8049   0.914   0.187  11.554  0.4835  0.3494  0.3584
  539MPD2    C1 8050   0.997   0.238  11.461  0.2572  0.0941 -0.1385
  539MPD2    C2 8051   1.026   0.376  11.464  0.3493 -0.1216  0.0167
  539MPD2    C3 8052   0.960   0.456  11.560 -0.4396 -0.1266 -0.0094
  539MPD2    C4 8053   0.874   0.400  11.650  0.7474  0.1021  0.0370
  539MPD2    C5 8054   0.846   0.275  11.628 -0.2585  0.7031 -0.0866
  539MPD2     H 8055   1.082   0.413  11.379  0.0307  0.4664  0.0615
  539MPD2    H1 8056   0.815   0.454  11.723  0.4679 -2.0090  1.3687
  539MPD2    H2 8057   0.877   0.086  11.545  3.4179 -0.8594  1.6243
  539MPD2    H3 8058   0.763   0.239  11.686 -0.2881  1.6301  0.4497
  539MPD2     N 8059   0.988   0.593  11.570  0.5282 -0.2563 -0.5135
  539MPD2    H5 8060   0.937   0.643  11.642  1.8787  0.8502 -0.3293
  539MPD2    N1 8061   1.055   0.156  11.353 -0.4063  0.6969 -0.0521
  539MPD2    H7 8062   1.110   0.203  11.282 -1.7803  2.1427 -0.1700
  540TMC3    C1 8063   1.053   0.806  11.516  0.5125 -0.4299 -0.6072
  540TMC3    C2 8064   1.112   0.892  11.427 -0.7425 -0.6945 -0.0599
  540TMC3    C3 8065   1.135   1.023  11.459 -0.1902  0.1036  0.1712
  540TMC3    C4 8066   1.020   0.844  11.644  0.0128 -0.0432  0.3713
  540TMC3    C5 8067   1.041   0.981  11.675 -0.1369 -0.2734  0.9946
  540TMC3    C6 8068   1.093   1.070  11.585 -0.5317  0.0774  0.1884
  540TMC3     C 8069   1.076   0.663  11.493  0.2695 -0.0652 -0.0682
  540TMC3     O 8070   1.161   0.626  11.414  0.1356 -0.5043  0.1887
  540TMC3     H 8071   1.143   0.861  11.328  1.6750  2.0388 -0.1916
  540TMC3    H1 8072   0.969   0.786  11.720  1.2527 -0.1160  1.1373
  540TMC3    H2 8073   1.113   1.175  11.601  1.3952 -0.4613  1.2136
  540TMC3    C7 8074   0.957   1.022  11.785 -0.3695 -0.2068  0.1519
  540TMC3    C8 8075   1.145   1.119  11.345 -0.0822  1.2592  0.1310
  540TMC3    O1 8076   0.855   0.957  11.791 -0.3961  0.0887  0.2101
  540TMC3    O2 8077   1.246   1.184  11.332  0.0621 -0.1327 -0.1636
  541MPD2     C 8078   4.034   1.818  12.941  0.2737  0.1075 -0.4055
  541MPD2    C1 8079   4.162   1.794  12.979 -0.5994 -0.5726  0.5015
  541MPD2    C2 8080   4.263   1.871  12.923  1.0520 -0.4085 -0.4921
  541MPD2    C3 8081   4.235   1.974  12.836 -0.0007  0.0003  0.6682
  541MPD2    C4 8082   4.108   2.007  12.810  0.6452 -0.5100  0.0195
  541MPD2    C5 8083   4.005   1.928  12.861 -0.1578  0.4744 -0.6123
  541MPD2     H 8084   4.369   1.856  12.939  1.3873  3.2393  0.8410
  541MPD2    H1 8085   4.087   2.087  12.741 -0.4188 -1.5068 -0.7969
  541MPD2    H2 8086   3.952   1.757  12.976  0.0630  0.1648 -0.7952
  541MPD2    H3 8087   3.906   1.953  12.826 -0.7621  1.7217  1.9654
  541MPD2     N 8088   4.329   2.065  12.795 -0.0082  0.3588  0.5089
  541MPD2    H5 8089   4.297   2.152  12.755  1.3010  0.1574 -0.9638
  541MPD2    N1 8090   4.203   1.689  13.068  0.7323  0.2530  0.6116
  541MPD2    H7 8091   4.302   1.678  13.085  1.0535  3.9746  1.0275
  542TMC3    C1 8092   4.513   2.161  12.700 -0.0055 -0.2324  0.2753
  542TMC3    C2 8093   4.619   2.155  12.614 -0.0180 -0.1424 -0.4797
  542TMC3    C3 8094   4.654   2.262  12.540  0.6856  0.3523 -0.3302
  542TMC3    C4 8095   4.455   2.282  12.726 -0.3957  0.5586 -0.0028
  542TMC3    C5 8096   4.486   2.386  12.642  0.6493 -0.7027  0.0768
  542TMC3    C6 8097   4.578   2.377  12.545 -0.3383  0.1001 -0.4166
  542TMC3     C 8098   4.459   2.040  12.759  0.5870  0.5391  0.6379
  542TMC3     O 8099   4.518   1.938  12.762  0.3007 -0.0885 -0.3764
  542TMC3     H 8100   4.670   2.063  12.591 -2.7427 -1.6650 -0.3732
  542TMC3    H1 8101   4.391   2.310  12.809 -1.4246  0.2911 -0.7108
  542TMC3    H2 8102   4.588   2.450  12.465  0.9569  0.3218 -0.0458
  542TMC3    C7 8103   4.440   2.524  12.659  0.1345  0.1748  0.0333
  542TMC3    C8 8104   4.710   2.239  12.409 -0.6518 -0.1417  0.8293
  542TMC3    O1 8105   4.347   2.529  12.737 -0.2231 -0.2242 -0.4543
  542TMC3    O2 8106   4.671   2.308  12.317 -0.4598 -0.2038 -0.0077
  543TMC3    C1 8107   3.470   3.968  17.287  0.6724  0.0213  0.2523
  543TMC3    C2 8108   3.455   3.845  17.349 -0.6789 -0.5040  0.5422
  543TMC3    C3 8109   3.436   3.843  17.482 -0.5610 -0.4429 -0.5258
  543TMC3    C4 8110   3.458   4.085  17.351  0.8296 -0.9745 -0.4963
  543TMC3    C5 8111   3.449   4.073  17.492 -0.3926  0.4906  0.8948
  543TMC3    C6 8112   3.446   3.956  17.562  0.5207  0.1249 -0.2057
  543TMC3     C 8113   3.529   3.965  17.158 -1.0063 -0.3074 -0.0249
  543TMC3     O 8114   3.574   3.857  17.125 -0.0523  0.1986 -0.6588
  543TMC3     H 8115   3.439   3.758  17.286 -0.6133  1.2537 -1.9110
  543TMC3    H1 8116   3.477   4.184  17.312 -0.7632  0.0883  1.4121
  543TMC3    H2 8117   3.443   3.956  17.671  1.4133  0.6138 -0.1786
  543TMC3    C7 8118   3.356   4.175  17.563 -0.3749 -0.1878  0.3902
  543TMC3    C8 8119   3.380   3.720  17.537 -0.3126 -0.9795 -0.8851
  543TMC3    O1 8120   3.350   4.156  17.683 -0.5323  0.1684 -0.2099
  543TMC3    O2 8121   3.365   3.628  17.461  0.0283 -0.3661  0.0221
  544MPD2     C 8122   3.333   3.383   0.182  0.1845 -0.2153  0.5635
  544MPD2    C1 8123   3.292   3.365   0.049  0.9223 -0.9732 -0.8201
  544MPD2    C2 8124   3.304   3.483  17.710 -0.3858 -0.2247  0.6137
  544MPD2    C3 8125   3.356   3.601   0.018 -0.2021 -0.5638 -0.0650
  544MPD2    C4 8126   3.401   3.610   0.148 -0.1068  0.0700 -0.0252
  544MPD2    C5 8127   3.388   3.499   0.230 -0.6756 -0.3888  0.2728
  544MPD2     H 8128   3.266   3.475  17.609  0.8433  1.0478  0.0581
  544MPD2    H1 8129   3.440   3.705   0.181 -0.3925  0.2949 -0.3389
  544MPD2    H2 8130   3.317   3.300   0.250  2.2056 -0.7552  0.3756
  544MPD2    H3 8131   3.425   3.508   0.331 -1.9269  3.0350  0.4028
  544MPD2     N 8132   3.376   3.718  17.674  0.2435  0.2526 -0.2383
  544MPD2    H5 8133   3.401   3.800  17.728 -0.7833 -1.2330  2.4726
  544MPD2    N1 8134   3.240   3.240   0.008  0.0519 -0.8290 -0.9102
  544MPD2    H7 8135   3.234   3.170   0.082  0.0997 -1.9569 -1.9742
  545TMC3    C1 8136   3.126   3.090  17.591 -0.2895 -0.2808 -0.1924
  545TMC3    C2 8137   3.125   3.054  17.456  0.1050 -0.5040  0.5579
  545TMC3    C3 8138   3.012   3.011  17.398 -0.7256  0.1758 -0.0365
  545TMC3    C4 8139   3.026   3.053  17.679  0.0154  0.3243 -0.7301
  545TMC3    C5 8140   2.908   3.012  17.617 -0.4412 -0.5314 -0.3641
  545TMC3    C6 8141   2.898   2.998  17.479  0.0738  0.4449  0.7466
  545TMC3     C 8142   3.199   3.217  17.615 -0.3942 -0.1992 -0.0307
  545TMC3     O 8143   3.215   3.279  17.512 -0.1714 -0.4343  0.2958
  545TMC3     H 8144   3.217   3.061  17.399 -1.7784  0.0424 -2.3877
  545TMC3    H1 8145   3.034   3.088   0.043  1.5249 -1.4405 -0.2416
  545TMC3    H2 8146   2.798   2.980  17.440  0.2101  1.9260 -0.3078
  545TMC3    C7 8147   2.797   2.964  17.696 -0.0942  0.6252 -0.3283
  545TMC3    C8 8148   3.013   2.941  17.274  0.7578 -0.2352  0.3582
  545TMC3    O1 8149   2.689   2.979  17.640  0.7026  0.3308  0.5840
  545TMC3    O2 8150   2.905   2.891  17.245 -0.0504 -0.2651 -0.0913
  546MPD2     C 8151   0.179   3.709  17.502  0.2530  0.0712  0.1475
  546MPD2    C1 8152   0.159   3.725  17.368  0.4579 -0.0409 -0.0900
  546MPD2    C2 8153   0.148   3.856  17.317  0.0840  0.0145 -0.0145
  546MPD2    C3 8154   0.158   3.966  17.410  0.7941  0.2925 -0.6227
  546MPD2    C4 8155   0.192   3.942  17.538  0.5579  0.3147  0.5682
  546MPD2    C5 8156   0.200   3.814  17.586 -0.0771  0.8082 -0.6862
  546MPD2     H 8157   0.120   3.868  17.213  0.8097 -0.7579 -0.2994
  546MPD2    H1 8158   0.225   4.018  17.607  0.9346  0.8665 -0.2196
  546MPD2    H2 8159   0.191   3.610  17.545 -0.6920 -0.3302 -0.5052
  546MPD2    H3 8160   0.212   3.798  17.693 -2.1506  1.5260 -0.3516
  546MPD2     N 8161   0.157   4.103  17.369  0.3599 -0.0486 -0.5186
  546MPD2    H5 8162   0.159   4.169  17.446  1.8235  0.0594 -0.6568
  546MPD2    N1 8163   0.142   3.602  17.302  0.3857  0.2150 -0.1639
  546MPD2    H7 8164   0.144   3.516  17.356  0.1571 -1.3397 -2.5841
  547TMC3    C1 8165   0.044   3.466  17.144 -0.7304 -0.8687 -0.1278
  547TMC3    C2 8166   4.689   3.458  17.044 -0.1771  0.1418  0.7461
  547TMC3    C3 8167   4.589   3.371  17.050 -0.2582 -0.5899 -0.4055
  547TMC3    C4 8168   0.046   3.376  17.248 -0.0062  0.4346  0.3322
  547TMC3    C5 8169   4.687   3.279  17.239 -0.6567 -0.0448  0.6851
  547TMC3    C6 8170   4.583   3.273  17.148 -0.3664 -0.2663 -0.9289
  547TMC3     C 8171   0.112   3.591  17.168  0.1106  0.1436 -0.2125
  547TMC3     O 8172   0.098   3.681  17.083  0.5170 -0.5838 -0.0621
  547TMC3     H 8173   4.690   3.535  16.968  0.0711 -0.5328  0.0763
  547TMC3    H1 8174   0.119   3.379  17.328 -1.2736  0.3193  1.4918
  547TMC3    H2 8175   4.504   3.198  17.148 -1.3439  0.7750  2.4978
  547TMC3    C7 8176   4.674   3.193  17.359 -0.3794 -1.0248  0.8385
  547TMC3    C8 8177   4.464   3.407  16.978 -0.3572  0.0898  0.5499
  547TMC3    O1 8178   4.733   3.222  17.465  0.1598  0.3290  0.0397
  547TMC3    O2 8179   4.471   3.503  16.899 -0.3210  0.1011  0.0917
  548MPD2     C 8180   0.348   4.082  12.287 -0.0698  1.4521 -0.5559
  548MPD2    C1 8181   0.276   3.979  12.322  0.6044  0.7237  0.3077
  548MPD2    C2 8182   0.321   3.851  12.309 -0.2557 -0.3162  0.6287
  548MPD2    C3 8183   0.448   3.826  12.268 -0.4772  0.3811 -0.0668
  548MPD2    C4 8184   0.519   3.937  12.214  0.2334  0.5693 -0.4161
  548MPD2    C5 8185   0.471   4.062  12.229 -0.1951  0.6945  0.2668
  548MPD2     H 8186   0.264   3.760  12.314  1.0144 -1.1103  0.7044
  548MPD2    H1 8187   0.615   3.925  12.166 -0.0663 -3.2346 -0.0941
  548MPD2    H2 8188   0.310   4.183  12.300 -1.8279  0.8378 -0.9804
  548MPD2    H3 8189   0.524   4.146  12.186  2.4427 -0.2787  1.5707
  548MPD2     N 8190   0.499   3.695  12.257  0.5528 -0.3637 -0.5951
  548MPD2    H5 8191   0.442   3.615  12.284  0.1503 -0.1077 -0.6821
  548MPD2    N1 8192   0.144   4.000  12.372  0.1104 -1.1010 -0.2579
  548MPD2    H7 8193   0.105   4.094  12.374  2.9955  0.1117 -2.5135
  549TMC3    C1 8194   4.667   3.940  12.456  0.3354 -0.7050 -0.1633
  549TMC3    C2 8195   4.606   4.016  12.357 -0.2855 -0.3154 -0.3583
  549TMC3    C3 8196   4.468   4.001  12.345 -0.0031  0.3503  0.3283
  549TMC3    C4 8197   4.598   3.852  12.537  0.0461  0.2513  0.0837
  549TMC3    C5 8198   4.464   3.837  12.522  0.4163  0.0213 -0.2968
  549TMC3    C6 8199   4.400   3.916  12.431  0.0881 -0.2230 -0.0989
  549TMC3     C 8200   0.068   3.902  12.428 -0.5361  0.8168 -0.2456
  549TMC3     O 8201   0.098   3.791  12.476 -0.5168 -0.2876  0.0497
  549TMC3     H 8202   4.660   4.080  12.288 -1.0588 -0.4387 -1.0771
  549TMC3    H1 8203   4.653   3.794  12.611 -2.6446 -1.5119  0.7183
  549TMC3    H2 8204   4.292   3.924  12.427  0.2303  0.9556 -1.6582
  549TMC3    C7 8205   4.389   3.734  12.587 -1.0871 -0.3421  0.0132
  549TMC3    C8 8206   4.395   4.113  12.289 -0.1873  0.8548  0.3542
  549TMC3    O1 8207   4.265   3.755  12.585  0.0704 -0.0265  0.0118
  549TMC3    O2 8208   4.277   4.092  12.270 -0.1941  0.1116 -0.9904
  550TMC3    C1 8209   4.160   1.527  11.887  0.3920 -0.1671 -0.5952
  550TMC3    C2 8210   4.179   1.649  11.954 -0.3182 -0.2379 -0.8330
  550TMC3    C3 8211   4.079   1.681  12.042  0.5176 -0.2645  0.1278
  550TMC3    C4 8212   4.044   1.455  11.889 -0.0233 -0.1923  0.4727
  550TMC3    C5 8213   3.946   1.500  11.974  0.5417 -0.4789  0.3745
  550TMC3    C6 8214   3.964   1.610  12.060 -0.1686  0.8911  0.1301
  550TMC3     C 8215   4.263   1.476  11.801 -0.0657 -0.3196 -0.2686
  550TMC3     O 8216   4.378   1.490  11.839  0.5480 -0.4715  0.2976
  550TMC3     H 8217   4.270   1.707  11.948  0.3397 -1.2844 -0.8541
  550TMC3    H1 8218   4.031   1.359  11.841  1.2198  0.8731 -1.9679
  550TMC3    H2 8219   3.886   1.645  12.126  0.0828 -0.6934  1.2589
  550TMC3    C7 8220   3.805   1.459  11.956  0.5235 -0.0705 -0.2488
  550TMC3    C8 8221   4.079   1.811  12.122 -0.3461  0.1563 -0.2959
  550TMC3    O1 8222   3.724   1.531  12.007  0.4269 -0.3199 -0.4252
  550TMC3    O2 8223   3.973   1.863  12.148 -0.1152  0.1786 -0.0182
  551TMC3    C1 8224   1.578   4.706  13.398 -0.1459  0.2708  0.1485
  551TMC3    C2 8225   1.712   4.717  13.379 -0.6072  0.3455 -0.2340
  551TMC3    C3 8226   1.790   4.724  13.495 -0.0358  0.7867 -0.2596
  551TMC3    C4 8227   1.521   4.717  13.520  0.3902  0.4090  0.1655
  551TMC3    C5 8228   1.596   4.726  13.629 -0.3762  0.5283  0.2269
  551TMC3    C6 8229   1.731   4.720  13.623  0.3419 -0.0438  0.1080
  551TMC3     C 8230   1.510   4.632  13.293 -0.7463  0.0172 -0.0717
  551TMC3     O 8231   1.567   4.562  13.208  0.4393 -0.9843 -0.1432
  551TMC3     H 8232   1.747   4.730  13.277 -0.2046 -2.0895 -0.4138
  551TMC3    H1 8233   1.416   0.006  13.530  0.6621  2.0476 -0.9637
  551TMC3    H2 8234   1.787   4.715  13.715  1.4596 -0.3538 -0.5830
  551TMC3    C7 8235   1.551   0.070  13.736  0.0621  0.3225  0.4653
  551TMC3    C8 8236   1.929   0.040  13.487 -0.3931  0.4779 -0.5378
  551TMC3    O1 8237   1.472   0.024  13.822  0.0130  0.1527 -0.5974
  551TMC3    O2 8238   1.987   0.023  13.596  0.2971  0.1153 -0.3230
  552MPD2     C 8239   3.419   2.258  13.891 -0.8257  0.1173  0.1082
  552MPD2    C1 8240   3.365   2.166  13.973  0.8520 -0.3347 -0.2963
  552MPD2    C2 8241   3.445   2.121  14.074 -0.1566 -0.3092 -0.0602
  552MPD2    C3 8242   3.578   2.154  14.073 -0.3000 -0.5240  0.5567
  552MPD2    C4 8243   3.625   2.239  13.979  0.1259 -0.3363 -0.6117
  552MPD2    C5 8244   3.547   2.304  13.898 -0.3828  0.0752  0.1976
  552MPD2     H 8245   3.394   2.061  14.148 -1.6706 -0.5636 -1.3123
  552MPD2    H1 8246   3.730   2.268  13.981 -0.0369  0.2050 -0.1287
  552MPD2    H2 8247   3.352   2.312  13.825 -1.2644 -0.1748  0.3173
  552MPD2    H3 8248   3.585   2.393  13.850 -0.0456  0.5171  1.2769
  552MPD2     N 8249   3.676   2.107  14.163  0.4512 -0.1488  0.6241
  552MPD2    H5 8250   3.765   2.154  14.150  0.3590 -0.3350 -0.6754
  552MPD2    N1 8251   3.236   2.115  13.950  0.2925  0.2273  0.0513
  552MPD2    H7 8252   3.209   2.026  13.991  1.2522  0.3456  0.9166
  553TMC3    C1 8253   3.057   2.065  13.813  0.3001 -0.8685  1.2524
  553TMC3    C2 8254   3.043   2.072  13.679 -0.2296  0.5055 -0.4914
  553TMC3    C3 8255   3.014   1.961  13.603 -0.3217  0.0277  0.0990
  553TMC3    C4 8256   3.051   1.943  13.880  0.1729  0.1202  0.0016
  553TMC3    C5 8257   3.017   1.831  13.806 -0.1556 -0.0212 -0.5457
  553TMC3    C6 8258   2.993   1.844  13.675  0.2875 -0.8352  0.9072
  553TMC3     C 8259   3.148   2.165  13.856 -0.2934 -0.1690  0.4325
  553TMC3     O 8260   3.135   2.279  13.815 -0.2022 -0.2880 -0.3059
  553TMC3     H 8261   3.067   2.166  13.630  1.6719  0.3562  0.1790
  553TMC3    H1 8262   3.043   1.935  13.988  0.9133  0.4579  0.0853
  553TMC3    H2 8263   2.977   1.751  13.620 -2.2355  0.1308 -0.0042
  553TMC3    C7 8264   3.012   1.700  13.858  0.1784  0.0905 -0.1002
  553TMC3    C8 8265   3.105   1.945  13.494  0.7491  0.3510 -0.1277
  553TMC3    O1 8266   2.902   1.648  13.855 -0.0491 -0.1410 -0.5310
  553TMC3    O2 8267   3.208   2.011  13.509  0.1329 -0.3684 -0.3432
  554TMC3    C1 8268   0.471   0.988  11.708 -0.1898 -0.2571 -0.1358
  554TMC3    C2 8269   0.411   0.884  11.636 -0.5276  0.2586 -0.0892
  554TMC3    C3 8270   0.477   0.851  11.523  0.2242  0.0800  0.2790
  554TMC3    C4 8271   0.575   1.067  11.666 -0.5764  0.4318  0.3677
  554TMC3    C5 8272   0.631   1.026  11.546  0.2033 -0.5803 -0.1982
  554TMC3    C6 8273   0.591   0.915  11.481 -0.4439 -0.4702 -0.2415
  554TMC3     C 8274   0.478   0.960  11.848 -0.1866 -0.2421 -0.6671
  554TMC3     O 8275   0.526   1.046  11.924  0.1702  0.0592 -0.2886
  554TMC3     H 8276   0.311   0.846  11.656 -0.3843 -0.7336 -1.2712
  554TMC3    H1 8277   0.622   1.135  11.736 -1.7438  1.8231 -0.2238
  554TMC3    H2 8278   0.642   0.889  11.389  1.1876 -1.0884  0.8478
  554TMC3    C7 8279   0.724   1.107  11.477  0.5311 -0.3351 -0.0240
  554TMC3    C8 8280   0.388   0.821  11.414 -0.6189  0.6077  0.2507
  554TMC3    O1 8281   0.788   1.062  11.380 -0.1680  0.0612 -0.7516
  554TMC3    O2 8282   0.433   0.875  11.311  0.1689 -0.1762 -0.2989
  555TMC3    C1 8283   4.056   0.593  15.115 -0.5198  0.6350  0.4717
  555TMC3    C2 8284   4.057   0.666  15.228  0.0282 -0.1873 -0.4365
  555TMC3    C3 8285   4.037   0.600  15.349  0.3301  0.7981  0.2595
  555TMC3    C4 8286   4.067   0.455  15.120 -0.2488  0.1846 -0.5439
  555TMC3    C5 8287   4.058   0.392  15.242 -0.0682 -0.3171 -0.2080
  555TMC3    C6 8288   4.032   0.464  15.362  0.3509 -0.8141 -0.2153
  555TMC3     C 8289   4.045   0.666  14.991  0.2382  0.2163 -0.0743
  555TMC3     O 8290   4.136   0.653  14.911 -0.1290  0.9171 -0.1739
  555TMC3     H 8291   4.073   0.773  15.223  0.7462 -0.1709  2.5746
  555TMC3    H1 8292   4.082   0.411  15.022  2.1367 -0.6520  0.1831
  555TMC3    H2 8293   4.015   0.403  15.450  0.9601  0.6251  0.8957
  555TMC3    C7 8294   4.035   0.250  15.244  0.5295 -0.1644 -0.2843
  555TMC3    C8 8295   4.030   0.696  15.460  0.5359 -0.0527 -0.1593
  555TMC3    O1 8296   3.977   0.203  15.340 -0.4672  0.0063 -0.5580
  555TMC3    O2 8297   4.013   0.815  15.439  0.0569 -0.1040 -0.2269
  556MPD2     C 8298   2.878   1.731  10.651 -0.1265  0.0509  0.3803
  556MPD2    C1 8299   2.766   1.683  10.706 -0.2869  0.4070 -0.1465
  556MPD2    C2 8300   2.688   1.600  10.630 -0.6519  0.0117 -0.6599
  556MPD2    C3 8301   2.729   1.568  10.502 -0.1090 -0.1771  0.1537
  556MPD2    C4 8302   2.846   1.615  10.448  0.5320 -0.0901  0.0923
  556MPD2    C5 8303   2.920   1.697  10.526  0.1310  0.8568  0.0411
  556MPD2     H 8304   2.591   1.564  10.660  0.2949 -0.2166  2.0716
  556MPD2    H1 8305   2.873   1.608  10.343 -1.1118 -0.2520 -0.3340
  556MPD2    H2 8306   2.946   1.801  10.697 -0.1148  0.2050  0.1320
  556MPD2    H3 8307   3.012   1.741  10.490 -0.0826  1.9703  0.8208
  556MPD2     N 8308   2.629   1.497  10.424 -0.8118  0.2419 -0.0915
  556MPD2    H5 8309   2.545   1.480  10.478 -1.9297  2.8678 -1.0197
  556MPD2    N1 8310   2.721   1.724  10.831  0.4784 -0.4306 -0.8620
  556MPD2    H7 8311   2.639   1.672  10.863  1.3057 -1.1332  0.1033
  557TMC3    C1 8312   2.526   1.373  10.251  0.0576 -0.5140 -0.7462
  557TMC3    C2 8313   2.532   1.330  10.120 -0.9415 -0.3688  0.4485
  557TMC3    C3 8314   2.476   1.212  10.092  0.0894  0.6045  0.3096
  557TMC3    C4 8315   2.474   1.293  10.349  0.5523  0.6064  0.0164
  557TMC3    C5 8316   2.423   1.170  10.319 -0.2544 -0.4991  0.4742
  557TMC3    C6 8317   2.419   1.136  10.188  0.1573  0.3800  0.7454
  557TMC3     C 8318   2.638   1.459  10.289  0.6740  0.0663  1.0509
  557TMC3     O 8319   2.733   1.471  10.213 -0.2525 -0.3133  0.8846
  557TMC3     H 8320   2.584   1.387  10.043 -1.2744 -0.9902 -0.2411
  557TMC3    H1 8321   2.475   1.320  10.454  0.3159  0.9982 -0.0846
  557TMC3    H2 8322   2.375   1.039  10.167  1.6890 -0.1783  0.0939
  557TMC3    C7 8323   2.339   1.113  10.418 -0.1281 -0.1804  0.1087
  557TMC3    C8 8324   2.445   1.187   9.950 -0.3904 -0.4243 -0.2873
  557TMC3    O1 8325   2.303   1.180  10.510 -0.0997 -0.4382  0.1748
  557TMC3    O2 8326   2.519   1.245   9.872  0.0319  0.2197  0.0993
  558TMC3    C1 8327   4.636   4.573  10.252 -0.0121 -0.5852 -0.1584
  558TMC3    C2 8328   4.603   4.576  10.386  0.2937 -1.2329 -0.3328
  558TMC3    C3 8329   4.480   4.530  10.424  0.2334 -0.8049  0.4874
  558TMC3    C4 8330   4.545   4.511  10.166 -0.5855  0.1370  0.1537
  558TMC3    C5 8331   4.430   4.459  10.210  0.3957 -0.6059 -0.3886
  558TMC3    C6 8332   4.388   4.474  10.336  0.0237 -0.5521 -0.0287
  558TMC3     C 8333   0.042   4.552  10.239 -0.3000  0.1213 -0.5753
  558TMC3     O 8334   0.124   4.623  10.300  0.6838  0.1264  0.3051
  558TMC3     H 8335   4.671   4.623  10.457 -1.1055 -1.3673  1.1004
  558TMC3    H1 8336   4.584   4.501  10.065  2.4074  0.6907  1.2382
  558TMC3    H2 8337   4.292   4.435  10.366 -0.0439  0.1873  0.7321
  558TMC3    C7 8338   4.337   4.415  10.114  0.3673 -0.2479 -0.3412
  558TMC3    C8 8339   4.467   4.504  10.563  0.1556 -0.2280 -0.4246
  558TMC3    O1 8340   4.341   4.463  10.003 -0.3900 -0.3099  0.0659
  558TMC3    O2 8341   4.450   4.599  10.632  0.3563 -0.1081 -0.2310
  559MPD2     C 8342   4.550   0.253  11.386 -0.1751 -0.0304 -0.4205
  559MPD2    C1 8343   4.572   0.142  11.311  0.0164  0.6531  0.3960
  559MPD2    C2 8344   4.690   0.065  11.327 -0.2779 -0.8356  0.1676
  559MPD2    C3 8345   0.063   0.114  11.406  0.2516 -0.7168 -0.4006
  559MPD2    C4 8346   0.046   0.238  11.466  0.0263  0.0872 -0.9328
  559MPD2    C5 8347   4.660   0.302  11.456  0.0153 -0.2027 -0.0958
  559MPD2     H 8348   4.704   4.707  11.273 -3.0988 -0.5150 -1.1254
  559MPD2    H1 8349   0.122   0.284  11.528 -0.1928 -2.6212  1.3293
  559MPD2    H2 8350   4.456   0.306  11.384  0.9387  1.9218 -1.1071
  559MPD2    H3 8351   4.654   0.395  11.512  1.4069  0.2861 -0.7719
  559MPD2     N 8352   0.193   0.040  11.413  0.1386 -0.0555 -0.6099
  559MPD2    H5 8353   0.193   4.698  11.347 -1.6092 -1.9365  1.5994
  559MPD2    N1 8354   4.474   0.113  11.208  0.2596  0.6169 -0.0056
  559MPD2    H7 8355   4.407   0.189  11.200 -1.0462 -0.2262  2.7013
  560TMC3    C1 8356   0.429   0.043  11.389  0.6334  0.9150  0.7006
  560TMC3    C2 8357   0.434   4.649  11.348  0.4442  0.1222  0.1217
  560TMC3    C3 8358   0.537   4.611  11.268 -0.0895  1.1725  0.2459
  560TMC3    C4 8359   0.525   0.134  11.357  0.1845 -0.2884 -0.3085
  560TMC3    C5 8360   0.621   0.095  11.276 -0.4054 -0.1656  0.3467
  560TMC3    C6 8361   0.642   4.699  11.236 -0.1471  0.7068  0.4858
  560TMC3     C 8362   0.312   0.095  11.457  0.2021  0.0706  0.0269
  560TMC3     O 8363   0.325   0.201  11.520 -0.4685  0.1350 -0.0651
  560TMC3     H 8364   0.359   4.580  11.385 -0.4405  0.1352 -1.6140
  560TMC3    H1 8365   0.519   0.238  11.388  1.1555  0.2117 -1.7785
  560TMC3    H2 8366   0.723   4.677  11.167 -0.4026 -0.2858  0.5078
  560TMC3    C7 8367   0.721   0.191  11.218 -0.0358  0.5372  0.4438
  560TMC3    C8 8368   0.540   4.480  11.207  0.1686  0.7025 -0.3532
  560TMC3    O1 8369   0.821   0.143  11.162  0.0978  0.2997 -0.0835
  560TMC3    O2 8370   0.445   4.410  11.231  0.0458  0.4280  0.0263
  561TMC3    C1 8371   2.495   3.952  11.644 -0.4894 -0.2474  0.0388
  561TMC3    C2 8372   2.390   3.916  11.723  1.0296 -0.1094 -0.6996
  561TMC3    C3 8373   2.308   4.001  11.781  0.5408 -0.5264  0.4386
  561TMC3    C4 8374   2.521   4.085  11.620 -0.3172 -0.1279  0.1666
  561TMC3    C5 8375   2.442   4.178  11.689 -1.2547 -0.5075 -0.5618
  561TMC3    C6 8376   2.334   4.137  11.760 -0.0486  0.2527 -0.5575
  561TMC3     C 8377   2.565   3.849  11.561  0.0391 -0.1145 -0.0376
  561TMC3     O 8378   2.521   3.737  11.578 -0.0005  0.3584 -0.0103
  561TMC3     H 8379   2.378   3.814  11.756 -0.4277  0.3520  0.1744
  561TMC3    H1 8380   2.620   4.116  11.590 -0.8784  2.1132  0.5534
  561TMC3    H2 8381   2.276   4.206  11.821  0.9107  0.2402  0.3748
  561TMC3    C7 8382   2.469   4.320  11.683 -0.2947  0.2070 -0.3839
  561TMC3    C8 8383   2.240   3.967  11.903 -0.3543  0.1753  0.2902
  561TMC3    O1 8384   2.394   4.394  11.748  0.5866 -0.4979  0.2872
  561TMC3    O2 8385   2.305   3.885  11.969 -0.3884  0.4020  0.6596
  562TMC3    C1 8386   3.655   0.808  16.162 -0.2989  1.0641  0.4144
  562TMC3    C2 8387   3.559   0.895  16.116 -0.4021  0.2478 -0.2671
  562TMC3    C3 8388   3.533   0.883  15.982 -0.3428  0.4315 -0.4522
  562TMC3    C4 8389   3.697   0.699  16.084 -0.2529  0.7432 -0.3739
  562TMC3    C5 8390   3.650   0.685  15.959 -0.1935 -0.3982 -0.4913
  562TMC3    C6 8391   3.568   0.780  15.898  0.1463 -0.4448 -0.4193
  562TMC3     C 8392   3.703   0.821  16.299  0.4436  0.4854  0.1540
  562TMC3     O 8393   3.760   0.733  16.358  0.0266 -0.6189 -0.5831
  562TMC3     H 8394   3.515   0.976  16.173 -0.3941  0.9528 -1.2592
  562TMC3    H1 8395   3.773   0.641  16.134 -0.5796  0.5311 -0.1200
  562TMC3    H2 8396   3.550   0.781  15.791 -2.7961  3.3734  0.0922
  562TMC3    C7 8397   3.701   0.581  15.870  0.2172  0.8713  0.5659
  562TMC3    C8 8398   3.422   0.972  15.944 -0.2599 -1.1001  0.1837
  562TMC3    O1 8399   3.684   0.600  15.751 -0.0701  0.0537 -0.3764
  562TMC3    O2 8400   3.350   1.012  16.037 -0.3572  0.2586 -0.6964
  563MPD2     C 8401   1.124   1.999  15.701  1.0213 -0.3370  0.0507
  563MPD2    C1 8402   1.157   2.079  15.812  0.0078 -0.2793 -0.4071
  563MPD2    C2 8403   1.285   2.059  15.872 -1.0863  0.2233 -0.4076
  563MPD2    C3 8404   1.361   1.950  15.835 -0.3218 -0.8352 -0.4597
  563MPD2    C4 8405   1.316   1.862  15.740 -0.0178  0.1154 -0.1107
  563MPD2    C5 8406   1.214   1.903  15.667  0.3227  0.0275  1.0075
  563MPD2     H 8407   1.329   2.123  15.948 -0.7857  0.9748 -1.2149
  563MPD2    H1 8408   1.373   1.782  15.694 -0.8996 -0.3518 -0.3873
  563MPD2    H2 8409   1.026   2.003  15.656  2.2013  1.6203 -2.3230
  563MPD2    H3 8410   1.180   1.856  15.575  2.0628 -2.0980  1.4549
  563MPD2     N 8411   1.466   1.910  15.921  0.3826  0.8701  0.0729
  563MPD2    H5 8412   1.481   1.968  16.003  1.1858 -2.4236  2.2920
  563MPD2    N1 8413   1.067   2.169  15.874  0.0120 -0.2454  0.5501
  563MPD2    H7 8414   1.101   2.227  15.951 -0.6919  1.1203 -0.1643
  564TMC3    C1 8415   0.863   2.155  15.997 -0.6834 -0.1665  0.3299
  564TMC3    C2 8416   0.748   2.079  15.991  1.1222 -0.3021  0.1169
  564TMC3    C3 8417   0.733   1.972  16.069 -0.1546  0.3510 -0.4301
  564TMC3    C4 8418   0.953   2.125  16.101 -0.1227 -0.1814  0.0269
  564TMC3    C5 8419   0.924   2.013  16.175  0.1964  0.2095  0.0706
  564TMC3    C6 8420   0.821   1.936  16.161  0.0989 -0.2870 -0.1358
  564TMC3     C 8421   0.926   2.148  15.866  0.3094 -0.2524  0.8011
  564TMC3     O 8422   0.864   2.078  15.790 -0.5856 -0.5508  0.8250
  564TMC3     H 8423   0.669   2.093  15.918  0.2533 -2.9519  0.5356
  564TMC3    H1 8424   1.048   2.171  16.127  0.4481 -1.0579 -0.4833
  564TMC3    H2 8425   0.806   1.843  16.214  1.4624  0.3997  1.4600
  564TMC3    C7 8426   1.045   1.929  16.178 -0.6237 -0.2113  0.9828
  564TMC3    C8 8427   0.668   1.857  16.011  0.7874  0.7612 -0.2888
  564TMC3    O1 8428   1.150   1.967  16.236 -0.1320  0.2067  0.0150
  564TMC3    O2 8429   0.636   1.771  16.089 -0.9675  0.5040  0.3782
  565TMC3    C1 8430   1.999   3.200  10.408  0.4106 -0.3642 -0.9245
  565TMC3    C2 8431   1.978   3.100  10.501 -0.5843  0.8944 -0.7952
  565TMC3    C3 8432   1.858   3.028  10.491  0.9534  0.0747  0.0461
  565TMC3    C4 8433   1.914   3.222  10.308 -0.3601 -1.2372  0.1769
  565TMC3    C5 8434   1.801   3.138  10.302 -0.2916 -0.6000 -0.6674
  565TMC3    C6 8435   1.773   3.034  10.381  0.3033  0.0527 -0.3628
  565TMC3     C 8436   2.121   3.274  10.404 -0.2995  0.8116 -0.6386
  565TMC3     O 8437   2.118   3.389  10.365 -0.5691  0.1097  0.0141
  565TMC3     H 8438   2.053   3.086  10.578 -1.9695  1.1654  0.5996
  565TMC3    H1 8439   1.929   3.306  10.241  1.8686 -2.0102 -0.3000
  565TMC3    H2 8440   1.670   3.002  10.394  0.4281 -0.4866 -0.7233
  565TMC3    C7 8441   1.711   3.149  10.184 -0.0648 -0.8618 -0.4549
  565TMC3    C8 8442   1.847   2.911  10.570  0.4420  0.5022  0.9419
  565TMC3    O1 8443   1.682   3.258  10.135 -0.2656  0.2066  1.0938
  565TMC3    O2 8444   1.912   2.914  10.676  0.7330 -0.3668 -0.0350
  566MPD2     C 8445   3.354   0.058  14.452  0.5144 -0.2839 -0.4934
  566MPD2    C1 8446   3.323   0.179  14.399  0.0172  0.4573  0.3642
  566MPD2    C2 8447   3.284   0.189  14.265 -0.2888 -0.4954 -0.2286
  566MPD2    C3 8448   3.279   0.073  14.190 -0.3768  0.0026  0.2704
  566MPD2    C4 8449   3.313   4.684  14.246  0.7716 -0.4498 -0.6617
  566MPD2    C5 8450   3.345   4.676  14.383  0.5530 -0.1636 -0.4954
  566MPD2     H 8451   3.248   0.283  14.225  0.5851  0.0789  0.3573
  566MPD2    H1 8452   3.310   4.595  14.185  1.5972 -1.3036  0.5463
  566MPD2    H2 8453   3.377   0.038  14.556 -0.5954 -1.6318 -0.5165
  566MPD2    H3 8454   3.379   4.581  14.422  1.7469  0.1098 -0.8882
  566MPD2     N 8455   3.254   0.086  14.052 -0.5760  0.4238  0.1088
  566MPD2    H5 8456   3.256   4.731  14.006 -1.7358  0.2823  0.3352
  566MPD2    N1 8457   3.330   0.291  14.484 -0.4029  0.0971  0.1594
  566MPD2    H7 8458   3.332   0.273  14.584  1.6790  2.3949  0.5497
  567TMC3    C1 8459   3.340   0.525  14.531 -0.7369  0.5621  0.7727
  567TMC3    C2 8460   3.337   0.647  14.479  0.3898 -0.4712 -0.1432
  567TMC3    C3 8461   3.442   0.733  14.507 -1.6805  0.4309 -0.2425
  567TMC3    C4 8462   3.413   0.487  14.642 -0.4851  0.0976  0.2826
  567TMC3    C5 8463   3.509   0.572  14.674  0.2520 -0.1913  0.0508
  567TMC3    C6 8464   3.537   0.693  14.604  0.5261  0.4046 -1.0825
  567TMC3     C 8465   3.330   0.420  14.431  0.4577  0.0333  0.7381
  567TMC3     O 8466   3.357   0.453  14.321  0.1313  0.2790 -0.0458
  567TMC3     H 8467   3.270   0.673  14.398 -0.8419 -0.6745  0.8136
  567TMC3    H1 8468   3.407   0.392  14.693 -2.5778  0.3569  0.5250
  567TMC3    H2 8469   3.620   0.753  14.636  0.2705  0.8221 -1.1985
  567TMC3    C7 8470   3.603   0.521  14.768  0.1164  0.1628  0.3370
  567TMC3    C8 8471   3.476   0.831  14.409 -0.5482 -0.5213 -0.0161
  567TMC3    O1 8472   3.655   0.414  14.740 -0.0258 -0.0052 -0.3922
  567TMC3    O2 8473   3.379   0.876  14.352  0.1258  0.3799 -0.1303
  568MPD2     C 8474   1.435   0.881  16.616 -0.3842 -0.2539  0.4412
  568MPD2    C1 8475   1.311   0.922  16.660  0.7241  0.0923 -0.3175
  568MPD2    C2 8476   1.246   1.007  16.575  0.0435  0.1981  0.0585
  568MPD2    C3 8477   1.289   1.041  16.449  0.0167  0.0040 -0.3047
  568MPD2    C4 8478   1.418   1.003  16.417  0.7339  0.4046 -0.4998
  568MPD2    C5 8479   1.493   0.917  16.497  0.2689  0.6622  0.1943
  568MPD2     H 8480   1.149   1.051  16.594 -0.1984 -0.7410  0.9777
  568MPD2    H1 8481   1.462   1.051  16.331  0.9061 -0.7186 -1.0420
  568MPD2    H2 8482   1.498   0.829  16.688 -1.7426 -0.2168  1.6566
  568MPD2    H3 8483   1.597   0.898  16.475 -0.3168 -0.1608 -1.8433
  568MPD2     N 8484   1.222   1.142  16.375  0.1194  0.3062 -0.0890
  568MPD2    H5 8485   1.138   1.169  16.425  1.5574  1.9630  1.4120
  568MPD2    N1 8486   1.253   0.862  16.774  0.0940 -0.3177 -0.6720
  568MPD2    H7 8487   1.306   0.791  16.822  0.7603 -0.8044 -2.1100
  569TMC3    C1 8488   1.135   1.267  16.190 -0.3600 -0.5884 -0.2697
  569TMC3    C2 8489   1.061   1.334  16.282 -0.0167  0.7567  0.1109
  569TMC3    C3 8490   0.925   1.349  16.255  1.0195 -0.2188  0.5829
  569TMC3    C4 8491   1.079   1.217  16.071  0.1176 -0.4458 -0.1186
  569TMC3    C5 8492   0.952   1.249  16.050 -0.2596  0.6657  0.0088
  569TMC3    C6 8493   0.870   1.299  16.142  0.2932 -0.1273  0.4481
  569TMC3     C 8494   1.245   1.190  16.247 -0.4115 -1.0128  0.1362
  569TMC3     O 8495   1.332   1.170  16.167  0.4445 -0.0225  0.2797
  569TMC3     H 8496   1.112   1.363  16.373 -0.8453  1.5268  0.3294
  569TMC3    H1 8497   1.154   1.168  16.010  0.8930 -2.0270  2.0968
  569TMC3    H2 8498   0.764   1.288  16.124  0.5452  2.5222 -2.5312
  569TMC3    C7 8499   0.920   1.274  15.907 -1.1974 -0.5727 -0.0500
  569TMC3    C8 8500   0.853   1.462  16.304  0.5293  0.7626 -0.0237
  569TMC3    O1 8501   1.001   1.247  15.818 -0.1807 -0.0261 -0.4053
  569TMC3    O2 8502   0.745   1.485  16.256 -0.5118 -0.4606 -0.6931
  570TMC3    C1 8503   0.294   4.325  16.281  0.0846  0.5698  0.1657
  570TMC3    C2 8504   0.372   4.324  16.172 -0.4873  0.4799 -0.0014
  570TMC3    C3 8505   0.462   4.423  16.176 -0.1184  0.1526 -0.4327
  570TMC3    C4 8506   0.282   4.430  16.366  0.0701  0.2340 -0.5747
  570TMC3    C5 8507   0.371   4.533  16.352 -0.0204 -0.0665 -1.2928
  570TMC3    C6 8508   0.472   4.529  16.262  0.2482  0.0964 -0.3368
  570TMC3     C 8509   0.211   4.212  16.301  0.0411 -0.2107 -0.5146
  570TMC3     O 8510   0.169   4.154  16.204 -0.1417  0.0964 -0.1073
  570TMC3     H 8511   0.364   4.236  16.110 -1.3455  0.7627 -0.2906
  570TMC3    H1 8512   0.206   4.436  16.443  0.6503 -1.7656  0.1558
  570TMC3    H2 8513   0.551   4.601  16.276 -0.0044  0.9365 -3.2176
  570TMC3    C7 8514   0.333   4.667  16.403  0.3994  0.0863 -0.5652
  570TMC3    C8 8515   0.574   4.431  16.077 -0.1520 -0.2698  0.4876
  570TMC3    O1 8516   0.243   4.670  16.490 -0.1526 -0.5209  0.4904
  570TMC3    O2 8517   0.665   4.510  16.095  0.3989 -0.2762  0.4188
  571MPD2     C 8518   2.317   2.015   0.249  0.2661 -0.5130 -0.0434
  571MPD2    C1 8519   2.398   1.926   0.314 -0.1989  0.1214 -0.3305
  571MPD2    C2 8520   2.479   1.970   0.419  0.4499  0.1620 -0.0040
  571MPD2    C3 8521   2.471   2.099   0.463  0.1040  0.1124 -0.3101
  571MPD2    C4 8522   2.389   2.182   0.398  0.0338  0.3108  0.1952
  571MPD2    C5 8523   2.309   2.142   0.298  0.5930 -0.0839  0.3567
  571MPD2     H 8524   2.548   1.902   0.468  0.2769  0.3118  0.4544
  571MPD2    H1 8525   2.380   2.283   0.437 -0.9311 -0.1183  1.0828
  571MPD2    H2 8526   2.251   1.988   0.168  0.2905 -0.5372 -0.0552
  571MPD2    H3 8527   2.240   2.208   0.246 -0.1508 -1.5074 -0.4495
  571MPD2     N 8528   2.533   2.151   0.576  0.1251 -0.2033 -0.6633
  571MPD2    H5 8529   2.528   2.252   0.586 -2.2437 -0.5725  2.0916
  571MPD2    N1 8530   2.403   1.799   0.256  0.4203 -0.1848 -0.1196
  571MPD2    H7 8531   2.349   1.787   0.171  0.6438  0.3830 -0.3452
  572TMC3    C1 8532   2.655   2.162   0.783  0.0540  0.7388  0.3162
  572TMC3    C2 8533   2.749   2.094   0.857  0.1002  0.4630 -0.7771
  572TMC3    C3 8534   2.828   2.174   0.939  0.3751  0.0457  0.4352
  572TMC3    C4 8535   2.643   2.299   0.783  0.5804 -0.4580  0.1746
  572TMC3    C5 8536   2.737   2.371   0.856  0.0002 -0.6455  0.0526
  572TMC3    C6 8537   2.821   2.314   0.937  0.1179 -0.3926  0.4653
  572TMC3     C 8538   2.599   2.085   0.676  0.1399  0.6286 -0.4299
  572TMC3     O 8539   2.636   1.967   0.679  0.5662 -0.3177  0.2214
  572TMC3     H 8540   2.745   1.987   0.875 -2.4897  0.7443  0.3487
  572TMC3    H1 8541   2.566   2.348   0.725 -1.8709 -0.5382  3.3608
  572TMC3    H2 8542   2.892   2.371   0.996  0.3476 -1.9766  1.7391
  572TMC3    C7 8543   2.743   2.514   0.822 -0.9872 -0.4638 -0.1619
  572TMC3    C8 8544   2.923   2.101   1.020 -0.2689  1.3835 -0.0905
  572TMC3    O1 8545   2.659   2.544   0.740  0.2288 -0.2989  0.4624
  572TMC3    O2 8546   2.968   2.000   0.975  0.2352 -0.5349  1.0939
  573MPD2     C 8547   3.658   2.536   0.556 -0.2659 -0.1069 -0.3660
  573MPD2    C1 8548   3.575   2.568   0.663 -0.0904 -0.5819  0.0934
  573MPD2    C2 8549   3.442   2.518   0.663  0.1403  0.2682  0.2453
  573MPD2    C3 8550   3.407   2.434   0.555  0.6695 -0.1808 -0.0856
  573MPD2    C4 8551   3.495   2.402   0.459 -0.0288  0.3398  0.0717
  573MPD2    C5 8552   3.620   2.449   0.462 -0.1745 -0.1262 -0.2631
  573MPD2     H 8553   3.372   2.559   0.734 -0.3057 -0.0790  0.0114
  573MPD2    H1 8554   3.457   2.335   0.383 -2.1475  2.2029 -0.5238
  573MPD2    H2 8555   3.760   2.571   0.550 -0.6674  1.1109 -0.0118
  573MPD2    H3 8556   3.694   2.431   0.385  0.0032 -1.0516  0.1255
  573MPD2     N 8557   3.277   2.389   0.529  0.8972 -0.1496 -0.2677
  573MPD2    H5 8558   3.265   2.341   0.440 -0.3631  0.2289 -0.3065
  573MPD2    N1 8559   3.629   2.664   0.750  0.8766  0.3405 -0.2452
  573MPD2    H7 8560   3.724   2.689   0.724  1.6382 -1.0083  1.2430
  574TMC3    C1 8561   3.056   2.346   0.559  1.2016 -0.6280 -0.3834
  574TMC3    C2 8562   2.949   2.432   0.561 -0.7064  0.4820 -0.9532
  574TMC3    C3 8563   2.835   2.372   0.515 -0.2063  0.1352  0.0590
  574TMC3    C4 8564   3.059   2.214   0.519  0.2052  0.2924  0.0393
  574TMC3    C5 8565   2.940   2.159   0.475  0.8606 -0.3869 -0.3214
  574TMC3    C6 8566   2.830   2.249   0.462 -0.8881  0.6509 -0.5623
  574TMC3     C 8567   3.172   2.402   0.616  0.3594 -0.6058 -0.4342
  574TMC3     O 8568   3.147   2.478   0.709 -0.4952  0.1286 -0.0154
  574TMC3     H 8569   2.947   2.531   0.605  0.0767 -1.0095  2.4239
  574TMC3    H1 8570   3.153   2.160   0.518  0.1394  0.1362  1.9093
  574TMC3    H2 8571   2.734   2.207   0.433 -0.6133 -0.3034 -0.1004
  574TMC3    C7 8572   2.932   2.028   0.411 -0.7523  0.2944 -0.1817
  574TMC3    C8 8573   2.735   2.465   0.455  0.8861  0.2508 -0.0957
  574TMC3    O1 8574   3.019   1.950   0.438  0.4953 -0.1635 -0.9432
  574TMC3    O2 8575   2.623   2.423   0.431 -0.3765 -0.2497  0.0108
  575TMC3    C1 8576   2.051   2.435  11.263 -0.1754  0.5698 -0.4726
  575TMC3    C2 8577   2.123   2.323  11.240  0.0293 -0.3551  0.3865
  575TMC3    C3 8578   2.131   2.289  11.110  0.1695 -0.1311 -0.1162
  575TMC3    C4 8579   1.978   2.498  11.166 -0.3045 -0.3220 -0.0530
  575TMC3    C5 8580   1.978   2.446  11.036 -0.0892 -0.1282 -0.5729
  575TMC3    C6 8581   2.060   2.343  11.008  0.0262 -0.0930 -0.4412
  575TMC3     C 8582   2.066   2.496  11.395  0.3192 -0.1586  0.4252
  575TMC3     O 8583   2.086   2.419  11.487  0.6074  0.1390  0.2234
  575TMC3     H 8584   2.189   2.278  11.313 -0.7092 -2.5622 -0.3065
  575TMC3    H1 8585   1.903   2.572  11.195 -0.7997 -0.7360 -0.2847
  575TMC3    H2 8586   2.075   2.320  10.903 -0.7690 -0.6345 -0.4379
  575TMC3    C7 8587   1.910   2.522  10.933  0.0433  0.0546  0.5230
  575TMC3    C8 8588   2.254   2.220  11.068  0.1181  0.7212 -0.2068
  575TMC3    O1 8589   1.885   2.642  10.957 -0.1677  0.4697  0.0029
  575TMC3    O2 8590   2.342   2.223  11.151  0.3537 -0.6108 -0.2915
  576MPD2     C 8591   1.316   4.694  12.724  0.4501  0.8282 -0.1855
  576MPD2    C1 8592   1.398   0.018  12.627 -0.0101 -0.5679 -0.6589
  576MPD2    C2 8593   1.438   0.148  12.635  0.2141 -0.1323 -0.2825
  576MPD2    C3 8594   1.375   0.227  12.728 -0.3160  0.3968 -0.6570
  576MPD2    C4 8595   1.286   0.175  12.819  0.3849 -0.4534  0.1642
  576MPD2    C5 8596   1.266   0.043  12.821  0.3017  0.0192  0.5062
  576MPD2     H 8597   1.509   0.200  12.572 -0.3160 -0.0305 -0.8031
  576MPD2    H1 8598   1.237   0.233  12.897  0.4623  0.9087 -0.8032
  576MPD2    H2 8599   1.271   4.596  12.721  3.5466 -0.5800 -0.8924
  576MPD2    H3 8600   1.199   0.010  12.899 -0.5084 -0.8112 -0.5468
  576MPD2     N 8601   1.403   0.363  12.732 -0.1545 -0.6159  0.4513
  576MPD2    H5 8602   1.438   0.405  12.646 -0.0546 -0.1064  0.7406
  576MPD2    N1 8603   1.427   4.692  12.509  0.6794 -0.1957  0.2518
  576MPD2    H7 8604   1.484   0.007  12.442 -1.8427  2.3805 -0.0136
  577TMC3    C1 8605   1.437   4.520  12.352  0.8728 -0.2043 -0.0123
  577TMC3    C2 8606   1.487   4.395  12.338 -0.0516 -0.6062  0.0740
  577TMC3    C3 8607   1.577   4.371  12.237  0.3519 -0.2577  0.7274
  577TMC3    C4 8608   1.463   4.615  12.260  0.4785 -0.2489  0.3922
  577TMC3    C5 8609   1.529   4.581  12.143  0.7418  0.0104 -0.3055
  577TMC3    C6 8610   1.609   4.469  12.141  0.0514 -0.5751  0.3549
  577TMC3     C 8611   1.396   4.559  12.486 -0.3243 -1.0712  0.0554
  577TMC3     O 8612   1.364   4.464  12.552 -0.3485 -0.6197  0.2313
  577TMC3     H 8613   1.464   4.311  12.403  0.9826  0.0393  1.2823
  577TMC3    H1 8614   1.400   4.702  12.252  2.5772  1.2900  0.4216
  577TMC3    H2 8615   1.693   4.455  12.074 -0.6119 -1.4222 -0.3069
  577TMC3    C7 8616   1.557   4.682  12.051 -0.1711 -0.1697  0.1465
  577TMC3    C8 8617   1.671   4.264  12.262  0.4507 -0.5482 -0.2275
  577TMC3    O1 8618   1.531   0.060  12.094 -0.6326  0.0831  0.2762
  577TMC3    O2 8619   1.673   4.216  12.375 -0.7530  0.5227  0.2658
  578MPD2     C 8620   4.186   0.339   1.090  0.2568 -0.1165  0.2449
  578MPD2    C1 8621   4.242   0.291   0.974  1.2513  0.2818  0.2706
  578MPD2    C2 8622   4.340   0.193   0.981  0.0253  0.1707 -0.1761
  578MPD2    C3 8623   4.387   0.151   1.106  0.1431 -0.2128 -0.0403
  578MPD2    C4 8624   4.322   0.198   1.218  0.8835 -0.1792  0.7749
  578MPD2    C5 8625   4.219   0.287   1.216 -0.0609  0.2801  0.5351
  578MPD2     H 8626   4.396   0.155   0.896  0.5884  0.6909 -0.0326
  578MPD2    H1 8627   4.344   0.148   1.312  3.5600 -1.2451 -0.4206
  578MPD2    H2 8628   4.126   0.429   1.087  0.9157  0.3426  0.8651
  578MPD2    H3 8629   4.170   0.329   1.303  0.1088  1.7006 -0.0521
  578MPD2     N 8630   4.509   0.078   1.107 -0.2939  0.4950  0.3342
  578MPD2    H5 8631   4.542   0.056   1.013  0.4066 -1.0039  0.9343
  578MPD2    N1 8632   4.191   0.350   0.851  0.1017 -0.1272 -0.1224
  578MPD2    H7 8633   4.121   0.423   0.856  0.5476  0.3555 -0.8172
  579TMC3    C1 8634   4.706   4.706   1.183  0.3441 -0.5403 -0.2752
  579TMC3    C2 8635   0.081   4.722   1.266  0.1120 -0.2731  0.2143
  579TMC3    C3 8636   0.200   4.666   1.228  0.4789  0.3512 -0.0055
  579TMC3    C4 8637   4.711   4.634   1.066 -0.3640  0.4033  0.5427
  579TMC3    C5 8638   0.092   4.564   1.041 -0.1856 -0.3295  0.0841
  579TMC3    C6 8639   0.209   4.584   1.109  0.6143  0.1707  0.5479
  579TMC3     C 8640   4.580   0.043   1.221  0.0161  0.1515  0.4346
  579TMC3     O 8641   4.562   0.085   1.334  0.4456  0.2316  0.4783
  579TMC3     H 8642   0.068   0.047   1.355  0.1716 -2.2257  1.5480
  579TMC3    H1 8643   4.622   4.601   1.013 -0.9031  0.4313  1.4212
  579TMC3    H2 8644   0.299   4.531   1.080  0.7021  1.0452 -0.8072
  579TMC3    C7 8645   0.105   4.467   0.924  0.3405 -0.1896 -0.7098
  579TMC3    C8 8646   0.324   4.699   1.296  0.2132 -0.4690  0.2677
  579TMC3    O1 8647   0.197   4.387   0.932 -0.5847 -0.0887 -0.0233
  579TMC3    O2 8648   0.309   0.005   1.411 -0.2162  0.2862 -0.5217
  580TMC3    C1 8649   4.519   3.655  12.051 -0.2701  0.4800 -0.1735
  580TMC3    C2 8650   4.583   3.779  12.040 -0.0511  1.0762 -0.6524
  580TMC3    C3 8651   4.711   3.787  12.090 -0.4673 -1.0675 -0.6001
  580TMC3    C4 8652   4.589   3.543  12.087  0.2643  0.1040 -0.3489
  580TMC3    C5 8653   4.716   3.556  12.133 -0.0942  0.6936 -1.3548
  580TMC3    C6 8654   0.043   3.674  12.140  0.7763 -0.1018 -0.1645
  580TMC3     C 8655   4.385   3.653  11.987  0.0260  0.2527 -0.1437
  580TMC3     O 8656   4.355   3.747  11.914 -1.0602  0.1224  0.3499
  580TMC3     H 8657   4.536   3.859  11.985  0.7152  1.1622 -1.1829
  580TMC3    H1 8658   4.533   3.453  12.105 -0.4971  0.3723 -1.4056
  580TMC3    H2 8659   0.148   3.679  12.164  0.9985  1.4708 -1.4429
  580TMC3    C7 8660   0.051   3.446  12.189  0.0161 -0.0423 -0.3438
  580TMC3    C8 8661   0.049   3.909  12.044 -0.7052  0.7058  0.5817
  580TMC3    O1 8662   0.136   3.472  12.270 -0.5592 -0.1355  0.3459
  580TMC3    O2 8663   4.723   4.014  12.057 -0.4019  0.1911 -0.1413
  581MPD2     C 8664   2.446   3.103  15.015  0.1916  0.2570 -0.3595
  581MPD2    C1 8665   2.321   3.080  15.078  0.0345 -0.2000 -0.1473
  581MPD2    C2 8666   2.212   3.162  15.044  0.6001 -0.3962  0.2172
  581MPD2    C3 8667   2.225   3.267  14.962  0.8264 -0.0680 -0.0439
  581MPD2    C4 8668   2.346   3.296  14.908  0.4646 -0.4237 -0.0274
  581MPD2    C5 8669   2.454   3.206  14.931 -0.1118  0.0750  0.5395
  581MPD2     H 8670   2.116   3.130  15.084 -0.1990  0.4365 -1.0439
  581MPD2    H1 8671   2.359   3.362  14.823  1.5447  1.5888  1.7141
  581MPD2    H2 8672   2.535   3.045  15.037  1.2587  1.2068 -2.1481
  581MPD2    H3 8673   2.546   3.228  14.877 -1.7469  3.2436 -0.9586
  581MPD2     N 8674   2.110   3.344  14.938  0.5548  0.1703 -0.4603
  581MPD2    H5 8675   2.028   3.308  14.986 -0.7737  3.5410 -0.2653
  581MPD2    N1 8676   2.307   2.964  15.158  0.1767  0.4086 -0.4428
  581MPD2    H7 8677   2.391   2.926  15.201 -0.2989  0.5650  0.6291
  582TMC3    C1 8678   2.232   2.798  15.299  0.7185  0.1687 -0.6989
  582TMC3    C2 8679   2.283   2.840  15.413 -0.1656  0.4803  0.9468
  582TMC3    C3 8680   2.241   2.786  15.533 -0.7033 -0.1207 -0.1951
  582TMC3    C4 8681   2.136   2.701  15.307  0.2663 -0.6829 -0.3907
  582TMC3    C5 8682   2.083   2.657  15.427 -0.7798 -0.1906 -0.3341
  582TMC3    C6 8683   2.134   2.700  15.544 -0.0187 -0.2331 -0.4006
  582TMC3     C 8684   2.194   2.907  15.220  0.1293 -0.1351 -0.0597
  582TMC3     O 8685   2.079   2.948  15.234 -0.0710 -0.5893 -0.2921
  582TMC3     H 8686   2.347   2.926  15.419 -0.8275  1.0588 -0.2763
  582TMC3    H1 8687   2.094   2.675  15.211  0.3907  2.4342 -1.2934
  582TMC3    H2 8688   2.075   2.688  15.635 -0.1447 -2.8122 -0.8274
  582TMC3    C7 8689   1.936   2.655  15.427 -1.0783 -0.2251 -0.4753
  582TMC3    C8 8690   2.241   2.879  15.642  0.3769  0.1987 -0.2859
  582TMC3    O1 8691   1.888   2.596  15.520 -0.0647  0.5360  0.2012
  582TMC3    O2 8692   2.172   2.979  15.629  0.2018  0.2490 -0.0417
  583MPD2     C 8693   2.145   0.428  16.973  0.0885  0.4496 -0.6620
  583MPD2    C1 8694   2.136   0.548  16.911  0.2326  0.1696  0.4712
  583MPD2    C2 8695   2.114   0.659  16.987  0.5949 -0.9163  0.0292
  583MPD2    C3 8696   2.107   0.659  17.122  0.4990  0.2012 -0.3247
  583MPD2    C4 8697   2.107   0.531  17.180  0.1362 -0.2255  0.5752
  583MPD2    C5 8698   2.125   0.420  17.107  0.0911 -0.7172  0.8881
  583MPD2     H 8699   2.101   0.754  16.935  1.5997 -1.2998 -0.9244
  583MPD2    H1 8700   2.108   0.512  17.286  0.2964 -1.6676  0.3178
  583MPD2    H2 8701   2.162   0.339  16.914 -3.2835  1.2821 -2.8613
  583MPD2    H3 8702   2.123   0.325  17.159 -0.7709 -1.6830 -0.9044
  583MPD2     N 8703   2.080   0.779  17.192  0.0824  0.7449  0.1883
  583MPD2    H5 8704   2.079   0.865  17.139 -4.2781  1.0941  0.9063
  583MPD2    N1 8705   2.140   0.563  16.774  0.4041  0.4899  0.2834
  583MPD2    H7 8706   2.126   0.660  16.748  0.3498  0.6268  0.8157
  584TMC3    C1 8707   2.026   0.898  17.397 -0.5924 -0.3637 -0.1077
  584TMC3    C2 8708   2.071   1.023  17.360  0.0638 -0.6389  0.0774
  584TMC3    C3 8709   2.045   1.134  17.439 -0.4526 -0.1029 -0.1665
  584TMC3    C4 8710   1.931   0.890  17.500  0.1672  0.0546  0.2390
  584TMC3    C5 8711   1.902   1.000  17.577  0.2760  0.0023 -0.0986
  584TMC3    C6 8712   1.970   1.119  17.551  0.0055  0.1954  0.0493
  584TMC3     C 8713   2.047   0.773  17.325 -0.3109 -0.8698 -0.3044
  584TMC3     O 8714   2.018   0.680  17.397 -1.0311  0.1709 -0.1944
  584TMC3     H 8715   2.150   1.033  17.286 -0.2888 -1.3787 -0.3942
  584TMC3    H1 8716   1.874   0.799  17.511 -0.3061 -0.0035 -2.8056
  584TMC3    H2 8717   1.952   1.201  17.620 -0.4714  0.4387 -0.3674
  584TMC3    C7 8718   1.834   0.968  17.702 -0.0305 -0.7122  0.3071
  584TMC3    C8 8719   2.046   1.266  17.377  0.0204  0.2922  0.8610
  584TMC3    O1 8720   1.857   0.855   0.011 -0.0302 -0.4322 -0.3258
  584TMC3    O2 8721   2.052   1.273  17.254  0.6389 -0.3362  0.0631
  585MPD2     C 8722   0.858   4.604   0.050  0.0408  0.1757  0.2814
  585MPD2    C1 8723   0.928   4.661  17.684 -0.0786  0.0040 -0.3138
  585MPD2    C2 8724   0.985   4.583  17.588 -0.2440  0.3648 -0.5060
  585MPD2    C3 8725   0.962   4.448  17.596  0.4905 -0.2924 -0.1377
  585MPD2    C4 8726   0.891   4.392  17.694 -0.1948  0.0703 -0.2614
  585MPD2    C5 8727   0.844   4.469   0.057 -0.1828 -0.1173 -0.1993
  585MPD2     H 8728   1.036   4.635  17.507  0.2154  0.8893  0.1292
  585MPD2    H1 8729   0.872   4.285  17.694 -0.7107  0.1590  0.1852
  585MPD2    H2 8730   0.811   4.667   0.126  0.7416  0.5381  0.4168
  585MPD2    H3 8731   0.791   4.425   0.140  1.9678  0.3082  1.3753
  585MPD2     N 8732   1.005   4.367  17.486  0.6760 -0.2780 -0.1980
  585MPD2    H5 8733   0.965   4.273  17.487 -0.0800  0.0517  0.7826
  585MPD2    N1 8734   0.947   0.069  17.698  0.2611  0.2294  0.3543
  585MPD2    H7 8735   0.910   0.109   0.044 -1.4795  0.5829 -0.5662
  586TMC3    C1 8736   1.109   4.298  17.282 -0.2271 -0.1609  0.4829
  586TMC3    C2 8737   1.211   4.320  17.192  0.4860  0.2307  0.7460
  586TMC3    C3 8738   1.196   4.267  17.068  0.0244  0.4621 -0.0427
  586TMC3    C4 8739   1.003   4.214  17.256 -0.0850  0.3584 -0.0120
  586TMC3    C5 8740   0.994   4.164  17.127  0.1832 -0.3990 -0.2918
  586TMC3    C6 8741   1.091   4.185  17.037  0.0035 -1.0551 -0.2412
  586TMC3     C 8742   1.091   4.399  17.380  0.6468  0.1765 -0.4038
  586TMC3     O 8743   1.144   4.505  17.352  0.1702 -0.0844 -0.0166
  586TMC3     H 8744   1.288   4.389  17.225 -0.5590  2.3296 -1.1579
  586TMC3    H1 8745   0.924   4.194  17.328 -1.1937 -0.4311 -1.4607
  586TMC3    H2 8746   1.094   4.124  16.948 -2.2287 -1.5928  0.0623
  586TMC3    C7 8747   0.921   4.040  17.108  0.3091 -0.0127 -0.4051
  586TMC3    C8 8748   1.327   4.224  17.034 -0.0272  0.2572 -0.4810
  586TMC3    O1 8749   0.981   3.951  17.052 -0.2398  0.0596  0.0889
  586TMC3    O2 8750   1.410   4.209  17.121 -0.6060 -0.5573  0.0150
  587TMC3    C1 8751   3.844   2.958  16.647  0.1097 -0.4234 -0.9326
  587TMC3    C2 8752   3.784   3.077  16.602  0.1116 -0.1771 -0.0317
  587TMC3    C3 8753   3.861   3.179  16.563 -0.9978  0.9554  0.4032
  587TMC3    C4 8754   3.977   2.954  16.681 -0.1381  0.3084  0.8454
  587TMC3    C5 8755   4.050   3.065  16.649 -0.2136  0.3438  0.3018
  587TMC3    C6 8756   3.996   3.173  16.584  0.3341 -0.4393  0.7271
  587TMC3     C 8757   3.766   2.841  16.682 -0.3411  0.3880  0.9186
  587TMC3     O 8758   3.800   2.781  16.778  0.2586 -0.0750  0.0225
  587TMC3     H 8759   3.675   3.079  16.602  0.0351 -3.6248 -2.8138
  587TMC3    H1 8760   4.023   2.862  16.715  0.1605  0.9429  2.1884
  587TMC3    H2 8761   4.058   3.261  16.566  1.1295 -0.8875  1.2712
  587TMC3    C7 8762   4.186   3.064  16.694  0.2440 -0.1920  0.0296
  587TMC3    C8 8763   3.810   3.303  16.517 -0.0707  0.8608  0.2086
  587TMC3    O1 8764   4.225   2.960  16.753  0.3020  0.3710 -0.1009
  587TMC3    O2 8765   3.885   3.376  16.452  0.3787 -0.4411 -0.4711
  588TMC3    C1 8766   0.862   4.104   9.496  0.0267 -0.2735  0.2359
  588TMC3    C2 8767   0.841   4.036   9.614  0.3342 -0.3904  0.3424
  588TMC3    C3 8768   0.951   3.967   9.664 -0.4557 -0.1344 -0.2983
  588TMC3    C4 8769   0.979   4.110   9.431 -0.5924  0.0985 -0.3592
  588TMC3    C5 8770   1.085   4.046   9.492 -0.3524 -0.6375 -0.0174
  588TMC3    C6 8771   1.075   3.974   9.607  0.4607  0.0234  0.4753
  588TMC3     C 8772   0.805   4.237   9.508  1.0600 -0.3577  0.0182
  588TMC3     O 8773   0.706   4.248   9.578  0.3478  0.1107  0.1523
  588TMC3     H 8774   0.744   4.029   9.661  0.5684 -0.5766  0.7947
  588TMC3    H1 8775   0.990   4.161   9.337  0.5300  1.7625  0.6697
  588TMC3    H2 8776   1.161   3.948   9.668 -0.1277 -2.6129  0.1712
  588TMC3    C7 8777   1.210   4.116   9.478 -0.1838 -0.3237  0.7429
  588TMC3    C8 8778   0.931   3.895   9.793 -0.0477  0.1064 -0.4438
  588TMC3    O1 8779   1.188   4.224   9.424  0.3092  0.0858  0.0417
  588TMC3    O2 8780   0.818   3.873   9.835  0.1935 -0.0609  0.0050
  589TMC3    C1 8781   0.423   3.132   0.992  0.7148  0.8495 -0.4276
  589TMC3    C2 8782   0.513   3.111   1.091  0.0285 -0.0651  0.2457
  589TMC3    C3 8783   0.539   2.980   1.118  0.0577 -0.3528 -0.4678
  589TMC3    C4 8784   0.380   3.029   0.912  0.1919 -0.3577  0.4688
  589TMC3    C5 8785   0.395   2.901   0.955 -0.6680 -0.1020  0.3023
  589TMC3    C6 8786   0.475   2.876   1.065  0.3322  0.5937  0.5205
  589TMC3     C 8787   0.361   3.266   0.967  1.0590 -0.2012 -0.4396
  589TMC3     O 8788   0.328   3.287   0.852 -0.2035  0.2300 -0.2677
  589TMC3     H 8789   0.558   3.189   1.151  1.3301 -1.0750  0.5900
  589TMC3    H1 8790   0.307   3.056   0.837  0.7704 -1.9601 -0.6849
  589TMC3    H2 8791   0.473   2.778   1.109  1.4222  0.2993 -0.0768
  589TMC3    C7 8792   0.337   2.788   0.888 -0.3454 -0.1188  0.1843
  589TMC3    C8 8793   0.610   2.944   1.243 -0.7264 -0.1896 -0.0339
  589TMC3    O1 8794   0.337   2.676   0.941 -0.6007 -0.0307  0.3141
  589TMC3    O2 8795   0.559   2.855   1.312 -0.4039  0.0180 -0.8062
  590MPD2     C 8796   4.576   1.235  16.743 -0.7218 -0.1944  0.1145
  590MPD2    C1 8797   4.505   1.357  16.728  0.2421  0.6022 -0.3325
  590MPD2    C2 8798   4.556   1.450  16.640 -0.0290  0.3990 -0.3369
  590MPD2    C3 8799   4.672   1.421  16.566 -0.1745 -0.0847 -0.5524
  590MPD2    C4 8800   0.010   1.302  16.578 -0.2633 -0.4946  0.4946
  590MPD2    C5 8801   4.688   1.211  16.665 -0.0542 -0.0832  0.9535
  590MPD2     H 8802   4.510   1.546  16.620  1.3848  1.1531  0.0474
  590MPD2    H1 8803   0.109   1.289  16.535 -0.5978 -0.3407 -0.3279
  590MPD2    H2 8804   4.538   1.157  16.807 -0.2371  0.6469  1.4281
  590MPD2    H3 8805   0.006   1.120  16.687  0.9015  0.2218 -0.0968
  590MPD2     N 8806   4.707   1.510  16.465  0.4515  0.2880 -0.4926
  590MPD2    H5 8807   4.635   1.580  16.449  1.9887  1.7610 -0.9573
  590MPD2    N1 8808   4.377   1.374  16.796  0.5853 -0.5371 -0.3018
  590MPD2    H7 8809   4.331   1.289  16.826  0.5285  0.0733  1.3507
  591TMC3    C1 8810   0.069   1.608  16.271  0.2543  0.0796  0.1725
  591TMC3    C2 8811   0.135   1.581  16.156  0.3230 -0.3122 -0.5306
  591TMC3    C3 8812   0.167   1.687  16.074 -0.3372  0.4436  0.2202
  591TMC3    C4 8813   0.027   1.729  16.304 -0.5928 -0.2889 -0.5885
  591TMC3    C5 8814   0.056   1.832  16.225 -0.7983 -0.4350  0.4107
  591TMC3    C6 8815   0.135   1.818  16.113  0.1707  0.5322 -0.3493
  591TMC3     C 8816   0.073   1.506  16.375 -0.4093  0.7017  0.2314
  591TMC3     O 8817   0.166   1.425  16.368  0.5368  0.4945  0.0744
  591TMC3     H 8818   0.170   1.480  16.140  0.5888 -0.4711  1.0777
  591TMC3    H1 8819   4.726   1.739  16.406 -0.1483  1.6321 -0.6144
  591TMC3    H2 8820   0.179   1.905  16.065 -1.5773  1.8798  0.5149
  591TMC3    C7 8821   0.091   1.945  16.306 -0.4230  0.9923 -0.6124
  591TMC3    C8 8822   0.285   1.662  15.992  0.1104 -0.6178 -0.3211
  591TMC3    O1 8823   0.121   1.925  16.423 -0.1109  0.1843  0.2127
  591TMC3    O2 8824   0.330   1.546  15.999 -0.0482 -0.0651  0.0846
  592MPD2     C 8825   0.717   2.730  11.505  0.0004  0.4219 -0.3374
  592MPD2    C1 8826   0.673   2.815  11.605 -1.1458  0.5722 -0.7660
  592MPD2    C2 8827   0.573   2.772  11.687 -0.2505 -0.5439 -0.2908
  592MPD2    C3 8828   0.541   2.632  11.692  0.1254  0.2254 -0.2846
  592MPD2    C4 8829   0.600   2.550  11.602  0.0626 -0.1253  0.1709
  592MPD2    C5 8830   0.686   2.595  11.505 -0.0365  0.6478  0.5494
  592MPD2     H 8831   0.535   2.837  11.765  2.0112 -0.9022  1.1090
  592MPD2    H1 8832   0.563   2.449  11.594 -2.9001  1.0137 -0.6939
  592MPD2    H2 8833   0.782   2.778  11.432 -0.7126  0.9568 -0.6134
  592MPD2    H3 8834   0.728   2.529  11.429 -0.0124  2.1136 -0.7205
  592MPD2     N 8835   0.441   2.586  11.778 -0.2284  0.2403  0.2216
  592MPD2    H5 8836   0.403   2.654  11.843 -2.8455 -0.3681 -0.6739
  592MPD2    N1 8837   0.729   2.949  11.609 -0.2397 -0.7095 -0.1777
  592MPD2    H7 8838   0.784   2.974  11.527 -0.2035  1.5144  0.5275
  593TMC3    C1 8839   0.783   3.167  11.677  0.2492 -0.9375  0.2132
  593TMC3    C2 8840   0.810   3.249  11.788 -0.2838  0.1504 -0.0963
  593TMC3    C3 8841   0.919   3.327  11.784  0.2896  0.0308  0.3164
  593TMC3    C4 8842   0.864   3.179  11.567  0.0376  0.0693  0.3209
  593TMC3    C5 8843   0.973   3.265  11.563 -0.1607 -0.3690 -0.1283
  593TMC3    C6 8844   0.995   3.343  11.672 -0.5773 -0.1516  0.2390
  593TMC3     C 8845   0.707   3.045  11.706  0.1603 -0.8162 -0.3315
  593TMC3     O 8846   0.650   3.026  11.815  0.2726 -0.7430  0.5935
  593TMC3     H 8847   0.743   3.243  11.873 -0.6921 -0.2757 -0.4491
  593TMC3    H1 8848   0.854   3.114  11.480 -2.5010  0.1113  0.5899
  593TMC3    H2 8849   1.070   3.421  11.668 -0.5508 -0.2356 -1.0088
  593TMC3    C7 8850   1.007   3.324  11.436 -1.0209  0.1192  0.3020
  593TMC3    C8 8851   0.928   3.445  11.873  0.2672 -1.0373  0.5861
  593TMC3    O1 8852   1.116   3.385  11.439 -0.5680 -0.1015 -0.4855
  593TMC3    O2 8853   0.819   3.481  11.912  0.4942 -0.7647 -0.2453
  594MPD2     C 8854   4.465   1.865  14.351 -1.0449  0.8452  0.1833
  594MPD2    C1 8855   4.381   1.968  14.326 -0.5074 -0.5614  0.2301
  594MPD2    C2 8856   4.427   2.093  14.283 -0.9269 -0.6310 -0.4007
  594MPD2    C3 8857   4.560   2.115  14.277  0.2880 -0.0691 -0.3689
  594MPD2    C4 8858   4.640   2.019  14.332  0.1758  0.0235 -0.0789
  594MPD2    C5 8859   4.599   1.889  14.354  0.1201  0.1045  0.0401
  594MPD2     H 8860   4.362   2.175  14.255 -2.1532 -1.7330 -0.8173
  594MPD2    H1 8861   0.011   2.039  14.346  0.2107 -0.2409  0.0553
  594MPD2    H2 8862   4.427   1.769  14.385  1.0859  0.4591  1.4854
  594MPD2    H3 8863   4.673   1.816  14.387 -0.5971 -0.9467 -0.6532
  594MPD2     N 8864   4.600   2.244  14.252 -0.1394  0.6465  0.2191
  594MPD2    H5 8865   4.533   2.296  14.196  1.2843  1.4068 -0.7635
  594MPD2    N1 8866   4.244   1.937  14.329 -0.8375 -0.0662 -0.6080
  594MPD2    H7 8867   4.214   1.843  14.354  1.2112 -0.4148  0.5867
  595TMC3    C1 8868   0.176   2.588  14.317 -0.0013  0.6441  0.3130
  595TMC3    C2 8869   0.156   2.470  14.259 -0.1691  0.4561  0.4676
  595TMC3    C3 8870   0.027   2.433  14.236 -0.4112 -0.1340  0.0875
  595TMC3    C4 8871   0.076   2.675  14.347  0.2614 -0.4496  0.2226
  595TMC3    C5 8872   4.686   2.639  14.320  0.0772  0.3727 -0.3230
  595TMC3    C6 8873   4.652   2.516  14.272  0.1921 -0.2489 -0.4252
  595TMC3     C 8874   0.299   2.619  14.393 -0.1587 -0.0143  0.1731
  595TMC3     O 8875   0.285   2.673  14.498 -0.0404 -0.4576 -0.3001
  595TMC3     H 8876   0.237   2.399  14.244 -0.4900 -0.0757  1.2579
  595TMC3    H1 8877   0.096   2.777  14.380  1.3824 -0.0622 -1.6348
  595TMC3    H2 8878   4.548   2.490  14.257  0.3323 -0.7214 -0.5757
  595TMC3    C7 8879   4.581   2.715  14.386 -0.3060  0.4127 -0.1737
  595TMC3    C8 8880   0.000   2.290  14.256 -0.3256 -0.5619  0.9597
  595TMC3    O1 8881   4.473   2.708  14.331 -0.7597  0.2159 -0.0780
  595TMC3    O2 8882   0.097   2.232  14.303 -0.3265  0.0609  0.6600
  596MPD2     C 8883   3.008   0.337  16.847 -0.4324 -0.6795 -0.5443
  596MPD2    C1 8884   2.988   0.453  16.787 -0.1927  0.1255  0.7112
  596MPD2    C2 8885   2.999   0.464  16.651 -0.2450  0.6070  1.5379
  596MPD2    C3 8886   3.032   0.357  16.573 -0.1757 -0.0182 -0.3392
  596MPD2    C4 8887   3.051   0.233  16.636  0.1013 -0.4524  0.1212
  596MPD2    C5 8888   3.042   0.227  16.770  0.6460  0.1100  0.7585
  596MPD2     H 8889   3.008   0.561  16.604 -1.6097 -0.8238 -1.6274
  596MPD2    H1 8890   3.085   0.149  16.578  1.8659  1.1702 -1.2090
  596MPD2    H2 8891   3.007   0.324  16.955  2.2088 -3.1949 -0.8049
  596MPD2    H3 8892   3.049   0.131  16.820 -0.6048 -0.7129 -0.6389
  596MPD2     N 8893   3.042   0.358  16.433  0.2211  0.0785  0.2875
  596MPD2    H5 8894   3.065   0.266  16.396 -1.5681 -0.2220 -0.0396
  596MPD2    N1 8895   2.952   0.575  16.860 -0.4758  0.1066  0.0707
  596MPD2    H7 8896   2.954   0.664  16.811 -0.7487 -1.1644 -2.2913
  597TMC3    C1 8897   2.886   0.720  17.032 -0.1212  0.6918 -0.0687
  597TMC3    C2 8898   2.970   0.820  16.986  0.5451  0.2263  0.7723
  597TMC3    C3 8899   2.934   0.950  17.013  0.0680  0.0393 -0.4183
  597TMC3    C4 8900   2.775   0.748  17.102  0.3155  0.5094  0.0513
  597TMC3    C5 8901   2.745   0.878  17.128 -0.1276  0.0706  0.0692
  597TMC3    C6 8902   2.829   0.982  17.088  0.3924 -0.1598  0.1580
  597TMC3     C 8903   2.893   0.584  16.986 -0.2372 -0.0751  0.5797
  597TMC3     O 8904   2.855   0.504  17.062  0.4785  0.0043  0.0962
  597TMC3     H 8905   3.066   0.792  16.944 -0.2013 -2.9252  1.1217
  597TMC3    H1 8906   2.707   0.668  17.126 -1.1347  1.5186 -0.7089
  597TMC3    H2 8907   2.806   1.082  17.124 -3.2158 -1.2363  0.8224
  597TMC3    C7 8908   2.637   0.892  17.218  0.5948  0.7607  0.0932
  597TMC3    C8 8909   3.030   1.058  16.986  0.4608  0.4967  1.7730
  597TMC3    O1 8910   2.562   0.802  17.246  0.4325 -0.0463  0.0857
  597TMC3    O2 8911   3.132   1.030  16.919  0.0416 -0.2031  0.2871
  598TMC3    C1 8912   0.995   1.580  15.056 -0.2464  0.7239 -0.1741
  598TMC3    C2 8913   0.941   1.489  14.969  0.3379  0.4596 -0.4758
  598TMC3    C3 8914   0.927   1.528  14.840  0.2900 -0.1808 -1.0145
  598TMC3    C4 8915   1.035   1.703  15.021 -0.6678 -0.3585  0.4140
  598TMC3    C5 8916   1.021   1.736  14.886  0.1436  0.5159 -0.0321
  598TMC3    C6 8917   0.965   1.647  14.799 -0.3674 -0.5256 -1.2425
  598TMC3     C 8918   1.029   1.529  15.194  0.7992  0.4389  0.0016
  598TMC3     O 8919   0.973   1.424  15.214  0.0448 -0.5370  0.2138
  598TMC3     H 8920   0.913   1.390  15.003 -1.2133  0.8061 -0.7639
  598TMC3    H1 8921   1.078   1.773  15.091 -0.2546 -1.7005  1.4850
  598TMC3    H2 8922   0.945   1.676  14.697 -0.4523  1.0320 -0.7799
  598TMC3    C7 8923   1.093   1.843  14.833  0.5603 -0.7948  0.6318
  598TMC3    C8 8924   0.908   1.422  14.737  0.5755 -0.3711  0.7731
  598TMC3    O1 8925   1.087   1.863  14.713 -0.3980  0.8870  0.3150
  598TMC3    O2 8926   0.968   1.447  14.630  0.2212  0.1998 -0.1647
  599MPD2     C 8927   1.186   4.172  15.685 -0.9997 -0.8106  0.1781
  599MPD2    C1 8928   1.146   4.054  15.741 -0.5015  0.3616  0.1607
  599MPD2    C2 8929   1.043   4.056  15.837  0.2847 -0.2640  0.2185
  599MPD2    C3 8930   0.998   4.178  15.885 -0.0589 -0.1910  0.4068
  599MPD2    C4 8931   1.041   4.290  15.828 -0.0548 -0.0493 -0.2414
  599MPD2    C5 8932   1.127   4.292  15.724 -0.4361  0.0658 -0.9743
  599MPD2     H 8933   0.997   3.964  15.870  1.8221 -1.5727 -1.2659
  599MPD2    H1 8934   1.002   4.381  15.873 -1.9478 -0.4897 -1.0330
  599MPD2    H2 8935   1.259   4.185  15.605  0.5307  1.7003  2.0130
  599MPD2    H3 8936   1.172   4.385  15.690 -1.5206  1.5241  1.5816
  599MPD2     N 8937   0.896   4.193  15.983  0.0593 -0.0177  0.3181
  599MPD2    H5 8938   0.876   4.286  16.017 -0.3210 -0.0482  0.1776
  599MPD2    N1 8939   1.227   3.942  15.696 -0.0128  0.0867  0.0675
  599MPD2    H7 8940   1.309   3.967  15.640  0.7055 -0.8697  0.6969
  600TMC3    C1 8941   0.726   4.119  16.135  0.8833 -0.7932 -0.7423
  600TMC3    C2 8942   0.628   4.023  16.154 -0.9425 -0.2125  0.4325
  600TMC3    C3 8943   0.580   4.005  16.279  0.4066 -0.2772  0.8280
  600TMC3    C4 8944   0.776   4.191  16.238 -0.1697  0.6080  0.4354
  600TMC3    C5 8945   0.721   4.173  16.361 -0.0578 -0.0712  0.1561
  600TMC3    C6 8946   0.623   4.083  16.389  0.0556  0.3186  1.1501
  600TMC3     C 8947   0.817   4.091  16.026  0.0657 -0.1773 -0.0139
  600TMC3     O 8948   0.823   3.975  15.995 -0.2527 -0.5502 -0.2385
  600TMC3     H 8949   0.600   3.977  16.060 -1.8785 -0.7977  0.9885
  600TMC3    H1 8950   0.859   4.259  16.221  0.4619 -0.3357 -0.2691
  600TMC3    H2 8951   0.593   4.055  16.489 -1.3392 -1.6434  0.1731
  600TMC3    C7 8952   0.696   4.294  16.441  0.1519  0.2655 -0.1586
  600TMC3    C8 8953   0.473   3.912  16.307  0.0386  0.6971 -0.2529
  600TMC3    O1 8954   0.599   4.291  16.514  0.2208  0.1531 -0.3004
  600TMC3    O2 8955   0.443   3.873  16.418  0.1476 -0.1591  0.7188
  601MPD2     C 8956   2.979   2.959   0.735 -0.1098 -0.1182 -0.0094
  601MPD2    C1 8957   2.869   2.905   0.671 -0.3119 -0.7220 -0.3853
  601MPD2    C2 8958   2.823   2.780   0.709  0.2139 -0.6791 -0.5052
  601MPD2    C3 8959   2.888   2.716   0.816  0.3735 -0.1099  0.9170
  601MPD2    C4 8960   2.999   2.769   0.872  0.3465 -0.9058 -0.0546
  601MPD2    C5 8961   3.042   2.895   0.838  0.3278 -0.8198  0.3014
  601MPD2     H 8962   2.743   2.735   0.651  0.6253 -3.4323  1.0652
  601MPD2    H1 8963   3.048   2.730   0.960  0.4660 -0.7223 -0.0384
  601MPD2    H2 8964   3.019   3.052   0.696 -0.3572 -0.4928 -1.1621
  601MPD2    H3 8965   3.135   2.939   0.871  0.1728  1.1770 -1.9163
  601MPD2     N 8966   2.854   2.586   0.865  0.4253 -0.1586 -0.6344
  601MPD2    H5 8967   2.902   2.548   0.946  2.4637  2.5858 -0.5666
  601MPD2    N1 8968   2.809   2.972   0.561 -0.2293 -0.5122  0.2074
  601MPD2    H7 8969   2.722   2.927   0.532 -0.0060  0.6335 -2.2523
  602TMC3    C1 8970   2.766   3.132   0.387  0.6432  0.7951 -0.2250
  602TMC3    C2 8971   2.822   3.219   0.293  0.0063 -0.6086 -0.0284
  602TMC3    C3 8972   2.741   3.282   0.202  0.2317  0.3243 -0.0589
  602TMC3    C4 8973   2.629   3.107   0.386 -0.5282 -0.3526 -0.1724
  602TMC3    C5 8974   2.554   3.172   0.290 -0.1975 -0.3588 -0.2823
  602TMC3    C6 8975   2.610   3.256   0.198  0.4698 -0.1570  0.3922
  602TMC3     C 8976   2.860   3.074   0.483  0.1067  0.6199 -0.5624
  602TMC3     O 8977   2.979   3.105   0.472  0.2517  0.0356  0.7887
  602TMC3     H 8978   2.929   3.236   0.299 -0.3819  1.5825  0.8194
  602TMC3    H1 8979   2.585   3.038   0.457 -1.4758  0.1660 -0.2696
  602TMC3    H2 8980   2.543   3.331   0.158  1.5750  0.3886 -0.4104
  602TMC3    C7 8981   2.422   3.121   0.257 -0.2875 -0.2775 -0.0013
  602TMC3    C8 8982   2.809   3.326   0.081  0.7155 -0.0506  0.1997
  602TMC3    O1 8983   2.387   3.039   0.341  0.2354  0.6165 -0.7156
  602TMC3    O2 8984   2.928   3.353   0.091  0.2924 -0.2115 -0.0646
  603TMC3    C1 8985   1.516   2.584  10.860 -0.5308  0.0622  0.3231
  603TMC3    C2 8986   1.545   2.566  10.994 -0.1954  0.4778 -0.1481
  603TMC3    C3 8987   1.576   2.673  11.077  0.1714  0.0493 -0.1652
  603TMC3    C4 8988   1.519   2.707  10.806  0.3379  0.0635 -0.1354
  603TMC3    C5 8989   1.543   2.808  10.893  0.0468 -0.1668 -0.5544
  603TMC3    C6 8990   1.560   2.794  11.026  0.0699 -0.8906 -0.1388
  603TMC3     C 8991   1.499   2.477  10.776 -0.2017  0.1769  0.3996
  603TMC3     O 8992   1.449   2.498  10.666 -0.1704 -0.2085 -0.3098
  603TMC3     H 8993   1.525   2.474  11.047  0.4519  0.1038 -0.5648
  603TMC3    H1 8994   1.537   2.718  10.700  0.2554 -0.1970 -0.1775
  603TMC3    H2 8995   1.607   2.875  11.081 -1.4774 -0.6914  0.8858
  603TMC3    C7 8996   1.584   2.938  10.830  0.5072 -0.5605 -0.2759
  603TMC3    C8 8997   1.609   2.641  11.214 -0.2288 -0.1004  0.2809
  603TMC3    O1 8998   1.663   3.009  10.887  0.5135  0.0931 -0.0652
  603TMC3    O2 8999   1.624   2.527  11.242 -0.1812 -0.8734  0.4497
  604MPD2     C 9000   2.070   1.326  16.242  0.0112 -0.2751  0.6796
  604MPD2    C1 9001   1.958   1.244  16.226  1.1429 -0.5609  0.2531
  604MPD2    C2 9002   1.943   1.146  16.127  0.4024  0.9859  0.5749
  604MPD2    C3 9003   2.050   1.130  16.033 -0.4775 -0.1340 -0.2697
  604MPD2    C4 9004   2.156   1.226  16.042  0.2246  1.0153  0.2459
  604MPD2    C5 9005   2.166   1.318  16.139 -0.5385  0.2240  0.1866
  604MPD2     H 9006   1.853   1.086  16.119  0.8601  0.0931  2.1076
  604MPD2    H1 9007   2.239   1.234  15.972 -1.0682 -0.6880 -1.5038
  604MPD2    H2 9008   2.075   1.408  16.313  1.5687  0.7398 -0.6021
  604MPD2    H3 9009   2.254   1.381  16.146 -0.2293  0.0411 -2.3365
  604MPD2     N 9010   2.039   1.032  15.928 -0.1498 -0.2436 -0.4044
  604MPD2    H5 9011   1.953   0.980  15.913 -0.7720  0.1022  1.8975
  604MPD2    N1 9012   1.852   1.270  16.319  0.1343 -0.0497 -0.5190
  604MPD2    H7 9013   1.887   1.338  16.385  1.0392 -0.1207 -0.9266
  605TMC3    C1 9014   1.647   1.280  16.427  0.2416  0.2518 -0.8503
  605TMC3    C2 9015   1.720   1.331  16.528 -0.3483 -0.1557 -0.0437
  605TMC3    C3 9016   1.673   1.448  16.583  0.4095 -0.1962 -0.3060
  605TMC3    C4 9017   1.538   1.338  16.373  0.1252  0.0296 -0.0370
  605TMC3    C5 9018   1.499   1.458  16.425 -0.5332 -0.6819  0.0337
  605TMC3    C6 9019   1.561   1.514  16.531 -0.3400 -0.0292  0.2803
  605TMC3     C 9020   1.725   1.216  16.324 -0.0772 -0.1961  0.0169
  605TMC3     O 9021   1.672   1.150  16.239  0.4664  0.7830 -0.4439
  605TMC3     H 9022   1.804   1.271  16.564 -1.1520 -1.5343 -0.4876
  605TMC3    H1 9023   1.493   1.301  16.282 -1.4317 -0.0996  0.7836
  605TMC3    H2 9024   1.520   1.603  16.576  0.0783 -0.0051  0.6130
  605TMC3    C7 9025   1.386   1.526  16.356 -0.1895 -0.1895  1.2612
  605TMC3    C8 9026   1.768   1.511  16.674 -0.1182 -0.5097 -0.0146
  605TMC3    O1 9027   1.315   1.596  16.421  0.2440  0.0703  0.0664
  605TMC3    O2 9028   1.881   1.464  16.675 -0.0850  0.4540 -0.7648
  606TMC3    C1 9029   2.677   0.549  17.615  0.1514  0.5100  0.3520
  606TMC3    C2 9030   2.656   0.521   0.007  0.0860  0.4379 -0.8069
  606TMC3    C3 9031   2.651   0.387   0.050  0.7352 -0.1871 -0.1712
  606TMC3    C4 9032   2.692   0.457  17.517  0.5913  0.5366 -0.6041
  606TMC3    C5 9033   2.702   0.328  17.563  0.7465  0.3312  0.0386
  606TMC3    C6 9034   2.668   0.286  17.692 -0.0135  0.0057  0.4281
  606TMC3     C 9035   2.710   0.693  17.582 -0.1745 -0.4071  0.2271
  606TMC3     O 9036   2.652   0.785  17.636 -0.8669  0.0300  0.0508
  606TMC3     H 9037   2.669   0.601   0.079 -0.8072 -0.7284  0.6435
  606TMC3    H1 9038   2.715   0.480  17.414  1.7194  0.9586 -0.2533
  606TMC3    H2 9039   2.669   0.182  17.723 -1.6739 -0.1296  0.0281
  606TMC3    C7 9040   2.715   0.227  17.457  0.4049  0.2550 -0.0015
  606TMC3    C8 9041   2.755   0.374   0.147  0.2257  0.2890 -0.5872
  606TMC3    O1 9042   2.759   0.268  17.351  0.0651 -0.0982 -0.0543
  606TMC3    O2 9043   2.838   0.464   0.157 -0.1963 -0.8770  0.4574
  607MPD2     C 9044   0.692   2.297  12.088  0.3877  0.1111 -0.1809
  607MPD2    C1 9045   0.742   2.368  12.197  0.0987 -0.4354  0.3061
  607MPD2    C2 9046   0.813   2.300  12.295  0.1197  0.4920 -0.2273
  607MPD2    C3 9047   0.826   2.163  12.288 -0.6945 -0.6870  0.2174
  607MPD2    C4 9048   0.755   2.092  12.185 -0.6699  0.1114 -0.1226
  607MPD2    C5 9049   0.706   2.160  12.083 -0.1541 -0.1491  0.3171
  607MPD2     H 9050   0.875   2.359  12.362 -1.9541  0.9914  1.2306
  607MPD2    H1 9051   0.759   1.984  12.176  0.1384  0.1768 -0.5253
  607MPD2    H2 9052   0.641   2.345  12.006  1.7791  3.4617  0.9209
  607MPD2    H3 9053   0.674   2.107  11.994 -3.2989 -1.7103  2.3761
  607MPD2     N 9054   0.901   2.109  12.395  0.1948  0.0376 -0.7608
  607MPD2    H5 9055   0.928   2.171  12.471 -0.7330  0.8704 -1.0955
  607MPD2    N1 9056   0.741   2.505  12.217 -0.2193  0.4139  0.2132
  607MPD2    H7 9057   0.769   2.539  12.308  2.4090 -2.2217  0.3909
  608TMC3    C1 9058   0.779   2.727  12.154 -0.0048 -0.5818 -0.7422
  608TMC3    C2 9059   0.809   2.755  12.284 -0.0141 -0.2078  0.2310
  608TMC3    C3 9060   0.889   2.862  12.310 -0.1962  0.0194 -0.1808
  608TMC3    C4 9061   0.838   2.789  12.052  0.4576 -0.0358 -0.7562
  608TMC3    C5 9062   0.923   2.895  12.082 -1.1053  0.8299 -0.6604
  608TMC3    C6 9063   0.954   2.929  12.214  0.1163  0.6457 -0.3917
  608TMC3     C 9064   0.716   2.601  12.119  0.7428 -0.1833 -0.0750
  608TMC3     O 9065   0.691   2.579  12.003  1.0254  0.4081 -0.1493
  608TMC3     H 9066   0.746   2.703  12.354 -0.4790 -0.6056 -0.4813
  608TMC3    H1 9067   0.824   2.760  11.948 -0.4160 -0.7031 -0.4563
  608TMC3    H2 9068   1.033   2.998  12.241  2.1787 -1.7485 -0.2722
  608TMC3    C7 9069   1.028   2.925  11.982 -0.2906 -0.0496 -0.3128
  608TMC3    C8 9070   0.946   2.880  12.444 -0.5535 -0.1185 -0.0639
  608TMC3    O1 9071   1.019   2.869  11.873 -0.0149  0.2700 -0.1786
  608TMC3    O2 9072   1.033   2.967  12.462 -0.3040  0.0299 -0.3867
  609TMC3    C1 9073   3.985   1.909   8.953  0.5220  1.0605  0.0384
  609TMC3    C2 9074   3.945   1.787   8.998 -0.1258 -0.0523 -0.0394
  609TMC3    C3 9075   4.039   1.682   9.003  1.0168  0.0971 -0.0121
  609TMC3    C4 9076   4.116   1.934   8.913  0.4717  0.3121  0.0295
  609TMC3    C5 9077   4.207   1.828   8.918  0.3102 -0.5319 -0.1457
  609TMC3    C6 9078   4.172   1.704   8.968 -0.3928  0.6764  0.6434
  609TMC3     C 9079   3.890   2.013   8.966  0.9220 -0.1339 -0.2943
  609TMC3     O 9080   3.768   1.990   8.975 -0.3517 -0.1424 -0.5057
  609TMC3     H 9081   3.840   1.761   9.008 -0.2768  0.6605  0.1977
  609TMC3    H1 9082   4.149   2.034   8.889 -0.9533  0.8513  0.2850
  609TMC3    H2 9083   4.246   1.624   8.977  0.8586  1.7035 -0.5389
  609TMC3    C7 9084   4.354   1.852   8.918 -0.0571 -0.1760  0.5124
  609TMC3    C8 9085   4.005   1.579   9.090  0.3405  0.2559 -0.1462
  609TMC3    O1 9086   4.423   1.785   8.990  0.0946  0.0558  0.0543
  609TMC3    O2 9087   3.910   1.602   9.163 -0.4100 -0.1780  0.1540
  610TMC3    C1 9088   1.370   3.055  12.591  0.8576 -0.4792  0.6321
  610TMC3    C2 9089   1.325   2.990  12.484  0.7988 -0.0623  0.1769
  610TMC3    C3 9090   1.344   2.856  12.478 -1.0041 -0.5673  0.7306
  610TMC3    C4 9091   1.425   2.987  12.698 -0.1982 -1.0039  0.3689
  610TMC3    C5 9092   1.454   2.848  12.680  0.3505 -0.6078 -0.2942
  610TMC3    C6 9093   1.405   2.782  12.567 -0.6337 -0.0289 -0.5010
  610TMC3     C 9094   1.290   3.165  12.645  0.1551  0.5804  0.2098
  610TMC3     O 9095   1.345   3.246  12.718 -0.4236 -0.5497  0.5945
  610TMC3     H 9096   1.272   3.040  12.404 -0.5668  0.7401  1.5762
  610TMC3    H1 9097   1.454   3.041  12.787 -0.1600 -0.3197 -0.0548
  610TMC3    H2 9098   1.430   2.681  12.540  1.2476 -0.0357  1.3166
  610TMC3    C7 9099   1.490   2.758  12.787 -0.1710 -0.7096 -0.1984
  610TMC3    C8 9100   1.291   2.798  12.356 -0.5037  0.1474 -0.2459
  610TMC3    O1 9101   1.509   2.641  12.758 -0.0450 -0.2738  0.1761
  610TMC3    O2 9102   1.284   2.870  12.257 -0.7057  0.0395  0.7357
  611MPD2     C 9103   0.878   2.521  10.225  0.4483  0.8358  0.3544
  611MPD2    C1 9104   0.792   2.617  10.174 -0.7641 -0.1671 -0.7454
  611MPD2    C2 9105   0.832   2.744  10.156 -0.3898  0.1272 -0.3427
  611MPD2    C3 9106   0.949   2.794  10.197 -0.4263  0.3085  0.0152
  611MPD2    C4 9107   1.027   2.703  10.268  0.0751  0.3533 -0.3394
  611MPD2    C5 9108   0.998   2.567  10.276 -0.1809  0.2569  0.3463
  611MPD2     H 9109   0.761   2.813  10.110 -1.4563  0.5941  1.9976
  611MPD2    H1 9110   1.115   2.746  10.315  0.7718  0.7058 -1.9682
  611MPD2    H2 9111   0.862   2.414  10.231 -0.2743  0.9253  0.0705
  611MPD2    H3 9112   1.068   2.496  10.318 -0.2581  0.8751  1.5256
  611MPD2     N 9113   0.990   2.925  10.185 -0.0775 -0.4818  0.7418
  611MPD2    H5 9114   1.085   2.940  10.217 -0.3593  0.9668  0.9026
  611MPD2    N1 9115   0.670   2.572  10.142  0.1139  0.0442  0.0679
  611MPD2    H7 9116   0.653   2.474  10.159  0.5614  0.0956  0.8566
  612TMC3    C1 9117   0.984   3.151  10.103 -0.2070 -0.0420  0.5593
  612TMC3    C2 9118   1.074   3.183  10.208 -0.2540  0.3290  0.8314
  612TMC3    C3 9119   1.160   3.287  10.184  0.4393 -0.6494 -0.3183
  612TMC3    C4 9120   0.982   3.222   9.986 -1.2554 -0.8693 -0.9172
  612TMC3    C5 9121   1.065   3.330   9.976 -0.5708  0.9715  0.1756
  612TMC3    C6 9122   1.151   3.368  10.074 -0.3353 -0.2600 -0.2283
  612TMC3     C 9123   0.932   3.017  10.098 -0.2107 -0.7436  0.7240
  612TMC3     O 9124   0.855   2.995  10.006 -0.4994 -0.0014 -0.5548
  612TMC3     H 9125   1.068   3.128  10.301 -0.7508 -0.3734  0.3854
  612TMC3    H1 9126   0.923   3.195   9.899 -0.0460 -1.8912 -1.4058
  612TMC3    H2 9127   1.216   3.454  10.067  0.3418 -0.7894 -0.4109
  612TMC3    C7 9128   1.048   3.418   9.861 -0.0959  0.4477 -0.0075
  612TMC3    C8 9129   1.285   3.298  10.263  0.7670  0.9904 -0.0933
  612TMC3    O1 9130   0.945   3.394   9.798 -0.0327 -0.5904  0.1286
  612TMC3    O2 9131   1.361   3.387  10.224  0.6273  0.5758  0.0286
  613MPD2     C 9132   4.168   0.110  16.826  0.4077 -0.3338  0.4398
  613MPD2    C1 9133   4.122   0.172  16.711 -0.8205 -0.2284 -0.1478
  613MPD2    C2 9134   4.078   0.088  16.606  0.4692  0.0552  0.2496
  613MPD2    C3 9135   4.087   4.682  16.617  0.1526  0.0431  0.5211
  613MPD2    C4 9136   4.149   4.626  16.727 -0.9233 -0.3934 -0.6225
  613MPD2    C5 9137   4.171   4.707  16.841  0.2878 -0.4431 -0.2689
  613MPD2     H 9138   4.040   0.145  16.522  2.4215  2.3291  0.9037
  613MPD2    H1 9139   4.155   4.519  16.739 -2.8118 -0.3082  1.0629
  613MPD2    H2 9140   4.198   0.173  16.909  0.3928 -0.6676  0.6985
  613MPD2    H3 9141   4.205   4.667  16.936 -1.8501 -3.3188 -0.7373
  613MPD2     N 9142   4.057   4.594  16.507  0.2587  0.3025  0.0005
  613MPD2    H5 9143   4.084   4.497  16.522  0.4896  0.4008  0.2219
  613MPD2    N1 9144   4.111   0.312  16.710  0.1650 -0.1771 -0.0273
  613MPD2    H7 9145   4.113   0.356  16.801  1.8620  1.8716 -1.0645
  614TMC3    C1 9146   4.100   0.374  16.474 -0.7324  0.7053 -0.0563
  614TMC3    C2 9147   4.213   0.305  16.434  0.5341  1.0314  0.5718
  614TMC3    C3 9148   4.236   0.290  16.302 -0.7625  0.0432  0.8168
  614TMC3    C4 9149   4.042   0.466  16.387 -0.3419  0.2601 -0.0869
  614TMC3    C5 9150   4.067   0.460  16.255 -0.6454  0.3777  0.0193
  614TMC3    C6 9151   4.162   0.363  16.208  0.3816 -0.5702 -0.4308
  614TMC3     C 9152   4.084   0.407  16.617  0.5485 -0.7968 -0.5426
  614TMC3     O 9153   4.048   0.523  16.642  0.3463 -0.3300 -0.5772
  614TMC3     H 9154   4.267   0.254  16.513 -0.2616  1.3935  1.3492
  614TMC3    H1 9155   3.967   0.535  16.422  0.9716  0.9763  1.3285
  614TMC3    H2 9156   4.201   0.366  16.106 -0.6418  2.1651 -0.7431
  614TMC3    C7 9157   4.032   0.581  16.174 -0.3822  0.4689  0.0958
  614TMC3    C8 9158   4.322   0.177  16.255 -0.4910  0.5823  0.0379
  614TMC3    O1 9159   4.003   0.678  16.242  0.0686  0.3452 -0.6121
  614TMC3    O2 9160   4.356   0.090  16.335  0.2712 -0.6544  0.2481
  615MPD2     C 9161   3.611   1.912  16.369  0.7578 -0.2113 -0.1058
  615MPD2    C1 9162   3.550   1.963  16.251 -0.3084 -0.0204 -0.2790
  615MPD2    C2 9163   3.509   1.862  16.161 -0.2762 -0.1009 -0.0440
  615MPD2    C3 9164   3.542   1.726  16.165 -0.2734 -0.1595 -0.9615
  615MPD2    C4 9165   3.594   1.681  16.282 -0.5831 -0.0713  0.2593
  615MPD2    C5 9166   3.634   1.772  16.382  0.5564 -0.0793  0.3141
  615MPD2     H 9167   3.446   1.900  16.081  0.5991  1.1401 -0.1418
  615MPD2    H1 9168   3.620   1.577  16.300  2.1106  0.7276  1.0551
  615MPD2    H2 9169   3.639   1.979  16.450 -0.6962 -0.3557  0.5048
  615MPD2    H3 9170   3.681   1.732  16.471  1.0420 -2.1146 -0.8538
  615MPD2     N 9171   3.504   1.650  16.053 -0.2680 -0.7065 -0.7968
  615MPD2    H5 9172   3.451   1.695  15.980 -1.0626 -0.1513  0.1245
  615MPD2    N1 9173   3.511   2.097  16.224 -0.5698 -0.1660  0.5473
  615MPD2    H7 9174   3.464   2.104  16.135  0.6733 -0.1057 -0.1046
  616TMC3    C1 9175   3.492   2.327  16.266 -0.3384 -0.5067  0.2318
  616TMC3    C2 9176   3.548   2.441  16.320 -0.4969  0.7100  0.7124
  616TMC3    C3 9177   3.511   2.566  16.271  0.6886 -0.4786  0.2076
  616TMC3    C4 9178   3.388   2.330  16.176  0.2621 -0.5220  0.2641
  616TMC3    C5 9179   3.341   2.449  16.141  0.1720 -0.8647 -0.4981
  616TMC3    C6 9180   3.406   2.568  16.180 -0.2236 -0.3764 -0.0027
  616TMC3     C 9181   3.535   2.206  16.310  0.6857 -0.7467 -0.1132
  616TMC3     O 9182   3.575   2.204  16.426 -0.1859  0.5022  0.3737
  616TMC3     H 9183   3.613   2.436  16.407 -0.1970  0.6416  0.4856
  616TMC3    H1 9184   3.334   2.245  16.137 -1.4136 -0.6760  2.9156
  616TMC3    H2 9185   3.377   2.665  16.144 -1.6553 -0.4113  1.0901
  616TMC3    C7 9186   3.221   2.466  16.063 -0.5291 -0.1410 -0.2763
  616TMC3    C8 9187   3.599   2.683  16.273 -0.4888  0.4322  0.4038
  616TMC3    O1 9188   3.197   2.588  16.052 -0.5778  0.4079  0.2815
  616TMC3    O2 9189   3.564   2.787  16.221  0.2994 -0.4811  0.0905
  617MPD2     C 9190   2.106   4.677  13.975 -0.1554  0.5195 -0.0466
  617MPD2    C1 9191   2.110   4.603  14.084  0.6273 -0.0065 -0.2068
  617MPD2    C2 9192   1.992   4.568  14.152 -0.0170  0.4531 -0.4321
  617MPD2    C3 9193   1.873   4.626  14.108  0.3856  0.2082  0.0835
  617MPD2    C4 9194   1.868   4.704  13.998 -0.1043  0.2602 -0.1752
  617MPD2    C5 9195   1.983   4.714  13.929 -0.6878 -0.1202 -0.1990
  617MPD2     H 9196   1.985   4.501  14.236  1.7461  1.2190  0.3179
  617MPD2    H1 9197   1.772   0.011  13.969 -0.5396 -1.1746 -0.8141
  617MPD2    H2 9198   2.199   4.717  13.936  0.4172 -1.5264 -0.7902
  617MPD2    H3 9199   1.976   0.034  13.836  1.4303 -2.0772 -1.5246
  617MPD2     N 9200   1.743   4.592  14.165  0.1524 -0.0449 -0.1835
  617MPD2    H5 9201   1.658   4.625  14.118 -0.5519 -0.8317  0.5505
  617MPD2    N1 9202   2.238   4.561  14.118 -0.2177  0.7579  0.0533
  617MPD2    H7 9203   2.313   4.575  14.051 -0.6004 -0.5362 -0.6616
  618TMC3    C1 9204   2.419   4.488  14.236 -0.5612 -0.5896  0.0664
  618TMC3    C2 9205   2.484   4.380  14.283 -0.0092  0.4335  0.0637
  618TMC3    C3 9206   2.610   4.351  14.236 -0.0619 -0.0785 -0.1738
  618TMC3    C4 9207   2.485   4.572  14.148 -0.0904  0.1766  0.0735
  618TMC3    C5 9208   2.607   4.538  14.108 -0.7539  0.2496 -0.1432
  618TMC3    C6 9209   2.679   4.433  14.150  0.0050  0.2308 -0.3544
  618TMC3     C 9210   2.274   4.486  14.229 -0.2173  0.1283 -0.0969
  618TMC3     O 9211   2.203   4.418  14.305  0.2465  0.0892  0.5003
  618TMC3     H 9212   2.428   4.300  14.330  1.2083 -0.9723 -0.8810
  618TMC3    H1 9213   2.458   4.674  14.122 -0.5614 -0.5317 -2.2543
  618TMC3    H2 9214   2.779   4.419  14.110  0.0729  0.1402 -0.1501
  618TMC3    C7 9215   2.610   4.563  13.969 -0.3554 -0.4124  0.1684
  618TMC3    C8 9216   2.666   4.226  14.271  0.9333  0.3006  0.2078
  618TMC3    O1 9217   2.500   4.564  13.915  0.1501  0.0669 -0.2455
  618TMC3    O2 9218   2.646   4.190  14.388 -0.4134 -0.0110  0.3887
  619MPD2     C 9219   3.484   1.344  14.012  0.1046  0.5409  0.2906
  619MPD2    C1 9220   3.457   1.415  13.896  0.2036 -0.1283  0.5616
  619MPD2    C2 9221   3.332   1.408  13.837  0.2804 -0.3936 -0.9079
  619MPD2    C3 9222   3.228   1.340  13.894  0.0598  0.8622  0.0867
  619MPD2    C4 9223   3.258   1.270  14.008  0.6269  0.2873 -0.5856
  619MPD2    C5 9224   3.381   1.271  14.063  1.1673 -0.0433  0.2426
  619MPD2     H 9225   3.313   1.463  13.745 -0.8609  0.6954 -0.0187
  619MPD2    H1 9226   3.178   1.219  14.060  1.0939  1.2795  1.1293
  619MPD2    H2 9227   3.577   1.346  14.068 -0.6324 -1.7302  1.5834
  619MPD2    H3 9228   3.390   1.216  14.156 -1.0130 -0.2982  0.3149
  619MPD2     N 9229   3.101   1.322  13.835  0.2723  0.0798  0.4355
  619MPD2    H5 9230   3.039   1.248  13.868  0.3667 -1.3864 -2.7045
  619MPD2    N1 9231   3.553   1.488  13.828 -0.4993 -1.2089 -0.6694
  619MPD2    H7 9232   3.517   1.526  13.741  1.5326  2.7525  0.2500
  620TMC3    C1 9233   3.747   1.572  13.749 -0.1355 -0.2745  0.3263
  620TMC3    C2 9234   3.680   1.577  13.630  0.4788 -0.0285  0.5043
  620TMC3    C3 9235   3.709   1.678  13.542  0.4291 -0.1792 -0.1316
  620TMC3    C4 9236   3.840   1.672  13.788 -1.1274  0.3677  0.9615
  620TMC3    C5 9237   3.849   1.770  13.696 -0.3430 -0.2673 -0.1318
  620TMC3    C6 9238   3.787   1.779  13.577 -0.2206 -0.0659 -0.6361
  620TMC3     C 9239   3.690   1.492  13.855  0.3895  0.0077  0.0462
  620TMC3     O 9240   3.762   1.451  13.948 -0.5189 -0.1240  0.5038
  620TMC3     H 9241   3.606   1.503  13.602 -0.4622  0.6919  1.0915
  620TMC3    H1 9242   3.884   1.665  13.887 -0.6656 -1.0343  0.6669
  620TMC3    H2 9243   3.807   1.855  13.502 -0.5038 -2.2471 -2.9265
  620TMC3    C7 9244   3.882   1.900  13.750  0.5682 -0.5664  0.1641
  620TMC3    C8 9245   3.592   1.742  13.486  0.0424 -0.1959 -0.0638
  620TMC3    O1 9246   3.960   1.903  13.842 -0.0192 -0.2742  0.7331
  620TMC3    O2 9247   3.579   1.859  13.518  0.0563  0.4775 -1.0547
  621MPD2     C 9248   4.292   0.822   9.440  0.0398 -0.6995  0.2152
  621MPD2    C1 9249   4.297   0.817   9.577  0.3331  0.2262 -0.5338
  621MPD2    C2 9250   4.396   0.888   9.637 -0.1149 -0.5081  0.9062
  621MPD2    C3 9251   4.491   0.959   9.568  0.3890 -0.1539 -0.8040
  621MPD2    C4 9252   4.486   0.955   9.427 -0.3907  0.5793 -0.0764
  621MPD2    C5 9253   4.381   0.891   9.368  0.1198 -0.9119  0.3981
  621MPD2     H 9254   4.407   0.891   9.745  0.5030 -0.5331  0.8443
  621MPD2    H1 9255   4.564   0.994   9.362  2.4438  0.4167  3.1591
  621MPD2    H2 9256   4.208   0.777   9.388 -1.6835  0.2530  2.1838
  621MPD2    H3 9257   4.373   0.884   9.260 -2.8429 -0.2148  0.5777
  621MPD2     N 9258   4.582   1.035   9.648  0.1989  0.1959 -0.0105
  621MPD2    H5 9259   4.572   1.024   9.748 -0.4412  0.4644 -0.0411
  621MPD2    N1 9260   4.189   0.761   9.651 -0.2542 -0.3189  0.6788
  621MPD2    H7 9261   4.184   0.792   9.748 -0.0638 -0.5288  0.7571
  622TMC3    C1 9262   3.990   0.652   9.694  0.2404  0.0423 -0.5314
  622TMC3    C2 9263   3.974   0.724   9.809  0.5187 -0.3859 -0.0657
  622TMC3    C3 9264   3.893   0.671   9.918  0.0561  0.0199 -0.4504
  622TMC3    C4 9265   3.931   0.529   9.683 -0.8070 -0.0242  0.8689
  622TMC3    C5 9266   3.863   0.479   9.791 -0.4209  0.2057 -0.0092
  622TMC3    C6 9267   3.841   0.550   9.913  0.2503  0.2212 -0.5067
  622TMC3     C 9268   4.092   0.684   9.605  0.1586  0.3073 -0.1391
  622TMC3     O 9269   4.083   0.617   9.503  0.0103  0.1285  0.2362
  622TMC3     H 9270   4.009   0.826   9.806  1.7951 -0.8269 -0.1835
  622TMC3    H1 9271   3.957   0.465   9.600 -1.0273 -1.7499  2.1387
  622TMC3    H2 9272   3.773   0.508   9.987  0.5400 -0.3276 -0.5516
  622TMC3    C7 9273   3.824   0.338   9.790 -0.8423  0.0680 -0.2138
  622TMC3    C8 9274   3.826   0.749  10.019 -0.2199 -0.1506  0.1796
  622TMC3    O1 9275   3.883   0.262   9.713  0.2874  0.3891 -0.3649
  622TMC3    O2 9276   3.810   0.703  10.134 -0.3023  0.5138  0.1854
  623MPD2     C 9277   2.245   1.661  16.103 -0.4114 -0.1819 -0.0548
  623MPD2    C1 9278   2.168   1.658  16.222 -0.0499  0.6598 -0.1601
  623MPD2    C2 9279   2.225   1.680  16.339  0.2971 -0.5900 -0.4111
  623MPD2    C3 9280   2.365   1.694  16.342  0.2890  0.0513  0.1339
  623MPD2    C4 9281   2.441   1.698  16.225 -0.9415  0.5189 -0.4422
  623MPD2    C5 9282   2.378   1.686  16.104 -0.3183 -0.2456 -0.4449
  623MPD2     H 9283   2.169   1.670  16.431 -0.8846 -0.1537 -1.0824
  623MPD2    H1 9284   2.546   1.725  16.220 -0.2464 -1.3558  3.5815
  623MPD2    H2 9285   2.197   1.636  16.009 -2.8515  2.0595  0.6134
  623MPD2    H3 9286   2.409   1.686  16.000  0.7945  2.6309 -0.1240
  623MPD2     N 9287   2.420   1.735  16.471  0.3316  0.0994 -0.0603
  623MPD2    H5 9288   2.366   1.720  16.555 -0.2563  0.4875 -0.3659
  623MPD2    N1 9289   2.023   1.658  16.223  0.4336 -0.6685 -0.4815
  623MPD2    H7 9290   1.977   1.686  16.309 -1.4227  0.8551 -1.9677
  624TMC3    C1 9291   2.506   1.976  16.786 -0.7405  0.0653 -1.0017
  624TMC3    C2 9292   2.414   1.906  16.856 -0.2552 -0.3050 -0.1542
  624TMC3    C3 9293   2.386   1.776  16.813  0.3661 -0.1038  0.1583
  624TMC3    C4 9294   2.573   1.925  16.681  0.9424  1.0751  0.3598
  624TMC3    C5 9295   2.541   1.799  16.635  0.3619 -0.3719 -0.0204
  624TMC3    C6 9296   2.445   1.720  16.705  0.4712  0.4650 -0.0368
  624TMC3     C 9297   2.606   2.032  16.874 -0.6488  0.1385 -0.0987
  624TMC3     O 9298   2.584   2.013  16.992 -0.1130  0.4138 -0.4076
  624TMC3     H 9299   2.368   1.929  16.951 -0.6946 -0.1997 -0.3910
  624TMC3    H1 9300   2.651   1.977  16.626 -0.0157  5.2793  2.9331
  624TMC3    H2 9301   2.432   1.613  16.694  0.7809  0.4117  0.0933
  624TMC3    C7 9302   2.541   1.784  16.494 -0.3890 -0.2826 -0.3722
  624TMC3    C8 9303   2.256   1.717  16.834 -0.2596  0.3587 -1.1885
  624TMC3    O1 9304   2.615   1.845  16.417 -0.2421  0.2656 -0.6293
  624TMC3    O2 9305   2.226   1.606  16.788 -0.6308 -0.7031  0.3384
  625MPD2     C 9306   2.904   3.751   1.206  0.3057 -0.5632  0.6433
  625MPD2    C1 9307   2.898   3.789   1.075 -1.2373 -0.1949 -0.1108
  625MPD2    C2 9308   3.008   3.800   1.001 -0.3891  0.2152 -0.0087
  625MPD2    C3 9309   3.136   3.763   1.051 -0.0030  0.3417  0.6244
  625MPD2    C4 9310   3.146   3.728   1.184 -0.7751  0.3613  0.6788
  625MPD2    C5 9311   3.029   3.723   1.259 -0.2723 -0.4385 -0.1461
  625MPD2     H 9312   3.002   3.840   0.901  1.8471 -0.1971 -0.3078
  625MPD2    H1 9313   3.243   3.723   1.233 -1.7599 -2.2323  2.3352
  625MPD2    H2 9314   2.825   3.762   1.278 -0.8754  0.5199 -0.8050
  625MPD2    H3 9315   3.027   3.692   1.363  0.3117  0.6582  0.1896
  625MPD2     N 9316   3.248   3.771   0.965 -0.0886 -0.0994  0.3635
  625MPD2    H5 9317   3.232   3.806   0.871  0.9096 -0.8071 -0.0783
  625MPD2    N1 9318   2.772   3.823   1.021 -0.4365 -0.8843 -0.3204
  625MPD2    H7 9319   2.694   3.821   1.086  0.4935  0.8354  0.8579
  626TMC3    C1 9320   2.593   3.855   0.878 -0.0605  0.1017  0.4416
  626TMC3    C2 9321   2.541   3.829   0.754  0.9153  0.1252  0.4483
  626TMC3    C3 9322   2.410   3.812   0.732 -0.1247  0.3446 -0.0800
  626TMC3    C4 9323   2.512   3.871   0.986 -0.3507  0.2390  0.2893
  626TMC3    C5 9324   2.377   3.866   0.963  0.0983  0.3315 -0.0625
  626TMC3    C6 9325   2.322   3.825   0.836 -0.1289 -0.4087 -0.2571
  626TMC3     C 9326   2.736   3.853   0.892 -0.0931 -0.2572  0.4149
  626TMC3     O 9327   2.801   3.823   0.791 -0.2256  0.0301 -0.8634
  626TMC3     H 9328   2.604   3.828   0.666  1.7101  0.8771  1.0205
  626TMC3    H1 9329   2.543   3.904   1.085  2.9177  1.3871 -1.1125
  626TMC3    H2 9330   2.216   3.807   0.823 -0.5269  2.1627 -0.5683
  626TMC3    C7 9331   2.296   3.852   1.082  0.6542  0.4386 -0.3343
  626TMC3    C8 9332   2.362   3.809   0.596 -0.5003 -0.6332  0.5210
  626TMC3    O1 9333   2.360   3.833   1.188 -0.1217  0.2870  0.1149
  626TMC3    O2 9334   2.428   3.861   0.507 -0.0715  0.4062 -0.7905
  627MPD2     C 9335   1.499   3.459  14.442  0.2391 -0.3549 -0.3956
  627MPD2    C1 9336   1.520   3.385  14.549  0.3581 -0.0537 -0.0602
  627MPD2    C2 9337   1.460   3.266  14.579 -0.4159 -0.0731  0.6112
  627MPD2    C3 9338   1.370   3.218  14.481 -0.2840  1.0317  0.0820
  627MPD2    C4 9339   1.365   3.276  14.357 -0.6036  0.0184 -0.2541
  627MPD2    C5 9340   1.426   3.402  14.337  0.5785  0.0661  0.5208
  627MPD2     H 9341   1.471   3.230  14.680 -4.7124  0.0774  1.1467
  627MPD2    H1 9342   1.283   3.246  14.293 -1.5138  3.1004 -0.5386
  627MPD2    H2 9343   1.540   3.559  14.436 -1.0364  0.1670 -0.5418
  627MPD2    H3 9344   1.405   3.458  14.247  2.3780  0.1730  0.1741
  627MPD2     N 9345   1.284   3.115  14.500 -0.5256  0.8102  0.1544
  627MPD2    H5 9346   1.236   3.069  14.423  3.0143 -2.2851 -0.2176
  627MPD2    N1 9347   1.600   3.456  14.640  0.3781 -0.5033  0.4661
  627MPD2    H7 9348   1.628   3.552  14.619 -0.1435 -0.5714 -0.5426
  628TMC3    C1 9349   1.751   3.499  14.813  0.1801 -0.9914  0.4821
  628TMC3    C2 9350   1.867   3.448  14.855  0.0837  0.1589 -0.1786
  628TMC3    C3 9351   1.975   3.527  14.888 -0.4068  0.1629 -0.1734
  628TMC3    C4 9352   1.735   3.634  14.813  0.1720 -0.0417  0.4602
  628TMC3    C5 9353   1.847   3.709  14.841 -0.3420 -0.6035 -0.0146
  628TMC3    C6 9354   1.971   3.661  14.869 -0.4373  0.0404  0.1509
  628TMC3     C 9355   1.653   3.405  14.754  0.1938 -0.6794 -0.2562
  628TMC3     O 9356   1.655   3.291  14.797 -0.0909  0.6909 -0.0095
  628TMC3     H 9357   1.878   3.341  14.845  0.6181  0.4824 -3.0390
  628TMC3    H1 9358   1.640   3.684  14.802 -0.1777 -0.6771  0.5834
  628TMC3    H2 9359   2.049   3.720  14.916 -0.7294  0.3917  0.1934
  628TMC3    C7 9360   1.816   3.844  14.885  0.1035 -0.7084  0.1867
  628TMC3    C8 9361   2.102   3.466  14.868 -0.3007  0.6047  0.4087
  628TMC3    O1 9362   1.890   3.895  14.966 -0.0412  0.2770 -0.2032
  628TMC3    O2 9363   2.195   3.530  14.813  0.5067 -0.5463 -0.3282
  629MPD2     C 9364   4.073   2.873  16.356 -0.1636 -0.3811 -0.6348
  629MPD2    C1 9365   4.068   2.736  16.379  0.0363  0.1462 -0.0039
  629MPD2    C2 9366   3.953   2.668  16.369  0.2119 -0.7013 -0.6423
  629MPD2    C3 9367   3.834   2.737  16.331 -0.1646  0.5336  0.1863
  629MPD2    C4 9368   3.839   2.873  16.297  0.1428  0.3301 -0.6952
  629MPD2    C5 9369   3.958   2.940  16.310 -0.7162 -0.1523 -0.3734
  629MPD2     H 9370   3.933   2.563  16.383  1.3422 -0.9274 -0.7752
  629MPD2    H1 9371   3.756   2.932  16.257 -0.3533 -0.0164 -0.1757
  629MPD2    H2 9372   4.169   2.921  16.373 -0.4564  0.0502 -0.1781
  629MPD2    H3 9373   3.967   3.047  16.293 -0.7767  0.5386  3.8726
  629MPD2     N 9374   3.717   2.656  16.336 -0.2533  0.2796 -0.2944
  629MPD2    H5 9375   3.727   2.564  16.377 -3.4429  0.1148  0.1160
  629MPD2    N1 9376   4.190   2.668  16.389 -0.6634 -0.1852 -0.2025
  629MPD2    H7 9377   4.269   2.729  16.373 -0.5991 -0.6841 -1.7768
  630TMC3    C1 9378   4.350   2.488  16.394  0.4902  0.2632  0.2108
  630TMC3    C2 9379   4.430   2.571  16.325 -0.4466  0.1251  0.4936
  630TMC3    C3 9380   4.566   2.550  16.322 -0.1124  0.3267 -0.4382
  630TMC3    C4 9381   4.405   2.394  16.473  0.2913 -0.7995 -0.0284
  630TMC3    C5 9382   4.542   2.385  16.485  0.4342  0.9317 -0.9803
  630TMC3    C6 9383   4.628   2.455  16.403 -0.3882  0.1019  0.1268
  630TMC3     C 9384   4.210   2.533  16.415 -0.5167 -0.2642 -0.2422
  630TMC3     O 9385   4.130   2.448  16.452  0.1087  0.4907  0.1167
  630TMC3     H 9386   4.388   2.637  16.251 -0.8632 -0.8312 -0.1182
  630TMC3    H1 9387   4.341   2.358  16.553  0.1125 -0.8281 -0.1832
  630TMC3    H2 9388   4.731   2.433  16.377 -0.2560  1.4802 -0.4963
  630TMC3    C7 9389   4.604   2.284  16.574  0.5152  0.0007  0.0623
  630TMC3    C8 9390   4.656   2.647  16.254 -0.1401  0.5160  0.0835
  630TMC3    O1 9391   4.546   2.179  16.597  0.1720  0.0385  0.8712
  630TMC3    O2 9392   0.021   2.670  16.319  0.6654 -0.4515 -0.0525
  631MPD2     C 9393   2.724   1.620  15.486  0.4812 -0.0294 -0.8904
  631MPD2    C1 9394   2.824   1.691  15.426  0.4006 -0.2137  0.0888
  631MPD2    C2 9395   2.954   1.683  15.484  0.1401  0.2776  0.1303
  631MPD2    C3 9396   2.979   1.604  15.593  0.6821 -0.8768  0.3684
  631MPD2    C4 9397   2.878   1.540  15.650  0.6061  0.1902 -0.6076
  631MPD2    C5 9398   2.755   1.552  15.600 -0.4395  0.6696 -0.0372
  631MPD2     H 9399   3.040   1.732  15.438 -0.4101  3.2117  2.2072
  631MPD2    H1 9400   2.891   1.481  15.740 -3.1311  0.5141  0.1615
  631MPD2    H2 9401   2.619   1.620  15.457  0.3430  0.8342 -0.3640
  631MPD2    H3 9402   2.679   1.499  15.656  0.9199 -0.5961  0.6185
  631MPD2     N 9403   3.115   1.593  15.634 -0.5392  0.0824  0.6126
  631MPD2    H5 9404   3.187   1.640  15.581 -1.1709  0.0486 -0.2750
  631MPD2    N1 9405   2.790   1.786  15.325 -0.6128 -0.3473 -0.0853
  631MPD2    H7 9406   2.694   1.780  15.292 -0.1266  0.5748 -1.6722
  632TMC3    C1 9407   2.798   1.978  15.184  0.1536  0.2024  0.5074
  632TMC3    C2 9408   2.674   2.016  15.230 -0.2534  0.2764 -0.2994
  632TMC3    C3 9409   2.613   2.130  15.173  0.0577 -0.8904 -0.0963
  632TMC3    C4 9410   2.868   2.055  15.095 -0.9513  0.0802  0.8295
  632TMC3    C5 9411   2.806   2.171  15.060  0.0811  0.1804  0.2042
  632TMC3    C6 9412   2.675   2.208  15.086 -1.2592 -0.4665 -0.4541
  632TMC3     C 9413   2.872   1.874  15.258 -0.2429 -0.1931  0.3941
  632TMC3     O 9414   2.989   1.905  15.281  0.8277 -0.0478  0.0052
  632TMC3     H 9415   2.623   1.962  15.309  3.5966  0.9715  2.6228
  632TMC3    H1 9416   2.969   2.032  15.064 -0.8628  1.3463  0.1366
  632TMC3    H2 9417   2.632   2.304  15.059  1.5752  1.2063  0.9598
  632TMC3    C7 9418   2.887   2.260  14.980  0.5597 -0.1684 -0.1627
  632TMC3    C8 9419   2.494   2.169  15.242  0.0711 -0.7160  0.1295
  632TMC3    O1 9420   2.835   2.315  14.880 -0.8570  0.3894 -0.0255
  632TMC3    O2 9421   2.472   2.116  15.350  0.3526 -0.4226 -0.1158
  633MPD2     C 9422   2.370   0.256  17.510 -0.3181 -0.2255  0.4597
  633MPD2    C1 9423   2.346   0.202  17.389  0.4697 -0.0859 -0.6268
  633MPD2    C2 9424   2.282   0.078  17.381  1.0120  0.3261  0.4498
  633MPD2    C3 9425   2.230   0.013  17.489  0.5036 -0.6015  0.9548
  633MPD2    C4 9426   2.256   0.074  17.615  0.1699 -0.4674  0.7212
  633MPD2    C5 9427   2.330   0.185  17.621  0.3052  0.3864  0.4286
  633MPD2     H 9428   2.284   0.028  17.285 -1.6014 -1.8823  1.5412
  633MPD2    H1 9429   2.221   0.024  17.704 -1.0069 -0.2419  0.3885
  633MPD2    H2 9430   2.422   0.351  17.522  1.6089 -1.4178  1.4950
  633MPD2    H3 9431   2.349   0.238  17.714 -0.5283  0.3824  0.6084
  633MPD2     N 9432   2.175   4.622  17.486 -0.1348 -0.4277 -0.4313
  633MPD2    H5 9433   2.171   4.571  17.574 -0.6380  0.6008  0.1491
  633MPD2    N1 9434   2.390   0.260  17.268  0.2639 -0.2787  0.8196
  633MPD2    H7 9435   2.393   0.203  17.184  1.2254 -0.0677  0.7072
  634TMC3    C1 9436   2.503   0.424  17.131 -0.0928 -0.1565 -0.0545
  634TMC3    C2 9437   2.576   0.330  17.058 -0.5544  0.2859  0.2011
  634TMC3    C3 9438   2.603   0.368  16.934 -0.7961  0.9744 -0.0050
  634TMC3    C4 9439   2.483   0.553  17.091 -0.0672  0.8647  0.1861
  634TMC3    C5 9440   2.517   0.584  16.957 -0.0820 -0.7003  0.2859
  634TMC3    C6 9441   2.574   0.490  16.875  0.0797  0.2209 -0.1885
  634TMC3     C 9442   2.437   0.390  17.252 -0.6744 -0.1273  0.1211
  634TMC3     O 9443   2.446   0.482  17.335  0.4014  0.4920  0.3474
  634TMC3     H 9444   2.597   0.230  17.093  1.1870  1.1028  1.5062
  634TMC3    H1 9445   2.439   0.623  17.162 -0.0218 -0.0571  1.1313
  634TMC3    H2 9446   2.619   0.519  16.780  1.0509  1.4325  0.6322
  634TMC3    C7 9447   2.475   0.707  16.894 -0.5957  0.1384 -0.2119
  634TMC3    C8 9448   2.648   0.261  16.842 -0.4255  0.1720  0.8027
  634TMC3    O1 9449   2.527   0.728  16.783  0.2006 -0.4112 -0.4234
  634TMC3    O2 9450   2.668   0.149  16.890 -0.4204  0.4289  0.0779
  635TMC3    C1 9451   2.473   1.584   0.203 -0.0699 -0.0500  0.6233
  635TMC3    C2 9452   2.464   1.609   0.071  0.5785 -0.0484 -0.4059
  635TMC3    C3 9453   2.503   1.507  17.724 -0.0439 -0.2594  0.4528
  635TMC3    C4 9454   2.532   1.467   0.248 -0.0099  0.2872 -0.2411
  635TMC3    C5 9455   2.565   1.368   0.162 -0.2662 -0.3088  0.7852
  635TMC3    C6 9456   2.545   1.382   0.026  0.0335 -0.2233 -0.1785
  635TMC3     C 9457   2.475   1.694   0.301  0.4464  0.1631 -0.1152
  635TMC3     O 9458   2.537   1.674   0.406 -0.3108 -0.2135  0.1051
  635TMC3     H 9459   2.434   1.706   0.034 -1.3323 -1.2152 -1.9041
  635TMC3    H1 9460   2.534   1.448   0.355 -0.3376 -1.3627 -0.5403
  635TMC3    H2 9461   2.554   1.299  17.696  0.7123  0.1813 -0.5841
  635TMC3    C7 9462   2.594   1.239   0.217  0.2838 -0.4810 -0.0378
  635TMC3    C8 9463   2.514   1.543  17.582 -0.0605 -0.2362 -0.2190
  635TMC3    O1 9464   2.555   1.212   0.335  0.3958  0.4439  0.1170
  635TMC3    O2 9465   2.474   1.655  17.548 -0.2464  0.6710 -0.6684
  636MPD2     C 9466   3.856   0.362  15.735  0.0801  0.2641  0.3323
  636MPD2    C1 9467   3.817   0.361  15.869  0.3933  0.1701 -0.4927
  636MPD2    C2 9468   3.855   0.253  15.946 -0.0320  0.4213 -0.0154
  636MPD2    C3 9469   3.920   0.143  15.896 -0.1926 -0.3651  0.1592
  636MPD2    C4 9470   3.936   0.140  15.761  0.6803 -0.2650 -0.0772
  636MPD2    C5 9471   3.909   0.249  15.677  0.4219 -0.0020  0.0729
  636MPD2     H 9472   3.806   0.255  16.042  0.5518 -0.4235  0.2991
  636MPD2    H1 9473   3.967   0.051  15.708  1.6146 -0.3093  0.5455
  636MPD2    H2 9474   3.822   0.446  15.674  1.0155 -0.3466 -1.0307
  636MPD2    H3 9475   3.914   0.230  15.571 -0.1810 -0.9620  0.2172
  636MPD2     N 9476   3.954   0.036  15.981  0.2340  0.0517 -0.3795
  636MPD2    H5 9477   3.916   0.029  16.075 -0.6935  1.9909 -0.6165
  636MPD2    N1 9478   3.754   0.471  15.937 -0.1363 -0.0050 -0.0163
  636MPD2    H7 9479   3.753   0.467  16.038  0.5484 -0.0971 -0.0071
  637TMC3    C1 9480   4.048   4.566  16.044 -0.3893  0.1157 -0.7149
  637TMC3    C2 9481   3.983   4.584  16.162  0.9570 -0.1153  0.9267
  637TMC3    C3 9482   4.042   4.539  16.277  0.1054  0.0176 -0.6453
  637TMC3    C4 9483   4.166   4.495  16.033 -0.6099 -0.4748 -0.4177
  637TMC3    C5 9484   4.224   4.458  16.153  0.0466 -0.0930  0.3024
  637TMC3    C6 9485   4.159   4.473  16.270  0.5002 -0.0327 -1.1793
  637TMC3     C 9486   4.034   4.670  15.940  0.5452  0.2471 -0.3316
  637TMC3     O 9487   4.105   4.665  15.842  0.3088  0.1397  0.2877
  637TMC3     H 9488   3.889   4.638  16.163 -0.6815 -2.9372  0.1671
  637TMC3    H1 9489   4.223   4.486  15.941  1.8735  0.9062  0.9627
  637TMC3    H2 9490   4.222   4.447  16.355 -1.1472  2.9459  0.9226
  637TMC3    C7 9491   4.360   4.406  16.157  0.4378 -0.3001 -0.0214
  637TMC3    C8 9492   4.016   4.639  16.385  0.0077 -0.6273 -0.5597
  637TMC3    O1 9493   4.365   4.300  16.217 -0.2152 -0.4227  0.3934
  637TMC3    O2 9494   3.963   0.010  16.353  0.3476  0.1557 -0.0081
  638MPD2     C 9495   3.968   4.241  14.079 -0.3343 -0.6064  0.2798
  638MPD2    C1 9496   3.981   4.114  14.121  0.4159 -0.0430 -0.5544
  638MPD2    C2 9497   3.903   4.073  14.231 -0.0868 -0.4683  0.2943
  638MPD2    C3 9498   3.817   4.163  14.298  0.4709 -0.1029 -0.2964
  638MPD2    C4 9499   3.810   4.293  14.249  0.8882  0.2682 -0.2649
  638MPD2    C5 9500   3.888   4.327  14.140 -0.2743 -0.2308  0.1027
  638MPD2     H 9501   3.904   3.969  14.263  0.0528  0.4381  3.2523
  638MPD2    H1 9502   3.743   4.368  14.289  1.2559 -0.7026  2.1781
  638MPD2    H2 9503   4.030   4.277  13.997  0.5799  0.6602  1.5243
  638MPD2    H3 9504   3.879   4.427  14.099 -0.2189 -0.4303 -0.3995
  638MPD2     N 9505   3.739   4.116  14.405  0.4778  0.7424 -0.1403
  638MPD2    H5 9506   3.739   4.015  14.420  1.8083  0.6228 -0.9672
  638MPD2    N1 9507   4.070   4.033  14.044 -0.0915  0.0732  0.1365
  638MPD2    H7 9508   4.111   4.079  13.964 -0.0529 -0.6823 -0.2829
  639TMC3    C1 9509   3.598   4.101  14.589  0.6585  0.7256  0.1060
  639TMC3    C2 9510   3.569   3.973  14.542 -0.0616  0.3209  0.2474
  639TMC3    C3 9511   3.552   3.879  14.637  0.4580 -0.2187 -0.9925
  639TMC3    C4 9512   3.629   4.128  14.713  0.6474  0.1375  0.1578
  639TMC3    C5 9513   3.613   4.024  14.805  0.9911 -0.0071  0.0060
  639TMC3    C6 9514   3.576   3.894  14.772 -0.9978  0.3119 -0.4939
  639TMC3     C 9515   3.667   4.193  14.495  0.8822 -0.2287  0.4277
  639TMC3     O 9516   3.684   4.312  14.526 -0.4276 -0.2753 -0.0804
  639TMC3     H 9517   3.551   3.948  14.438  1.8139 -0.3724  0.0928
  639TMC3    H1 9518   3.642   4.231  14.746 -0.2185  0.4008 -0.3142
  639TMC3    H2 9519   3.561   3.810  14.838 -3.4951  0.9534 -0.2630
  639TMC3    C7 9520   3.622   4.049  14.948  0.0742  0.1734 -0.3037
  639TMC3    C8 9521   3.523   3.745  14.588 -0.6100 -0.1994 -0.2510
  639TMC3    O1 9522   3.546   3.991  15.026 -0.1888  0.0473  1.0330
  639TMC3    O2 9523   3.580   3.710  14.486  0.5190  0.7588 -0.2353
  640MPD2     C 9524   4.241   2.570   9.396 -0.2599  0.2305 -0.2832
  640MPD2    C1 9525   4.237   2.708   9.366  0.3341 -0.3362  0.4360
  640MPD2    C2 9526   4.111   2.777   9.367  0.5865  1.1336 -0.4926
  640MPD2    C3 9527   3.995   2.712   9.410  0.1365 -0.2606 -0.2079
  640MPD2    C4 9528   4.003   2.579   9.434  0.8191  0.3797  0.4872
  640MPD2    C5 9529   4.121   2.512   9.432  0.3058  0.0301 -0.4611
  640MPD2     H 9530   4.098   2.880   9.336 -4.6980  1.3799  2.4927
  640MPD2    H1 9531   3.917   2.521   9.466  1.7708 -1.5494 -0.4426
  640MPD2    H2 9532   4.329   2.509   9.416 -0.8171 -0.4002  0.2162
  640MPD2    H3 9533   4.114   2.409   9.464 -0.6316 -0.4248 -2.1393
  640MPD2     N 9534   3.871   2.782   9.426 -0.5187 -0.0120  0.1603
  640MPD2    H5 9535   3.801   2.725   9.473 -1.1306 -0.2514 -1.0417
  640MPD2    N1 9536   4.362   2.766   9.342 -0.1787  0.2738  0.2834
  640MPD2    H7 9537   4.440   2.703   9.351  0.2083  0.2107 -3.6390
  641TMC3    C1 9538   4.525   2.940   9.283 -0.1971  0.5848  0.3672
  641TMC3    C2 9539   4.607   2.840   9.228  0.5414  0.2211  0.0201
  641TMC3    C3 9540   0.004   2.881   9.209 -0.5517 -0.4951  0.0747
  641TMC3    C4 9541   4.567   3.063   9.317  0.2128 -0.8139  0.4297
  641TMC3    C5 9542   4.701   3.095   9.300 -0.0623 -0.0035 -0.0222
  641TMC3    C6 9543   0.055   3.006   9.249  0.1833  0.6280  0.7834
  641TMC3     C 9544   4.382   2.898   9.303  0.3153 -0.3026  0.1025
  641TMC3     O 9545   4.305   2.991   9.289  0.2483  0.3381  0.2016
  641TMC3     H 9546   4.573   2.738   9.219  2.6366 -0.7328  2.6675
  641TMC3    H1 9547   4.498   3.142   9.346 -0.1788 -0.4733 -1.4340
  641TMC3    H2 9548   0.159   3.029   9.230  0.2415  0.9927  1.5643
  641TMC3    C7 9549   0.012   3.228   9.323  0.1116 -0.4566 -0.6686
  641TMC3    C8 9550   0.091   2.764   9.209  0.0395  0.6211 -0.0405
  641TMC3    O1 9551   0.132   3.247   9.332  0.2218 -0.0771  0.1094
  641TMC3    O2 9552   0.046   2.661   9.162  0.0236  0.0513 -0.1776
  642TMC3    C1 9553   0.676   3.531  12.237 -0.2292  0.2096  0.7811
  642TMC3    C2 9554   0.809   3.505  12.258  0.4265 -0.3502  1.0778
  642TMC3    C3 9555   0.856   3.377  12.275 -0.4462  0.2621 -0.3818
  642TMC3    C4 9556   0.592   3.424  12.231 -0.8869 -0.0589 -0.4133
  642TMC3    C5 9557   0.645   3.302  12.249 -0.4364 -0.2844 -0.0770
  642TMC3    C6 9558   0.778   3.273  12.264  0.6358 -0.0614  0.1947
  642TMC3     C 9559   0.634   3.667  12.248 -0.0511 -0.4754  0.2006
  642TMC3     O 9560   0.725   3.745  12.264 -0.2216  0.6822 -0.4686
  642TMC3     H 9561   0.880   3.587  12.256 -1.3825  1.2220  1.3451
  642TMC3    H1 9562   0.488   3.442  12.207 -1.0484 -0.9341 -0.3808
  642TMC3    H2 9563   0.813   3.171  12.254  2.6040  0.6913 -0.7055
  642TMC3    C7 9564   0.562   3.185  12.244 -0.6835 -0.1366 -0.1048
  642TMC3    C8 9565   0.999   3.358  12.269  0.7332  0.4182  0.5427
  642TMC3    O1 9566   0.460   3.187  12.172 -0.0005  0.0291 -0.0722
  642TMC3    O2 9567   1.034   3.252  12.214 -0.4692  0.0632 -0.0199
  643TMC3    C1 9568   4.391   3.310   0.357  0.2075 -0.0990 -0.3025
  643TMC3    C2 9569   4.254   3.301   0.339 -0.3136 -0.7259 -0.0095
  643TMC3    C3 9570   4.202   3.202   0.262  0.4242  0.1209 -0.6104
  643TMC3    C4 9571   4.480   3.228   0.294 -0.0832  0.4295  0.3529
  643TMC3    C5 9572   4.422   3.129   0.220  0.4125 -0.0086 -0.2338
  643TMC3    C6 9573   4.286   3.114   0.205  0.4179 -0.1362 -0.0777
  643TMC3     C 9574   4.437   3.442   0.385 -0.0899 -0.2961 -0.2962
  643TMC3     O 9575   4.355   3.533   0.362  0.5668 -0.5336  0.1774
  643TMC3     H 9576   4.191   3.382   0.374 -0.7718 -0.5919 -1.1435
  643TMC3    H1 9577   4.584   3.253   0.275  0.1161  0.1302  1.0338
  643TMC3    H2 9578   4.247   3.030   0.149  1.0253 -1.3649  1.3656
  643TMC3    C7 9579   4.501   3.093   0.105  0.6140 -0.3327  0.8469
  643TMC3    C8 9580   4.104   3.250   0.167  0.8684  0.0353  0.0088
  643TMC3    O1 9581   4.587   3.173   0.077  0.1342 -0.0562  0.1743
  643TMC3    O2 9582   4.052   3.160   0.105 -0.4642 -0.3888  0.3572
  644MPD2     C 9583   0.220   3.369   9.700 -0.0820 -0.5911  0.5369
  644MPD2    C1 9584   0.108   3.292   9.661 -0.2783  0.3435 -0.0056
  644MPD2    C2 9585   4.722   3.362   9.648  0.1480 -0.4537 -0.0735
  644MPD2    C3 9586   4.723   3.501   9.658  0.1389 -0.2690  0.1311
  644MPD2    C4 9587   0.106   3.572   9.698  0.2625  0.6698 -0.1530
  644MPD2    C5 9588   0.216   3.504   9.728 -0.1954 -0.5043 -0.1812
  644MPD2     H 9589   4.628   3.315   9.621 -0.9476  1.1119  1.0373
  644MPD2    H1 9590   0.108   3.680   9.698  2.5511  0.6221 -0.1469
  644MPD2    H2 9591   0.312   3.316   9.721 -0.0375 -1.1133 -0.9970
  644MPD2    H3 9592   0.306   3.556   9.759 -0.4765  1.1954 -2.1670
  644MPD2     N 9593   4.602   3.570   9.624  0.3470  0.6240  0.2434
  644MPD2    H5 9594   4.532   3.511   9.579  3.0583 -0.5483 -2.4419
  644MPD2    N1 9595   0.131   3.154   9.661 -0.3606 -0.4096  0.2166
  644MPD2    H7 9596   0.228   3.129   9.680 -0.6636 -1.3985  0.4610
  645TMC3    C1 9597   4.436   3.727   9.583 -0.2540  0.0045  1.1429
  645TMC3    C2 9598   4.384   3.855   9.588  0.4136 -0.2685 -0.0500
  645TMC3    C3 9599   4.256   3.873   9.550 -0.6031  0.0252  0.1253
  645TMC3    C4 9600   4.354   3.619   9.554  0.0346  0.6573 -0.0684
  645TMC3    C5 9601   4.232   3.648   9.496 -0.5262 -0.1620  0.4091
  645TMC3    C6 9602   4.175   3.772   9.495  0.1119  0.8332  0.1104
  645TMC3     C 9603   4.566   3.702   9.644  0.5512  0.5040  0.1275
  645TMC3     O 9604   4.618   3.793   9.711  0.3093 -0.3194  0.4042
  645TMC3     H 9605   4.457   3.934   9.601  1.2130 -0.5372 -2.8997
  645TMC3    H1 9606   4.395   3.520   9.542  1.1712  1.0767  0.2817
  645TMC3    H2 9607   4.076   3.801   9.461 -0.7660  0.3997  2.2254
  645TMC3    C7 9608   4.180   3.539   9.430  0.6244  1.1648 -0.4016
  645TMC3    C8 9609   4.207   4.008   9.520 -0.3024 -0.6786 -0.6549
  645TMC3    O1 9610   4.245   3.436   9.413 -0.6170  0.2106 -0.5856
  645TMC3    O2 9611   4.123   4.018   9.432  0.2472  0.1907 -0.2784
  646MPD2     C 9612   4.091   2.751  14.405  0.5843 -0.6397  0.5696
  646MPD2    C1 9613   3.976   2.718  14.473  0.4586  0.6884 -0.3677
  646MPD2    C2 9614   3.857   2.763  14.426 -0.0102  0.5021  0.4963
  646MPD2    C3 9615   3.843   2.834  14.311 -0.1070  0.0465  0.1197
  646MPD2    C4 9616   3.959   2.861  14.236  0.1988  0.5484 -0.0023
  646MPD2    C5 9617   4.080   2.823  14.281  0.3252 -0.4083 -0.0342
  646MPD2     H 9618   3.765   2.745  14.479 -0.2845 -0.4100 -0.3042
  646MPD2    H1 9619   3.955   2.932  14.155  0.0963  1.7244  1.0423
  646MPD2    H2 9620   4.189   2.717  14.436  1.7592  4.6536  2.6185
  646MPD2    H3 9621   4.161   2.849  14.214  0.0476  1.0274  0.1878
  646MPD2     N 9622   3.715   2.870  14.271 -0.7567 -0.2811 -0.1450
  646MPD2    H5 9623   3.639   2.847  14.335  0.8592  0.5965  2.0957
  646MPD2    N1 9624   3.997   2.639  14.588 -0.5239  0.4859  0.1462
  646MPD2    H7 9625   4.090   2.600  14.600 -1.7177 -2.1333  0.8412
  647TMC3    C1 9626   3.951   2.508  14.783  0.2621 -0.7964 -1.3171
  647TMC3    C2 9627   3.861   2.417  14.827 -0.4458  0.0395 -0.3954
  647TMC3    C3 9628   3.894   2.353  14.948  0.0144 -0.3677 -0.4347
  647TMC3    C4 9629   4.077   2.535  14.840  0.5516  0.1650  0.0906
  647TMC3    C5 9630   4.105   2.465  14.953 -0.7906 -0.1675 -0.3284
  647TMC3    C6 9631   4.017   2.369  15.003  0.3437  0.2591  0.3377
  647TMC3     C 9632   3.901   2.589  14.676 -0.7253  0.1414  0.6597
  647TMC3     O 9633   3.786   2.629  14.686  0.0399 -0.1731 -0.1119
  647TMC3     H 9634   3.764   2.398  14.783 -0.0413 -1.9592 -0.4592
  647TMC3    H1 9635   4.130   2.626  14.815  3.9578 -2.4022 -2.1333
  647TMC3    H2 9636   4.056   2.308  15.083  2.0374 -1.3343 -1.7104
  647TMC3    C7 9637   4.241   2.434  14.976 -0.6688 -0.8372  0.3978
  647TMC3    C8 9638   3.828   2.225  14.973 -0.0261 -0.0801  0.6195
  647TMC3    O1 9639   4.271   2.401  15.089  0.0070 -0.6060  0.0417
  647TMC3    O2 9640   3.757   2.172  14.888  0.6954  0.3269 -0.0970
  648TMC3    C1 9641   3.008   0.421  16.220 -0.0729 -0.2758 -0.5125
  648TMC3    C2 9642   3.092   0.314  16.189  0.3495 -0.4228  0.3134
  648TMC3    C3 9643   3.043   0.234  16.090 -0.4254 -0.3678  0.6654
  648TMC3    C4 9644   2.898   0.456  16.143 -0.5567 -0.4760 -0.1632
  648TMC3    C5 9645   2.867   0.380  16.030  0.5287  0.4606 -0.4554
  648TMC3    C6 9646   2.936   0.262  16.011  0.1563 -0.0609 -0.1598
  648TMC3     C 9647   3.017   0.466  16.356  0.2859 -0.7328 -0.0992
  648TMC3     O 9648   2.975   0.576  16.383  0.0430 -0.3879  0.1395
  648TMC3     H 9649   3.178   0.287  16.249  1.4844  1.6443 -0.3905
  648TMC3    H1 9650   2.826   0.527  16.183 -2.4911 -1.3648 -2.0693
  648TMC3    H2 9651   2.904   0.197  15.931 -1.8714 -0.2997  0.8420
  648TMC3    C7 9652   2.731   0.389  15.974  0.0246 -0.0554 -0.6348
  648TMC3    C8 9653   3.087   0.099  16.107  0.3600 -0.3436 -0.6922
  648TMC3    O1 9654   2.679   0.278  15.951  0.4013 -0.5076  1.0718
  648TMC3    O2 9655   3.107   0.064  16.226 -0.2641  0.2550 -0.8155
  649TMC3    C1 9656   2.504   1.242  12.824 -0.4635 -0.3744 -0.2308
  649TMC3    C2 9657   2.634   1.232  12.874 -0.3045 -0.2918 -0.0357
  649TMC3    C3 9658   2.642   1.153  12.990  0.0830 -0.3358 -0.0997
  649TMC3    C4 9659   2.399   1.169  12.877 -0.2983  0.4517  0.2326
  649TMC3    C5 9660   2.413   1.099  12.997 -0.1994  0.2047  1.5028
  649TMC3    C6 9661   2.534   1.090  13.046  0.1403  0.1104  0.0738
  649TMC3     C 9662   2.478   1.311  12.699  0.5910 -0.2914  0.5705
  649TMC3     O 9663   2.371   1.284  12.642 -0.0492 -0.3471 -0.0414
  649TMC3     H 9664   2.724   1.273  12.830  0.4359 -2.5808 -0.6372
  649TMC3    H1 9665   2.302   1.178  12.830  0.1698  2.0816 -0.4352
  649TMC3    H2 9666   2.539   1.046  13.145 -0.4615  0.1377  0.1189
  649TMC3    C7 9667   2.301   1.022  13.045 -0.3097 -0.3641 -0.2984
  649TMC3    C8 9668   2.770   1.126  13.063 -0.3106  0.0093 -0.0013
  649TMC3    O1 9669   2.191   1.047  13.003 -0.1677  0.0872 -0.6001
  649TMC3    O2 9670   2.770   1.053  13.161 -0.5663 -0.1505 -0.6333
  650TMC3    C1 9671   0.008   2.803  12.802  0.2758  0.0678  0.0148
  650TMC3    C2 9672   4.670   2.920  12.804  0.2304  0.0585  0.1609
  650TMC3    C3 9673   4.734   3.035  12.783 -0.0039  0.3451 -0.2053
  650TMC3    C4 9674   0.136   2.810  12.750  0.1653 -0.4128 -0.2130
  650TMC3    C5 9675   0.195   2.921  12.700 -0.2461 -0.1548 -0.5926
  650TMC3    C6 9676   0.132   3.037  12.736  0.3567 -0.5770  0.0810
  650TMC3     C 9677   4.697   2.685  12.878 -1.1430  0.3877  0.1370
  650TMC3     O 9678   4.601   2.703  12.951  0.1666  0.0898  0.0569
  650TMC3     H 9679   4.570   2.919  12.846 -0.2020  1.1870 -0.8472
  650TMC3    H1 9680   0.184   2.716  12.724 -0.2603 -0.7709  0.2875
  650TMC3    H2 9681   0.188   3.129  12.725  0.8802 -0.9302 -0.1940
  650TMC3    C7 9682   0.184   2.906  12.552  0.4218  0.3118 -0.0611
  650TMC3    C8 9683   4.677   3.173  12.762 -0.2527  0.2516  0.4328
  650TMC3    O1 9684   0.155   2.798  12.513  0.2901 -0.2130  0.6248
  650TMC3    O2 9685   0.004   3.243  12.687 -0.0967  0.6307 -0.1329
  651MPD2     C 9686   3.582   4.305  11.020  0.5685 -0.2993 -0.2773
  651MPD2    C1 9687   3.562   4.435  11.040  0.1496 -0.3482 -0.5501
  651MPD2    C2 9688   3.673   4.519  11.032  0.1501 -0.6388 -0.0138
  651MPD2    C3 9689   3.796   4.465  11.025 -0.3260 -0.4513 -0.2021
  651MPD2    C4 9690   3.823   4.332  11.007  0.1834  0.1846 -0.1154
  651MPD2    C5 9691   3.707   4.257  11.010 -0.8614 -0.6365  0.2009
  651MPD2     H 9692   3.660   4.627  11.033 -2.5451 -0.9573 -0.6224
  651MPD2    H1 9693   3.918   4.286  10.984 -1.6247 -3.5534 -0.1280
  651MPD2    H2 9694   3.501   4.233  11.019  0.2877  0.0479 -3.4208
  651MPD2    H3 9695   3.726   4.150  11.002  1.5165 -0.1647 -0.5408
  651MPD2     N 9696   3.907   4.555  11.032 -0.8184  0.4338 -0.2464
  651MPD2    H5 9697   3.892   4.652  11.059 -0.9977  0.3565 -0.0722
  651MPD2    N1 9698   3.439   4.501  11.052 -0.0729  0.2018 -0.4948
  651MPD2    H7 9699   3.440   4.602  11.044  0.6347  0.3643  1.7593
  652TMC3    C1 9700   4.344   4.728  11.061  0.5915  0.0388  0.6177
  652TMC3    C2 9701   4.255   4.627  11.090  0.0235 -0.2541 -0.0078
  652TMC3    C3 9702   4.130   4.648  11.036  0.4765 -0.1444 -0.5970
  652TMC3    C4 9703   4.317   0.109  10.996 -0.2609  0.3356 -0.1428
  652TMC3    C5 9704   4.189   0.113  10.941 -0.2873  0.2234 -0.3101
  652TMC3    C6 9705   4.098   0.015  10.959  0.5422  0.3511  0.5124
  652TMC3     C 9706   4.461   4.729  11.144 -0.0035 -0.3649  0.0975
  652TMC3     O 9707   4.521   4.624  11.157 -0.1130  0.3311 -0.0357
  652TMC3     H 9708   4.280   4.532  11.136 -0.2354  0.6711  2.0472
  652TMC3    H1 9709   4.396   0.179  10.973  0.6881 -0.5716  0.3369
  652TMC3    H2 9710   3.998   0.018  10.917  0.7735 -0.0134 -0.0668
  652TMC3    C7 9711   4.176   0.185  10.811  0.0387 -0.5677  0.2576
  652TMC3    C8 9712   4.041   4.531  11.021  0.3105 -0.4083  0.8479
  652TMC3    O1 9713   4.127   0.128  10.715  0.0710  0.3088  0.2450
  652TMC3    O2 9714   4.100   4.421  11.039 -0.0183  0.4248  0.4556
  653MPD2     C 9715   2.201   0.331   0.276  1.2565  0.6879  0.6524
  653MPD2    C1 9716   2.171   0.424   0.180 -0.3521  0.5732  0.0940
  653MPD2    C2 9717   2.075   0.389   0.084  0.3230  0.2106  0.1693
  653MPD2    C3 9718   2.027   0.258   0.070  0.3349  0.0832 -0.3558
  653MPD2    C4 9719   2.061   0.171   0.171 -0.1143 -0.1461  0.3664
  653MPD2    C5 9720   2.152   0.204   0.268 -0.6333  0.1316 -0.2683
  653MPD2     H 9721   2.040   0.466   0.017 -0.9924 -0.7922 -0.2818
  653MPD2    H1 9722   2.028   0.068   0.177  0.9764 -0.4423  1.0320
  653MPD2    H2 9723   2.280   0.346   0.349  2.4581 -1.4659 -0.2168
  653MPD2    H3 9724   2.189   0.130   0.337 -0.6218  0.6616  0.2924
  653MPD2     N 9725   1.931   0.228  17.704  0.9722 -0.0718 -0.8414
  653MPD2    H5 9726   1.905   0.307  17.646  1.4878  0.5119 -0.2752
  653MPD2    N1 9727   2.235   0.556   0.172  0.5330 -0.1531  0.6092
  653MPD2    H7 9728   2.189   0.622   0.110 -1.6234 -1.5955  0.6796
  654TMC3    C1 9729   1.777   0.114  17.575 -0.4247  0.2531  0.6879
  654TMC3    C2 9730   1.712   0.231  17.540  0.1124 -0.6921  0.1054
  654TMC3    C3 9731   1.603   0.220  17.454  0.5361 -0.0256  0.2753
  654TMC3    C4 9732   1.757   4.734  17.507 -0.0261 -0.3021 -0.0865
  654TMC3    C5 9733   1.650   4.728  17.423  0.0543 -0.2881 -0.3102
  654TMC3    C6 9734   1.566   0.101  17.400 -0.0613  0.5369 -0.1679
  654TMC3     C 9735   1.869   0.106  17.683  0.0213  0.3865  0.3371
  654TMC3     O 9736   1.901   4.729  17.727  0.0290  0.5272 -0.3758
  654TMC3     H 9737   1.728   0.326  17.590  1.3133 -1.1812  0.6568
  654TMC3    H1 9738   1.824   4.653  17.535  0.8084 -0.0105 -1.2298
  654TMC3    H2 9739   1.488   0.097  17.325 -1.8093  1.3472  1.6186
  654TMC3    C7 9740   1.649   4.619  17.323  0.8784  0.0048 -0.0281
  654TMC3    C8 9741   1.515   0.333  17.414  0.4361 -0.4110 -0.2707
  654TMC3    O1 9742   1.586   4.643  17.217  0.5112 -0.0520 -0.0530
  654TMC3    O2 9743   1.397   0.319  17.387  0.3858 -0.3920  0.4638
  655MPD2     C 9744   3.443   0.328  16.040 -0.3619 -0.0742 -0.3700
  655MPD2    C1 9745   3.352   0.375  15.948 -0.1308  0.0150 -0.4029
  655MPD2    C2 9746   3.327   0.307  15.827  0.5394  0.2778 -0.8361
  655MPD2    C3 9747   3.410   0.199  15.792  0.2889  0.5071 -0.3512
  655MPD2    C4 9748   3.512   0.161  15.881 -0.3100  0.4146  0.4061
  655MPD2    C5 9749   3.522   0.217  16.009 -0.4121 -0.2401 -0.1114
  655MPD2     H 9750   3.258   0.357  15.760 -0.3170 -1.6892 -1.4513
  655MPD2    H1 9751   3.574   0.075  15.859 -1.2646  0.2649 -1.7373
  655MPD2    H2 9752   3.453   0.383  16.133 -1.5536 -1.4166  0.5545
  655MPD2    H3 9753   3.587   0.184  16.089  1.0026  0.7414 -0.8558
  655MPD2     N 9754   3.409   0.152  15.657 -0.7562 -0.2526  0.3979
  655MPD2    H5 9755   3.359   0.202  15.584  0.2831  1.1220  0.6377
  655MPD2    N1 9756   3.284   0.498  15.963  0.3981 -0.0147  0.5679
  655MPD2    H7 9757   3.212   0.525  15.896  0.1735 -0.0782  0.7859
  656TMC3    C1 9758   3.226   0.715  16.018 -0.1695 -1.0111 -0.6124
  656TMC3    C2 9759   3.142   0.782  16.099 -0.1336  0.3102  0.0758
  656TMC3    C3 9760   3.037   0.840  16.037 -0.2466  0.8043 -0.0492
  656TMC3    C4 9761   3.196   0.704  15.884 -0.2178 -0.3258 -0.1803
  656TMC3    C5 9762   3.085   0.764  15.829  0.6394 -0.0046  0.2036
  656TMC3    C6 9763   3.001   0.834  15.910 -0.1637 -0.4568  0.5054
  656TMC3     C 9764   3.284   0.591  16.065  0.5080  0.3841  0.2461
  656TMC3     O 9765   3.341   0.585  16.172  0.0905 -0.0494  0.3011
  656TMC3     H 9766   3.149   0.774  16.207  0.6372 -0.1745 -0.0090
  656TMC3    H1 9767   3.271   0.676  15.811  0.0260 -0.2663  0.0459
  656TMC3    H2 9768   2.907   0.879  15.882 -0.4743 -0.8768  0.8736
  656TMC3    C7 9769   3.014   0.660  15.753  0.4392  0.6493  0.1196
  656TMC3    C8 9770   2.917   0.832  16.116  0.1720 -0.4748 -0.2349
  656TMC3    O1 9771   3.073   0.554  15.746 -0.1218  0.1773  0.4753
  656TMC3    O2 9772   2.824   0.763  16.069  0.5185  0.6465 -0.4901
  657TMC3    C1 9773   2.251   4.078  15.399  0.4615  0.1681 -0.2863
  657TMC3    C2 9774   2.323   4.048  15.513  0.1230 -0.2044  0.1546
  657TMC3    C3 9775   2.324   4.134  15.620 -0.0268  0.2849  0.4819
  657TMC3    C4 9776   2.187   4.195  15.394 -0.8948 -0.4923 -0.2393
  657TMC3    C5 9777   2.184   4.270  15.509  0.1711 -0.5077  0.2832
  657TMC3    C6 9778   2.261   4.250  15.621  0.8675 -0.5541 -0.3909
  657TMC3     C 9779   2.205   3.963  15.327  0.0853 -0.3808  0.5967
  657TMC3     O 9780   2.117   3.992  15.250  0.7986  0.4094  0.1763
  657TMC3     H 9781   2.400   3.972  15.513 -1.1857 -1.5404  0.4010
  657TMC3    H1 9782   2.128   4.226  15.308 -1.4210 -1.7664 -0.3455
  657TMC3    H2 9783   2.248   4.310  15.710  1.2429  3.0499 -2.8095
  657TMC3    C7 9784   2.074   4.361  15.534 -0.4256  0.2008  0.2931
  657TMC3    C8 9785   2.409   4.108  15.737  0.1584  0.4194 -0.0958
  657TMC3    O1 9786   2.103   4.443  15.622 -0.0761  0.3154  0.2749
  657TMC3    O2 9787   2.437   4.204  15.806 -0.1371 -0.0295 -0.4796
  658MPD2     C 9788   3.708   0.495  15.253 -0.9952  0.2219 -0.6355
  658MPD2    C1 9789   3.688   0.392  15.156  0.0203  0.5100  0.4658
  658MPD2    C2 9790   3.665   0.425  15.025 -0.3974  0.8403  0.3902
  658MPD2    C3 9791   3.655   0.561  14.991  0.5342  0.6317  0.3326
  658MPD2    C4 9792   3.661   0.653  15.091  0.1564  0.4934 -0.0162
  658MPD2    C5 9793   3.695   0.628  15.221 -0.2446  0.4072 -0.1787
  658MPD2     H 9794   3.649   0.336  14.964 -0.7074 -0.1126  1.8604
  658MPD2    H1 9795   3.635   0.756  15.068 -0.6137  0.3893  0.4042
  658MPD2    H2 9796   3.730   0.463  15.354  1.0158  0.8127 -0.8797
  658MPD2    H3 9797   3.708   0.708  15.294  1.6681 -0.5790  0.5580
  658MPD2     N 9798   3.623   0.605  14.865  0.2022  0.1282  0.3296
  658MPD2    H5 9799   3.591   0.701  14.864  0.8487  0.3194 -1.1481
  658MPD2    N1 9800   3.680   0.262  15.209 -0.2748 -0.2414  0.0606
  658MPD2    H7 9801   3.674   0.265  15.310 -1.0673 -0.6123  0.0253
  659TMC3    C1 9802   3.561   0.062  15.233 -0.0077 -0.2757 -0.4412
  659TMC3    C2 9803   3.588   0.070  15.365 -0.1454 -0.8275 -0.8015
  659TMC3    C3 9804   3.484   0.046  15.455 -0.1280  0.0514 -0.5120
  659TMC3    C4 9805   3.430   0.038  15.186  0.3357 -0.1158  0.2429
  659TMC3    C5 9806   3.330   0.009  15.279  0.4696  0.4260 -0.7274
  659TMC3    C6 9807   3.356   0.016  15.412 -0.1803 -0.3283 -0.4130
  659TMC3     C 9808   3.642   0.147  15.143 -0.4111 -0.3905  0.2196
  659TMC3     O 9809   3.627   0.127  15.020 -0.1446 -0.7040  0.8254
  659TMC3     H 9810   3.687   0.099  15.398  0.1081 -0.3362 -2.0087
  659TMC3    H1 9811   3.411   0.056  15.081 -1.4511  0.6968  0.7119
  659TMC3    H2 9812   3.275   0.005  15.483 -0.0269 -1.5642 -0.4314
  659TMC3    C7 9813   3.193   4.712  15.253 -0.1523  0.8642 -0.4332
  659TMC3    C8 9814   3.507   0.065  15.601  0.2024 -0.2372 -0.2251
  659TMC3    O1 9815   3.132   4.643  15.336 -0.4357 -0.4611  0.0085
  659TMC3    O2 9816   3.605   0.010  15.649 -0.6055 -0.0730 -0.1268
  660MPD2     C 9817   2.042   3.476  12.587 -0.8916 -0.5784  0.2292
  660MPD2    C1 9818   1.936   3.561  12.586  0.2985  0.7904  0.0166
  660MPD2    C2 9819   1.869   3.568  12.705  0.1970 -0.1465 -0.0417
  660MPD2    C3 9820   1.920   3.507  12.823  0.3414 -0.5159  0.6297
  660MPD2    C4 9821   2.044   3.447  12.819  0.1348 -0.2250  0.0483
  660MPD2    C5 9822   2.104   3.427  12.699 -0.1187 -0.0989  0.1571
  660MPD2     H 9823   1.770   3.612  12.699  0.9553  1.6283  0.5756
  660MPD2    H1 9824   2.090   3.410  12.910  0.6748  1.8068  0.6055
  660MPD2    H2 9825   2.084   3.457  12.489  1.7469 -1.6978  1.5775
  660MPD2    H3 9826   2.198   3.374  12.687 -0.2616 -0.2054 -0.4668
  660MPD2     N 9827   1.856   3.507  12.946  0.6517 -0.1190  0.7719
  660MPD2    H5 9828   1.898   3.438  13.009  0.2244 -1.2867 -0.2208
  660MPD2    N1 9829   1.889   3.615  12.458  0.0854 -0.4470  0.4561
  660MPD2    H7 9830   1.937   3.585  12.374 -0.9745 -1.1208  0.1017
  661TMC3    C1 9831   1.740   3.743  12.320  0.6144  0.2962 -0.0022
  661TMC3    C2 9832   1.818   3.737  12.209 -0.6632 -0.1128  0.2355
  661TMC3    C3 9833   1.755   3.777  12.089  0.1864  0.3032 -0.2518
  661TMC3    C4 9834   1.617   3.801  12.325  0.3150  0.3949 -0.3997
  661TMC3    C5 9835   1.573   3.858  12.205 -1.2133 -0.6031 -0.2677
  661TMC3    C6 9836   1.633   3.839  12.082  0.4405  0.2073 -1.0196
  661TMC3     C 9837   1.785   3.700  12.446  0.4040  0.1999 -0.2124
  661TMC3     O 9838   1.717   3.745  12.537 -0.2561 -0.2763  0.0691
  661TMC3     H 9839   1.907   3.675  12.218 -0.4479 -0.1841 -2.6139
  661TMC3    H1 9840   1.550   3.801  12.411 -0.0965 -1.2965 -0.7215
  661TMC3    H2 9841   1.584   3.879  11.994  1.7025  6.2042  1.0277
  661TMC3    C7 9842   1.430   3.868  12.195 -0.1016  0.0985 -0.7263
  661TMC3    C8 9843   1.816   3.758  11.958  0.0236  0.0140  0.7451
  661TMC3    O1 9844   1.367   3.946  12.262 -0.1428  0.4974  0.3340
  661TMC3    O2 9845   1.748   3.788  11.863  0.5516 -0.6796  0.1195
  662MPD2     C 9846   1.566   3.883  16.729 -0.1910 -0.5784 -0.2037
  662MPD2    C1 9847   1.581   3.916  16.861 -0.0856 -0.5225 -0.7278
  662MPD2    C2 9848   1.502   4.015  16.917 -0.2701 -0.4305  0.0762
  662MPD2    C3 9849   1.411   4.086  16.843  0.3658  0.7828  0.5606
  662MPD2    C4 9850   1.387   4.047  16.716  0.0686 -0.7542 -0.2592
  662MPD2    C5 9851   1.464   3.945  16.663  0.4631 -0.0409 -0.1423
  662MPD2     H 9852   1.514   4.050  17.018  1.8272 -0.0457 -0.2926
  662MPD2    H1 9853   1.313   4.094  16.653 -0.6103 -0.1971  0.9524
  662MPD2    H2 9854   1.600   3.791  16.683  0.8122 -0.2226 -0.1575
  662MPD2    H3 9855   1.459   3.915  16.559 -0.2818 -1.5545  0.3257
  662MPD2     N 9856   1.324   4.192  16.901  0.1657  0.3550  0.5406
  662MPD2    H5 9857   1.236   4.211  16.855 -0.6050 -0.9152  1.4975
  662MPD2    N1 9858   1.657   3.841  16.950  0.1649  0.1727  0.0098
  662MPD2    H7 9859   1.634   3.865  17.045 -0.5850  0.1585 -0.1700
  663TMC3    C1 9860   1.819   3.679  17.027 -0.5056  0.0790  0.3314
  663TMC3    C2 9861   1.764   3.686  17.155 -0.2178 -0.1642  0.2257
  663TMC3    C3 9862   1.805   3.607  17.255 -0.4951  0.0102 -0.0997
  663TMC3    C4 9863   1.907   3.581  16.990 -0.3384  0.2103 -0.1909
  663TMC3    C5 9864   1.941   3.497  17.090 -0.5695 -0.1616  0.4533
  663TMC3    C6 9865   1.899   3.511  17.218  0.3617  0.0150  0.8409
  663TMC3     C 9866   1.743   3.740  16.916  0.0659  0.7395 -0.4332
  663TMC3     O 9867   1.802   3.722  16.809  0.1630 -0.2817  0.4990
  663TMC3     H 9868   1.666   3.729  17.171 -0.2183 -0.4198  0.9086
  663TMC3    H1 9869   1.942   3.555  16.891  0.4499  0.4718  0.0187
  663TMC3    H2 9870   1.900   3.423  17.281 -1.4979 -1.3551 -1.0493
  663TMC3    C7 9871   1.929   3.365  17.030  1.0017 -0.3016  0.6336
  663TMC3    C8 9872   1.686   3.536  17.298 -0.1012  1.1186  0.0060
  663TMC3    O1 9873   2.009   3.339  16.942 -0.8454 -0.0503  0.3366
  663TMC3    O2 9874   1.625   3.487  17.207  0.6504 -0.4798  0.6130
  664MPD2     C 9875   4.316   1.504  17.458  0.4017 -0.4097 -0.7007
  664MPD2    C1 9876   4.318   1.641  17.470  0.1600  0.3425 -0.4728
  664MPD2    C2 9877   4.276   1.695  17.588  0.0589 -0.1381  0.1037
  664MPD2    C3 9878   4.228   1.618  17.690  0.1610  0.7012  0.3548
  664MPD2    C4 9879   4.234   1.477  17.680 -0.2516  0.0504 -0.2756
  664MPD2    C5 9880   4.266   1.423  17.559 -0.6715 -0.0870  0.0447
  664MPD2     H 9881   4.274   1.802  17.606 -1.2353 -0.1576  0.1013
  664MPD2    H1 9882   4.214   1.411   0.024  1.9340 -1.0144 -0.5945
  664MPD2    H2 9883   4.349   1.449  17.370  1.9525  0.0877 -0.4251
  664MPD2    H3 9884   4.285   1.316  17.551  0.8550  0.1028  1.1074
  664MPD2     N 9885   4.194   1.691   0.071 -0.2430  0.3611  0.2080
  664MPD2    H5 9886   4.187   1.790   0.049 -0.8772  0.0606 -0.9436
  664MPD2    N1 9887   4.380   1.721  17.374 -0.4944  0.3252 -0.2443
  664MPD2    H7 9888   4.380   1.821  17.393  0.1461  0.3147 -0.1718
  665TMC3    C1 9889   4.127   1.741   0.285  0.6806 -0.6281 -0.1015
  665TMC3    C2 9890   4.024   1.761   0.373  0.7524 -0.1836 -0.3653
  665TMC3    C3 9891   4.033   1.857   0.473  0.6508 -0.2337 -0.3065
  665TMC3    C4 9892   4.216   1.841   0.287  0.3910 -0.6145 -0.0920
  665TMC3    C5 9893   4.231   1.931   0.386 -0.1097  0.1963  0.5580
  665TMC3    C6 9894   4.139   1.941   0.485 -0.1116  0.8061  0.0592
  665TMC3     C 9895   4.136   1.639   0.181 -0.1549 -0.5044  0.3636
  665TMC3     O 9896   4.101   1.523   0.198  0.0672 -0.5615  0.0066
  665TMC3     H 9897   3.945   1.687   0.378  2.0438 -1.4354  1.4307
  665TMC3    H1 9898   4.309   1.824   0.233 -0.1556 -0.7270 -1.0018
  665TMC3    H2 9899   4.135   2.022   0.557  0.8511 -0.0772  1.1069
  665TMC3    C7 9900   4.309   2.050   0.355  0.8953  0.3987 -0.1374
  665TMC3    C8 9901   3.914   1.902   0.540  0.3647  0.2165  0.7400
  665TMC3    O1 9902   4.345   2.060   0.236 -0.3113 -0.5497 -0.0144
  665TMC3    O2 9903   3.928   1.995   0.624 -0.2073 -0.3903  0.3937
  666TMC3    C1 9904   4.725   1.209   9.718 -0.3459  0.2420 -0.1517
  666TMC3    C2 9905   0.038   1.140   9.826  0.2261 -0.1402  0.0349
  666TMC3    C3 9906   0.116   1.217   9.902  0.4564 -0.3255 -0.8204
  666TMC3    C4 9907   4.731   1.348   9.707 -0.0697 -0.2142 -0.5490
  666TMC3    C5 9908   0.086   1.412   9.780 -0.4835  0.3777  0.2971
  666TMC3    C6 9909   0.143   1.350   9.885 -0.4763  0.4626 -0.6215
  666TMC3     C 9910   4.659   1.140   9.606  0.3519 -0.6574 -0.1486
  666TMC3     O 9911   4.660   1.187   9.494  0.0771  0.1686 -0.3366
  666TMC3     H 9912   0.015   1.036   9.849  2.7215 -0.7178 -0.1426
  666TMC3    H1 9913   4.694   1.402   9.621  1.6481 -1.1257 -1.8615
  666TMC3    H2 9914   0.182   1.409   9.968 -0.8242 -1.1414  0.6883
  666TMC3    C7 9915   0.045   1.554   9.802  0.2635  0.7790  0.2814
  666TMC3    C8 9916   0.135   1.171  10.042 -0.4535  0.8741  0.1514
  666TMC3    O1 9917   4.677   1.596   9.746  0.1116 -0.2350  0.1555
  666TMC3    O2 9918   0.053   1.087  10.082  0.7877 -0.2072  0.4542
  667MPD2     C 9919   1.000   1.917  14.277  0.3498  0.5415 -1.4242
  667MPD2    C1 9920   0.946   1.923  14.407 -0.1388 -0.2018  0.3192
  667MPD2    C2 9921   0.849   1.827  14.444 -0.3652  0.2812 -0.5972
  667MPD2    C3 9922   0.807   1.730  14.357 -0.0326  0.3315  0.6206
  667MPD2    C4 9923   0.870   1.727  14.231 -0.2802 -0.2945  0.5353
  667MPD2    C5 9924   0.960   1.822  14.191 -0.4660 -0.2044  0.0981
  667MPD2     H 9925   0.812   1.831  14.546  1.9040  1.0809  0.1884
  667MPD2    H1 9926   0.849   1.640  14.170  0.9460  0.7538 -1.3688
  667MPD2    H2 9927   1.073   1.996  14.258  0.6518  0.6607  0.2198
  667MPD2    H3 9928   1.000   1.810  14.091  1.2695 -0.7868  0.8629
  667MPD2     N 9929   0.703   1.638  14.384  0.2047  0.0871  0.3563
  667MPD2    H5 9930   0.693   1.568  14.310  2.7586  0.0952 -0.0164
  667MPD2    N1 9931   0.967   2.027  14.496  0.3821 -0.0446 -0.1609
  667MPD2    H7 9932   0.921   2.018  14.586 -0.6788  2.8024 -0.4328
  668TMC3    C1 9933   1.074   2.210  14.610  0.0082  0.0519  0.4219
  668TMC3    C2 9934   1.184   2.294  14.617  0.8722  0.1252 -0.1365
  668TMC3    C3 9935   1.188   2.369  14.734 -0.5724 -0.0126 -0.0870
  668TMC3    C4 9936   0.979   2.191  14.707 -0.1802  0.7574 -0.2744
  668TMC3    C5 9937   0.992   2.267  14.823 -0.3171  0.1533 -0.6542
  668TMC3    C6 9938   1.094   2.361  14.836 -0.4154  0.9701  0.3887
  668TMC3     C 9939   1.065   2.128  14.486  0.2431 -0.0918  1.3786
  668TMC3     O 9940   1.160   2.132  14.408 -0.4156  0.2926 -0.2574
  668TMC3     H 9941   1.255   2.304  14.536 -0.8898  2.3282 -1.4031
  668TMC3    H1 9942   0.897   2.120  14.702 -0.4405  1.0985 -0.7991
  668TMC3    H2 9943   1.106   2.423  14.923 -1.4826  1.5505  0.1150
  668TMC3    C7 9944   0.957   2.212  14.954  0.1751  0.4970  0.3684
  668TMC3    C8 9945   1.275   2.482  14.759  0.4099  0.0847  0.4093
  668TMC3    O1 9946   1.012   2.260  15.051  0.2015 -0.3490  0.2400
  668TMC3    O2 9947   1.239   2.561  14.842  0.2839 -0.2119  0.0869
  669TMC3    C1 9948   3.876   1.880  14.519  0.2607 -0.2995  0.1434
  669TMC3    C2 9949   3.766   1.916  14.453  0.1770 -0.1968 -0.7850
  669TMC3    C3 9950   3.782   1.982  14.339 -0.2565  0.2177  0.1955
  669TMC3    C4 9951   4.002   1.909  14.471 -0.0689  0.5067 -0.2200
  669TMC3    C5 9952   4.011   1.976  14.349 -0.0246  0.4751  0.7271
  669TMC3    C6 9953   3.900   2.013  14.278  0.9170 -0.1919  0.6778
  669TMC3     C 9954   3.858   1.795  14.632  0.0977  0.3731  0.8334
  669TMC3     O 9955   3.756   1.822  14.699  0.1291  0.0434 -0.4712
  669TMC3     H 9956   3.673   1.882  14.497  0.7191  0.9373  1.2143
  669TMC3    H1 9957   4.079   1.901  14.546 -0.1178 -1.3810 -0.3836
  669TMC3    H2 9958   3.917   2.062  14.183  0.5543 -1.8716 -0.2549
  669TMC3    C7 9959   4.143   2.021  14.299  0.0566 -0.8276 -0.2454
  669TMC3    C8 9960   3.656   2.029  14.276 -0.1020 -0.3408 -0.5056
  669TMC3    O1 9961   4.148   2.102  14.208  0.2631  0.5467 -0.5774
  669TMC3    O2 9962   3.552   2.002  14.332 -0.1780  0.0761 -0.1637
  670MPD2     C 9963   1.796   4.411  13.486  0.1771 -0.0510  0.4670
  670MPD2    C1 9964   1.926   4.417  13.542  0.3412 -0.4653 -0.3543
  670MPD2    C2 9965   1.940   4.384  13.677 -0.8027  0.7273  0.2783
  670MPD2    C3 9966   1.828   4.339  13.742  0.0641  0.7082  0.0512
  670MPD2    C4 9967   1.698   4.340  13.691  0.0892  0.2785  0.6088
  670MPD2    C5 9968   1.692   4.376  13.565 -0.4614 -0.1292  0.0468
  670MPD2     H 9969   2.034   4.382  13.731  0.2057 -1.9935 -1.5949
  670MPD2    H1 9970   1.608   4.320  13.747  0.2438  1.0004  1.1167
  670MPD2    H2 9971   1.774   4.440  13.384 -1.3702 -1.9219  0.2697
  670MPD2    H3 9972   1.593   4.382  13.522  0.1614 -0.4454 -1.4220
  670MPD2     N 9973   1.850   4.302  13.879 -0.6541 -0.1860  0.2966
  670MPD2    H5 9974   1.939   4.321  13.924 -0.5698  3.1019 -1.2854
  670MPD2    N1 9975   2.047   4.436  13.465  0.1780  0.3129 -1.0437
  670MPD2    H7 9976   2.139   4.429  13.507 -0.6654 -0.8990  0.5900
  671TMC3    C1 9977   1.787   4.225  14.094 -0.2512  0.1568  0.7784
  671TMC3    C2 9978   1.912   4.252  14.143  0.3083 -0.1173 -0.5383
  671TMC3    C3 9979   1.956   4.194  14.261  0.2582  0.0416 -0.3249
  671TMC3    C4 9980   1.701   4.144  14.158  0.0407  0.2002 -0.6350
  671TMC3    C5 9981   1.748   4.093  14.277  0.2478 -0.7543 -0.7391
  671TMC3    C6 9982   1.866   4.117  14.334 -0.4546  0.4137 -1.2908
  671TMC3     C 9983   1.751   4.241  13.956 -0.0545 -0.6690 -0.2764
  671TMC3     O 9984   1.643   4.192  13.922  0.0654 -0.0347 -0.5258
  671TMC3     H 9985   1.989   4.302  14.085  1.3223 -1.8513 -0.7059
  671TMC3    H1 9986   1.595   4.148  14.134 -0.2294  2.3716  0.9058
  671TMC3    H2 9987   1.884   4.064  14.427  2.9975  0.9153 -1.6862
  671TMC3    C7 9988   1.712   3.954  14.295 -0.0186 -0.3653 -0.3633
  671TMC3    C8 9989   2.080   4.131  14.251  0.0624  0.3020 -0.1971
  671TMC3    O1 9990   1.748   3.887  14.390  0.1235  0.4766  0.0763
  671TMC3    O2 9991   2.104   4.106  14.133 -0.6689 -0.6675 -0.0545
  672MPD2     C 9992   2.015   0.195   0.983 -0.0870 -1.0905 -0.2544
  672MPD2    C1 9993   2.082   0.092   1.049  0.4262  0.0686 -0.4022
  672MPD2    C2 9994   2.170   0.124   1.151  0.4715 -0.4240 -0.1324
  672MPD2    C3 9995   2.178   0.257   1.197  0.2735  0.5296  0.0290
  672MPD2    C4 9996   2.118   0.354   1.132 -0.6779  0.4941 -0.3799
  672MPD2    C5 9997   2.032   0.321   1.033  0.3993 -0.6266 -0.1855
  672MPD2     H 9998   2.219   0.038   1.195  0.0329  0.1369  1.4353
  672MPD2    H1 9999   2.133   0.460   1.151 -1.8316  0.4567  0.7381
  672MPD2    H210000   1.941   0.187   0.905  0.2376 -0.1208 -0.6508
  672MPD2    H310001   1.980   0.394   0.974 -1.4673 -0.5486  1.5720
  672MPD2     N10002   2.266   0.292   1.302  0.0084 -0.0516 -0.2707
  672MPD2    H510003   2.288   0.391   1.306  1.9122 -0.4873  0.3384
  672MPD2    N110004   2.060   4.692   1.015 -0.0680 -0.0607  0.1368
  672MPD2    H710005   2.115   4.619   1.058  0.5995  0.7136  0.5905
  673TMC3    C110006   1.943   4.513   0.911  0.4752  0.1507 -0.0956
  673TMC3    C210007   2.057   4.454   0.866  0.8650  0.4135 -0.1011
  673TMC3    C310008   2.044   4.345   0.780  0.4189  0.2035  0.0063
  673TMC3    C410009   1.822   4.474   0.865 -0.1581  0.1992 -0.1822
  673TMC3    C510010   1.818   4.382   0.769  0.3703  0.6153 -0.6686
  673TMC3    C610011   1.923   4.316   0.723 -0.4096 -0.1396  0.3840
  673TMC3     C10012   1.953   4.655   0.932  0.1383  0.0283  0.0110
  673TMC3     O10013   1.873   4.716   0.866 -0.0718  0.0602  0.2979
  673TMC3     H10014   2.157   4.490   0.888  0.4555  0.7012  1.2992
  673TMC3    H110015   1.732   4.525   0.895  0.5907 -0.1007  2.5553
  673TMC3    H210016   1.895   4.251   0.641 -2.3151  0.4675  0.5414
  673TMC3    C710017   1.715   4.409   0.673 -0.0613  0.3279  0.6904
  673TMC3    C810018   2.148   4.254   0.740 -0.0836  1.3279  0.2156
  673TMC3    O110019   1.657   4.321   0.607  0.2687 -0.5158 -0.0301
  673TMC3    O210020   2.125   4.153   0.677 -0.0336 -0.1569  0.0667
  674MPD2     C10021   1.698   0.348   0.179  0.4845 -0.6144 -0.0843
  674MPD2    C110022   1.622   0.237   0.142 -0.3230  0.0833  0.0869
  674MPD2    C210023   1.511   0.266   0.059 -0.1920 -0.4031 -1.0471
  674MPD2    C310024   1.479   0.397   0.024 -0.1619  0.2839  0.8284
  674MPD2    C410025   1.551   0.501   0.072  0.1578  0.1983  0.1155
  674MPD2    C510026   1.661   0.471   0.142 -0.5437 -0.0973  0.3022
  674MPD2     H10027   1.443   0.187   0.029 -0.4976 -1.0844  1.4317
  674MPD2    H110028   1.519   0.604   0.055 -1.9532 -0.3700  0.5840
  674MPD2    H210029   1.789   0.342   0.237  0.5320  0.4652 -0.0526
  674MPD2    H310030   1.716   0.560   0.171 -0.3291 -0.3707  0.7294
  674MPD2     N10031   1.354   0.403  17.706  0.5689  0.4161  0.1520
  674MPD2    H510032   1.301   0.317  17.691  1.3718 -0.5258  2.7903
  674MPD2    N110033   1.659   0.107   0.176 -0.2557 -0.6419  0.6417
  674MPD2    H710034   1.729   0.108   0.250  1.3375  0.0115 -0.8932
  675TMC3    C110035   1.644   4.607   0.220 -0.0425  0.2816 -0.1134
  675TMC3    C210036   1.566   4.492   0.213 -0.0941  0.9134  0.3287
  675TMC3    C310037   1.618   4.378   0.275  0.5774 -0.6037  0.4249
  675TMC3    C410038   1.767   4.613   0.278 -0.0764  0.0208 -0.2518
  675TMC3    C510039   1.813   4.496   0.333  0.1333  0.2716 -0.1377
  675TMC3    C610040   1.739   4.381   0.339  0.2113 -0.2341  0.1351
  675TMC3     C10041   1.598   4.725   0.140 -0.2159 -0.1438 -0.6059
  675TMC3     O10042   1.496   4.709   0.072 -0.4822 -0.2258  0.8328
  675TMC3     H10043   1.467   4.493   0.169 -0.1653  0.0311  0.4602
  675TMC3    H110044   1.835   4.697   0.266  2.4978 -2.1267 -0.7106
  675TMC3    H210045   1.780   4.294   0.389  2.1181 -0.3646 -1.6833
  675TMC3    C710046   1.947   4.489   0.394  0.0852  0.3438  0.4146
  675TMC3    C810047   1.532   4.261   0.279 -0.3015 -0.2623  0.3272
  675TMC3    O110048   1.991   4.378   0.417  0.0341  0.5299 -0.5778
  675TMC3    O210049   1.479   4.235   0.169  0.2527 -0.4600  0.7164
  676MPD2     C10050   0.187   2.948  11.094  0.0776  0.5943  0.1589
  676MPD2    C110051   0.108   2.878  11.186  0.2749 -0.2010  0.6329
  676MPD2    C210052   0.114   2.739  11.171 -0.6533 -0.0626  0.4312
  676MPD2    C310053   0.183   2.675  11.063  0.2669  0.2385  0.0199
  676MPD2    C410054   0.247   2.751  10.974  0.4803 -0.1197 -0.0382
  676MPD2    C510055   0.238   2.886  10.980 -0.0928 -0.5818 -0.2409
  676MPD2     H10056   0.066   2.674  11.243 -2.1156  2.9826  2.1911
  676MPD2    H110057   0.285   2.707  10.882 -0.2260  0.3276 -0.5358
  676MPD2    H210058   0.187   3.057  11.100  1.5365  0.5481  1.0052
  676MPD2    H310059   0.278   2.945  10.898 -1.0430  1.0415  0.4576
  676MPD2     N10060   0.188   2.533  11.051 -0.1413 -0.2799 -0.1670
  676MPD2    H510061   0.253   2.491  10.986 -0.6526 -1.3672  0.0276
  676MPD2    N110062   0.034   2.923  11.295  0.1075 -0.1742  0.2723
  676MPD2    H710063   0.002   2.852  11.360  2.1981 -0.0267  1.4534
  677TMC3    C110064   4.725   3.070  11.473 -0.5740  1.1706  0.6171
  677TMC3    C210065   4.664   2.964  11.533 -0.0777 -0.1898 -0.0324
  677TMC3    C310066   4.609   2.987  11.657 -1.0459  0.2727  0.0680
  677TMC3    C410067   0.004   3.190  11.538 -0.3713  0.1222 -0.5573
  677TMC3    C510068   4.675   3.209  11.655 -0.0446 -0.0978  0.3506
  677TMC3    C610069   4.605   3.110  11.717 -0.0298  0.1216 -0.0525
  677TMC3     C10070   0.047   3.051  11.345 -0.5964  0.0403 -0.3556
  677TMC3     O10071   0.092   3.153  11.296 -0.1216  0.0538 -0.2100
  677TMC3     H10072   4.642   2.865  11.493  0.6305 -0.2350 -0.3169
  677TMC3    H110073   0.046   3.272  11.481  2.0470  1.4734  3.1178
  677TMC3    H210074   4.563   3.130  11.814  1.0632 -1.9089  0.8325
  677TMC3    C710075   0.022   3.286  11.754 -0.1436 -0.1753  0.7953
  677TMC3    C810076   4.594   2.862  11.732  0.0900 -0.9182  0.1400
  677TMC3    O110077   4.703   3.324  11.861 -0.2719  0.1602 -0.3708
  677TMC3    O210078   4.668   2.776  11.686 -0.1972 -0.1271 -0.3103
  678MPD2     C10079   1.033   2.962   1.522  0.3594 -0.1156  0.0007
  678MPD2    C110080   1.045   3.055   1.426  0.3072 -0.3194 -0.6920
  678MPD2    C210081   0.949   3.064   1.341 -0.5749  0.4302  0.7525
  678MPD2    C310082   0.831   2.988   1.345  0.7236 -0.1518 -0.4756
  678MPD2    C410083   0.818   2.890   1.441 -0.1646 -0.4759 -0.3942
  678MPD2    C510084   0.926   2.877   1.533  0.2346 -0.0542  0.1111
  678MPD2     H10085   0.972   3.130   1.258  0.8371  0.1397  0.9145
  678MPD2    H110086   0.733   2.822   1.443 -2.0367  1.9008  1.4182
  678MPD2    H210087   1.105   2.957   1.603 -0.0841  2.3996  0.5385
  678MPD2    H310088   0.911   2.808   1.615 -0.8665 -0.0205 -0.0486
  678MPD2     N10089   0.730   3.014   1.253  0.4230 -0.0279  0.5985
  678MPD2    H510090   0.755   3.082   1.182  2.0789  0.2831  1.4898
  678MPD2    N110091   1.150   3.158   1.429 -0.3157  0.2473 -0.3595
  678MPD2    H710092   1.133   3.235   1.364  0.9088  1.1785  0.4149
  679TMC3    C110093   1.554   3.379   1.529 -0.3997  1.0662 -0.0951
  679TMC3    C210094   1.446   3.302   1.571  0.8516 -0.0326  0.1067
  679TMC3    C310095   1.342   3.288   1.488  0.1569 -0.3961 -0.0044
  679TMC3    C410096   1.558   3.444   1.407  0.5145  0.2484  0.0147
  679TMC3    C510097   1.463   3.405   1.325 -0.7499 -0.0274  0.0975
  679TMC3    C610098   1.354   3.331   1.361  0.4506  0.3459  0.0507
  679TMC3     C10099   1.666   3.376   1.617 -0.6865  0.4744 -0.2882
  679TMC3     O10100   1.641   3.360   1.737  0.7239 -0.8395 -0.2213
  679TMC3     H10101   1.445   3.241   1.661  2.6478  0.1139  0.2330
  679TMC3    H110102   1.630   3.522   1.381  1.3718 -0.7695 -0.6515
  679TMC3    H210103   1.282   3.312   1.282 -2.1226 -0.1699  2.5007
  679TMC3    C710104   1.473   3.448   1.184  0.4834 -0.5584  0.7396
  679TMC3    C810105   1.265   3.164   1.505  0.4147  0.4528  0.5675
  679TMC3    O110106   1.363   3.455   1.129 -1.1566  0.0121 -0.3885
  679TMC3    O210107   1.317   3.070   1.565 -0.5020 -0.0538  0.1219
  680MPD2     C10108   1.831   1.468  13.513 -0.0082  0.2995  0.3405
  680MPD2    C110109   1.824   1.385  13.620 -0.4962 -0.7581 -0.4303
  680MPD2    C210110   1.859   1.433  13.741 -0.5720 -0.0006 -0.0404
  680MPD2    C310111   1.922   1.558  13.757 -0.0286 -0.0477 -0.2577
  680MPD2    C410112   1.934   1.636  13.649 -0.1096  0.2110  0.6379
  680MPD2    C510113   1.888   1.597  13.531 -0.3394  0.0677 -0.5985
  680MPD2     H10114   1.858   1.372  13.830 -0.4512 -0.0759 -0.0909
  680MPD2    H110115   1.976   1.736  13.652 -0.0833  0.1755  1.4040
  680MPD2    H210116   1.781   1.445  13.419  0.2420  2.5752 -0.3472
  680MPD2    H310117   1.875   1.672  13.454 -0.8907 -0.2528 -0.8251
  680MPD2     N10118   1.958   1.617  13.879  0.2874 -0.2719  0.1911
  680MPD2    H510119   2.001   1.709  13.871 -0.9141  0.1777 -1.1751
  680MPD2    N110120   1.776   1.250  13.602 -0.1188  0.1878  0.5134
  680MPD2    H710121   1.752   1.212  13.511 -1.4197 -0.5637  1.1760
  681TMC3    C110122   1.694   1.045  13.645  0.3470  0.2345  0.2957
  681TMC3    C210123   1.621   0.979  13.739 -0.6344  0.2830 -0.8811
  681TMC3    C310124   1.627   0.842  13.720 -0.3972 -0.4333 -0.1537
  681TMC3    C410125   1.770   0.985  13.550  0.0856 -0.4544 -0.3330
  681TMC3    C510126   1.754   0.852  13.530 -0.6119  0.8853  0.2954
  681TMC3    C610127   1.683   0.776  13.618 -0.4185 -0.0876  0.1022
  681TMC3     C10128   1.747   1.166  13.700  1.3708  0.3826  0.1496
  681TMC3     O10129   1.742   1.178  13.824  0.0758  0.1905 -0.1786
  681TMC3     H10130   1.568   1.031  13.817 -0.0867  0.5097 -0.6593
  681TMC3    H110131   1.847   1.046  13.505  0.4120 -0.7015 -0.1095
  681TMC3    H210132   1.671   0.671  13.598 -0.0391  0.1532 -1.4242
  681TMC3    C710133   1.877   0.782  13.494 -0.2593 -1.0773  0.0766
  681TMC3    C810134   1.538   0.760  13.801  0.7194  0.4550  0.8139
  681TMC3    O110135   1.893   0.675  13.554 -0.2542  0.3319  0.1652
  681TMC3    O210136   1.488   0.665  13.746 -0.1083  0.0689 -0.0321
  682MPD2     C10137   4.060   2.609  10.408 -0.0823 -0.5407 -1.0142
  682MPD2    C110138   4.037   2.476  10.391 -0.7266  0.9767  0.1334
  682MPD2    C210139   3.937   2.416  10.463 -0.1471 -0.0018  0.0883
  682MPD2    C310140   3.865   2.484  10.551  0.2738 -0.5765  0.2552
  682MPD2    C410141   3.892   2.616  10.571 -0.7585  0.0102 -0.2011
  682MPD2    C510142   3.991   2.680  10.498  0.5190 -0.0740 -0.2869
  682MPD2     H10143   3.906   2.315  10.437 -0.2955  0.0390  0.1057
  682MPD2    H110144   3.849   2.666  10.657  0.7705  1.4125 -0.2656
  682MPD2    H210145   4.140   2.653  10.349  1.0551 -0.1595  0.8007
  682MPD2    H310146   4.005   2.783  10.528 -1.6123 -0.0456  0.6386
  682MPD2     N10147   3.765   2.422  10.633  0.0508  0.7370  0.2574
  682MPD2    H510148   3.737   2.470  10.718  1.4966 -0.3834  1.3661
  682MPD2    N110149   4.104   2.396  10.299  0.0532 -0.3829  0.0568
  682MPD2    H710150   4.060   2.304  10.296 -3.0882  1.1327 -0.3994
  683TMC3    C110151   3.492   2.289  10.879  0.8186  0.6570  0.0672
  683TMC3    C210152   3.437   2.166  10.879  0.4250 -0.2512 -0.1899
  683TMC3    C310153   3.485   2.090  10.778  0.5499  0.4008 -0.2205
  683TMC3    C410154   3.572   2.343  10.787 -0.2775  0.3773  0.5867
  683TMC3    C510155   3.607   2.262  10.690 -0.4398  0.2502  0.0178
  683TMC3    C610156   3.589   2.127  10.694 -0.3108 -0.2907 -0.2074
  683TMC3     C10157   3.477   2.370  10.999 -0.7297 -0.1202 -0.0793
  683TMC3     O10158   3.492   2.488  10.987 -0.1530 -0.7743  0.2350
  683TMC3     H10159   3.360   2.135  10.948  0.6902  0.3574  0.3861
  683TMC3    H110160   3.587   2.450  10.791  0.0073  0.4206 -1.5125
  683TMC3    H210161   3.611   2.061  10.611  2.1117  0.2511  0.0053
  683TMC3    C710162   3.705   2.304  10.603  0.7430 -0.0879 -0.3508
  683TMC3    C810163   3.438   1.949  10.786 -0.4109  0.5349  0.4534
  683TMC3    O110164   3.721   2.226  10.509 -0.8083  0.4092  0.3403
  683TMC3    O210165   3.317   1.929  10.779  0.0044  0.0403 -0.0205
  684MPD2     C10166   1.669   2.076  16.605 -0.3465 -0.1434  0.1803
  684MPD2    C110167   1.655   2.088  16.469 -0.8350  0.3539 -0.7742
  684MPD2    C210168   1.651   2.219  16.420  0.3518 -0.0744 -0.9168
  684MPD2    C310169   1.689   2.328  16.500  0.2542 -0.8272 -0.2648
  684MPD2    C410170   1.726   2.303  16.637 -0.0796  0.1376 -0.3917
  684MPD2    C510171   1.714   2.175  16.688  0.0072  0.5161  0.6732
  684MPD2     H10172   1.637   2.237  16.314 -0.2190  0.4046 -0.7613
  684MPD2    H110173   1.745   2.391  16.697 -0.8509 -1.8760  2.8102
  684MPD2    H210174   1.668   1.972  16.637 -2.5325  0.1983  1.2073
  684MPD2    H310175   1.735   2.162  16.793 -0.9245 -2.7381  0.4654
  684MPD2     N10176   1.689   2.461  16.452 -0.1296  0.7968  0.6960
  684MPD2    H510177   1.740   2.526  16.511  0.9416  2.9368 -2.6238
  684MPD2    N110178   1.650   1.987  16.372 -0.7810  0.2070  0.4246
  684MPD2    H710179   1.666   2.018  16.276 -0.9219 -0.1340  0.2926
  685TMC3    C110180   1.646   1.774  16.271 -0.1735  0.2422 -0.1797
  685TMC3    C210181   1.573   1.818  16.159  0.6200  0.9303 -0.2308
  685TMC3    C310182   1.623   1.776  16.035 -0.1480  0.6703 -0.1307
  685TMC3    C410183   1.766   1.709  16.263  0.6635 -0.6662 -0.0293
  685TMC3    C510184   1.809   1.673  16.138 -0.2069  0.3913  0.6277
  685TMC3    C610185   1.732   1.693  16.024 -0.3658  0.4098 -0.5548
  685TMC3     C10186   1.643   1.848  16.395  0.0907 -0.2906 -0.5471
  685TMC3     O10187   1.652   1.793  16.505  0.7636  0.4546  0.1596
  685TMC3     H10188   1.479   1.870  16.172  0.4104  0.3843  0.4363
  685TMC3    H110189   1.815   1.677  16.354  0.4357 -4.5925 -1.2973
  685TMC3    H210190   1.771   1.659  15.928  0.0599  2.1029 -0.9810
  685TMC3    C710191   1.944   1.628  16.117  0.4602  0.1483 -0.0103
  685TMC3    C810192   1.545   1.796  15.910 -0.3203  0.3015  0.1402
  685TMC3    O110193   1.973   1.574  16.008  0.5124  0.7079 -0.3463
  685TMC3    O210194   1.570   1.731  15.810 -0.0871 -0.2972  0.1642
  686MPD2     C10195   3.435   1.879  15.399  0.0150 -0.3233  0.9185
  686MPD2    C110196   3.425   1.829  15.529  0.2932 -0.9778 -0.3764
  686MPD2    C210197   3.493   1.719  15.561 -0.9970 -0.2978 -0.4121
  686MPD2    C310198   3.557   1.640  15.468 -0.5154  0.1280 -0.0459
  686MPD2    C410199   3.571   1.691  15.338 -0.2201 -0.0933  0.2212
  686MPD2    C510200   3.516   1.814  15.311 -0.3656 -1.4009  0.5487
  686MPD2     H10201   3.499   1.695  15.667 -0.8857  1.2016 -0.0865
  686MPD2    H110202   3.623   1.636  15.260 -0.3946  2.5768 -1.7855
  686MPD2    H210203   3.393   1.973  15.364  3.2765  1.3905  1.5840
  686MPD2    H310204   3.531   1.860  15.214  0.2037 -0.3784  1.1295
  686MPD2     N10205   3.616   1.515  15.491 -1.0776  0.9836 -0.3250
  686MPD2    H510206   3.681   1.485  15.419 -0.3314  0.1747  0.6874
  686MPD2    N110207   3.341   1.891  15.620  0.0810 -0.2068  0.3204
  686MPD2    H710208   3.295   1.976  15.589  1.6173 -0.3963 -2.4317
  687TMC3    C110209   3.497   1.460  15.696  0.1013  0.0084  0.1799
  687TMC3    C210210   3.369   1.478  15.665  0.2217  0.7251  0.2458
  687TMC3    C310211   3.288   1.498  15.771 -0.3709 -1.3218  0.0863
  687TMC3    C410212   3.556   1.441  15.817 -0.4948 -0.3496  0.1253
  687TMC3    C510213   3.469   1.471  15.910  0.8138 -0.4196  0.0168
  687TMC3    C610214   3.336   1.502  15.895 -0.1227  0.1124 -0.7579
  687TMC3     C10215   3.593   1.427  15.590 -0.5437  0.3176 -0.3230
  687TMC3     O10216   3.668   1.328  15.603 -0.1413 -0.0323 -0.7333
  687TMC3     H10217   3.345   1.476  15.559  0.6330  0.5230  0.1559
  687TMC3    H110218   3.662   1.427  15.832 -0.9874 -2.2362  1.9896
  687TMC3    H210219   3.277   1.526  15.982 -1.9436 -1.1199 -1.6580
  687TMC3    C710220   3.523   1.515  16.035  0.2203 -0.4293  0.2517
  687TMC3    C810221   3.149   1.533  15.751  0.2602 -0.1611 -0.2553
  687TMC3    O110222   3.613   1.454  16.085 -0.2557  0.2332 -0.3268
  687TMC3    O210223   3.089   1.530  15.861 -0.5066  0.3712  0.8674
  688MPD2     C10224   2.363   1.196  17.525 -0.7355 -0.3723 -0.8391
  688MPD2    C110225   2.415   1.069  17.552 -0.4887 -0.4168 -0.4687
  688MPD2    C210226   2.480   1.003  17.451  0.3219 -0.5077 -0.0487
  688MPD2    C310227   2.520   1.070  17.332 -0.2833  0.4099 -0.5867
  688MPD2    C410228   2.476   1.199  17.315  0.4100 -0.0170  0.1394
  688MPD2    C510229   2.393   1.265  17.408  0.1297 -0.0132 -0.1265
  688MPD2     H10230   2.509   0.900  17.471 -0.7982 -0.2251  3.0143
  688MPD2    H110231   2.495   1.259  17.227 -0.4279 -1.2889 -0.9005
  688MPD2    H210232   2.308   1.249  17.603 -0.2261 -1.4475  0.2431
  688MPD2    H310233   2.364   1.368  17.388  0.7100  0.1385 -0.1835
  688MPD2     N10234   2.601   1.019  17.231 -0.2779  0.0613  0.1718
  688MPD2    H510235   2.621   1.090  17.161 -1.9567  0.8311  0.4701
  688MPD2    N110236   2.387   0.997  17.671  1.0607 -0.2574 -0.3153
  688MPD2    H710237   2.438   0.911  17.685  0.8210 -0.1725  1.1558
  689TMC3    C110238   2.338   0.946   0.158 -0.3168 -0.1980  1.0198
  689TMC3    C210239   2.313   1.009   0.274  0.0034 -0.2162 -0.0324
  689TMC3    C310240   2.298   0.937   0.389  0.4897  0.5899 -0.0351
  689TMC3    C410241   2.347   0.808   0.152 -0.9007  1.0882  0.3662
  689TMC3    C510242   2.335   0.746   0.274 -0.7347  0.7138  0.5025
  689TMC3    C610243   2.303   0.805   0.394  0.7571 -0.4498  0.0178
  689TMC3     C10244   2.314   1.031   0.039  0.0606  0.2658 -0.4478
  689TMC3     O10245   2.257   1.135   0.058  0.2100  0.7427 -1.0670
  689TMC3     H10246   2.310   1.118   0.275  1.4360 -0.1682 -0.9014
  689TMC3    H110247   2.361   0.751   0.061  0.4943  2.9483 -0.5969
  689TMC3    H210248   2.292   0.745   0.484 -1.2656  0.8078  0.6282
  689TMC3    C710249   2.326   0.598   0.265  0.3485 -0.4490 -0.1128
  689TMC3    C810250   2.288   1.005   0.518  0.0371 -0.3926  0.0758
  689TMC3    O110251   2.374   0.535   0.357  0.1582 -0.1833  0.2235
  689TMC3    O210252   2.240   0.941   0.615 -0.2778  0.3955 -0.3607
  690MPD2     C10253   3.957   3.128  15.443 -0.3487  0.1328  0.4530
  690MPD2    C110254   4.033   3.048  15.524  0.5321  0.7337 -0.5983
  690MPD2    C210255   4.166   3.036  15.502 -0.0318 -0.0178  0.3110
  690MPD2    C310256   4.224   3.109  15.403  0.5008  1.0198  0.0469
  690MPD2    C410257   4.145   3.191  15.317 -0.2626 -0.2412 -0.5137
  690MPD2    C510258   4.012   3.194  15.340 -0.0375  0.3748 -0.2736
  690MPD2     H10259   4.219   2.961  15.558  0.8212  0.4304  0.1000
  690MPD2    H110260   4.178   3.253  15.235  3.3463 -0.5370  0.6843
  690MPD2    H210261   3.851   3.141  15.462 -0.5618  0.2687 -0.7822
  690MPD2    H310262   3.950   3.254  15.275  0.6234 -0.8470 -2.0355
  690MPD2     N10263   4.359   3.092  15.384 -0.5240 -0.3732  0.0076
  690MPD2    H510264   4.421   3.035  15.441  0.5968 -0.1429 -0.9548
  690MPD2    N110265   3.954   2.976  15.623 -0.4793  0.0459  0.1017
  690MPD2    H710266   3.853   2.983  15.624 -0.4982  0.0723 -1.7072
  691TMC3    C110267   3.918   2.834  15.809  0.9380  0.3436 -0.0299
  691TMC3    C210268   3.788   2.860  15.799 -0.5010 -0.5004  0.2348
  691TMC3    C310269   3.704   2.778  15.872 -0.2569 -0.7324 -0.1170
  691TMC3    C410270   3.968   2.736  15.883  0.7947  0.3349 -0.2818
  691TMC3    C510271   3.881   2.656  15.954 -0.3132  0.3943  0.4567
  691TMC3    C610272   3.748   2.674  15.946  0.5175 -0.1852  0.3317
  691TMC3     C10273   4.016   2.901  15.717 -0.1226 -0.3244  0.5556
  691TMC3     O10274   4.131   2.875  15.737 -0.2237  0.3662 -0.2299
  691TMC3     H10275   3.739   2.932  15.734 -0.3916 -1.2583 -0.6802
  691TMC3    H110276   4.074   2.716  15.900  0.2557 -0.3714  2.1980
  691TMC3    H210277   3.679   2.610  15.999  0.1468 -1.3717 -1.5698
  691TMC3    C710278   3.937   2.541  16.022 -0.2582 -0.1370 -0.5949
  691TMC3    C810279   3.565   2.770  15.852  0.5036  0.1726 -0.2742
  691TMC3    O110280   4.043   2.557  16.085  0.3390 -0.7806 -0.0635
  691TMC3    O210281   3.503   2.663  15.853  0.5605  0.3820  0.2177
  692TMC3    C110282   1.312   3.717  15.686  0.5145 -0.0741  0.7704
  692TMC3    C210283   1.431   3.760  15.727  0.2012 -0.0912 -0.3204
  692TMC3    C310284   1.525   3.672  15.772  0.1130 -0.4289  0.1713
  692TMC3    C410285   1.287   3.589  15.663  1.2218  0.0727  0.3048
  692TMC3    C510286   1.379   3.496  15.708 -0.5442  0.2457  0.0223
  692TMC3    C610287   1.499   3.532  15.766 -0.2698 -0.4900 -0.0319
  692TMC3     C10288   1.200   3.810  15.715 -0.2455  0.3797 -0.0365
  692TMC3     O10289   1.099   3.749  15.756 -0.6482 -0.3453 -0.0148
  692TMC3     H10290   1.450   3.867  15.727 -1.9913  0.2944 -0.1657
  692TMC3    H110291   1.188   3.551  15.643  1.0671  0.9336 -0.5914
  692TMC3    H210292   1.587   3.472  15.784 -0.3764 -0.6980 -0.2008
  692TMC3    C710293   1.350   3.359  15.688 -0.7388  0.2623  0.6906
  692TMC3    C810294   1.577   3.706  15.908  0.2405 -0.3346  0.7357
  692TMC3    O110295   1.288   3.328  15.587 -0.9531 -0.0777  0.1152
  692TMC3    O210296   1.610   3.610  15.978 -0.6990 -0.0581 -0.7485
  693MPD2     C10297   1.396   1.471  10.420 -0.0500 -0.6267 -0.2860
  693MPD2    C110298   1.354   1.446  10.554 -0.6485 -0.0790  0.6199
  693MPD2    C210299   1.422   1.359  10.633 -0.6742  0.7320  0.3201
  693MPD2    C310300   1.548   1.300  10.591  0.1954  0.3524 -0.6633
  693MPD2    C410301   1.588   1.324  10.460  0.1748  0.6868  0.0931
  693MPD2    C510302   1.513   1.410  10.381 -0.0212  0.3617  0.1412
  693MPD2     H10303   1.380   1.332  10.729  1.6596 -3.1167  0.2635
  693MPD2    H110304   1.682   1.291  10.416  0.7984  0.3214  1.7236
  693MPD2    H210305   1.341   1.542  10.359 -0.4265 -0.2701  0.4722
  693MPD2    H310306   1.548   1.424  10.280 -3.0142  0.7573 -0.8528
  693MPD2     N10307   1.632   1.227  10.683  0.6159  0.1149  0.2148
  693MPD2    H510308   1.724   1.198  10.652  0.5787 -1.7619  1.8848
  693MPD2    N110309   1.234   1.506  10.596  0.3889  0.0769 -0.2421
  693MPD2    H710310   1.174   1.556  10.531 -0.3700 -0.5022  0.0192
  694TMC3    C110311   1.060   1.528  10.742  0.0188 -1.1782 -0.6951
  694TMC3    C210312   0.977   1.433  10.681 -0.4761  0.0132 -0.7348
  694TMC3    C310313   0.872   1.390  10.755 -0.5041 -0.5041 -0.0772
  694TMC3    C410314   1.028   1.570  10.863  0.0950  0.1197  0.4613
  694TMC3    C510315   0.920   1.528  10.926 -0.3203 -0.2154  0.1981
  694TMC3    C610316   0.831   1.442  10.874 -0.8067 -0.3973  0.4364
  694TMC3     C10317   1.196   1.513  10.728 -0.3790 -0.2093 -0.0097
  694TMC3     O10318   1.264   1.492  10.829  0.1035  0.4098  0.5316
  694TMC3     H10319   1.002   1.387  10.586 -0.8378 -1.3318 -0.1675
  694TMC3    H110320   1.091   1.648  10.905 -0.7659  1.5685 -0.9540
  694TMC3    H210321   0.759   1.388  10.935 -1.3721  1.4013  1.3316
  694TMC3    C710322   0.909   1.570  11.067 -0.4268 -0.2884  0.7786
  694TMC3    C810323   0.791   1.279  10.699 -1.1425  0.1372 -0.5857
  694TMC3    O110324   0.955   1.682  11.096  0.1935  0.0764 -0.1239
  694TMC3    O210325   0.682   1.264  10.751 -0.4145 -0.5851 -0.0728
  695MPD2     C10326   2.253   3.610  13.404  0.1304 -0.2503 -0.0678
  695MPD2    C110327   2.218   3.642  13.534 -0.1477 -0.7198 -0.1140
  695MPD2    C210328   2.092   3.678  13.562 -0.3169 -0.4903 -0.5395
  695MPD2    C310329   1.988   3.686  13.470 -0.3421 -0.6488 -0.0508
  695MPD2    C410330   2.022   3.638  13.340  0.4883 -0.0925 -0.6096
  695MPD2    C510331   2.155   3.613  13.307 -0.4163  0.0341  0.1261
  695MPD2     H10332   2.065   3.705  13.664 -0.7414 -0.3252 -0.6971
  695MPD2    H110333   1.950   3.635  13.259 -1.2151 -1.8555  0.9657
  695MPD2    H210334   2.353   3.581  13.374  0.6447 -0.5663  1.9363
  695MPD2    H310335   2.169   3.595  13.201  0.6793 -2.0788  0.6161
  695MPD2     N10336   1.855   3.715  13.505 -0.0962  0.5723 -0.8458
  695MPD2    H510337   1.835   3.733  13.603  1.6371 -0.5643 -0.2845
  695MPD2    N110338   2.310   3.640  13.642 -0.9112  0.1132 -0.4099
  695MPD2    H710339   2.268   3.651  13.734  0.7422 -0.4880  0.4230
  696TMC3    C110340   1.635   3.788  13.487  0.2401  0.3080 -0.3798
  696TMC3    C210341   1.584   3.726  13.599  0.3569  0.0530  0.5958
  696TMC3    C310342   1.450   3.740  13.625  0.5233  0.4642  0.0904
  696TMC3    C410343   1.568   3.889  13.426 -0.0246 -0.6288  0.5172
  696TMC3    C510344   1.438   3.914  13.465  0.5347  0.0450 -0.3736
  696TMC3    C610345   1.382   3.836  13.560  0.0044  0.2076  0.5125
  696TMC3     C10346   1.752   3.747  13.421 -0.8605  0.1158  0.2917
  696TMC3     O10347   1.748   3.756  13.300  0.4967 -0.1258  0.0577
  696TMC3     H10348   1.628   3.635  13.637 -2.3998 -0.4095  2.6421
  696TMC3    H110349   1.608   3.953  13.349  0.7542  0.0087  1.4446
  696TMC3    H210350   1.281   3.850  13.598  0.0550 -0.0981  0.7582
  696TMC3    C710351   1.427   4.057  13.485  1.0265  0.7724  0.6342
  696TMC3    C810352   1.414   3.737  13.765  0.8440  0.2379 -0.0408
  696TMC3    O110353   1.467   4.126  13.391  0.3982  0.0399 -0.5219
  696TMC3    O210354   1.362   3.844  13.802 -0.3487  0.9274  0.4498
  697MPD2     C10355   1.084   0.677  15.714 -0.5502 -0.2859 -0.5058
  697MPD2    C110356   1.110   0.615  15.594 -0.0425  0.1759 -0.4545
  697MPD2    C210357   1.140   0.701  15.483 -0.2293 -0.4783  0.3767
  697MPD2    C310358   1.133   0.842  15.491  0.2579  0.3383 -0.1423
  697MPD2    C410359   1.103   0.893  15.611  0.6283 -0.1739 -0.9085
  697MPD2    C510360   1.084   0.815  15.719  0.3905 -0.3535  0.7268
  697MPD2     H10361   1.175   0.656  15.391  0.0261  0.4943 -0.0094
  697MPD2    H110362   1.080   0.998  15.625 -0.0859 -0.3880 -0.4467
  697MPD2    H210363   1.055   0.629  15.808  1.9488 -1.1819 -0.1927
  697MPD2    H310364   1.054   0.865  15.811 -0.4833 -0.1376  0.3214
  697MPD2     N10365   1.151   0.926  15.376 -0.1934 -0.7724 -0.2299
  697MPD2    H510366   1.150   0.874  15.289  1.5953  1.1642 -1.4088
  697MPD2    N110367   1.120   0.478  15.579 -0.5982 -0.1879  0.0839
  697MPD2    H710368   1.132   0.436  15.487  1.5329 -1.8446  1.0975
  698TMC3    C110369   1.166   1.108  15.228 -0.0050 -0.9332  0.4269
  698TMC3    C210370   1.260   1.209  15.202 -0.9394 -0.6506  0.0851
  698TMC3    C310371   1.243   1.274  15.086  0.4776 -0.4501 -0.0324
  698TMC3    C410372   1.081   1.060  15.129 -0.1638 -0.0730  0.6711
  698TMC3    C510373   1.081   1.120  15.008  0.3714  0.3830 -0.4910
  698TMC3    C610374   1.155   1.234  14.984  0.6281 -0.7805  0.0570
  698TMC3     C10375   1.158   1.064  15.365  0.1941 -0.3711  0.7489
  698TMC3     O10376   1.195   1.136  15.455 -0.1026 -0.0052 -0.1855
  698TMC3     H10377   1.321   1.250  15.282  0.2492 -1.9204 -0.1506
  698TMC3    H110378   1.012   0.979  15.152  1.1418 -0.5068  3.0550
  698TMC3    H210379   1.138   1.297  14.898  1.4826 -0.0498  0.4230
  698TMC3    C710380   1.036   1.052  14.894  0.0875 -0.1034  0.1891
  698TMC3    C810381   1.328   1.390  15.062 -0.2939 -0.4226 -0.7522
  698TMC3    O110382   1.082   1.088  14.790 -0.0406 -0.0306 -0.0997
  698TMC3    O210383   1.295   1.440  14.955 -0.3348 -0.4977  1.1308
  699TMC3    C110384   1.680   3.522  13.098 -0.7078  0.0492  0.4279
  699TMC3    C210385   1.746   3.443  13.194  0.1774  0.9408  0.0980
  699TMC3    C310386   1.673   3.401  13.300  0.1356  0.7292  0.0635
  699TMC3    C410387   1.554   3.560  13.113  0.5435  0.5377 -0.0445
  699TMC3    C510388   1.490   3.536  13.235  0.1820 -0.4671  0.2369
  699TMC3    C610389   1.546   3.451  13.327  1.5905  0.2188  0.1666
  699TMC3     C10390   1.742   3.577  12.977  0.0864  0.2225  0.1836
  699TMC3     O10391   1.686   3.662  12.911 -0.1429  0.0305 -0.1522
  699TMC3     H10392   1.847   3.412  13.174 -0.3824 -1.3178  0.7733
  699TMC3    H110393   1.499   3.618  13.040  1.7131  3.0064  1.0693
  699TMC3    H210394   1.489   3.411  13.411  0.9532  0.3317 -0.2100
  699TMC3    C710395   1.351   3.572  13.251  0.6171  0.1915 -0.6297
  699TMC3    C810396   1.713   3.295  13.391 -0.5187 -0.7741 -0.3415
  699TMC3    O110397   1.304   3.553  13.364  0.1716  0.3415 -0.8653
  699TMC3    O210398   1.656   3.302  13.500  0.5764 -0.2459  0.7948
  700TMC3    C110399   0.218   1.632  17.359 -0.2411  0.2860  0.0877
  700TMC3    C210400   0.269   1.505  17.347 -0.4025 -0.1950  0.0333
  700TMC3    C310401   0.393   1.482  17.392 -0.1094  0.5317 -0.2828
  700TMC3    C410402   0.282   1.735  17.429  0.2992  0.0833  0.2674
  700TMC3    C510403   0.417   1.703  17.459  0.6662 -0.6624 -0.4732
  700TMC3    C610404   0.468   1.576  17.454  1.0231  0.6152 -0.5835
  700TMC3     C10405   0.182   1.691  17.229  0.0933 -0.1755 -0.5523
  700TMC3     O10406   0.208   1.808  17.219 -1.0875 -0.5509 -0.0702
  700TMC3     H10407   0.214   1.426  17.296 -0.9433  0.2084 -0.0124
  700TMC3    H110408   0.233   1.830  17.450 -1.3450 -0.7241  0.1362
  700TMC3    H210409   0.574   1.560  17.464  0.9417 -0.5512 -1.5773
  700TMC3    C710410   0.509   1.818  17.465  0.3980  0.2255 -0.0768
  700TMC3    C810411   0.458   1.350  17.373  0.5276 -0.1368 -0.0909
  700TMC3    O110412   0.617   1.804  17.521  0.4261 -0.5044  0.2404
  700TMC3    O210413   0.571   1.335  17.419  0.0838  0.1736  0.0031
  701TMC3    C110414   0.611   0.072  15.583 -0.0009  0.1459 -0.4513
  701TMC3    C210415   0.661   0.013  15.471  0.0306  0.6540  0.3113
  701TMC3    C310416   0.743   0.086  15.390 -0.2372 -0.4233 -0.4506
  701TMC3    C410417   0.644   0.202  15.610  0.2211 -0.5673  0.2524
  701TMC3    C510418   0.721   0.277  15.527 -0.2776  0.7528 -0.4344
  701TMC3    C610419   0.771   0.217  15.414  0.2379  0.2854  0.1147
  701TMC3     C10420   0.538   4.731  15.687  0.3440 -0.3105 -0.3488
  701TMC3     O10421   0.542   0.043  15.802 -0.2537 -0.1871 -0.2730
  701TMC3     H10422   0.640   4.642  15.461 -1.2467  0.7995  1.3483
  701TMC3    H110423   0.618   0.251  15.703  0.6296  0.7044 -0.3112
  701TMC3    H210424   0.827   0.273  15.340 -0.0530  0.8553  0.3303
  701TMC3    C710425   0.756   0.416  15.555 -0.1162 -1.0122  0.2173
  701TMC3    C810426   0.795   0.031  15.270 -0.2617  0.1460 -0.5876
  701TMC3    O110427   0.805   0.475  15.462 -0.3671 -0.3317  0.0195
  701TMC3    O210428   0.896   0.086  15.219  0.2514  0.3678  0.1573
  702MPD2     C10429   0.527   2.060  10.630 -0.3329 -0.3962  0.5281
  702MPD2    C110430   0.404   2.108  10.630  0.3188  0.3648  0.0208
  702MPD2    C210431   0.346   2.143  10.513 -0.9135 -0.0093 -0.2951
  702MPD2    C310432   0.417   2.146  10.401 -0.4024 -0.2941 -0.1052
  702MPD2    C410433   0.544   2.091  10.393  0.3335  0.9945 -0.0156
  702MPD2    C510434   0.591   2.047  10.513 -0.0145 -0.0913 -0.0587
  702MPD2     H10435   0.244   2.180  10.516 -0.0583  2.1844  1.4562
  702MPD2    H110436   0.608   2.085  10.305  0.2980  1.0341 -0.0439
  702MPD2    H210437   0.580   2.024  10.717 -1.2067  1.1237  1.6940
  702MPD2    H310438   0.697   2.028  10.522 -0.6642 -3.3863  0.6138
  702MPD2     N10439   0.354   2.215  10.298 -0.6144 -0.6604  0.2145
  702MPD2    H510440   0.255   2.237  10.305 -0.3222  0.4687  0.9007
  702MPD2    N110441   0.322   2.118  10.748 -0.2242  0.0406 -0.1694
  702MPD2    H710442   0.225   2.146  10.741  0.1137  1.4339  0.7295
  703TMC3    C110443   0.346   2.369  10.112  0.6930  0.4102 -0.0177
  703TMC3    C210444   0.244   2.420  10.184  0.2296  0.6568 -0.4958
  703TMC3    C310445   0.237   2.553  10.214 -0.3170 -0.0294  0.3981
  703TMC3    C410446   0.444   2.451  10.070  0.1976 -0.1741  0.3822
  703TMC3    C510447   0.443   2.578  10.110  0.0529  0.0403 -0.2196
  703TMC3    C610448   0.338   2.640  10.175  0.0701  0.3196 -0.0553
  703TMC3     C10449   0.411   2.256  10.181 -0.6858 -0.2833 -1.0224
  703TMC3     O10450   0.527   2.240  10.138 -0.4791  0.0423  0.2555
  703TMC3     H10451   0.169   2.352  10.224  0.3863  1.7316  1.6451
  703TMC3    H110452   0.526   2.420  10.007  1.5399 -1.7648  2.8835
  703TMC3    H210453   0.342   2.740  10.218  0.9443 -0.1447  0.9228
  703TMC3    C710454   0.562   2.652  10.110 -0.5472 -0.6020 -0.0845
  703TMC3    C810455   0.111   2.615  10.251  0.0154 -0.0092  0.3424
  703TMC3    O110456   0.547   2.775  10.117 -0.2961 -0.4404 -0.0426
  703TMC3    O210457   0.119   2.737  10.234  0.1106  0.3360  0.0037
  704TMC3    C110458   3.221   0.440  12.586  0.1396 -0.3825  0.2760
  704TMC3    C210459   3.255   0.400  12.463 -0.2403 -0.4026 -0.0385
  704TMC3    C310460   3.296   0.275  12.434 -0.3786 -0.1287 -0.0702
  704TMC3    C410461   3.261   0.357  12.687 -0.9041  0.0835  0.6416
  704TMC3    C510462   3.297   0.227  12.662 -0.1813  0.3828  0.1202
  704TMC3    C610463   3.322   0.187  12.536  0.0152 -0.7387  0.3447
  704TMC3     C10464   3.108   0.519  12.611 -0.1218  0.4447 -0.1661
  704TMC3     O10465   3.088   0.560  12.721  0.0200  0.3780 -1.0053
  704TMC3     H10466   3.252   0.465  12.377  0.7778  0.6786  0.7461
  704TMC3    H110467   3.233   0.376  12.790  0.4232 -0.7084  1.1471
  704TMC3    H210468   3.330   0.083  12.503  0.4646 -1.3275  2.3261
  704TMC3    C710469   3.206   0.131  12.729  0.3218  0.0771 -0.2592
  704TMC3    C810470   3.269   0.233  12.297 -0.9497  1.4322  0.1089
  704TMC3    O110471   3.145   0.046  12.668 -0.2351 -0.0953  0.3751
  704TMC3    O210472   3.366   0.225  12.223 -0.2229  0.0202  0.0451
  705MPD2     C10473   1.640   3.414  16.781 -0.4742  0.1275 -0.2347
  705MPD2    C110474   1.593   3.427  16.653  0.4465  0.4623 -0.2079
  705MPD2    C210475   1.467   3.477  16.628 -0.5138 -0.0865  0.0472
  705MPD2    C310476   1.393   3.538  16.726  0.5110  0.3705 -0.2214
  705MPD2    C410477   1.440   3.525  16.855  0.1108  0.1465  0.4527
  705MPD2    C510478   1.561   3.464  16.880 -0.0365 -0.4982 -0.3905
  705MPD2     H10479   1.444   3.475  16.522 -0.6124 -3.1209  0.1189
  705MPD2    H110480   1.384   3.566  16.938 -1.1688  1.0059 -0.8203
  705MPD2    H210481   1.736   3.374  16.813 -0.1740  1.2857  0.3491
  705MPD2    H310482   1.598   3.461  16.982  0.4250 -1.5167 -0.5780
  705MPD2     N10483   1.279   3.612  16.680 -0.4571 -0.1027  0.0944
  705MPD2    H510484   1.257   3.599  16.582  0.9504  0.8284 -0.3343
  705MPD2    N110485   1.667   3.388  16.542 -0.0295 -0.1064 -0.3631
  705MPD2    H710486   1.631   3.394  16.447 -0.9026 -2.3573 -0.1964
  706TMC3    C110487   1.987   3.242  16.260 -0.4699 -1.1750  0.5245
  706TMC3    C210488   1.965   3.346  16.178  0.6995  0.4137  0.1613
  706TMC3    C310489   1.894   3.454  16.221 -0.1973 -0.3993 -0.9183
  706TMC3    C410490   1.943   3.243  16.388  0.0759  0.0845  0.5293
  706TMC3    C510491   1.866   3.347  16.426 -0.6221  0.8742  0.1659
  706TMC3    C610492   1.845   3.460  16.349 -0.6193 -0.8932 -0.3785
  706TMC3     C10493   2.101   3.158  16.226 -0.0774 -0.4175  0.6702
  706TMC3     O10494   2.184   3.145  16.316 -0.1501  0.6125  0.2957
  706TMC3     H10495   2.007   3.349  16.078 -0.4540  0.3363 -0.3256
  706TMC3    H110496   1.975   3.162  16.452  2.2298 -0.4357 -1.2291
  706TMC3    H210497   1.790   3.547  16.384 -1.3887 -2.9684  3.5609
  706TMC3    C710498   1.796   3.337  16.552 -1.0123  0.0567  0.2587
  706TMC3    C810499   1.944   3.583  16.178 -0.4452  0.0974  0.3675
  706TMC3    O110500   1.870   3.298  16.642 -0.1118  0.1877  0.3852
  706TMC3    O210501   1.970   3.600  16.059  0.3009 -0.3989  0.0482
  707TMC3    C110502   3.010   2.957   1.581 -0.0460  0.2101  0.6503
  707TMC3    C210503   3.036   2.824   1.610 -0.8026 -0.2974 -0.0869
  707TMC3    C310504   2.926   2.750   1.623  0.6247 -0.1662  0.6496
  707TMC3    C410505   2.886   3.008   1.543  0.3126  0.2816  0.2406
  707TMC3    C510506   2.779   2.925   1.570  0.0691 -0.4642  0.8446
  707TMC3    C610507   2.794   2.800   1.614 -0.1679 -0.1126 -0.3934
  707TMC3     C10508   3.125   3.017   1.517 -1.0485  0.4093  0.3402
  707TMC3     O10509   3.113   3.065   1.408  0.2134 -0.6346 -0.1542
  707TMC3     H10510   3.138   2.792   1.625 -1.0978 -1.4581 -0.5546
  707TMC3    H110511   2.887   3.111   1.510  0.3029  0.7295  1.6498
  707TMC3    H210512   2.714   2.726   1.613 -1.3276  1.1513 -0.2330
  707TMC3    C710513   2.646   2.985   1.569 -0.1609 -0.5422  0.2083
  707TMC3    C810514   2.944   2.608   1.644 -0.1800 -0.0529 -0.4539
  707TMC3    O110515   2.559   2.932   1.635  0.1171 -0.0975 -0.0293
  707TMC3    O210516   2.890   2.561   1.741  0.0797  0.1684 -0.5226
  708MPD2     C10517   0.890   1.718  13.693 -0.6846 -0.1457 -0.1939
  708MPD2    C110518   0.869   1.829  13.763  0.0785  0.3386 -0.0824
  708MPD2    C210519   0.779   1.825  13.871  0.2202  0.5090  0.0232
  708MPD2    C310520   0.695   1.714  13.887  0.7279 -0.5376  0.6412
  708MPD2    C410521   0.706   1.614  13.795  0.0322 -0.1309  0.9795
  708MPD2    C510522   0.794   1.621  13.696  0.3271  0.5873 -0.4549
  708MPD2     H10523   0.781   1.909  13.940  2.9954  0.6579 -0.2426
  708MPD2    H110524   0.630   1.536  13.786  0.6536 -0.4979 -1.1421
  708MPD2    H210525   0.955   1.714  13.607  0.8768  0.1209  0.9838
  708MPD2    H310526   0.788   1.546  13.618  1.5716 -0.9916  0.9548
  708MPD2     N10527   0.592   1.695  13.985  0.2676 -0.1269 -0.1208
  708MPD2    H510528   0.533   1.613  13.989 -2.8049  2.1020  0.2237
  708MPD2    N110529   0.951   1.936  13.731 -0.5460 -0.6176 -0.7768
  708MPD2    H710530   1.020   1.924  13.659  0.9591 -2.4818  0.9675
  709TMC3    C110531   0.998   2.160  13.695 -0.3894 -0.1358  0.0400
  709TMC3    C210532   1.058   2.098  13.586  0.2556  0.2624  0.1120
  709TMC3    C310533   1.018   2.140  13.454  0.1293 -0.0102  0.5410
  709TMC3    C410534   0.910   2.260  13.668  0.1286 -0.0470 -0.0878
  709TMC3    C510535   0.867   2.291  13.540 -0.6434  0.5666 -0.1556
  709TMC3    C610536   0.921   2.236  13.429  0.4871  0.1737  0.0908
  709TMC3     C10537   0.931   2.062  13.782 -1.1075  0.1901  0.6096
  709TMC3     O10538   0.837   2.104  13.845  0.4628 -0.5207  0.0191
  709TMC3     H10539   1.126   2.014  13.597  0.0517  0.1534  0.5308
  709TMC3    H110540   0.862   2.309  13.752 -0.7805 -0.0182 -0.6205
  709TMC3    H210541   0.889   2.268  13.331 -0.0165 -0.7389 -0.0433
  709TMC3    C710542   0.720   2.287  13.532 -0.2520 -0.0474 -0.2306
  709TMC3    C810543   1.065   2.063  13.339 -0.3630  0.1324  0.5766
  709TMC3    O110544   0.667   2.343  13.432  0.1626  0.7259  0.1604
  709TMC3    O210545   1.174   2.016  13.350 -0.8322  0.3606  0.4094
  710TMC3    C110546   1.140   3.575   0.367 -0.4089 -0.0569 -0.0151
  710TMC3    C210547   1.229   3.603   0.264 -0.1993  0.4937 -1.0383
  710TMC3    C310548   1.359   3.580   0.280  0.8526  0.2851  0.6535
  710TMC3    C410549   1.182   3.536   0.492 -0.1036 -0.3894 -0.2490
  710TMC3    C510550   1.319   3.524   0.508  0.1372 -0.1145 -0.1406
  710TMC3    C610551   1.403   3.538   0.402 -0.3186 -0.5793 -0.1145
  710TMC3     C10552   1.012   3.648   0.371 -0.8196 -0.0144 -0.8884
  710TMC3     O10553   0.972   3.687   0.265 -0.2834  0.0501  0.2798
  710TMC3     H10554   1.188   3.649   0.175 -0.5036  0.4932 -0.9002
  710TMC3    H110555   1.114   3.520   0.575 -1.1215  0.6821 -0.8855
  710TMC3    H210556   1.503   3.497   0.409  0.5834  1.4531 -1.1541
  710TMC3    C710557   1.381   3.505   0.644 -0.2574  0.1551 -0.2438
  710TMC3    C810558   1.443   3.551   0.164  0.0007 -0.7357 -0.4936
  710TMC3    O110559   1.304   3.479   0.737 -0.9635 -0.6463 -0.0902
  710TMC3    O210560   1.555   3.596   0.157 -0.3596 -0.8694 -0.5699
  711TMC3    C110561   0.979   4.151  14.947  0.3053 -0.3755 -0.6470
  711TMC3    C210562   1.032   4.216  15.054 -0.6454 -0.0877 -0.3068
  711TMC3    C310563   1.153   4.272  15.026  0.0139 -0.3587 -0.8449
  711TMC3    C410564   1.038   4.143  14.825  1.0443  0.0266  0.6827
  711TMC3    C510565   1.176   4.169  14.814  0.4212  0.1791 -0.4428
  711TMC3    C610566   1.224   4.251  14.907 -0.8403  0.8292  0.2311
  711TMC3     C10567   0.918   4.018  14.975  0.0162  0.5284  0.0500
  711TMC3     O10568   0.833   3.973  14.900  0.1529  0.6909 -0.2421
  711TMC3     H10569   0.984   4.221  15.152  0.0842 -3.1286  0.2048
  711TMC3    H110570   0.991   4.080  14.750  1.0650  0.6030  0.1824
  711TMC3    H210571   1.328   4.283  14.912 -0.1434 -1.8598  2.7118
  711TMC3    C710572   1.254   4.047  14.828  0.0296 -0.1968 -0.4536
  711TMC3    C810573   1.226   4.276  15.153  1.1398  0.8503  0.2556
  711TMC3    O110574   1.336   4.040  14.920 -0.3708  0.6327 -0.5009
  711TMC3    O210575   1.185   4.337  15.251 -0.1359 -0.1142 -0.3186
  712MPD2     C10576   2.916   0.590  13.925  0.4035  0.3820  0.3635
  712MPD2    C110577   2.840   0.605  13.807  0.1081  0.3603 -0.4659
  712MPD2    C210578   2.806   0.732  13.755 -0.1218  0.1318 -0.9920
  712MPD2    C310579   2.838   0.851  13.830 -0.0950 -0.4216  0.0455
  712MPD2    C410580   2.917   0.832  13.940  0.0865  0.1436  0.0576
  712MPD2    C510581   2.951   0.709  13.985  0.4617 -0.3621 -0.0492
  712MPD2     H10582   2.757   0.732  13.658 -3.1198 -0.6314  0.5197
  712MPD2    H110583   2.928   0.916  14.008  3.4672  1.1215 -1.6883
  712MPD2    H210584   2.949   0.499  13.973  1.7271  1.9341  2.3690
  712MPD2    H310585   2.989   0.690  14.085 -2.1307 -0.4082  0.9333
  712MPD2     N10586   2.814   0.977  13.784  0.1837 -0.2109 -0.1449
  712MPD2    H510587   2.846   1.056  13.839  1.3943 -1.0053  0.2735
  712MPD2    N110588   2.788   0.492  13.739  0.4732 -0.3139 -0.2399
  712MPD2    H710589   2.723   0.514  13.664  3.9793  1.9511 -2.5928
  713TMC3    C110590   2.809   1.139  13.633 -0.1224  0.3245  0.3552
  713TMC3    C210591   2.925   1.194  13.684 -0.4354  0.0956  0.0657
  713TMC3    C310592   2.945   1.330  13.672  0.1961  0.2396  0.0211
  713TMC3    C410593   2.730   1.213  13.545 -0.5324  0.2551  0.3003
  713TMC3    C510594   2.767   1.346  13.524 -0.8949 -0.2748 -0.4854
  713TMC3    C610595   2.873   1.404  13.583 -0.3207 -0.1651 -0.2753
  713TMC3     C10596   2.771   1.005  13.660  0.4650  0.5108 -0.1623
  713TMC3     O10597   2.714   0.936  13.579 -0.1720 -0.0687  0.1155
  713TMC3     H10598   2.997   1.145  13.748  2.0137  0.2503 -2.6002
  713TMC3    H110599   2.645   1.175  13.490 -2.1424  3.4748  0.5531
  713TMC3    H210600   2.906   1.506  13.567  0.2605 -0.4950 -1.1517
  713TMC3    C710601   2.729   1.420  13.405  0.4321 -0.0225  0.0431
  713TMC3    C810602   3.066   1.389  13.718 -0.1312 -0.5730 -0.3456
  713TMC3    O110603   2.812   1.501  13.364  0.3604 -0.3095 -0.1388
  713TMC3    O210604   3.108   1.494  13.673 -0.1050 -0.4295 -0.8038
  714MPD2     C10605   4.487   4.532   1.655  0.1028 -0.0526  0.3071
  714MPD2    C110606   4.544   4.497   1.529 -0.3735 -1.1945  0.3726
  714MPD2    C210607   4.453   4.503   1.421  0.2602  0.2200 -1.0215
  714MPD2    C310608   4.325   4.554   1.432 -1.4111  0.0390  0.0204
  714MPD2    C410609   4.284   4.588   1.559 -0.3165  0.7396 -0.4901
  714MPD2    C510610   4.358   4.564   1.671  0.1117  0.0949  1.0768
  714MPD2     H10611   4.485   4.471   1.322 -1.8813  0.7097 -1.8704
  714MPD2    H110612   4.193   4.646   1.570 -0.7023  0.0662 -0.1333
  714MPD2    H210613   4.547   4.519   1.744 -1.1299  1.3033  1.3343
  714MPD2    H310614   4.315   4.593   1.767  2.4161  3.0517  1.2225
  714MPD2     N10615   4.248   4.570   1.310 -0.0585  0.7644 -0.1744
  714MPD2    H510616   4.285   4.525   1.227 -1.2286 -1.4666  0.5186
  714MPD2    N110617   4.682   4.455   1.520 -0.1337  0.3751 -0.4169
  714MPD2    H710618   4.733   4.469   1.606 -2.1149  1.6977  0.5432
  715TMC3    C110619   0.145   4.364   1.440 -0.0833 -0.0190  0.1615
  715TMC3    C210620   0.198   4.272   1.349 -0.7910  0.7491  0.2541
  715TMC3    C310621   0.332   4.243   1.362  0.5963  0.9175 -0.7327
  715TMC3    C410622   0.218   4.439   1.524 -0.1700  0.2518 -0.2987
  715TMC3    C510623   0.348   4.408   1.522 -0.1243 -0.1185  0.0630
  715TMC3    C610624   0.409   4.310   1.445  0.1498 -0.5885  0.1773
  715TMC3     C10625   0.008   4.402   1.411  0.0350  0.5096  0.5489
  715TMC3     O10626   4.691   4.362   1.309  0.0170 -0.0257 -0.0999
  715TMC3     H10627   0.131   4.215   1.285 -0.1472 -1.6004  1.6541
  715TMC3    H110628   0.186   4.534   1.566  0.5080  0.3362  0.0305
  715TMC3    H210629   0.517   4.302   1.438  0.1335 -0.0518 -0.5906
  715TMC3    C710630   0.440   4.487   1.602 -0.8901 -0.9538  0.5375
  715TMC3    C810631   0.388   4.134   1.297  0.1889  0.3102  0.8607
  715TMC3    O110632   0.558   4.488   1.566  0.2103  0.8451 -0.0624
  715TMC3    O210633   0.312   4.077   1.215  0.5927 -0.0792  0.3515
  716MPD2     C10634   0.412   2.731   9.394 -0.4353 -0.7253  0.4446
  716MPD2    C110635   0.300   2.687   9.322 -0.1703  0.6157 -0.1694
  716MPD2    C210636   0.281   2.547   9.303  0.6401  0.2352 -0.5909
  716MPD2    C310637   0.371   2.459   9.358 -0.0864 -0.1840 -0.8031
  716MPD2    C410638   0.489   2.509   9.424 -0.0194  0.1352 -0.7164
  716MPD2    C510639   0.502   2.638   9.440  0.3689 -0.1303 -0.4710
  716MPD2     H10640   0.199   2.501   9.248 -0.9083 -0.3173  2.1474
  716MPD2    H110641   0.569   2.445   9.459 -0.6883 -0.4883 -0.3430
  716MPD2    H210642   0.439   2.834   9.415 -1.0599 -0.0036 -2.3315
  716MPD2    H310643   0.595   2.666   9.488  0.0108  0.1326  0.0677
  716MPD2     N10644   0.335   2.320   9.343 -0.1649 -0.0416 -0.2402
  716MPD2    H510645   0.259   2.299   9.279  0.3130  0.1907 -0.8844
  716MPD2    N110646   0.207   2.787   9.284  0.2102 -0.5203 -0.1403
  716MPD2    H710647   0.224   2.883   9.312 -1.2848 -0.3720  0.2698
  717TMC3    C110648   0.364   2.081   9.341  0.5865 -0.4813 -0.4802
  717TMC3    C210649   0.252   2.079   9.262 -0.3300 -0.1567 -0.3991
  717TMC3    C310650   0.228   1.962   9.204  0.5814  0.3304  0.0767
  717TMC3    C410651   0.452   1.968   9.369  0.3643 -0.1192  0.7018
  717TMC3    C510652   0.425   1.857   9.295  0.1854  0.2132  0.5404
  717TMC3    C610653   0.319   1.856   9.214 -0.0963 -0.1612  0.1827
  717TMC3     C10654   0.405   2.213   9.386 -0.6899 -0.1339 -0.4383
  717TMC3     O10655   0.513   2.220   9.439 -0.4102  0.3538  0.3702
  717TMC3     H10656   0.178   2.158   9.252  0.2653  0.6647  1.6667
  717TMC3    H110657   0.535   1.977   9.438  0.6829 -2.1721  0.5639
  717TMC3    H210658   0.303   1.770   9.151  0.6926 -0.5410  0.5095
  717TMC3    C710659   0.516   1.740   9.284 -0.3530 -0.1092 -0.1089
  717TMC3    C810660   0.114   1.944   9.112  0.3258 -0.6597  0.2165
  717TMC3    O110661   0.488   1.654   9.202 -0.1173  0.4333 -0.5166
  717TMC3    O210662   0.045   1.844   9.131  0.0723 -0.1735  0.2306
  718MPD2     C10663   3.846   0.773  12.279 -0.2699  0.0053  0.4810
  718MPD2    C110664   3.890   0.639  12.286 -0.2875 -0.3721  0.2532
  718MPD2    C210665   3.841   0.559  12.389 -0.6332 -0.1321  0.0155
  718MPD2    C310666   3.760   0.608  12.493  0.9647 -1.3283  0.2136
  718MPD2    C410667   3.718   0.740  12.487  0.4536  0.5748 -1.0031
  718MPD2    C510668   3.761   0.814  12.378 -0.9065 -0.3287 -0.2343
  718MPD2     H10669   3.890   0.463  12.402 -1.9953 -1.0235 -1.5615
  718MPD2    H110670   3.650   0.775  12.564  0.2049 -0.4908 -0.7420
  718MPD2    H210671   3.884   0.845  12.208  0.4829 -0.0083  0.8677
  718MPD2    H310672   3.732   0.918  12.376  0.4198  0.0332 -0.5220
  718MPD2     N10673   3.708   0.523  12.592 -0.3802 -0.1170  1.2444
  718MPD2    H510674   3.652   0.570  12.662 -2.0717 -0.4017  0.0662
  718MPD2    N110675   3.977   0.598  12.184 -0.1174 -0.1677 -0.0176
  718MPD2    H710676   4.009   0.675  12.127  0.7368 -1.3576 -1.1566
  719TMC3    C110677   4.120   0.454  12.060  0.0650 -0.8820  0.1808
  719TMC3    C210678   4.166   0.330  12.062 -1.0474  1.0256 -0.1735
  719TMC3    C310679   4.301   0.308  12.048 -0.1221 -0.4793  0.1102
  719TMC3    C410680   4.209   0.556  12.043  0.2901 -0.4012 -1.1643
  719TMC3    C510681   4.347   0.531  12.032 -0.0817 -0.8110 -0.4592
  719TMC3    C610682   4.393   0.401  12.036 -0.4996 -0.5052 -0.2521
  719TMC3     C10683   4.021   0.469  12.157 -0.4901 -0.0835  0.8395
  719TMC3     O10684   3.983   0.368  12.220  0.2470  0.7363  0.2553
  719TMC3     H10685   4.103   0.242  12.070  0.7242 -0.1905  0.5911
  719TMC3    H110686   4.186   0.662  12.044  0.0316 -0.4632 -0.7006
  719TMC3    H210687   4.489   0.386  11.988  0.2686  0.9900  0.8487
  719TMC3    C710688   4.441   0.623  12.092  0.8883 -0.6114  0.0395
  719TMC3    C810689   4.343   0.231  12.158 -0.5917  0.0215 -0.9765
  719TMC3    O110690   4.427   0.741  12.068 -0.3886 -0.4882  0.4666
  719TMC3    O210691   4.466   0.216  12.154  0.2436  0.4330 -0.3443
  720MPD2     C10692   2.651   2.250  13.985 -0.2648  0.8043  0.0896
  720MPD2    C110693   2.691   2.377  13.954  0.4153  0.1813 -0.3239
  720MPD2    C210694   2.823   2.416  13.985  0.6038  0.4839 -0.6173
  720MPD2    C310695   2.905   2.326  14.055 -0.4872  0.0568 -0.9366
  720MPD2    C410696   2.862   2.199  14.079 -0.1171  0.3771  0.5112
  720MPD2    C510697   2.736   2.160  14.046  0.1229 -0.2278  0.1343
  720MPD2     H10698   2.858   2.513  13.953  0.8623  0.9131  0.9726
  720MPD2    H110699   2.933   2.126  14.116  3.0582  2.8150 -0.7204
  720MPD2    H210700   2.552   2.209  13.968  1.4260 -3.7131  1.0534
  720MPD2    H310701   2.701   2.060  14.069 -0.9750 -0.2519 -1.6900
  720MPD2     N10702   3.032   2.362  14.102 -0.2699 -0.1183  0.5044
  720MPD2    H510703   3.079   2.443  14.063 -0.3012 -0.3635 -0.0350
  720MPD2    N110704   2.615   2.474  13.886 -0.4658  0.2929 -0.4961
  720MPD2    H710705   2.654   2.566  13.865  1.3683 -0.7316 -1.5334
  721TMC3    C110706   3.199   2.401  14.258 -0.0291  0.1289 -0.4256
  721TMC3    C210707   3.190   2.430  14.397  0.3549  0.1523  0.2070
  721TMC3    C310708   3.290   2.510  14.445 -0.3625  0.0026 -0.2472
  721TMC3    C410709   3.295   2.450  14.177 -0.5603 -0.4392  0.0776
  721TMC3    C510710   3.388   2.525  14.228 -0.2762  0.1673  0.3627
  721TMC3    C610711   3.393   2.548  14.363  0.4899 -0.8383  0.1737
  721TMC3     C10712   3.106   2.308  14.202  0.2900  0.2788 -0.3187
  721TMC3     O10713   3.072   2.222  14.285  0.1580  0.2256  1.0233
  721TMC3     H10714   3.106   2.391  14.452  0.2263 -0.1885 -0.2307
  721TMC3    H110715   3.301   2.433  14.070  1.3062 -1.4045  0.3311
  721TMC3    H210716   3.481   2.597  14.402 -1.2316  1.9914  0.4893
  721TMC3    C710717   3.523   2.515  14.167  0.6283 -0.0418  0.0292
  721TMC3    C810718   3.322   2.505  14.585  0.1700 -0.1552  0.1457
  721TMC3    O110719   3.540   2.558  14.051 -0.1885  0.0116 -0.9542
  721TMC3    O210720   3.408   2.582  14.622  0.1987 -0.3602 -0.2895
  722MPD2     C10721   1.850   0.666  13.067  0.0600 -0.0144  0.5181
  722MPD2    C110722   1.790   0.789  13.105 -0.2549  0.3424  1.1496
  722MPD2    C210723   1.681   0.786  13.190  0.7616 -0.5513  0.2644
  722MPD2    C310724   1.628   0.665  13.237  0.3334 -0.2460 -0.2629
  722MPD2    C410725   1.693   0.544  13.198 -0.2408  0.4876  0.2529
  722MPD2    C510726   1.805   0.551  13.122 -0.3393  0.0099 -0.4921
  722MPD2     H10727   1.640   0.883  13.219 -0.5586 -1.1393  0.3499
  722MPD2    H110728   1.660   0.448  13.237  0.2253 -0.9083 -2.7767
  722MPD2    H210729   1.929   0.666  12.992 -1.2484 -1.6345 -0.8734
  722MPD2    H310730   1.841   0.460  13.076 -1.4616 -0.0266 -1.3018
  722MPD2     N10731   1.518   0.676  13.318  0.0959 -0.0788  0.0405
  722MPD2    H510732   1.492   0.773  13.326  0.9714  0.2952 -1.6699
  722MPD2    N110733   1.848   0.903  13.052 -0.0380  0.3430 -0.1324
  722MPD2    H710734   1.919   0.884  12.983 -0.1726 -0.6997  0.0184
  723TMC3    C110735   1.319   0.618  13.430  0.1053  0.0471 -0.1852
  723TMC3    C210736   1.204   0.546  13.410  0.0568 -0.1501  0.0623
  723TMC3    C310737   1.087   0.594  13.461  0.4073 -0.2181  0.3103
  723TMC3    C410738   1.322   0.737  13.498 -0.4569 -0.0259  0.3326
  723TMC3    C510739   1.198   0.782  13.539  0.1375 -0.0078 -0.0070
  723TMC3    C610740   1.078   0.715  13.513 -0.3397 -0.3818 -0.3039
  723TMC3     C10741   1.439   0.568  13.368  0.2865 -0.0952 -1.2561
  723TMC3     O10742   1.455   0.450  13.355  0.1727 -0.1587  0.0373
  723TMC3     H10743   1.202   0.449  13.362  0.3365 -0.3046  0.3632
  723TMC3    H110744   1.411   0.795  13.520  0.0448 -1.1845  1.3816
  723TMC3    H210745   0.984   0.754  13.551  0.2772  1.5045 -0.7075
  723TMC3    C710746   1.208   0.924  13.559 -0.0378 -0.2843 -0.6789
  723TMC3    C810747   0.971   0.513  13.449  0.2896 -0.0321  0.4010
  723TMC3    O110748   1.315   0.977  13.588 -0.6965 -0.4513  0.4961
  723TMC3    O210749   0.883   0.534  13.528  0.3276 -0.2808 -0.0706
  724TMC3    C110750   2.611   0.086  10.740 -0.4263  0.4811  0.0494
  724TMC3    C210751   2.569   0.187  10.662 -0.3424 -0.1546 -0.0193
  724TMC3    C310752   2.662   0.230  10.570  0.2075 -0.4601  0.2523
  724TMC3    C410753   2.739   0.029  10.724 -0.2704  1.2566  0.0549
  724TMC3    C510754   2.828   0.085  10.640  0.7604  0.1978  0.3768
  724TMC3    C610755   2.790   0.181  10.554  0.2060  0.0552 -0.1486
  724TMC3     C10756   2.510   4.732  10.792  1.0548 -0.2401 -0.1167
  724TMC3     O10757   2.533   4.614  10.776  0.2096 -0.4072  0.0304
  724TMC3     H10758   2.464   0.213  10.658 -0.3281 -0.4177 -2.2189
  724TMC3    H110759   2.778   4.686  10.788  0.1417  2.6854  1.5363
  724TMC3    H210760   2.861   0.228  10.488  0.4904 -1.5161 -0.9641
  724TMC3    C710761   2.957   0.024  10.624  0.9479 -0.7030 -0.7429
  724TMC3    C810762   2.640   0.361  10.515 -0.1212 -0.4728  0.5178
  724TMC3    O110763   2.972   4.652  10.674  0.1779 -0.2822  0.8866
  724TMC3    O210764   2.711   0.400  10.422 -0.2361 -0.0311  0.3854
  725TMC3    C110765   3.933   2.697  12.459 -0.1920 -0.8571  0.4360
  725TMC3    C210766   3.819   2.707  12.382  0.3062 -0.2114 -0.4932
  725TMC3    C310767   3.827   2.634  12.270  0.3585 -0.3098  0.4014
  725TMC3    C410768   4.033   2.607  12.447  0.0973  0.2976 -0.0524
  725TMC3    C510769   4.031   2.531  12.335  0.4534  0.0734 -0.3754
  725TMC3    C610770   3.934   2.547  12.244  0.1592 -0.9347  0.1554
  725TMC3     C10771   3.937   2.785  12.574  0.1684 -0.2701  0.0313
  725TMC3     O10772   3.886   2.895  12.560  0.3415  0.5130 -0.2361
  725TMC3     H10773   3.742   2.781  12.401 -1.0255 -2.0548  1.2379
  725TMC3    H110774   4.125   2.634  12.498 -1.7377  3.2998  1.7081
  725TMC3    H210775   3.952   2.495  12.151 -0.6265 -0.1080 -0.4623
  725TMC3    C710776   4.143   2.437  12.323 -0.4851 -0.2545  0.0998
  725TMC3    C810777   3.734   2.647  12.163 -0.6768 -0.6719  0.5288
  725TMC3    O110778   4.247   2.483  12.365  0.1903  0.0255 -0.0307
  725TMC3    O210779   3.759   2.581  12.065 -0.4490 -0.0205  0.2385
  726MPD2     C10780   1.278   4.251  10.119 -0.7123  0.4457 -1.0541
  726MPD2    C110781   1.151   4.237  10.059  0.5985  0.3745  0.5431
  726MPD2    C210782   1.063   4.153  10.121  0.8581 -0.3913  0.0175
  726MPD2    C310783   1.088   4.091  10.246  0.0762 -0.2832  0.7668
  726MPD2    C410784   1.210   4.111  10.301  0.4454 -0.1531  0.1424
  726MPD2    C510785   1.303   4.188  10.235  0.5635 -0.3067  0.4837
  726MPD2     H10786   0.968   4.126  10.079  0.3905 -2.3960  2.3584
  726MPD2    H110787   1.244   4.080  10.399  1.8113  2.9339  0.6553
  726MPD2    H210788   1.353   4.313  10.071  1.5075  0.3666  2.3017
  726MPD2    H310789   1.403   4.210  10.272 -0.1828  2.4856  0.8548
  726MPD2     N10790   0.996   4.000  10.313  0.4869  0.1266  0.6375
  726MPD2    H510791   1.033   3.965  10.401  1.3522  0.2695  0.3274
  726MPD2    N110792   1.109   4.300   9.948 -0.4755  0.4880 -0.0253
  726MPD2    H710793   1.010   4.301   9.927 -0.8215 -1.0072  1.4619
  727TMC3    C110794   1.153   4.512   9.854  0.1234 -0.3093 -0.7602
  727TMC3    C210795   1.254   4.605   9.878 -0.2924  0.2055 -0.5331
  727TMC3    C310796   1.219   4.719   9.952 -0.5806  0.2592 -0.0340
  727TMC3    C410797   1.023   4.546   9.885  0.2479 -0.3587 -0.1165
  727TMC3    C510798   0.995   4.668   9.941 -0.0801  0.5116  0.4808
  727TMC3    C610799   1.092   0.015   9.991  0.3733 -0.2634 -0.7108
  727TMC3     C10800   1.193   4.374   9.872 -0.4292  0.2304 -0.0374
  727TMC3     O10801   1.310   4.346   9.842 -0.5594 -0.0159 -0.3063
  727TMC3     H10802   1.358   4.579   9.864 -0.0330  1.3471 -0.7537
  727TMC3    H110803   0.956   4.474   9.841  0.6051 -0.0744 -1.1377
  727TMC3    H210804   1.070   0.098  10.057 -1.4950 -1.6212  0.3660
  727TMC3    C710805   0.863   4.722   9.959  0.7472 -0.1948 -0.3266
  727TMC3    C810806   1.324   0.068  10.014  0.1597  0.3854 -0.2305
  727TMC3    O110807   0.856   0.103   9.996  0.4635  0.1758  0.5721
  727TMC3    O210808   1.423   0.005  10.038 -0.6569 -0.1511  0.3379
  728TMC3    C110809   4.561   3.064  15.253 -0.1928 -0.0890 -0.2826
  728TMC3    C210810   4.643   3.104  15.357 -0.8517  0.3231 -0.4963
  728TMC3    C310811   0.039   3.079  15.334 -0.1302  1.1139 -0.5291
  728TMC3    C410812   4.607   3.037  15.128 -0.2053  0.9736 -0.3551
  728TMC3    C510813   0.005   3.026  15.109  0.5635 -0.5662  0.0953
  728TMC3    C610814   0.094   3.038  15.212 -0.5733  0.1850  0.4607
  728TMC3     C10815   4.419   3.105  15.257  0.5766 -0.0913  0.0888
  728TMC3     O10816   4.370   3.135  15.152 -0.2039 -0.2587 -0.1050
  728TMC3     H10817   4.603   3.131  15.454  1.3213  1.6103  0.0260
  728TMC3    H110818   4.545   3.016  15.042 -0.5421 -1.0274  0.3580
  728TMC3    H210819   0.197   3.008  15.196 -0.7145 -0.9148  1.5670
  728TMC3    C710820   0.048   3.025  14.968  0.8067 -0.0129  1.0739
  728TMC3    C810821   0.138   3.107  15.439 -0.5300  0.5795  0.5242
  728TMC3    O110822   4.703   2.992  14.884  0.3600 -0.0783 -0.7029
  728TMC3    O210823   0.100   3.103  15.552  0.5175  0.1095  0.0523
  729MPD2     C10824   2.117   4.298  16.576 -0.2616 -0.3748 -0.0413
  729MPD2    C110825   2.226   4.248  16.646 -0.3972  0.1509 -0.5800
  729MPD2    C210826   2.210   4.219  16.785 -0.1973 -0.4201  0.7419
  729MPD2    C310827   2.097   4.242  16.855 -0.0920  0.0920 -0.0177
  729MPD2    C410828   1.996   4.311  16.788  0.3679 -0.5838  0.5354
  729MPD2    C510829   2.007   4.332  16.651 -0.9571  0.3541  0.0175
  729MPD2     H10830   2.297   4.184  16.840 -0.4370 -1.8218  0.2258
  729MPD2    H110831   1.905   4.331  16.842 -0.0127  1.2138 -0.7435
  729MPD2    H210832   2.116   4.321  16.470  0.5113 -0.0237  0.0280
  729MPD2    H310833   1.925   4.375  16.596 -1.1870 -1.0262 -0.6988
  729MPD2     N10834   2.081   4.223  16.995  0.0290 -0.0089 -0.4593
  729MPD2    H510835   1.996   4.264  17.032 -0.0854 -0.2488 -0.4594
  729MPD2    N110836   2.342   4.212  16.571 -0.2159  0.1201  0.5697
  729MPD2    H710837   2.336   4.243  16.474  0.1998  0.5607  0.6836
  730TMC3    C110838   2.171   4.231  17.213 -0.5561 -0.0482 -0.5035
  730TMC3    C210839   2.254   4.173  17.298 -0.2217  0.4529  0.0038
  730TMC3    C310840   2.300   4.246  17.406 -0.0338 -0.0135 -0.7702
  730TMC3    C410841   2.113   4.354  17.245  0.7910  0.6400 -0.5484
  730TMC3    C510842   2.145   4.418  17.361 -1.3346 -1.1179 -1.2324
  730TMC3    C610843   2.231   4.360  17.453  0.3614 -0.1412 -0.2611
  730TMC3     C10844   2.170   4.166  17.083  0.1694  0.2990  0.3774
  730TMC3     O10845   2.243   4.067  17.065  0.2256 -0.5115 -0.1569
  730TMC3     H10846   2.298   4.076  17.278  0.9292  0.8509  0.6039
  730TMC3    H110847   2.053   4.410  17.173 -1.2445 -0.0660  0.6092
  730TMC3    H210848   2.252   4.400  17.552 -0.2600  0.0778 -0.2114
  730TMC3    C710849   2.122   4.564  17.374  0.7871 -0.0325 -0.2619
  730TMC3    C810850   2.430   4.298  17.359 -0.5600  0.3131 -0.6098
  730TMC3    O110851   2.078   4.628  17.276  0.2967  0.1534  0.2913
  730TMC3    O210852   2.485   4.252  17.262  0.3137  0.1585 -1.0524
  731MPD2     C10853   2.776   1.878  12.274  0.1784  0.2890 -0.1209
  731MPD2    C110854   2.899   1.836  12.250 -0.1937 -0.1312  0.7380
  731MPD2    C210855   2.996   1.832  12.350  0.0709 -0.1084  0.0925
  731MPD2    C310856   2.961   1.869  12.484  0.5319 -0.2107  0.7029
  731MPD2    C410857   2.831   1.912  12.506 -0.7915 -0.1038 -0.9061
  731MPD2    C510858   2.744   1.914  12.403 -0.5655 -0.4227  1.1447
  731MPD2     H10859   3.099   1.809  12.323  0.1897  1.0706 -0.4711
  731MPD2    H110860   2.794   1.940  12.604 -0.4661 -1.7418 -0.3238
  731MPD2    H210861   2.697   1.881  12.200  0.3344  0.8411 -0.2655
  731MPD2    H310862   2.637   1.931  12.410 -0.3787  1.2513 -0.1466
  731MPD2     N10863   3.062   1.863  12.584  0.0601 -0.6300 -0.4131
  731MPD2    H510864   3.158   1.851  12.553  0.8530  0.1947  1.7230
  731MPD2    N110865   2.928   1.810  12.115 -0.4219 -0.7342  0.3750
  731MPD2    H710866   2.854   1.832  12.049  1.9808  0.1096 -2.0279
  732TMC3    C110867   3.015   1.700  11.925 -0.7060 -0.6184 -0.8721
  732TMC3    C210868   2.902   1.732  11.848  0.6120  0.0201 -0.3575
  732TMC3    C310869   2.895   1.684  11.716  0.2382 -0.1585 -0.3138
  732TMC3    C410870   3.119   1.623  11.875  0.4008  0.0357 -0.0047
  732TMC3    C510871   3.109   1.589  11.740 -0.4458 -0.5039  0.7830
  732TMC3    C610872   3.003   1.625  11.658  0.2237 -0.3805  0.0184
  732TMC3     C10873   3.028   1.734  12.063 -0.9673  0.4414 -0.6881
  732TMC3     O10874   3.115   1.673  12.130 -0.0887  0.6202 -0.8282
  732TMC3     H10875   2.817   1.770  11.903 -1.5710 -0.7874 -3.1311
  732TMC3    H110876   3.189   1.586  11.948 -0.8299  0.1430  1.2365
  732TMC3    H210877   3.006   1.591  11.555  0.5351  0.8232 -0.3644
  732TMC3    C710878   3.205   1.491  11.693 -0.5808 -0.1923 -0.1276
  732TMC3    C810879   2.765   1.671  11.655 -0.3131 -0.2382  0.2300
  732TMC3    O110880   3.186   1.450  11.577 -0.1690 -0.5768 -0.4683
  732TMC3    O210881   2.763   1.620  11.547 -0.6577  0.1602  0.3822
  733TMC3    C110882   3.775   0.414  12.932 -0.1918 -0.2549  0.1058
  733TMC3    C210883   3.691   0.415  12.827 -0.1219  0.1293 -0.7682
  733TMC3    C310884   3.695   0.316  12.729  0.4499  0.1983  0.4228
  733TMC3    C410885   3.876   0.323  12.942 -0.4844 -0.2889 -0.5005
  733TMC3    C510886   3.885   0.222  12.851  0.0980  0.4742  0.0391
  733TMC3    C610887   3.786   0.219  12.751  0.9399  0.0024  0.5277
  733TMC3     C10888   3.727   0.491  13.045 -0.7039  0.2666 -0.7202
  733TMC3     O10889   3.652   0.584  13.018  0.6114 -0.1188 -0.4006
  733TMC3     H10890   3.625   0.501  12.815 -0.6652 -0.2147 -0.2253
  733TMC3    H110891   3.949   0.336  13.021  0.5480  2.2611 -1.8900
  733TMC3    H210892   3.797   0.135  12.683  1.2319  1.6724 -1.4686
  733TMC3    C710893   4.020   0.178  12.821 -0.5540  0.3648  0.8459
  733TMC3    C810894   3.724   0.385  12.600 -0.4566  0.1086  0.7312
  733TMC3    O110895   4.102   0.184  12.908  0.1173 -0.0940  0.1250
  733TMC3    O210896   3.801   0.315  12.537 -0.0666  0.4102  0.4015
  734MPD2     C10897   1.144   2.615  12.835  0.5875  0.0871 -0.5784
  734MPD2    C110898   1.085   2.528  12.743  0.0914  0.1300 -0.4962
  734MPD2    C210899   1.018   2.585  12.639 -0.4624  0.1390  0.1129
  734MPD2    C310900   1.016   2.722  12.620  0.1552 -0.0738 -0.1583
  734MPD2    C410901   1.076   2.808  12.711 -0.5546  0.3579  0.7120
  734MPD2    C510902   1.133   2.746  12.819  0.1652 -0.8931  0.2278
  734MPD2     H10903   0.966   2.525  12.566 -0.5492  0.0318  0.2627
  734MPD2    H110904   1.070   2.915  12.695 -2.7957 -0.3415 -3.0435
  734MPD2    H210905   1.208   2.582  12.916 -3.5674 -0.3378  2.5414
  734MPD2    H310906   1.173   2.810  12.897  0.9446 -0.9269 -0.1430
  734MPD2     N10907   0.940   2.759  12.512 -0.0704  0.1020 -0.0407
  734MPD2    H510908   0.881   2.689  12.469  2.0239 -1.7069  0.0158
  734MPD2    N110909   1.111   2.389  12.745 -0.2509  0.4492  0.2709
  734MPD2    H710910   1.188   2.353  12.801 -0.9899 -0.4409  0.7102
  735TMC3    C110911   1.077   2.165  12.674  0.2647  0.2851 -0.0584
  735TMC3    C210912   0.972   2.087  12.629 -1.0551 -0.0712 -0.7859
  735TMC3    C310913   0.995   1.976  12.554 -0.0176 -0.3065 -0.4935
  735TMC3    C410914   1.199   2.129  12.639 -0.1660 -0.0371  0.0910
  735TMC3    C510915   1.222   2.016  12.568  0.2248 -0.0682  0.1701
  735TMC3    C610916   1.122   1.931  12.526  0.1581  0.4733  0.4016
  735TMC3     C10917   1.041   2.303  12.664  0.2465  0.4529  0.2046
  735TMC3     O10918   0.927   2.315  12.614  0.0278 -0.2467  0.0734
  735TMC3     H10919   0.871   2.100  12.666 -0.6462  0.1053  0.2816
  735TMC3    H110920   1.286   2.189  12.664 -0.4103 -0.7497  2.5822
  735TMC3    H210921   1.139   1.869  12.438  1.3670  2.1785 -0.5728
  735TMC3    C710922   1.359   2.007  12.510  0.5374  0.4255 -0.6209
  735TMC3    C810923   0.904   1.977  12.434  0.2010 -0.4923 -0.2529
  735TMC3    O110924   1.420   2.114  12.496 -0.2374  0.7437  0.5741
  735TMC3    O210925   0.884   1.870  12.370 -0.4260  0.0286 -0.1656
  736MPD2     C10926   1.505   1.689  12.376  0.7046  0.1914  0.2744
  736MPD2    C110927   1.487   1.824  12.387  0.2201 -0.5748 -0.2464
  736MPD2    C210928   1.545   1.907  12.299  0.5736  0.2526  0.1847
  736MPD2    C310929   1.612   1.861  12.186  0.3907 -0.7798 -0.7375
  736MPD2    C410930   1.627   1.721  12.176  0.0774  0.2415  0.1428
  736MPD2    C510931   1.569   1.637  12.270  0.1814 -0.2769  0.7975
  736MPD2     H10932   1.529   2.014  12.308 -1.7160 -0.2455  1.9409
  736MPD2    H110933   1.685   1.680  12.094 -1.7247  0.5994 -1.3036
  736MPD2    H210934   1.457   1.623  12.448  0.5823  1.4001  1.3133
  736MPD2    H310935   1.582   1.530  12.256 -3.1844 -0.4942 -0.5424
  736MPD2     N10936   1.657   1.943  12.074 -0.2845 -0.2320 -0.2000
  736MPD2    H510937   1.701   1.893  11.998  1.4491  2.3023 -0.8687
  736MPD2    N110938   1.391   1.871  12.484  0.3151 -0.4888 -0.5659
  736MPD2    H710939   1.342   1.798  12.535 -1.0076 -0.0448 -1.2042
  737TMC3    C110940   1.705   2.134  11.950  0.0030 -0.0768 -0.5608
  737TMC3    C210941   1.718   2.272  11.942 -0.5913 -0.1712 -0.2260
  737TMC3    C310942   1.792   2.319  11.832 -0.5434  0.3744 -0.3441
  737TMC3    C410943   1.765   2.049  11.853 -0.0312  0.0811  0.3367
  737TMC3    C510944   1.845   2.108  11.756  0.6619 -0.0249 -0.4519
  737TMC3    C610945   1.866   2.243  11.740  0.7084  0.8587  0.0613
  737TMC3     C10946   1.662   2.081  12.080  0.6876  0.3055 -0.1497
  737TMC3     O10947   1.635   2.163  12.166 -0.4756 -0.2896  0.6001
  737TMC3     H10948   1.685   2.345  12.015  1.4590  1.3051 -0.7712
  737TMC3    H110949   1.754   1.941  11.855 -0.2173  0.0691 -1.4624
  737TMC3    H210950   1.931   2.295  11.670  0.5610  2.0886  0.8311
  737TMC3    C710951   1.874   2.014  11.651  0.0905 -0.1441 -0.1858
  737TMC3    C810952   1.777   2.460  11.811  1.0238 -0.4770  0.4593
  737TMC3    O110953   1.795   1.922  11.633 -0.4302  0.1715 -0.0679
  737TMC3    O210954   1.752   2.535  11.905 -0.1775 -0.6603  0.2953
  738MPD2     C10955   1.464   1.631  15.040 -0.3554 -0.0284  0.1791
  738MPD2    C110956   1.504   1.533  15.129 -0.7695  0.3986 -0.2872
  738MPD2    C210957   1.622   1.551  15.202  0.0113  0.8567  0.4276
  738MPD2    C310958   1.700   1.662  15.183 -0.4360 -0.0693 -0.2755
  738MPD2    C410959   1.663   1.763  15.101 -0.2085 -0.4427 -0.1104
  738MPD2    C510960   1.548   1.742  15.028  1.0709  0.1748 -0.5510
  738MPD2     H10961   1.661   1.468  15.260 -1.4600 -0.0979  0.0432
  738MPD2    H110962   1.706   1.862  15.094 -2.7954  0.8438  1.9841
  738MPD2    H210963   1.374   1.635  14.980 -0.2830 -0.1881  0.0593
  738MPD2    H310964   1.523   1.828  14.966  0.1043  0.8473  0.7580
  738MPD2     N10965   1.826   1.680  15.254 -0.4840 -0.6356  0.3759
  738MPD2    H510966   1.872   1.768  15.235  0.5151 -1.4129 -0.7381
  738MPD2    N110967   1.431   1.412  15.146  0.4074 -0.7686 -0.2017
  738MPD2    H710968   1.446   1.346  15.221 -0.5150 -1.2928 -0.4727
  739TMC3    C110969   2.032   1.605  15.320 -0.3000  0.2612 -0.2232
  739TMC3    C210970   2.071   1.642  15.194 -0.4759 -0.4061 -0.4591
  739TMC3    C310971   2.172   1.567  15.133 -0.5062  0.0964 -0.4402
  739TMC3    C410972   2.101   1.503  15.384 -0.1792  0.2646 -0.1686
  739TMC3    C510973   2.209   1.437  15.324  0.0323 -1.3120  0.2191
  739TMC3    C610974   2.239   1.465  15.194 -0.2575 -0.8675  1.0799
  739TMC3     C10975   1.896   1.589  15.333  0.4361  0.0199  0.2145
  739TMC3     O10976   1.859   1.479  15.374 -0.3136 -0.2131  0.8241
  739TMC3     H10977   2.031   1.719  15.129  1.6178  0.0363 -1.2066
  739TMC3    H110978   2.057   1.479  15.480 -0.2677 -1.7222 -0.7077
  739TMC3    H210979   2.319   1.412  15.142  0.3936  0.5020  0.6837
  739TMC3    C710980   2.281   1.345  15.408  0.4284 -0.0045  0.0394
  739TMC3    C810981   2.168   1.572  14.986  0.2127 -0.0953 -0.1801
  739TMC3    O110982   2.236   1.335  15.522 -0.2025  0.9205 -0.3355
  739TMC3    O210983   2.113   1.670  14.930 -0.0868  0.3050 -0.1530
  740TMC3    C110984   2.496   2.828  14.752  0.5515  0.6519 -0.3584
  740TMC3    C210985   2.494   2.769  14.866  0.4139  0.5028 -0.2818
  740TMC3    C310986   2.594   2.686  14.912 -0.2654  0.1444  0.0576
  740TMC3    C410987   2.596   2.804  14.662 -0.1626 -0.3126 -0.0129
  740TMC3    C510988   2.691   2.711  14.703  0.5083  0.2004  0.1738
  740TMC3    C610989   2.692   2.656  14.826  0.2499  0.0759 -0.0124
  740TMC3     C10990   2.384   2.907  14.710 -0.2189 -0.2161  0.0277
  740TMC3     O10991   2.399   2.991  14.622 -0.0527  0.1983  0.1924
  740TMC3     H10992   2.426   2.799  14.944  0.2910 -1.6626  0.4637
  740TMC3    H110993   2.601   2.858  14.568  0.2511  0.2860  0.3502
  740TMC3    H210994   2.775   2.600  14.868  0.3187  0.5131  0.4437
  740TMC3    C710995   2.817   2.697  14.627 -0.6677  0.1210  0.0721
  740TMC3    C810996   2.598   2.647  15.056  0.9089  0.5750 -0.1964
  740TMC3    O110997   2.910   2.644  14.686  0.1883 -0.6074  0.0857
  740TMC3    O210998   2.492   2.667  15.121  0.0836  0.0700 -0.1791
  741TMC3    C110999   2.181   1.945  14.958  0.4126  0.3701 -0.6626
  741TMC3    C211000   2.112   1.944  14.847 -0.2907 -0.3178 -0.6120
  741TMC3    C311001   1.984   2.000  14.848 -0.1980 -0.2955 -0.5208
  741TMC3    C411002   2.134   1.992  15.075 -0.0263  0.4236  0.3580
  741TMC3    C511003   2.009   2.050  15.074  0.2713  0.5009  0.7034
  741TMC3    C611004   1.936   2.065  14.956 -0.0805  0.4009 -0.2811
  741TMC3     C11005   2.319   1.905  14.955  0.1980  0.1711  0.2561
  741TMC3     O11006   2.367   1.876  15.064  0.4438  0.5359 -0.0580
  741TMC3     H11007   2.145   1.878  14.767 -1.6131 -1.0041 -0.5909
  741TMC3    H111008   2.193   1.986  15.166  0.1796  0.3288  0.2185
  741TMC3    H211009   1.831   2.094  14.957 -0.6392 -1.6120  0.6141
  741TMC3    C711010   1.940   2.021  15.200 -0.4154  0.4142  1.0829
  741TMC3    C811011   1.879   1.955  14.763  0.0082 -0.3381  0.0540
  741TMC3    O111012   1.994   1.942  15.273 -0.5311 -0.1540 -0.2510
  741TMC3    O211013   1.786   2.028  14.727  0.4343  0.0511 -0.1876
  742TMC3    C111014   1.936   0.407  15.556  0.5733  0.0879  0.4008
  742TMC3    C211015   1.891   0.440  15.431  0.6141  0.4600  0.0131
  742TMC3    C311016   1.942   0.376  15.323 -0.2162 -0.8404  0.4033
  742TMC3    C411017   2.038   0.326  15.582 -0.3394 -0.0139 -0.0339
  742TMC3    C511018   2.088   0.260  15.477 -0.3883  0.7254  0.1396
  742TMC3    C611019   2.039   0.277  15.348 -0.3709  0.7545  0.4334
  742TMC3     C11020   1.857   0.444  15.678 -0.2889  0.6084  0.1966
  742TMC3     O11021   1.897   0.414  15.789  0.2377 -0.0656 -0.2810
  742TMC3     H11022   1.799   0.496  15.424  1.2008  1.6175  1.4325
  742TMC3    H111023   2.074   0.313  15.684 -0.2158 -3.9387 -0.5824
  742TMC3    H211024   2.079   0.227  15.261  0.4287 -2.1657  2.4993
  742TMC3    C711025   2.179   0.152  15.501 -0.0044  0.4824  0.2425
  742TMC3    C811026   1.916   0.403  15.186 -0.2496 -0.2175 -0.0283
  742TMC3    O111027   2.161   0.060  15.422  0.5669 -0.2658 -0.6043
  742TMC3    O211028   1.918   0.302  15.112  0.7034  0.3616 -0.4768
  743MPD2     C11029   3.733   2.789   1.394  0.3370 -0.5082 -0.5439
  743MPD2    C111030   3.776   2.679   1.315 -0.4614  0.6922 -0.6241
  743MPD2    C211031   3.909   2.631   1.331  0.4289 -0.8168 -0.1030
  743MPD2    C311032   3.994   2.677   1.436 -0.3377  0.5312  0.0676
  743MPD2    C411033   3.947   2.784   1.519  0.0595  0.4328 -0.1253
  743MPD2    C511034   3.819   2.833   1.495  0.4109  0.3781  1.0585
  743MPD2     H11035   3.950   2.555   1.266  2.5040  0.1516  0.0640
  743MPD2    H111036   4.017   2.832   1.587  0.8396 -0.5771 -0.2105
  743MPD2    H211037   3.630   2.821   1.384 -0.0739 -1.1600  1.5933
  743MPD2    H311038   3.779   2.916   1.552 -0.5516  0.3744  0.3872
  743MPD2     N11039   4.121   2.622   1.463 -0.6907  0.6784 -0.0677
  743MPD2    H511040   4.149   2.543   1.406 -1.5898  0.2961  0.0124
  743MPD2    N111041   3.686   2.611   1.228  0.2844 -0.1158  0.1678
  743MPD2    H711042   3.587   2.632   1.240  0.1948 -0.6424  0.3666
  744TMC3    C111043   3.620   2.424   1.092  0.1202  0.6297  0.8692
  744TMC3    C211044   3.533   2.376   1.186 -0.0572  0.1979 -0.5193
  744TMC3    C311045   3.455   2.264   1.152 -0.3818  0.3785 -0.8037
  744TMC3    C411046   3.627   2.376   0.963  0.2014 -0.5834 -0.2022
  744TMC3    C511047   3.548   2.268   0.936  0.2982  0.9283  0.9573
  744TMC3    C611048   3.460   2.212   1.022 -0.4067 -0.6440  0.5538
  744TMC3     C11049   3.724   2.514   1.138 -0.2935  0.0011 -0.6794
  744TMC3     O11050   3.828   2.511   1.079  0.0747  0.1198  0.0336
  744TMC3     H11051   3.505   2.433   1.274  2.7170 -1.5236  1.4528
  744TMC3    H111052   3.702   2.408   0.892  2.4135 -1.8929  1.5104
  744TMC3    H211053   3.421   2.114   1.001 -0.9416  0.3192 -2.8991
  744TMC3    C711054   3.594   2.205   0.810  0.4030 -0.1341 -0.3952
  744TMC3    C811055   3.323   2.258   1.218 -0.2970  0.0847  0.5388
  744TMC3    O111056   3.717   2.199   0.799  0.1255 -0.6442  0.8457
  744TMC3    O211057   3.227   2.300   1.157  0.4771  0.2759 -0.1993
  745TMC3    C111058   2.733   0.276  13.692 -0.7846 -0.5293 -0.5500
  745TMC3    C211059   2.642   0.197  13.757 -0.6740  0.4218 -0.8929
  745TMC3    C311060   2.569   0.107  13.685  0.3505 -0.2391 -0.2217
  745TMC3    C411061   2.757   0.287  13.562 -0.0075 -0.4690  0.1982
  745TMC3    C511062   2.681   0.194  13.489 -0.0070  0.1388 -0.1288
  745TMC3    C611063   2.591   0.108  13.550 -0.3449 -0.5974  0.3442
  745TMC3     C11064   2.797   0.368  13.781  0.2303  0.1402 -0.1294
  745TMC3     O11065   2.862   0.317  13.871  0.4865  0.5513  0.4426
  745TMC3     H11066   2.657   0.186  13.864  0.6613 -1.0785 -1.2473
  745TMC3    H111067   2.827   0.360  13.524 -1.5785 -1.1029 -3.8562
  745TMC3    H211068   2.553   0.029  13.487  0.7270  0.7073 -1.9289
  745TMC3    C711069   2.694   0.183  13.346  0.1957  0.0780  0.4927
  745TMC3    C811070   2.431   0.101  13.726 -0.2804  0.5331  0.0756
  745TMC3    O111071   2.601   0.136  13.282  0.4866 -0.1367 -0.3559
  745TMC3    O211072   2.353   0.056  13.647 -0.1591  0.2060 -0.5513
  746TMC3    C111073   0.150   2.303  11.097  0.5020  0.4514 -1.1923
  746TMC3    C211074   0.267   2.265  11.037 -0.0049  0.1251  0.4300
  746TMC3    C311075   0.261   2.152  10.958  0.0774  0.5738 -0.2307
  746TMC3    C411076   0.035   2.235  11.074  0.4290  0.1004  1.1197
  746TMC3    C511077   0.034   2.131  10.993  0.1057 -0.3109  0.0749
  746TMC3    C611078   0.147   2.087  10.927  0.6380 -0.1922  0.0716
  746TMC3     C11079   0.118   2.439  11.122 -0.2392  0.3992  0.6739
  746TMC3     O11080   0.010   2.458  11.176  0.2236 -0.5506  0.5941
  746TMC3     H11081   0.362   2.305  11.070  0.1415 -1.4354  1.8497
  746TMC3    H111082   4.677   2.271  11.116 -1.2026 -1.1419 -1.4233
  746TMC3    H211083   0.133   2.000  10.865  0.2756 -0.8189  1.0378
  746TMC3    C711084   4.643   2.056  10.961  0.1617  0.3081 -0.1010
  746TMC3    C811085   0.370   2.110  10.879 -0.1281  0.1024  0.0396
  746TMC3    O111086   4.634   2.010  10.850 -0.0107 -0.2920 -0.1726
  746TMC3    O211087   0.485   2.116  10.917  0.4850  0.0503 -0.2515
  747TMC3    C111088   2.714   1.823  11.038 -0.3006  0.3523  0.7777
  747TMC3    C211089   2.582   1.824  11.042 -0.1968 -0.2183  0.2166
  747TMC3    C311090   2.527   1.846  11.165  0.1202 -0.2429  0.0441
  747TMC3    C411091   2.791   1.866  11.142 -0.5516  0.6543  0.2410
  747TMC3    C511092   2.725   1.890  11.262 -0.0771 -0.0200  0.9210
  747TMC3    C611093   2.595   1.877  11.278  0.4249  0.3500 -0.5569
  747TMC3     C11094   2.789   1.805  10.914  0.2525 -0.2341 -0.2726
  747TMC3     O11095   2.886   1.878  10.899 -0.0917 -0.0217  0.8408
  747TMC3     H11096   2.521   1.813  10.953 -0.7794  2.8965  0.2590
  747TMC3    H111097   2.898   1.854  11.127 -0.8330 -1.6105  0.0955
  747TMC3    H211098   2.548   1.912  11.370 -1.3530  1.1698 -1.7735
  747TMC3    C711099   2.806   1.921  11.374  0.0444 -0.2839  0.3297
  747TMC3    C811100   2.388   1.855  11.162  0.3507 -0.0020 -0.2320
  747TMC3    O111101   2.753   1.984  11.465 -0.6951 -0.5255 -0.4371
  747TMC3    O211102   2.319   1.822  11.061 -0.0045  0.1371 -0.0922
  748MPD2     C11103   3.670   3.114   0.734  0.3523  0.1264 -0.8551
  748MPD2    C111104   3.679   3.218   0.826  0.5213 -0.8050 -0.3047
  748MPD2    C211105   3.800   3.278   0.844 -0.4111  0.0213  0.2627
  748MPD2    C311106   3.910   3.244   0.766  0.2967  0.5943 -0.2339
  748MPD2    C411107   3.908   3.143   0.681  0.4477 -0.1696 -0.4211
  748MPD2    C511108   3.780   3.082   0.665  0.1218 -0.2009  0.0138
  748MPD2     H11109   3.814   3.356   0.917 -1.0693  0.4251 -0.0431
  748MPD2    H111110   3.988   3.108   0.617  0.8624 -0.6341  0.3512
  748MPD2    H211111   3.576   3.070   0.702  0.3481 -1.2216  1.0295
  748MPD2    H311112   3.773   2.999   0.596  0.7182 -1.5870  1.6302
  748MPD2     N11113   4.012   3.340   0.778  0.5888  0.0685 -0.4050
  748MPD2    H511114   3.998   3.423   0.835  0.0815 -0.3576  0.0814
  748MPD2    N111115   3.560   3.262   0.892 -0.3194 -0.3329  0.2078
  748MPD2    H711116   3.475   3.214   0.866  0.3141 -0.5983 -1.3808
  749TMC3    C111117   4.234   3.435   0.733 -0.3542 -0.1042  0.2971
  749TMC3    C211118   4.366   3.401   0.747 -0.5206 -0.3000 -0.2362
  749TMC3    C311119   4.462   3.501   0.769 -0.2446  0.5898 -0.4610
  749TMC3    C411120   4.198   3.561   0.721 -0.1273 -0.0154 -0.2572
  749TMC3    C511121   4.296   3.658   0.720 -0.2691  0.3406 -0.0060
  749TMC3    C611122   4.432   3.635   0.754 -0.6329 -0.0238 -0.9122
  749TMC3     C11123   4.133   3.331   0.711  1.3846  0.2050  0.8276
  749TMC3     O11124   4.169   3.238   0.643  0.2041 -0.0100 -0.0823
  749TMC3     H11125   4.390   3.296   0.757  1.0432  0.1674  0.8783
  749TMC3    H111126   4.093   3.586   0.730 -0.2763 -0.5585 -0.5168
  749TMC3    H211127   4.498   3.721   0.765  0.2454 -0.9013  0.6328
  749TMC3    C711128   4.273   3.770   0.630 -0.1528 -0.2614 -0.2853
  749TMC3    C811129   4.572   3.476   0.852  0.3695 -0.1669  0.8691
  749TMC3    O111130   4.330   3.877   0.650  0.5567  0.0001  0.3515
  749TMC3    O211131   4.615   3.566   0.926 -0.3542 -1.0480 -0.0268
  750MPD2     C11132   4.123   3.596  10.847  0.3399  0.8850 -1.2318
  750MPD2    C111133   4.071   3.496  10.929  0.2854  0.1682 -1.6266
  750MPD2    C211134   4.120   3.368  10.925  0.2013 -0.0532  0.4659
  750MPD2    C311135   4.220   3.333  10.839  0.4755  0.0735 -0.1760
  750MPD2    C411136   4.269   3.430  10.757  0.5618 -0.9575  0.3098
  750MPD2    C511137   4.223   3.561  10.763 -0.3285  0.6623  0.1429
  750MPD2     H11138   4.074   3.294  10.990  1.2561  0.8071  2.2203
  750MPD2    H111139   4.340   3.398  10.681  0.5605 -0.9550  0.3075
  750MPD2    H211140   4.102   3.702  10.841 -1.0578  0.7368  1.0402
  750MPD2    H311141   4.266   3.633  10.694 -1.0002  0.2521 -0.6917
  750MPD2     N11142   4.283   3.212  10.833 -0.1760  0.2026 -0.3591
  750MPD2    H511143   4.358   3.201  10.765 -0.1092  3.1419 -0.7394
  750MPD2    N111144   3.975   3.537  11.020  0.3394  0.1901  0.5446
  750MPD2    H711145   3.953   3.636  11.018  0.2412  0.1162 -2.2111
  751TMC3    C111146   4.275   2.977  10.850 -0.3108  0.6880  0.2150
  751TMC3    C211147   4.204   2.867  10.870 -0.1260 -0.2326  0.4579
  751TMC3    C311148   4.250   2.752  10.823 -0.0258  0.5907  0.1688
  751TMC3    C411149   4.404   2.973  10.805  0.9016 -0.2581 -0.4070
  751TMC3    C511150   4.447   2.852  10.758  0.1258  0.5360  0.1400
  751TMC3    C611151   4.372   2.737  10.764 -0.4460 -0.2454  0.0637
  751TMC3     C11152   4.230   3.106  10.903  0.4488 -0.0257  0.1501
  751TMC3     O11153   4.138   3.095  10.986 -0.8859 -0.1246 -0.6123
  751TMC3     H11154   4.099   2.876  10.898  0.6820 -0.0777  3.4800
  751TMC3    H111155   4.476   3.054  10.812  1.4285 -0.6833 -0.9511
  751TMC3    H211156   4.397   2.640  10.721 -1.1996 -0.7682  0.8046
  751TMC3    C711157   4.587   2.833  10.714 -0.1663  0.2900  0.2190
  751TMC3    C811158   4.170   2.630  10.829 -0.5447 -0.3857 -0.5291
  751TMC3    O111159   4.637   2.929  10.663 -0.3319  0.1933  0.3994
  751TMC3    O211160   4.199   2.542  10.754  0.4063  0.2510  0.6766
  752TMC3    C111161   2.988   3.964  17.498  0.3316 -0.0841  0.5531
  752TMC3    C211162   3.063   3.964  17.612  0.2521 -0.0816 -0.4815
  752TMC3    C311163   3.004   3.998  17.729 -0.7065 -0.2391 -0.1941
  752TMC3    C411164   2.847   3.979  17.499  0.3654 -0.4896 -0.0818
  752TMC3    C511165   2.793   3.997  17.626  0.2437  0.2382  0.4455
  752TMC3    C611166   2.868   4.008  17.738 -0.1600 -0.3160 -0.3868
  752TMC3     C11167   3.053   3.946  17.369  0.2048  0.2745 -0.3631
  752TMC3     O11168   3.171   3.939  17.368 -0.1602 -0.9380  0.0119
  752TMC3     H11169   3.170   3.965  17.597  0.2033 -0.7570 -0.9053
  752TMC3    H111170   2.780   3.964  17.416  0.1515  0.9183 -0.1460
  752TMC3    H211171   2.828   4.030   0.097 -2.7969 -0.3338 -1.4519
  752TMC3    C711172   2.650   4.044  17.625 -0.2060 -0.2562 -0.3639
  752TMC3    C811173   3.069   3.950   0.108 -0.3718 -0.3971 -0.7152
  752TMC3    O111174   2.594   4.054  17.516  0.0831  0.1876 -0.3823
  752TMC3    O211175   3.008   3.894   0.197 -0.2069  0.5689 -0.0901
  753TMC3    C111176   0.694   4.643  13.426 -0.1406  0.6186  0.9021
  753TMC3    C211177   0.789   4.704  13.500 -0.0754 -0.0377  0.2087
  753TMC3    C311178   0.911   4.646  13.518  0.7775 -0.3480 -0.7214
  753TMC3    C411179   0.717   4.528  13.356  1.4700  0.2819  0.0330
  753TMC3    C511180   0.844   4.479  13.364  0.4828  0.0973 -0.5628
  753TMC3    C611181   0.941   4.539  13.447  0.2228 -0.3230  0.2681
  753TMC3     C11182   0.558   4.688  13.422 -0.1503 -0.6191  0.0564
  753TMC3     O11183   0.489   4.662  13.324 -0.2197  0.5094  0.1125
  753TMC3     H11184   0.773   0.073  13.524 -2.7966 -0.3228 -0.4186
  753TMC3    H111185   0.635   4.469  13.317  0.4027  1.5148  0.4054
  753TMC3    H211186   1.037   4.490  13.459 -0.0249 -1.2574 -1.5540
  753TMC3    C711187   0.874   4.368  13.277  0.2209  0.2403 -0.1084
  753TMC3    C811188   1.025   4.723  13.565  0.1841 -0.5900 -0.7186
  753TMC3    O111189   0.782   4.329  13.211 -0.6896  0.2380 -0.1275
  753TMC3    O211190   1.134   4.684  13.531  0.5572 -0.3147 -0.2247
  754MPD2     C11191   4.503   3.935  12.902 -0.0773  0.3600 -0.5397
  754MPD2    C111192   4.524   3.804  12.932  0.1765 -0.4330 -0.5688
  754MPD2    C211193   4.412   3.725  12.957 -0.4398 -0.3168  0.2903
  754MPD2    C311194   4.286   3.781  12.958  0.2860  0.1580  0.4207
  754MPD2    C411195   4.266   3.911  12.939  0.0797  0.2797  0.3101
  754MPD2    C511196   4.376   3.983  12.909 -0.2115  0.7902  0.5196
  754MPD2     H11197   4.419   3.616  12.960 -0.7145 -0.3285  0.5609
  754MPD2    H111198   4.169   3.960  12.942 -0.0393  0.0624  0.0138
  754MPD2    H211199   4.587   3.998  12.875  0.2052 -0.2206 -1.0149
  754MPD2    H311200   4.371   4.090  12.893 -2.5817  0.5746 -0.2253
  754MPD2     N11201   4.172   3.701  12.995 -0.2962 -0.7129 -0.2968
  754MPD2    H511202   4.084   3.751  12.987 -0.5106 -1.5189 -3.1596
  754MPD2    N111203   4.658   3.753  12.933 -0.0591 -0.7303 -0.0693
  754MPD2    H711204   4.730   3.813  12.893 -3.0399  3.4497  0.8731
  755MPD2     C11205   3.375   4.000  13.123  0.4893  0.4722 -0.1009
  755MPD2    C111206   3.417   3.896  13.203  0.2821  1.0736  0.1746
  755MPD2    C211207   3.515   3.808  13.160  0.2268  0.4744 -0.1694
  755MPD2    C311208   3.580   3.830  13.038  0.3218  0.1818  0.3471
  755MPD2    C411209   3.535   3.933  12.959  0.4898  0.1022 -0.2383
  755MPD2    C511210   3.436   4.017  12.996  0.1365  0.6391  1.0673
  755MPD2     H11211   3.551   3.728  13.225 -0.2902 -0.2975 -0.8389
  755MPD2    H111212   3.598   3.958  12.875  0.4522  1.4824  0.1451
  755MPD2    H211213   3.300   4.067  13.163 -0.6139 -0.4089 -0.6828
  755MPD2    H311214   3.413   4.107  12.940 -4.0801 -1.9607 -1.3677
  755MPD2     N11215   3.685   3.748  12.990 -0.4361  0.5373  0.5889
  755MPD2    H511216   3.743   3.787  12.917 -0.1025  0.2113  0.6852
  755MPD2    N111217   3.366   3.866  13.332 -0.1022  0.3404 -0.1671
  755MPD2    H711218   3.410   3.786  13.376 -0.7431  0.0300 -0.0933
  756MPD2     C11219   4.104   4.304   9.972 -0.0403  1.1933 -0.0873
  756MPD2    C111220   4.175   4.239  10.066 -0.1928 -0.5688 -0.1007
  756MPD2    C211221   4.150   4.108  10.101  0.5552 -0.4546 -0.1209
  756MPD2    C311222   4.039   4.047  10.043  0.7429 -0.0093 -0.8313
  756MPD2    C411223   3.965   4.111   9.947  0.6713  0.3454  0.0908
  756MPD2    C511224   4.003   4.239   9.911  0.0036  0.4992  0.8404
  756MPD2     H11225   4.207   4.053  10.176 -4.0650 -5.4522 -0.3441
  756MPD2    H111226   3.884   4.068   9.889  0.2353  0.4547  0.6176
  756MPD2    H211227   4.110   4.409   9.944 -0.2054  0.8003 -1.5766
  756MPD2    H311228   3.940   4.292   9.840 -1.0983 -0.9945  0.7056
  756MPD2     N11229   4.018   3.907  10.082 -0.0205 -0.3458 -0.2036
  756MPD2    H511230   4.093   3.869  10.139  0.2232  0.7562  0.2108
  756MPD2    N111231   4.262   4.309  10.152  0.0050  0.1605  0.0521
  756MPD2    H711232   4.283   4.255  10.235  0.6533  0.2822 -0.0304
  757MPD2     C11233   3.430   2.989   9.943  0.3683 -0.0875 -0.7215
  757MPD2    C111234   3.561   2.947   9.940 -0.4754 -0.6446 -0.2854
  757MPD2    C211235   3.652   3.043   9.983 -0.5173 -0.4870 -0.4727
  757MPD2    C311236   3.613   3.171  10.025  0.6364  0.1490  0.2985
  757MPD2    C411237   3.483   3.206  10.025  0.2958 -0.7809  0.2952
  757MPD2    C511238   3.393   3.114   9.982 -0.5080 -0.6427 -0.1196
  757MPD2     H11239   3.755   3.011   9.982 -0.9950 -2.0032  0.3272
  757MPD2    H111240   3.445   3.296  10.073 -0.1704 -2.2766  2.6915
  757MPD2    H211241   3.346   2.925   9.922 -0.2977 -0.1513  2.1076
  757MPD2    H311242   3.287   3.135   9.994 -0.3547 -0.3639  0.7784
  757MPD2     N11243   3.715   3.265  10.061  0.0059 -0.6314 -0.1996
  757MPD2    H511244   3.810   3.231  10.063 -0.0321 -0.7500 -0.3309
  757MPD2    N111245   3.597   2.809   9.919 -0.0607  0.2887 -0.6463
  757MPD2    H711246   3.532   2.737   9.947  2.0400 -1.9521 -1.5865
  758MPD2     C11247   3.779   3.652  15.732  0.5016  0.7313 -0.0047
  758MPD2    C111248   3.891   3.596  15.785 -0.6241  0.8033 -0.9157
  758MPD2    C211249   3.938   3.650  15.904  0.6029  0.4983 -0.2660
  758MPD2    C311250   3.872   3.756  15.972 -0.0023  0.5532 -0.5778
  758MPD2    C411251   3.766   3.814  15.904  0.5217  0.7777 -0.0369
  758MPD2    C511252   3.715   3.758  15.793  0.2925  0.5741 -0.0548
  758MPD2     H11253   4.030   3.606  15.940  0.3401 -1.1217 -1.5427
  758MPD2    H111254   3.720   3.905  15.939  0.2820  0.1618  1.2820
  758MPD2    H211255   3.728   3.609  15.647 -0.6734 -0.9868  1.5574
  758MPD2    H311256   3.628   3.802  15.744 -0.8253 -2.4339 -0.7937
  758MPD2     N11257   3.905   3.803  16.100 -0.2685 -0.3069 -0.0396
  758MPD2    H511258   3.845   3.875  16.138 -0.0823  0.5046 -1.2893
  758MPD2    N111259   3.955   3.485  15.731  0.1600 -0.5681  0.0263
  758MPD2    H711260   3.951   3.472  15.630 -2.2545 -1.3035  0.2378
  759MPD2     C11261   3.294   1.656   9.332 -0.4981 -1.1471  0.0101
  759MPD2    C111262   3.365   1.752   9.400  0.6102 -0.8078  0.5223
  759MPD2    C211263   3.334   1.888   9.395  0.0381 -0.9851 -0.6624
  759MPD2    C311264   3.231   1.934   9.321 -0.5357 -0.1994  0.1178
  759MPD2    C411265   3.155   1.838   9.256 -0.5827 -0.1853  0.2732
  759MPD2    C511266   3.190   1.703   9.257 -0.0055  0.5356  0.2193
  759MPD2     H11267   3.389   1.954   9.460  0.1048 -2.1361  0.4478
  759MPD2    H111268   3.082   1.871   9.183  2.0442  2.2965 -1.1986
  759MPD2    H211269   3.317   1.550   9.323 -3.0721 -1.4545 -3.0517
  759MPD2    H311270   3.148   1.633   9.187  0.5109 -0.8148  1.2512
  759MPD2     N11271   3.223   2.072   9.315 -0.0678 -0.3158  0.0109
  759MPD2    H511272   3.288   2.124   9.373 -1.7045  0.3207  1.2775
  759MPD2    N111273   3.477   1.721   9.488  0.5311  0.1587  0.1418
  759MPD2    H711274   3.509   1.795   9.549 -0.0070  1.0666 -0.6709
  760MPD2     C11275   2.722   3.626  12.497  0.2906  0.0970 -0.0433
  760MPD2    C111276   2.807   3.701  12.420 -0.1721 -0.1273  0.1859
  760MPD2    C211277   2.914   3.644  12.351 -0.5780 -0.5731  0.2276
  760MPD2    C311278   2.937   3.508  12.357 -0.0361 -0.7027  0.5479
  760MPD2    C411279   2.844   3.428  12.420 -0.0380 -0.3239  0.4317
  760MPD2    C511280   2.736   3.486  12.488 -0.0554  0.1485  0.0123
  760MPD2     H11281   2.966   3.715  12.288 -2.4987  0.4409 -0.2409
  760MPD2    H111282   2.846   3.320  12.410 -0.1264 -0.5274  2.8070
  760MPD2    H211283   2.649   3.675  12.561 -1.0487  0.1114 -1.6020
  760MPD2    H311284   2.667   3.416  12.533 -0.2925  0.9167  0.8339
  760MPD2     N11285   3.034   3.445  12.278  0.4082  0.4008  0.4729
  760MPD2    H511286   3.033   3.344  12.266  0.2452  0.0920  3.0613
  760MPD2    N111287   2.813   3.846  12.423 -0.4396 -0.3786  0.4615
  760MPD2    H711288   2.886   3.891  12.369 -2.2657  0.0972 -1.6188
  761MPD2     C11289   3.801   2.330  11.024  0.2788  0.1430  0.0656
  761MPD2    C111290   3.888   2.312  10.918 -0.2478  0.3136  0.3089
  761MPD2    C211291   3.966   2.415  10.876 -0.7759 -0.0195 -0.0688
  761MPD2    C311292   3.981   2.529  10.957  0.1057  0.2292  0.4727
  761MPD2    C411293   3.898   2.544  11.069  0.0145 -0.3025 -0.0671
  761MPD2    C511294   3.805   2.448  11.096 -0.0167 -0.0901  0.2290
  761MPD2     H11295   4.016   2.404  10.781 -1.3557 -0.2328 -0.3462
  761MPD2    H111296   3.908   2.620  11.145 -4.5791  1.9457 -1.7430
  761MPD2    H211297   3.730   2.254  11.055 -0.6050 -0.0359 -2.3514
  761MPD2    H311298   3.743   2.461  11.185  0.2370  1.0840  0.2419
  761MPD2     N11299   4.078   2.630  10.932 -0.1536  0.8176 -0.4940
  761MPD2    H511300   4.076   2.710  10.994 -0.3579  0.9633 -0.6864
  761MPD2    N111301   3.885   2.184  10.853 -0.3365  0.0115  0.2498
  761MPD2    H711302   3.805   2.125  10.872 -0.3224 -0.0031  0.2630
  762MPD2     C11303   4.385   2.633  10.466  0.0023  0.4766 -0.1417
  762MPD2    C111304   4.438   2.501  10.471  0.3241  0.1845  0.4935
  762MPD2    C211305   4.559   2.465  10.410  0.1803 -0.0251 -0.5359
  762MPD2    C311306   4.623   2.569  10.347 -0.3838  0.2076 -1.1657
  762MPD2    C411307   4.577   2.700  10.334  0.2341 -0.3028 -0.9317
  762MPD2    C511308   4.459   2.727  10.396 -0.5874  0.5162 -0.0606
  762MPD2     H11309   4.596   2.364  10.426 -0.2366 -0.1123 -0.1050
  762MPD2    H111310   4.645   2.778  10.299  1.0677 -0.7731 -0.3791
  762MPD2    H211311   4.291   2.658  10.513 -0.2430  0.0637 -0.4127
  762MPD2    H311312   4.429   2.830  10.408  0.5205  0.7850  0.4210
  762MPD2     N11313   0.014   2.529  10.308 -0.1822  0.3024 -0.0175
  762MPD2    H511314   0.036   2.430  10.313  3.0448  1.0124 -0.2652
  762MPD2    N111315   4.371   2.413  10.555 -0.2347 -0.5377  0.0157
  762MPD2    H711316   4.311   2.448  10.629 -0.0590  0.6420 -0.3870
  763MPD2     C11317   1.250   3.545  16.159  0.4426 -0.5352  0.2407
  763MPD2    C111318   1.158   3.612  16.079 -0.4450  0.2574 -0.9183
  763MPD2    C211319   1.132   3.745  16.094 -0.3067 -0.1933 -0.8926
  763MPD2    C311320   1.200   3.812  16.189 -0.5279 -0.4865 -0.6333
  763MPD2    C411321   1.302   3.755  16.266 -0.0933 -0.0413  0.2511
  763MPD2    C511322   1.309   3.621  16.256 -0.1155  0.0303 -0.0506
  763MPD2     H11323   1.055   3.798  16.039 -1.7710  0.5611  1.8469
  763MPD2    H111324   1.363   3.804  16.341  0.3288 -0.0811 -0.0620
  763MPD2    H211325   1.281   3.442  16.147 -2.4494 -1.1666 -1.7801
  763MPD2    H311326   1.390   3.580  16.315 -0.6551  2.3898  2.3088
  763MPD2     N11327   1.187   3.953  16.195 -0.2528 -0.4958  0.0967
  763MPD2    H511328   1.140   4.003  16.120 -2.3511 -0.5608  1.3650
  763MPD2    N111329   1.076   3.546  15.979 -0.7220  0.0416 -0.0142
  763MPD2    H711330   1.020   3.611  15.924  0.1033  2.1930  1.6830
  764MPD2     C11331   3.671   0.822  17.291  0.7271  0.4151  0.0363
  764MPD2    C111332   3.566   0.735  17.292 -0.5423  0.6360  0.1769
  764MPD2    C211333   3.532   0.666  17.404 -0.2543  0.0007  0.1402
  764MPD2    C311334   3.607   0.674  17.523  0.1377  0.5526 -0.1972
  764MPD2    C411335   3.724   0.754  17.516  0.5305 -0.4625 -0.1722
  764MPD2    C511336   3.751   0.822  17.403  0.3568  0.1751 -0.2290
  764MPD2     H11337   3.443   0.605  17.405 -0.5515  0.4365  0.2104
  764MPD2    H111338   3.801   0.765  17.592  0.7137  2.3326 -0.7625
  764MPD2    H211339   3.705   0.876  17.204  2.2668  0.3900  0.6230
  764MPD2    H311340   3.840   0.882  17.413  0.1031  0.3927  0.7491
  764MPD2     N11341   3.580   0.589  17.627 -0.1593 -0.1964 -0.7663
  764MPD2    H511342   3.503   0.523  17.617 -0.7986  0.5507 -0.7122
  764MPD2    N111343   3.483   0.712  17.179  0.3048 -0.4703 -0.4288
  764MPD2    H711344   3.423   0.631  17.189 -0.9722  0.4774 -0.3145
  765MPD2     C11345   3.130   2.982  15.724  0.0077  0.4384 -0.4504
  765MPD2    C111346   3.227   3.074  15.705  0.6032  0.0242  0.6271
  765MPD2    C211347   3.363   3.043  15.727  0.6570 -0.6278  0.4538
  765MPD2    C311348   3.386   2.920  15.784  0.8604 -0.0866  0.1095
  765MPD2    C411349   3.288   2.825  15.807 -0.1924 -0.1790  0.1328
  765MPD2    C511350   3.159   2.858  15.769 -0.1598 -0.0387  0.0908
  765MPD2     H11351   3.440   3.116  15.707  1.4879 -1.8947 -0.9380
  765MPD2    H111352   3.303   2.728  15.853  1.1921  0.8646  1.8663
  765MPD2    H211353   3.030   3.019  15.706 -0.2686  0.7033  1.6547
  765MPD2    H311354   3.078   2.787  15.782 -1.4838  0.6572 -4.5518
  765MPD2     N11355   3.522   2.893  15.819 -0.4186 -0.1645 -0.4027
  765MPD2    H511356   3.583   2.973  15.832  1.2669 -1.3728 -0.7941
  765MPD2    N111357   3.187   3.196  15.641 -0.7011  0.1003  0.3099
  765MPD2    H711358   3.096   3.207  15.598 -0.5926 -3.9657 -0.9093
  766MPD2     C11359   3.153   3.072  14.945  0.1052 -0.7095 -0.1994
  766MPD2    C111360   3.263   3.118  15.013  0.0470 -0.1301 -0.0210
  766MPD2    C211361   3.388   3.075  14.975 -0.7208 -0.3075 -0.1197
  766MPD2    C311362   3.402   2.997  14.865 -0.1746 -0.4246 -0.5796
  766MPD2    C411363   3.292   2.945  14.799  0.1008 -0.1295 -0.6798
  766MPD2    C511364   3.170   2.979  14.839 -0.2329  0.5404  0.1547
  766MPD2     H11365   3.472   3.119  15.028 -0.3076 -0.6521 -0.4890
  766MPD2    H111366   3.303   2.888  14.707 -1.2752  1.2871 -1.6976
  766MPD2    H211367   3.051   3.097  14.971  1.3969  0.8130  3.4436
  766MPD2    H311368   3.084   2.936  14.787  1.3480 -0.4976 -1.5927
  766MPD2     N11369   3.524   2.981  14.804  0.0736  0.3154  0.2504
  766MPD2    H511370   3.524   2.931  14.716 -0.3926  0.5853  0.1002
  766MPD2    N111371   3.242   3.209  15.120  0.1030 -0.7794  0.1702
  766MPD2    H711372   3.327   3.234  15.170 -0.6519  1.4395  0.3320
  767MPD2     C11373   3.316   3.491  14.762  0.3056  0.6038 -0.4495
  767MPD2    C111374   3.392   3.540  14.657 -0.4678 -0.7504  0.0129
  767MPD2    C211375   3.411   3.463  14.547 -0.6890 -0.0685  0.4347
  767MPD2    C311376   3.365   3.332  14.537  0.2964 -0.5171  0.3500
  767MPD2    C411377   3.300   3.277  14.649  0.0415  0.2264  0.4917
  767MPD2    C511378   3.273   3.360  14.759 -0.3621  0.5369 -0.3529
  767MPD2     H11379   3.475   3.493  14.465  1.0704 -3.0371  0.7027
  767MPD2    H111380   3.266   3.174  14.649  1.8387 -0.3558 -1.0897
  767MPD2    H211381   3.288   3.541  14.854 -1.6558 -0.5130 -0.4356
  767MPD2    H311382   3.219   3.319  14.845 -1.3992  0.0234 -1.2439
  767MPD2     N11383   3.386   3.257  14.419  0.9732 -0.0116  0.2514
  767MPD2    H511384   3.422   3.295  14.332 -0.3816 -4.1081 -2.0666
  767MPD2    N111385   3.441   3.673  14.674 -0.2979 -0.3315  0.5645
  767MPD2    H711386   3.424   3.715  14.765  2.2349  0.7330  0.5436
  768MPD2     C11387   4.667   1.453  10.507 -0.6834  0.4418  0.4054
  768MPD2    C111388   4.622   1.429  10.633  0.9644  0.2441 -0.5401
  768MPD2    C211389   4.713   1.420  10.738 -0.2257  0.0370 -0.7469
  768MPD2    C311390   0.115   1.431  10.716 -0.4863 -0.3792  0.4621
  768MPD2    C411391   0.154   1.460  10.585  0.0576  0.0980  0.6177
  768MPD2    C511392   0.063   1.468  10.487 -0.8323  0.7802  0.3106
  768MPD2     H11393   4.671   1.402  10.836  1.2823  0.4116 -0.0311
  768MPD2    H111394   0.259   1.467  10.556  0.3992  0.3844  1.9222
  768MPD2    H211395   4.604   1.471  10.422  0.2341  0.0370 -0.3569
  768MPD2    H311396   0.096   1.500  10.389 -2.1180 -0.8080 -0.6535
  768MPD2     N11397   0.209   1.411  10.823 -0.4593  0.0977 -0.2143
  768MPD2    H511398   0.308   1.413  10.801 -0.7348  0.6439 -1.4025
  768MPD2    N111399   4.484   1.428  10.665 -0.0709  0.0099 -0.7770
  768MPD2    H711400   4.449   1.418  10.759 -0.7374  1.6479 -0.8399
  769MPD2     C11401   0.791   4.481  14.846 -0.1620 -0.2764 -0.1413
  769MPD2    C111402   0.664   4.525  14.865 -0.6497 -0.0488 -0.2891
  769MPD2    C211403   0.642   4.593  14.986 -0.3608 -0.4550 -0.0092
  769MPD2    C311404   0.739   4.613  15.085  0.4641 -0.2661  0.1209
  769MPD2    C411405   0.866   4.573  15.053  0.3700  0.0217  0.3254
  769MPD2    C511406   0.890   4.513  14.932 -0.4389 -0.0002  0.1633
  769MPD2     H11407   0.543   4.632  15.007 -0.1154  0.9142 -1.4159
  769MPD2    H111408   0.948   4.579  15.123 -0.7803 -0.6757  1.7363
  769MPD2    H211409   0.817   4.425  14.757 -0.6928 -1.0411  0.1755
  769MPD2    H311410   0.990   4.483  14.903  0.3639  1.7818  1.0864
  769MPD2     N11411   0.712   4.679  15.207 -0.2066 -0.5376  0.2205
  769MPD2    H511412   0.616   4.684  15.240  0.2056  1.5433  1.1363
  769MPD2    N111413   0.567   4.492  14.768  0.1413 -0.0753 -0.1178
  769MPD2    H711414   0.603   4.455  14.681 -1.2201 -0.0405 -0.6989
  770MPD2     C11415   4.378   4.424  14.767 -0.3936  0.5710 -0.3617
  770MPD2    C111416   4.481   4.402  14.845 -0.4441 -0.8624 -0.3938
  770MPD2    C211417   4.608   4.434  14.789 -0.2498  0.0587  0.5227
  770MPD2    C311418   4.614   4.497  14.669 -0.8767  0.3683  0.2707
  770MPD2    C411419   4.506   4.516  14.588  1.4088  0.1852  0.1276
  770MPD2    C511420   4.388   4.473  14.642 -0.8753  0.2571  0.5526
  770MPD2     H11421   4.697   4.418  14.848 -0.3717  0.6157  0.8527
  770MPD2    H111422   4.516   4.565  14.492  0.3956 -2.8015 -1.5135
  770MPD2    H211423   4.278   4.395  14.797 -0.1961 -0.6070 -0.8238
  770MPD2    H311424   4.302   4.469  14.576 -0.1493  1.3892 -0.4558
  770MPD2     N11425   0.009   4.518  14.614 -0.1292  0.1338 -0.1889
  770MPD2    H511426   0.087   4.509  14.678  1.4956 -1.1124 -2.3368
  770MPD2    N111427   4.457   4.350  14.968 -0.0082 -0.3885  0.2013
  770MPD2    H711428   4.360   4.323  14.981  0.0942 -0.2523  1.2318
  771MPD2     C11429   1.675   2.189  14.174 -0.1177  0.6420  0.1251
  771MPD2    C111430   1.631   2.232  14.052 -0.2550 -0.4234 -0.1284
  771MPD2    C211431   1.608   2.140  13.951  0.0468  0.5783 -0.1164
  771MPD2    C311432   1.616   2.004  13.984  0.3447 -0.2242 -0.2255
  771MPD2    C411433   1.651   1.962  14.109  0.1111  0.5784  0.2600
  771MPD2    C511434   1.681   2.057  14.202 -0.3623 -0.1263 -0.6598
  771MPD2     H11435   1.575   2.171  13.852 -2.2456 -0.8892  0.1656
  771MPD2    H111436   1.651   1.862  14.151  0.7806 -0.1547 -1.4353
  771MPD2    H211437   1.703   2.258  14.254 -3.8123  0.4231  1.5988
  771MPD2    H311438   1.715   2.022  14.298  1.9182 -0.1701 -1.4652
  771MPD2     N11439   1.599   1.920  13.875  0.1384 -0.3674 -0.0947
  771MPD2    H511440   1.589   1.962  13.783 -1.3475 -0.7102 -0.0965
  771MPD2    N111441   1.620   2.370  14.029  0.2160  0.8851 -0.0626
  771MPD2    H711442   1.597   2.384  13.931 -1.9668 -0.6679  0.2255
  772MPD2     C11443   1.349   3.240  13.984 -0.4138  0.2793 -0.2017
  772MPD2    C111444   1.330   3.107  14.030  0.4388 -0.0537  0.0571
  772MPD2    C211445   1.201   3.059  14.050  0.6692  0.1140 -0.5227
  772MPD2    C311446   1.096   3.145  14.030  1.0080 -0.4422 -0.6608
  772MPD2    C411447   1.119   3.282  14.020  0.2040  0.4091  0.4373
  772MPD2    C511448   1.248   3.327  13.997  0.3957 -0.4659  0.5967
  772MPD2     H11449   1.178   2.955  14.067  3.7299 -0.1934  1.6760
  772MPD2    H111450   1.036   3.351  14.012 -0.3902 -0.1202  2.0354
  772MPD2    H211451   1.450   3.276  13.968 -1.4101  2.8895 -0.5978
  772MPD2    H311452   1.248   3.434  13.975 -0.1671 -0.6686 -0.3885
  772MPD2     N11453   0.960   3.105  14.037 -0.1084  0.3948  0.0783
  772MPD2    H511454   0.889   3.177  14.028  0.1613  0.6412 -0.0543
  772MPD2    N111455   1.446   3.026  14.028 -0.9909  0.8288 -0.2416
  772MPD2    H711456   1.531   3.054  13.981  1.0970 -2.4392  1.6054
  773MPD2     C11457   0.014   4.059   0.230 -0.0017  0.0141 -0.1883
  773MPD2    C111458   4.689   3.961   0.149 -1.2472 -0.1938 -0.3225
  773MPD2    C211459   0.005   3.833   0.152 -1.2241 -0.4200  0.2489
  773MPD2    C311460   0.119   3.804   0.223  0.3913 -0.1710  0.6193
  773MPD2    C411461   0.182   3.902   0.298  0.6807  0.2142  0.0366
  773MPD2    C511462   0.126   4.028   0.299  1.2387 -0.3759  0.4365
  773MPD2     H11463   4.701   3.753   0.091  0.0736 -0.8861  0.0399
  773MPD2    H111464   0.272   3.896   0.358  0.4190  1.6606  0.5930
  773MPD2    H211465   4.716   4.162   0.230  1.6677  0.5464 -1.9674
  773MPD2    H311466   0.178   4.106   0.353  3.9515 -0.9759 -1.3689
  773MPD2     N11467   0.168   3.672   0.217 -0.1970  0.3856 -0.5855
  773MPD2    H511468   0.107   3.600   0.179 -2.0459  0.6381  1.9622
  773MPD2    N111469   4.568   3.983   0.078 -0.2171 -0.2280  0.3143
  773MPD2    H711470   4.531   3.900   0.033  0.3135  0.9667 -2.3227
  774MPD2     C11471   4.280   2.813  13.357 -0.0731 -0.3452 -0.7965
  774MPD2    C111472   4.292   2.905  13.458  0.1826  0.9932  0.2863
  774MPD2    C211473   4.356   3.025  13.428  0.3514  1.1987  0.1702
  774MPD2    C311474   4.412   3.048  13.303  0.6371 -0.3018 -0.0007
  774MPD2    C411475   4.405   2.946  13.204  0.4050 -0.2050  0.6446
  774MPD2    C511476   4.335   2.832  13.235  0.0908 -0.2283  0.0291
  774MPD2     H11477   4.362   3.090  13.515 -0.6102 -0.4428  1.4730
  774MPD2    H111478   4.466   2.946  13.114  0.5298  1.9789  0.7391
  774MPD2    H211479   4.231   2.718  13.375 -1.5621  1.0970  2.7494
  774MPD2    H311480   4.344   2.751  13.164  1.4728  0.4542 -0.5823
  774MPD2     N11481   4.476   3.173  13.282  0.5460  0.5900 -0.8335
  774MPD2    H511482   4.450   3.254  13.337 -0.1577  1.9156 -3.1266
  774MPD2    N111483   4.253   2.894  13.589 -0.2134  0.3954  0.6326
  774MPD2    H711484   4.260   2.968  13.658 -1.1952  1.2269 -0.1577
  775MPD2     C11485   0.601   4.268  15.751  0.0792 -0.5626 -0.0380
  775MPD2    C111486   0.623   4.367  15.853 -0.3317 -0.1613 -0.3795
  775MPD2    C211487   0.710   4.470  15.825 -0.4510 -0.0169 -0.5058
  775MPD2    C311488   0.784   4.474  15.710  0.0781 -0.4088  0.0932
  775MPD2    C411489   0.769   4.372  15.615 -0.3397  0.0925 -0.0092
  775MPD2    C511490   0.678   4.274  15.640 -0.7270 -0.8128  0.0663
  775MPD2     H11491   0.725   4.554  15.892 -0.1650 -1.4253  1.1949
  775MPD2    H111492   0.836   4.369  15.529 -1.1424 -1.8506 -0.5703
  775MPD2    H211493   0.533   4.184  15.759 -0.0533 -0.8762 -4.5038
  775MPD2    H311494   0.661   4.205  15.558  1.0827 -0.8820 -0.2642
  775MPD2     N11495   0.872   4.577  15.673  0.7978 -0.5490  0.4148
  775MPD2    H511496   0.922   4.568  15.584 -0.8830  3.3463 -0.9303
  775MPD2    N111497   0.550   4.352  15.971 -0.0393 -1.0818 -0.5098
  775MPD2    H711498   0.470   4.289  15.964  0.0109 -1.1432 -0.5307
  776MPD2     C11499   3.640   4.124  11.336 -0.7238  0.5006  0.2205
  776MPD2    C111500   3.769   4.075  11.331 -0.8390 -0.4121 -0.3416
  776MPD2    C211501   3.874   4.167  11.338 -0.4797  0.2092 -1.0771
  776MPD2    C311502   3.849   4.299  11.375 -0.1727 -0.2619 -0.2209
  776MPD2    C411503   3.722   4.341  11.381  0.2781 -0.0457 -0.4882
  776MPD2    C511504   3.618   4.254  11.372  0.0868  0.3516 -0.2792
  776MPD2     H11505   3.971   4.130  11.308 -0.3836 -1.3534  1.1269
  776MPD2    H111506   3.702   4.445  11.408  2.2619  0.9541 -2.9307
  776MPD2    H211507   3.561   4.057  11.303 -0.7504  1.1832 -1.0948
  776MPD2    H311508   3.514   4.286  11.378  0.6362  1.9080  1.0755
  776MPD2     N11509   3.953   4.395  11.397  0.4159 -0.5857  0.5553
  776MPD2    H511510   3.911   4.487  11.406 -2.1966 -1.9065  1.9337
  776MPD2    N111511   3.793   3.936  11.315 -0.0697  0.1401 -0.4111
  776MPD2    H711512   3.716   3.870  11.305 -0.5330  1.0614 -2.9103
  777MPD2     C11513   4.594   2.464   0.491  0.8409  0.4682 -0.2334
  777MPD2    C111514   4.568   2.390   0.606 -0.5561  0.2563 -0.1416
  777MPD2    C211515   4.485   2.277   0.595  0.3249  0.4508 -0.3653
  777MPD2    C311516   4.429   2.235   0.474  0.3644 -0.2140  0.3551
  777MPD2    C411517   4.468   2.301   0.361  0.7136  0.1296  0.1444
  777MPD2    C511518   4.561   2.406   0.370  0.0219  0.0152  0.2347
  777MPD2     H11519   4.464   2.213   0.680  0.3725  0.3380 -0.4400
  777MPD2    H111520   4.439   2.278   0.259 -3.2116  2.0423  0.8189
  777MPD2    H211521   4.657   2.552   0.494 -0.2853  1.2980 -1.0752
  777MPD2    H311522   4.593   2.455   0.278  0.2885 -2.0484 -0.7654
  777MPD2     N11523   4.339   2.123   0.467 -0.1137 -0.0992 -0.2913
  777MPD2    H511524   4.312   2.079   0.554 -1.5823  0.1332 -0.6440
  777MPD2    N111525   4.615   2.449   0.723 -0.1318 -0.0446 -0.5659
  777MPD2    H711526   4.674   2.530   0.710  1.7346 -0.9317  2.4573
  778MPD2     C11527   1.439   2.723  14.728 -0.2974 -0.0916 -0.2664
  778MPD2    C111528   1.456   2.609  14.652  1.0747  0.4334 -0.8318
  778MPD2    C211529   1.549   2.607  14.549 -0.1639 -0.3167 -0.1123
  778MPD2    C311530   1.616   2.723  14.515  0.2741  0.2539  0.0934
  778MPD2    C411531   1.596   2.838  14.593  0.7215  0.1665 -0.3623
  778MPD2    C511532   1.520   2.836  14.704 -0.3332  0.5291  0.2794
  778MPD2     H11533   1.566   2.523  14.482 -2.3743 -1.2698  0.5421
  778MPD2    H111534   1.644   2.932  14.571  2.1155 -0.4507  0.0443
  778MPD2    H211535   1.368   2.732  14.810  1.2927 -0.8045  1.1799
  778MPD2    H311536   1.509   2.927  14.762  1.5607 -0.4237  2.1110
  778MPD2     N11537   1.716   2.709  14.413 -0.1872 -0.3161 -0.0784
  778MPD2    H511538   1.718   2.619  14.365 -0.3720 -0.7203  0.6755
  778MPD2    N111539   1.371   2.494  14.659  0.0177  0.2855 -0.3660
  778MPD2    H711540   1.380   2.415  14.595 -2.3478 -1.5971  1.6056
  779MPD2     C11541   0.964   1.199  13.908 -0.0831 -0.2507  0.0122
  779MPD2    C111542   1.017   1.178  14.032 -0.8805  0.2139  0.4032
  779MPD2    C211543   1.071   1.285  14.100 -0.9190  0.6921  0.1936
  779MPD2    C311544   1.090   1.406  14.033 -0.3638  0.7073  0.0796
  779MPD2    C411545   1.032   1.423  13.901 -0.1336 -0.5172 -0.8076
  779MPD2    C511546   0.967   1.320  13.847  0.1896 -0.3139 -0.5825
  779MPD2     H11547   1.109   1.271  14.200  1.0823 -1.7593 -0.8882
  779MPD2    H111548   1.042   1.514  13.841 -1.5947  0.9375  1.1664
  779MPD2    H211549   0.907   1.121  13.858 -0.0559 -2.4551  3.4187
  779MPD2    H311550   0.927   1.347  13.750 -1.2424 -1.2504 -0.2588
  779MPD2     N11551   1.161   1.510  14.091  0.0421  0.4319 -0.5500
  779MPD2    H511552   1.202   1.492  14.182 -1.7791 -2.6224 -0.3105
  779MPD2    N111553   1.007   1.053  14.102  0.4708 -0.3390  0.1221
  779MPD2    H711554   1.038   1.055  14.199 -1.2905 -0.3151  0.6771
  780MPD2     C11555   0.122   1.619   0.996 -0.0907  0.5640  0.1847
  780MPD2    C111556   0.045   1.544   0.904 -0.4002  0.2643 -0.1148
  780MPD2    C211557   0.068   1.562   0.769 -0.5477  0.0291 -0.3781
  780MPD2    C311558   0.152   1.650   0.721  0.2533 -0.1809 -0.1882
  780MPD2    C411559   0.219   1.725   0.819 -0.1549 -0.0628 -0.0750
  780MPD2    C511560   0.208   1.713   0.955 -0.3153  0.4965 -0.3755
  780MPD2     H11561   0.019   1.493   0.701 -2.7675  0.6495  0.5775
  780MPD2    H111562   0.287   1.803   0.787 -0.8622  1.3061  1.7383
  780MPD2    H211563   0.120   1.601   1.103  1.6295 -2.1634 -0.2565
  780MPD2    H311564   0.260   1.769   1.031 -0.9073  1.0367 -0.3784
  780MPD2     N11565   0.172   1.659   0.577 -0.5466 -0.3361 -0.3043
  780MPD2    H511566   0.135   1.592   0.511  1.3191 -1.4301 -0.2491
  780MPD2    N111567   4.674   1.463   0.951 -0.0570 -0.2930  0.5134
  780MPD2    H711568   4.679   1.427   1.046  0.8104 -0.3466  0.4505
  781MPD2     C11569   3.021   2.777  12.357  0.3988 -0.3721  0.1416
  781MPD2    C111570   2.969   2.661  12.407 -0.0666 -0.3314 -0.0794
  781MPD2    C211571   2.994   2.539  12.358  0.3334  0.3520 -0.4038
  781MPD2    C311572   3.080   2.525  12.249  1.3911  0.1740 -0.1538
  781MPD2    C411573   3.141   2.640  12.198  0.0882  0.4318  0.2313
  781MPD2    C511574   3.116   2.767  12.254 -0.1811  0.4392  0.2162
  781MPD2     H11575   2.942   2.452  12.395  1.7491 -1.0176 -1.6025
  781MPD2    H111576   3.201   2.638  12.108  0.0898 -1.9374  0.2801
  781MPD2    H211577   2.989   2.876  12.387 -1.7047 -0.8951 -0.3832
  781MPD2    H311578   3.150   2.858  12.206 -0.0850  1.4217  2.1464
  781MPD2     N11579   3.093   2.400  12.173 -0.4636 -0.0807  0.4856
  781MPD2    H511580   3.151   2.400  12.090 -1.1167 -0.3305  0.0321
  781MPD2    N111581   2.871   2.665  12.514  0.3945  0.4400  0.1741
  781MPD2    H711582   2.836   2.574  12.542 -0.5611  0.5116 -0.7702
  782MPD2     C11583   0.529   3.191  10.048 -0.1084  0.2201 -0.2353
  782MPD2    C111584   0.583   3.194  10.177 -0.2485  0.3558  0.4543
  782MPD2    C211585   0.604   3.317  10.236  0.3213  0.6496  0.2550
  782MPD2    C311586   0.580   3.443  10.181 -0.2726 -0.2260  0.2970
  782MPD2    C411587   0.532   3.434  10.053 -0.6049  1.0481 -0.5557
  782MPD2    C511588   0.512   3.317   9.989 -0.7435  0.2112  0.3234
  782MPD2     H11589   0.651   3.314  10.334 -1.0638 -0.8650  0.8705
  782MPD2    H111590   0.512   3.528  10.003  1.8089  1.4752 -0.6903
  782MPD2    H211591   0.513   3.092  10.008 -0.6307 -0.0914  0.7544
  782MPD2    H311592   0.471   3.320   9.889  2.1639  0.5860 -0.8614
  782MPD2     N11593   0.599   3.560  10.249  0.4130 -0.3357  0.0128
  782MPD2    H511594   0.565   3.643  10.202  1.4545 -0.3183 -0.7179
  782MPD2    N111595   0.600   3.069  10.239 -0.4222 -0.2390 -0.1432
  782MPD2    H711596   0.581   2.979  10.195  1.0236 -0.0898 -1.0692
  783MPD2     C11597   0.024   2.508  10.692 -0.1217  0.6178  0.8310
  783MPD2    C111598   0.010   2.643  10.681 -0.0805 -0.0678  0.1228
  783MPD2    C211599   0.114   2.707  10.616 -0.8104  0.7432  0.3710
  783MPD2    C311600   0.227   2.634  10.568  0.3267  0.1476  0.2575
  783MPD2    C411601   0.227   2.496  10.570 -0.4139  0.0457 -0.1766
  783MPD2    C511602   0.122   2.435  10.631  0.2739  0.2085 -0.2536
  783MPD2     H11603   0.119   2.815  10.605  0.9526  0.5927 -0.2308
  783MPD2    H111604   0.306   2.430  10.536 -0.7547 -0.7959  0.6689
  783MPD2    H211605   4.684   2.455  10.750  2.2723 -3.9380 -0.2215
  783MPD2    H311606   0.118   2.328  10.647 -0.2883  0.5822  2.1445
  783MPD2     N11607   0.342   2.702  10.513 -0.1899 -0.4272 -0.2302
  783MPD2    H511608   0.344   2.802  10.527 -2.1414 -0.4626  0.4370
  783MPD2    N111609   4.627   2.703  10.729  0.3414  0.4568 -0.5281
  783MPD2    H711610   4.562   2.647  10.784 -0.4396  0.6558 -1.2511
  784MPD2     C11611   2.643   4.138   0.734 -0.2770 -0.5131 -0.3436
  784MPD2    C111612   2.616   4.206   0.851 -0.0740  0.0373 -0.5764
  784MPD2    C211613   2.487   4.240   0.882  0.6576  0.2830 -1.1944
  784MPD2    C311614   2.385   4.219   0.792  0.0665 -0.5234  0.3091
  784MPD2    C411615   2.410   4.163   0.669  0.4161  0.5962  0.0962
  784MPD2    C511616   2.541   4.118   0.640  0.5182  0.1343  0.2256
  784MPD2     H11617   2.472   4.286   0.980  0.2131  1.8081 -1.9735
  784MPD2    H111618   2.344   4.154   0.583  0.4166  0.8797  0.0654
  784MPD2    H211619   2.743   4.104   0.712 -0.0516  1.5542 -2.5691
  784MPD2    H311620   2.562   4.088   0.538 -0.5465  0.8442 -0.1966
  784MPD2     N11621   2.254   4.264   0.826 -0.2671 -0.0946  0.2576
  784MPD2    H511622   2.254   4.332   0.901 -1.5641 -0.9436  1.0340
  784MPD2    N111623   2.717   4.246   0.940 -0.0296  0.1289  0.4235
  784MPD2    H711624   2.680   4.275   1.031  2.3220 -0.6954  1.6250
  785MPD2     C11625   3.077   2.457  11.364 -0.6013 -0.5597  0.0409
  785MPD2    C111626   3.045   2.581  11.409  0.2353 -0.3951  0.3302
  785MPD2    C211627   2.919   2.600  11.453  0.4904  0.1667  0.0843
  785MPD2    C311628   2.828   2.499  11.460 -0.0470  0.0736 -0.8561
  785MPD2    C411629   2.865   2.375  11.425  0.7380 -0.2369  0.7402
  785MPD2    C511630   2.990   2.354  11.377  0.1466  0.2639 -0.8523
  785MPD2     H11631   2.885   2.699  11.480  0.0443  0.2345 -0.7176
  785MPD2    H111632   2.802   2.287  11.434  0.7859 -0.4103 -0.5124
  785MPD2    H211633   3.182   2.439  11.342  0.2099  2.1680  1.6802
  785MPD2    H311634   3.020   2.253  11.353  0.8752  0.1197  0.7102
  785MPD2     N11635   2.698   2.536  11.506 -0.5300  0.8371  0.6146
  785MPD2    H511636   2.682   2.634  11.529 -2.8859  0.4451  0.5699
  785MPD2    N111637   3.153   2.673  11.418  0.6308  0.2330  0.0259
  785MPD2    H711638   3.244   2.657  11.376  0.6980  3.2302 -0.9228
  786MPD2     C11639   1.735   0.698  14.817 -0.1891  0.3437 -0.2583
  786MPD2    C111640   1.735   0.561  14.829  0.2894  0.0715  0.3120
  786MPD2    C211641   1.805   0.502  14.933  0.3123  0.5223 -0.6160
  786MPD2    C311642   1.858   0.581  15.037 -0.4068  0.3972  0.2035
  786MPD2    C411643   1.859   0.718  15.021 -0.5464 -0.3462  0.3493
  786MPD2    C511644   1.795   0.770  14.923  0.3280 -0.3542  0.1164
  786MPD2     H11645   1.820   0.395  14.933 -0.2736  0.4375 -0.7373
  786MPD2    H111646   1.888   0.773  15.109  0.0929 -1.6428  0.9547
  786MPD2    H211647   1.688   0.750  14.735 -0.9033  2.7777  1.6794
  786MPD2    H311648   1.794   0.878  14.913 -1.7023 -0.7284 -3.5836
  786MPD2     N11649   1.902   0.531  15.158 -0.2888 -0.7693 -0.2771
  786MPD2    H511650   1.943   0.598  15.223  1.4040 -1.5117 -0.5817
  786MPD2    N111651   1.672   0.471  14.730  0.2764 -0.0271 -0.4343
  786MPD2    H711652   1.687   0.373  14.749 -1.7122  0.3403  3.0786
  787MPD2     C11653   1.679   0.034  15.045 -0.1294  0.3006 -0.6751
  787MPD2    C111654   1.699   4.734  14.914 -0.9343 -0.2547  0.4101
  787MPD2    C211655   1.796   4.651  14.871 -0.7269 -0.2609 -0.0367
  787MPD2    C311656   1.867   4.583  14.974  0.0699 -0.0381  0.1280
  787MPD2    C411657   1.845   4.607  15.110 -0.4582 -0.4210 -0.6581
  787MPD2    C511658   1.750   4.705  15.137 -0.1335 -0.3548  0.3346
  787MPD2     H11659   1.819   4.627  14.767  0.8877 -0.4995  0.3791
  787MPD2    H111660   1.904   4.564  15.190  0.2782 -1.2559 -1.6545
  787MPD2    H211661   1.605   0.105  15.081  1.9632  1.9870  0.2472
  787MPD2    H311662   1.738   0.003  15.240  0.7520 -1.2891  0.7405
  787MPD2     N11663   1.969   4.490  14.932  0.4857 -0.0762 -0.5767
  787MPD2    H511664   2.006   4.495  14.838  0.3488 -1.8408 -0.7370
  787MPD2    N111665   1.620   0.071  14.822  0.3194 -0.0626  0.1127
  787MPD2    H711666   1.567   0.151  14.856  0.0535  0.6065 -1.8873
  788MPD2     C11667   3.645   4.405   0.785  0.1670  0.0895  0.1568
  788MPD2    C111668   3.635   4.331   0.670 -0.0579 -0.1097 -0.3405
  788MPD2    C211669   3.658   4.399   0.549  1.1250 -0.5545  0.1242
  788MPD2    C311670   3.679   4.536   0.542 -0.2462 -0.0937 -0.7713
  788MPD2    C411671   3.675   4.606   0.661 -0.7005  0.2712 -0.8469
  788MPD2    C511672   3.663   4.536   0.779 -0.0680 -0.3373  0.4124
  788MPD2     H11673   3.652   4.350   0.452 -0.8918  0.4407 -0.2570
  788MPD2    H111674   3.714   4.706   0.673 -1.7391  0.5396  0.3278
  788MPD2    H211675   3.645   4.364   0.885 -1.4190 -0.8166 -0.2164
  788MPD2    H311676   3.680   4.587   0.873 -2.5296  0.4291  0.4193
  788MPD2     N11677   3.684   4.608   0.426 -0.7814 -0.0835  0.1295
  788MPD2    H511678   3.676   4.709   0.430 -1.7017 -0.2705  2.7805
  788MPD2    N111679   3.603   4.193   0.672 -0.0104 -0.7196  0.2693
  788MPD2    H711680   3.613   4.149   0.581  2.4389 -2.5690  1.4304
  789MPD2     C11681   3.623   3.523  16.418 -0.1133  0.2850  0.6429
  789MPD2    C111682   3.596   3.430  16.520  0.2467 -0.0650  0.1340
  789MPD2    C211683   3.477   3.447  16.593 -1.2898 -0.5221 -0.1840
  789MPD2    C311684   3.391   3.557  16.576  0.4357  0.7360 -0.2274
  789MPD2    C411685   3.416   3.638  16.467  0.3119  0.2486 -0.1935
  789MPD2    C511686   3.533   3.626  16.399 -0.4349  0.2169 -0.3456
  789MPD2     H11687   3.467   3.383  16.680  1.0016 -0.5464  0.0590
  789MPD2    H111688   3.353   3.720  16.434  1.2140  0.0071 -2.4509
  789MPD2    H211689   3.705   3.510  16.349  0.7342 -0.7413  1.8508
  789MPD2    H311690   3.541   3.690  16.312 -0.4550  0.7398  0.0346
  789MPD2     N11691   3.265   3.585  16.642 -0.2230  0.2572  0.1511
  789MPD2    H511692   3.202   3.653  16.601  1.3711  0.8101 -1.4032
  789MPD2    N111693   3.679   3.321  16.548 -0.0165 -0.7337  0.2469
  789MPD2    H711694   3.634   3.255  16.611 -3.1963 -0.4495 -1.7547
  790MPD2     C11695   4.588   0.053  13.401 -0.0504  0.0238  0.2398
  790MPD2    C111696   4.675   4.682  13.388 -0.4207  0.8847  0.2125
  790MPD2    C211697   4.683   4.619  13.270  0.1090 -1.0924 -0.0010
  790MPD2    C311698   4.600   4.661  13.168  0.7279 -0.3757 -1.0053
  790MPD2    C411699   4.502   0.017  13.189 -0.3056 -0.2562  0.8800
  790MPD2    C511700   4.496   0.083  13.309 -0.3335 -0.0853 -0.5755
  790MPD2     H11701   0.008   4.530  13.257 -0.2771 -1.3417 -0.1020
  790MPD2    H111702   4.436   0.050  13.110  2.8287  0.2150 -1.5456
  790MPD2    H211703   4.591   0.101  13.498  1.9423 -2.0597  1.2295
  790MPD2    H311704   4.426   0.165  13.321  1.4308  1.0436  1.9814
  790MPD2     N11705   4.606   4.580  13.050  0.1775  0.3494  0.3745
  790MPD2    H511706   4.663   4.497  13.055 -1.7042 -0.8941  1.2461
  790MPD2    N111707   0.006   4.633  13.506  0.8683 -0.5686  0.3524
  790MPD2    H711708   4.729   4.678  13.597  0.2717  0.2394 -0.1249
  791MPD2     C11709   4.081   4.608  12.450  0.7097 -0.2776  0.4940
  791MPD2    C111710   4.125   4.488  12.506 -0.6644  0.0418  0.2308
  791MPD2    C211711   4.022   4.390  12.537 -0.3975 -0.1523 -0.4555
  791MPD2    C311712   3.889   4.414  12.495 -0.1608  0.3433 -0.4637
  791MPD2    C411713   3.858   4.537  12.434  0.9109  0.7142  0.0996
  791MPD2    C511714   3.949   4.639  12.417 -0.2287 -0.1069  0.0207
  791MPD2     H11715   4.030   4.295  12.588  2.2351  0.2781 -0.0354
  791MPD2    H111716   3.761   4.559  12.390  1.6952  1.1572 -1.3865
  791MPD2    H211717   4.151   4.688  12.429 -0.9159  1.2189  0.7680
  791MPD2    H311718   3.927   4.732  12.365  1.0360 -0.5203 -1.2800
  791MPD2     N11719   3.788   4.325  12.517 -0.0905 -0.2252 -0.3686
  791MPD2    H511720   3.815   4.234  12.555  2.4356  0.4246 -0.5774
  791MPD2    N111721   4.262   4.473  12.546 -0.7299 -0.2453  0.4497
  791MPD2    H711722   4.319   4.557  12.536 -1.2494 -0.1391 -1.6124
  792MPD2     C11723   0.759   4.325  10.966  0.6488 -0.4191 -0.6456
  792MPD2    C111724   0.650   4.335  11.045  0.6142  0.2820  1.0115
  792MPD2    C211725   0.546   4.245  11.023  0.5646  0.4570 -0.7293
  792MPD2    C311726   0.560   4.139  10.935  0.4791  0.5262 -0.7176
  792MPD2    C411727   0.671   4.123  10.862  0.5975 -0.1705  0.5802
  792MPD2    C511728   0.762   4.227  10.867 -0.2126  0.0545  0.0440
  792MPD2     H11729   0.452   4.261  11.076  1.8658  2.9307  0.8476
  792MPD2    H111730   0.675   4.042  10.790 -1.6054  1.5066 -1.4289
  792MPD2    H211731   0.845   4.390  10.973  1.3448 -1.3292 -0.7536
  792MPD2    H311732   0.855   4.215  10.812  0.2026  0.7910  0.5855
  792MPD2     N11733   0.454   4.040  10.918 -0.3453 -0.5863 -0.3973
  792MPD2    H511734   0.467   3.970  10.845 -1.5547 -1.5637  0.3340
  792MPD2    N111735   0.651   4.446  11.128 -0.7002  0.5408 -0.3546
  792MPD2    H711736   0.734   4.504  11.127 -1.0550  1.0286 -1.3614
  793MPD2     C11737   4.447   4.401  10.831  0.5176  0.5124 -0.3993
  793MPD2    C111738   4.485   4.327  10.725 -0.0731 -0.5286  0.1867
  793MPD2    C211739   4.542   4.205  10.741  0.1946  0.1713 -0.2286
  793MPD2    C311740   4.546   4.149  10.871  0.2884 -0.1390 -0.0424
  793MPD2    C411741   4.500   4.223  10.979  0.2810  0.3319 -0.2385
  793MPD2    C511742   4.445   4.341  10.956  0.5903 -0.0282  0.6994
  793MPD2     H11743   4.586   4.144  10.663  0.0943 -0.8556  0.5055
  793MPD2    H111744   4.496   4.180  11.078  0.4138  1.4686  0.2476
  793MPD2    H211745   4.382   4.486  10.816 -0.3219  0.0197  0.4022
  793MPD2    H311746   4.395   4.390  11.038  0.6849 -2.3959  2.1660
  793MPD2     N11747   4.604   4.022  10.897  0.2488  0.3523  0.2401
  793MPD2    H511748   4.621   3.998  10.994  0.9915 -0.5644 -0.1194
  793MPD2    N111749   4.476   4.374  10.590 -0.0671 -0.2857 -0.2760
  793MPD2    H711750   4.505   4.322  10.509 -1.5861 -1.4985 -0.0423
  794MPD2     C11751   4.136   4.571  17.354 -0.8849 -0.3854 -0.4624
  794MPD2    C111752   4.116   4.435  17.307  0.2680  0.0955 -0.5451
  794MPD2    C211753   4.063   4.411  17.182  0.4420  0.5100  0.0937
  794MPD2    C311754   4.009   4.520  17.110  0.1597 -0.2700  0.1358
  794MPD2    C411755   4.028   4.649  17.160  0.6529  0.5597 -0.0637
  794MPD2    C511756   4.083   4.669  17.283 -0.2633 -0.0951 -1.0323
  794MPD2     H11757   4.042   4.311  17.147  0.4045  0.3749  0.5011
  794MPD2    H111758   3.982   4.726  17.099  0.6177  0.1458 -0.5682
  794MPD2    H211759   4.173   4.603  17.451  0.8743 -1.0154 -0.9262
  794MPD2    H311760   4.093   0.032  17.328  0.7746  0.1969 -1.9083
  794MPD2     N11761   3.939   4.506  16.989 -0.0910 -0.4511  0.4982
  794MPD2    H511762   3.896   4.595  16.967  1.6759 -0.6962 -3.9832
  794MPD2    N111763   4.159   4.327  17.383  0.0359 -0.0826 -0.3481
  794MPD2    H711764   4.147   4.235  17.341 -0.4503 -0.0582 -0.2642
  795MPD2     C11765   2.420   1.519  13.002  0.5024 -0.1063 -1.2276
  795MPD2    C111766   2.348   1.432  13.082  0.1750  0.0098  0.4401
  795MPD2    C211767   2.413   1.400  13.204 -0.4749  0.4687 -0.0895
  795MPD2    C311768   2.552   1.424  13.232  0.1075  0.4241  0.5347
  795MPD2    C411769   2.622   1.494  13.135  0.0092 -0.3675 -0.1758
  795MPD2    C511770   2.552   1.545  13.032 -0.3749 -1.2335 -0.6353
  795MPD2     H11771   2.354   1.331  13.263  0.0828 -0.6984 -0.8928
  795MPD2    H111772   2.724   1.529  13.145  0.4587 -2.0685  1.1404
  795MPD2    H211773   2.387   1.569  12.912 -0.7103 -3.4030 -2.6078
  795MPD2    H311774   2.600   1.611  12.961  0.4843 -1.6163 -0.4030
  795MPD2     N11775   2.606   1.380  13.355  0.2144  0.1047 -0.8467
  795MPD2    H511776   2.546   1.332  13.421  0.1063  0.1531 -0.9092
  795MPD2    N111777   2.216   1.385  13.061  0.3737  0.4784 -0.0746
  795MPD2    H711778   2.169   1.331  13.134 -1.4497 -1.0720 -2.4210
  796MPD2     C11779   1.388   2.867  15.817 -0.8928  0.4292 -0.0779
  796MPD2    C111780   1.402   2.943  15.929 -0.1009  0.9959  0.3542
  796MPD2    C211781   1.403   3.085  15.925 -0.7141 -0.5175 -0.0468
  796MPD2    C311782   1.380   3.144  15.802 -0.3677 -0.3008 -0.4976
  796MPD2    C411783   1.350   3.062  15.690  0.6014  0.1795  0.3300
  796MPD2    C511784   1.341   2.925  15.700 -0.6236  0.1462 -0.8512
  796MPD2     H11785   1.439   3.143  16.009 -1.8988 -1.6410  1.2499
  796MPD2    H111786   1.344   3.112  15.594 -1.4760 -3.3028 -1.3314
  796MPD2    H211787   1.408   2.761  15.817  3.3586  1.1933 -1.9401
  796MPD2    H311788   1.313   2.868  15.612 -1.4754 -1.5293  0.4964
  796MPD2     N11789   1.380   3.283  15.796 -0.4317 -0.5026  0.1989
  796MPD2    H511790   1.410   3.335  15.878 -0.6347  0.2637 -0.2157
  796MPD2    N111791   1.457   2.874  16.043 -0.1246  0.3058 -0.5241
  796MPD2    H711792   1.481   2.776  16.038 -0.9334  0.1091 -0.4798
  797MPD2     C11793   2.201   2.995   0.096  0.2315  0.1363 -0.0868
  797MPD2    C111794   2.291   3.089   0.051  0.0009 -0.5032  0.6697
  797MPD2    C211795   2.283   3.119  17.651  0.1988  0.0658  1.0870
  797MPD2    C311796   2.179   3.080  17.577  0.9700 -0.6477  0.0645
  797MPD2    C411797   2.082   2.997  17.621 -0.3198  0.3649  0.8093
  797MPD2    C511798   2.104   2.955   0.010 -0.1430  0.0419  0.1384
  797MPD2     H11799   2.355   3.182  17.601 -1.2065  1.8428  1.2930
  797MPD2    H111800   1.987   2.973  17.575 -1.0462  3.6286  0.5620
  797MPD2    H211801   2.194   2.947   0.193 -0.0907  2.5387  1.0746
  797MPD2    H311802   2.031   2.890   0.057 -1.2104  0.4890 -0.8936
  797MPD2     N11803   2.180   3.135  17.445  0.3390 -1.0003  0.1340
  797MPD2    H511804   2.256   3.199  17.423 -1.4042  1.0360 -0.0479
  797MPD2    N111805   2.388   3.151   0.128 -0.3880 -0.4577 -0.2463
  797MPD2    H711806   2.448   3.218   0.079 -0.3327 -0.0033  0.4419
  798MPD2     C11807   2.794   3.358  17.308 -0.4106  0.1888 -0.1074
  798MPD2    C111808   2.670   3.326  17.358 -0.0534 -0.6165 -0.1256
  798MPD2    C211809   2.660   3.297  17.492  0.2065 -0.8114  0.1044
  798MPD2    C311810   2.757   3.324  17.586 -0.5010 -1.1338 -0.3946
  798MPD2    C411811   2.883   3.355  17.535 -0.5667 -0.4332 -0.0576
  798MPD2    C511812   2.898   3.361  17.394 -0.2138  1.2425 -0.3209
  798MPD2     H11813   2.570   3.253  17.535  1.4086 -0.9902  2.4542
  798MPD2    H111814   2.970   3.367  17.598 -0.9266  3.1138 -0.2477
  798MPD2    H211815   2.812   3.364  17.202  1.4116 -1.1683  0.1284
  798MPD2    H311816   2.998   3.383  17.356  0.0403  0.5170 -0.0674
  798MPD2     N11817   2.724   3.302  17.717 -0.0928  0.0733 -0.0002
  798MPD2    H511818   2.623   3.307  17.731 -0.1610 -2.1770  0.2545
  798MPD2    N111819   2.558   3.342  17.269 -0.0016  0.4422 -0.1664
  798MPD2    H711820   2.577   3.365  17.172 -2.4164 -2.1721 -1.2520
  799MPD2     C11821   1.703   4.101  14.958  0.6241  0.2600 -0.1872
  799MPD2    C111822   1.667   4.036  14.843  0.1494 -0.4525 -0.4796
  799MPD2    C211823   1.591   4.096  14.746  0.1125  0.5876  0.4945
  799MPD2    C311824   1.566   4.230  14.749  0.1168  0.1419 -0.7948
  799MPD2    C411825   1.608   4.299  14.860  0.0474 -0.2429  0.0117
  799MPD2    C511826   1.674   4.240  14.961 -0.2707 -0.2914 -0.4048
  799MPD2     H11827   1.562   4.034  14.662  2.6023 -1.1238  0.8861
  799MPD2    H111828   1.590   4.405  14.867  1.4633  0.1723 -2.8627
  799MPD2    H211829   1.749   4.055  15.045 -1.4981 -0.2233  0.6788
  799MPD2    H311830   1.695   4.302  15.048  0.9604  0.9428 -1.5723
  799MPD2     N11831   1.524   4.300  14.637 -0.4643  0.2206 -0.3249
  799MPD2    H511832   1.541   4.400  14.640 -0.4477  0.1490  1.6765
  799MPD2    N111833   1.715   3.909  14.820  0.6961  0.6779 -0.0272
  799MPD2    H711834   1.678   3.864  14.737  0.5575  1.6225 -0.4775
  800MPD2     C11835   2.093   0.405  13.966  0.6386  0.2406 -0.8095
  800MPD2    C111836   2.200   0.398  14.048 -0.3661 -0.1987  0.0323
  800MPD2    C211837   2.309   0.308  14.012  0.1109  0.0005 -0.0312
  800MPD2    C311838   2.296   0.235  13.898  0.5861 -0.4484 -0.4212
  800MPD2    C411839   2.188   0.246  13.811  0.4952 -0.2042 -0.0863
  800MPD2    C511840   2.093   0.338  13.850 -0.0590 -0.7101  0.3577
  800MPD2     H11841   2.404   0.312  14.065  0.8573  0.9274 -1.4376
  800MPD2    H111842   2.181   0.185  13.722  0.5241  0.1654 -0.3401
  800MPD2    H211843   2.017   0.479  13.993  0.6779  0.3166 -0.9089
  800MPD2    H311844   2.003   0.325  13.791  0.6965  3.0437 -1.6424
  800MPD2     N11845   2.407   0.169  13.846 -0.4103  0.4468  0.4140
  800MPD2    H511846   2.495   0.172  13.896  0.2628  0.5292 -0.7947
  800MPD2    N111847   2.204   0.485  14.161  0.1212 -0.1681  0.1975
  800MPD2    H711848   2.124   0.547  14.168 -2.5874 -3.3310 -2.5865
  801MPD2     C11849   1.987   1.129  14.287  0.0315 -0.5925  0.2552
  801MPD2    C111850   1.985   1.060  14.406  0.0446 -0.1237 -0.5840
  801MPD2    C211851   1.877   1.066  14.493 -0.1679  0.4389  0.8650
  801MPD2    C311852   1.762   1.137  14.461 -0.0575  0.5319 -0.7858
  801MPD2    C411853   1.771   1.212  14.351 -0.3102 -0.0574  0.3264
  801MPD2    C511854   1.880   1.208  14.266  0.4386  0.3763  0.5268
  801MPD2     H11855   1.874   1.001  14.581  0.8020 -3.1521 -1.7501
  801MPD2    H111856   1.691   1.279  14.320  1.5750  2.1098  0.1382
  801MPD2    H211857   2.063   1.128  14.209  0.9325  0.3659  1.1198
  801MPD2    H311858   1.864   1.257  14.170 -2.3135  0.3498  0.9590
  801MPD2     N11859   1.642   1.132  14.533  0.0256  0.0877 -0.6776
  801MPD2    H511860   1.573   1.201  14.504  0.6762  0.1186 -2.1230
  801MPD2    N111861   2.082   0.967  14.439 -0.0676  0.4596  0.4314
  801MPD2    H711862   2.073   0.917  14.527 -1.4883 -1.4977 -0.8176
  802MPD2     C11863   1.556   2.020   0.447 -0.5303 -0.6899 -0.4352
  802MPD2    C111864   1.490   2.049   0.324  0.8442 -0.6495 -0.6329
  802MPD2    C211865   1.519   1.980   0.210  0.3360  0.8553  0.4511
  802MPD2    C311866   1.615   1.883   0.210 -0.3863  0.0736 -0.3127
  802MPD2    C411867   1.698   1.867   0.323 -0.1269  0.0982  0.3154
  802MPD2    C511868   1.669   1.937   0.443 -0.0575 -0.2863  0.3091
  802MPD2     H11869   1.472   1.995   0.113 -2.1318 -1.0306  1.3516
  802MPD2    H111870   1.779   1.796   0.325  0.5739  0.8531 -1.4699
  802MPD2    H211871   1.534   2.079   0.535  1.9262  0.9760 -0.9254
  802MPD2    H311872   1.728   1.910   0.530  0.3776 -0.8896 -0.1677
  802MPD2     N11873   1.640   1.819   0.088 -0.7864  0.3173  0.2280
  802MPD2    H511874   1.584   1.852   0.010 -0.3788 -0.6221 -0.4656
  802MPD2    N111875   1.377   2.139   0.312  0.9421  0.4947  0.4748
  802MPD2    H711876   1.343   2.143   0.217  0.3813  1.0204  0.7060
  803MPD2     C11877   2.272   4.404  12.174 -0.4284 -0.3633  0.4095
  803MPD2    C111878   2.367   4.498  12.213  0.1827 -0.1613 -0.0714
  803MPD2    C211879   2.417   4.491  12.346  0.1935 -0.3598  0.2684
  803MPD2    C311880   2.364   4.392  12.435 -0.0802  0.3831 -0.7303
  803MPD2    C411881   2.277   4.294  12.386 -0.6103  0.3581  0.0787
  803MPD2    C511882   2.237   4.300  12.253 -0.1616 -0.1750 -0.1979
  803MPD2     H11883   2.499   4.549  12.386 -0.7447  1.4978 -0.4834
  803MPD2    H111884   2.235   4.214  12.446 -0.6228 -0.3390 -0.8677
  803MPD2    H211885   2.229   4.395  12.074 -1.2580 -0.6433  0.7908
  803MPD2    H311886   2.162   4.231  12.218  0.2647  0.0395 -1.5309
  803MPD2     N11887   2.398   4.387  12.577 -0.4946  0.5457 -0.6136
  803MPD2    H511888   2.347   4.316  12.628  1.0578  0.8994  1.4742
  803MPD2    N111889   2.406   4.598  12.122  0.1232 -0.5899 -0.2697
  803MPD2    H711890   2.489   4.653  12.142 -0.0020 -0.0132 -1.3270
  804MPD2     C11891   1.949   1.526  17.309 -0.0809  0.5530  0.0364
  804MPD2    C111892   2.022   1.500  17.423  0.2300 -0.3835 -0.1998
  804MPD2    C211893   2.069   1.604  17.494 -0.3437 -0.5478 -0.1041
  804MPD2    C311894   2.042   1.734  17.461  0.1287  0.4907 -0.1229
  804MPD2    C411895   1.980   1.753  17.337  0.2595  0.9743 -0.6559
  804MPD2    C511896   1.927   1.653  17.268  0.9725 -0.3707  0.4706
  804MPD2     H11897   2.122   1.576  17.584 -0.7212  0.4755  0.4393
  804MPD2    H111898   1.971   1.855  17.303 -0.1616  1.5011  1.0177
  804MPD2    H211899   1.899   1.450  17.250  0.6703  0.6458 -0.7225
  804MPD2    H311900   1.862   1.673  17.184  2.1182  1.0504 -0.0638
  804MPD2     N11901   2.094   1.838  17.543  0.3610  0.3088 -0.0282
  804MPD2    H511902   2.149   1.804  17.621 -0.6219 -2.2811 -0.4674
  804MPD2    N111903   2.060   1.375  17.464  0.0169 -0.0503 -0.4310
  804MPD2    H711904   2.082   1.366  17.563  1.9378  1.6254 -0.7175
  805MPD2     C11905   1.432   3.990  15.256 -0.3552 -0.6026 -0.5332
  805MPD2    C111906   1.390   4.122  15.267 -0.1267  0.1484 -0.2043
  805MPD2    C211907   1.418   4.199  15.375  0.0303  0.2593  0.1233
  805MPD2    C311908   1.493   4.145  15.478 -0.0369 -0.5837 -0.5495
  805MPD2    C411909   1.547   4.014  15.467 -0.5092 -1.0682 -0.2461
  805MPD2    C511910   1.509   3.940  15.357  0.5259 -0.2574 -0.0048
  805MPD2     H11911   1.380   4.301  15.384  0.3118  0.1709  2.5128
  805MPD2    H111912   1.627   3.970  15.526  0.2676 -0.7830 -1.0907
  805MPD2    H211913   1.422   3.929  15.167 -0.5487  0.2466 -1.0850
  805MPD2    H311914   1.554   3.843  15.344  1.4608  0.3146 -1.0292
  805MPD2     N11915   1.532   4.223  15.588 -0.0391 -0.0877  0.0335
  805MPD2    H511916   1.518   4.323  15.574  1.4684  0.0862 -0.3281
  805MPD2    N111917   1.305   4.169  15.156 -0.0870 -0.6965  0.3302
  805MPD2    H711918   1.306   4.113  15.072  0.4603 -1.4252  0.8234
  806MPD2     C11919   1.265   3.904   0.540 -0.2592  0.4021 -0.1741
  806MPD2    C111920   1.328   3.987   0.634 -0.4645 -0.5826  0.6583
  806MPD2    C211921   1.405   4.086   0.577 -0.0746  0.5248 -0.3617
  806MPD2    C311922   1.429   4.108   0.442 -1.4664 -1.3564 -1.0689
  806MPD2    C411923   1.350   4.037   0.351  0.4725 -0.1104 -0.3970
  806MPD2    C511924   1.282   3.928   0.404  0.3874  0.3684  0.5599
  806MPD2     H11925   1.455   4.153   0.647  1.0606  0.0446 -0.7091
  806MPD2    H111926   1.350   4.052   0.244 -1.5888  1.8000 -0.1153
  806MPD2    H211927   1.221   3.810   0.570 -0.6547  0.4094 -0.7433
  806MPD2    H311928   1.236   3.865   0.328  0.4040 -0.3520  1.1514
  806MPD2     N11929   1.523   4.211   0.401  0.0781 -0.1382 -0.6119
  806MPD2    H511930   1.578   4.254   0.476 -0.9464  0.3470 -0.1355
  806MPD2    N111931   1.307   3.961   0.771 -0.2270  0.0991  0.3122
  806MPD2    H711932   1.260   3.876   0.798  3.1425 -2.2319 -1.1291
  807MPD2     C11933   0.928   3.501   1.210 -0.0527  0.0138 -0.0273
  807MPD2    C111934   1.014   3.547   1.305 -0.5680 -0.6162 -0.2814
  807MPD2    C211935   1.005   3.499   1.437  0.5225  0.3147 -0.7450
  807MPD2    C311936   0.915   3.401   1.471  0.4935  0.7650  0.3766
  807MPD2    C411937   0.827   3.352   1.374 -0.4248 -0.1431  0.0823
  807MPD2    C511938   0.830   3.409   1.247 -0.0367  0.2647 -0.3444
  807MPD2     H11939   1.071   3.535   1.516 -1.9714  2.1596  0.5084
  807MPD2    H111940   0.752   3.275   1.382 -0.3726  0.0957  2.7131
  807MPD2    H211941   0.920   3.533   1.107 -1.6899  0.1580  0.1528
  807MPD2    H311942   0.757   3.385   1.171 -0.2047 -0.8355  0.1569
  807MPD2     N11943   0.918   3.350   1.605  0.0557 -0.1998 -0.2458
  807MPD2    H511944   0.992   3.385   1.665 -1.5108  3.3128 -0.3470
  807MPD2    N111945   1.122   3.633   1.266 -0.1088  0.4848 -0.9200
  807MPD2    H711946   1.195   3.661   1.331 -1.7023  1.9855  0.2286
  808MPD2     C11947   2.690   1.325  11.090  0.8164 -0.2329 -0.1129
  808MPD2    C111948   2.604   1.267  10.998  0.1422  0.3298  0.5688
  808MPD2    C211949   2.649   1.254  10.869 -0.2040  0.1882 -0.5387
  808MPD2    C311950   2.772   1.299  10.834  0.1657  0.3244  0.4814
  808MPD2    C411951   2.859   1.343  10.929  0.6785  1.4839 -0.1053
  808MPD2    C511952   2.812   1.362  11.051  0.7480 -0.0632  0.2678
  808MPD2     H11953   2.583   1.211  10.795  1.4459  0.3297 -2.1153
  808MPD2    H111954   2.957   1.380  10.903  1.9168 -1.6226  0.1377
  808MPD2    H211955   2.661   1.345  11.192 -0.3526  1.4845 -0.7720
  808MPD2    H311956   2.884   1.406  11.119 -0.0645  4.0295 -1.5163
  808MPD2     N11957   2.835   1.281  10.701  0.3959  0.2033  0.1469
  808MPD2    H511958   2.930   1.315  10.689  0.1779  0.4546 -0.8366
  808MPD2    N111959   2.487   1.208  11.024  0.2162 -0.8804  0.1735
  808MPD2    H711960   2.442   1.168  10.942 -1.8315  0.0730  0.8397
  809MPD2     C11961   2.684   0.753   9.753 -0.7055  0.1513  0.4742
  809MPD2    C111962   2.743   0.716   9.876  0.5019 -0.0158 -0.8863
  809MPD2    C211963   2.778   0.820   9.966 -0.0257 -0.2860 -0.6261
  809MPD2    C311964   2.762   0.955   9.938  0.2693  0.1973 -0.8936
  809MPD2    C411965   2.693   0.982   9.823  0.4252 -0.0563  0.5162
  809MPD2    C511966   2.654   0.885   9.734  0.2464 -0.1626 -0.5247
  809MPD2     H11967   2.830   0.782  10.053 -1.7838 -1.4211 -0.0693
  809MPD2    H111968   2.681   1.084   9.789 -3.7531 -1.9547 -3.6688
  809MPD2    H211969   2.659   0.676   9.681 -0.6915  2.4238 -1.9756
  809MPD2    H311970   2.590   0.906   9.648 -0.7880  2.1703  0.7971
  809MPD2     N11971   2.789   1.056  10.034  0.0315 -0.0157  0.5593
  809MPD2    H511972   2.779   1.150   9.998 -1.0448  0.5924  2.4667
  809MPD2    N111973   2.782   0.583   9.907 -0.1151 -0.4291  0.2767
  809MPD2    H711974   2.832   0.565   9.993  0.5674 -1.0907 -0.2569
  810MPD2     C11975   2.005   4.161  10.658  0.2839  0.4043  0.4323
  810MPD2    C111976   1.895   4.199  10.587 -0.1905  0.0295 -0.0833
  810MPD2    C211977   1.886   4.333  10.547  0.1815 -0.1583 -0.3736
  810MPD2    C311978   1.981   4.423  10.591 -0.1873  0.0284 -0.2569
  810MPD2    C411979   2.088   4.375  10.663  0.1453 -0.1505 -0.3951
  810MPD2    C511980   2.102   4.243  10.692 -0.2203 -0.0035 -0.1619
  810MPD2     H11981   1.793   4.365  10.501 -0.5343 -0.5257  0.8333
  810MPD2    H111982   2.162   4.448  10.694  1.9316 -0.2398 -4.4767
  810MPD2    H211983   2.021   4.056  10.678 -1.3499 -0.4134 -2.5343
  810MPD2    H311984   2.196   4.211  10.735  0.9730  1.1783 -1.8917
  810MPD2     N11985   1.964   4.566  10.586  0.5052  0.4019 -0.1605
  810MPD2    H511986   2.043   4.618  10.623  0.6500 -0.6193  0.9446
  810MPD2    N111987   1.810   4.091  10.563  0.0985  0.3148  0.3004
  810MPD2    H711988   1.835   3.999  10.598  1.8076  0.7726  0.2854
  811MPD2     C11989   1.077   3.642  10.201  0.2093 -0.2828  0.3826
  811MPD2    C111990   1.185   3.725  10.166 -0.0260 -0.1472 -0.3315
  811MPD2    C211991   1.170   3.792  10.044  0.0289 -0.4310 -0.0017
  811MPD2    C311992   1.056   3.779   9.967 -0.7214 -0.1723  0.2068
  811MPD2    C411993   0.948   3.705  10.012 -0.3261  0.0494  0.4748
  811MPD2    C511994   0.961   3.632  10.123  0.0141 -0.0186 -0.1592
  811MPD2     H11995   1.245   3.863  10.011  0.9842 -0.2836  2.4389
  811MPD2    H111996   0.856   3.695   9.956  0.7928 -2.4180 -0.9641
  811MPD2    H211997   1.075   3.578  10.288 -1.4520 -3.0232 -1.6693
  811MPD2    H311998   0.880   3.563  10.142 -1.4216  1.6695 -0.1921
  811MPD2     N11999   1.051   3.865   9.857 -0.0139 -0.4955  0.1964
  811MPD2    H512000   1.139   3.906   9.828 -2.1471  2.4837 -2.0450
  811MPD2    N112001   1.298   3.735  10.246  0.5675 -0.5980 -0.4773
  811MPD2    H712002   1.301   3.692  10.337  1.0796  0.1697 -0.1346
  812MPD2     C12003   0.759   4.305  12.007 -0.0393  0.5862 -0.5900
  812MPD2    C112004   0.730   4.389  12.117  0.0194  0.0950  0.0997
  812MPD2    C212005   0.776   4.360  12.252  0.0837  0.1778  1.2458
  812MPD2    C312006   0.853   4.243  12.272  0.3540  0.1783  0.1084
  812MPD2    C412007   0.873   4.167  12.160 -0.2782 -0.0880  0.6657
  812MPD2    C512008   0.829   4.197  12.035 -0.4995 -0.3052  0.0818
  812MPD2     H12009   0.749   4.421  12.337 -2.1038  0.9961 -0.0313
  812MPD2    H112010   0.930   4.075  12.159  1.7220  1.1561  1.9337
  812MPD2    H212011   0.753   4.328  11.901 -2.4048 -1.0466 -0.8151
  812MPD2    H312012   0.856   4.126  11.958 -0.1454 -0.6967  0.5641
  812MPD2     N12013   0.910   4.221  12.398 -0.5272 -0.1766 -0.4836
  812MPD2    H512014   0.895   4.289  12.472 -1.9845 -3.0234  1.8272
  812MPD2    N112015   0.652   4.501  12.092  0.3441  0.5095  0.2054
  812MPD2    H712016   0.612   4.503  11.998  1.0159 -0.3912 -0.0901
  813MPD2     C12017   0.253   1.434  13.101 -1.0298 -0.4654  0.7312
  813MPD2    C112018   0.172   1.536  13.053 -1.1903  0.3817  0.6928
  813MPD2    C212019   0.040   1.543  13.095 -0.1948  0.2141 -0.4434
  813MPD2    C312020   4.720   1.436  13.167  0.0635 -0.1718 -0.0842
  813MPD2    C412021   0.068   1.337  13.212  0.2092 -0.3429  0.2183
  813MPD2    C512022   0.200   1.340  13.176 -0.1935 -0.2573  0.1479
  813MPD2     H12023   4.716   1.628  13.063 -1.4873 -0.4470  0.2000
  813MPD2    H112024   0.031   1.259  13.276 -1.1704  0.7475  0.7645
  813MPD2    H212025   0.358   1.430  13.076 -1.1264 -1.0059  0.4039
  813MPD2    H312026   0.266   1.262  13.212  2.5311  2.4960  1.0390
  813MPD2     N12027   4.582   1.448  13.204  0.2361 -0.5770  0.3251
  813MPD2    H512028   4.550   1.542  13.182 -4.3711 -2.0449  0.9262
  813MPD2    N112029   0.215   1.640  12.966 -0.0658  0.6046 -0.2411
  813MPD2    H712030   0.155   1.720  12.947 -3.8503 -2.2853 -0.3411
  814MPD2     C12031   0.462   2.711  12.440  0.2208 -0.1680  0.2149
  814MPD2    C112032   0.441   2.763  12.316 -0.0635  0.0878  0.5023
  814MPD2    C212033   0.483   2.893  12.285  0.4174  0.3284  0.6526
  814MPD2    C312034   0.548   2.971  12.380  0.1369 -0.2420  0.6369
  814MPD2    C412035   0.567   2.914  12.502  0.1763  0.4410  0.0569
  814MPD2    C512036   0.523   2.789  12.532  0.2800 -0.0179  0.4078
  814MPD2     H12037   0.469   2.939  12.188 -0.9815  0.1981  0.7996
  814MPD2    H112038   0.618   2.971  12.579  1.1279  0.0173 -0.2573
  814MPD2    H212039   0.451   2.605  12.459 -2.4733  0.1449  0.4354
  814MPD2    H312040   0.550   2.735  12.622  3.7459 -0.8653 -1.1389
  814MPD2     N12041   0.600   3.102  12.354  0.8233 -0.3362  0.6797
  814MPD2    H512042   0.661   3.154  12.417  2.2920 -1.0243 -0.1972
  814MPD2    N112043   0.378   2.682  12.217  0.4861  0.2392 -0.2546
  814MPD2    H712044   0.373   2.712  12.120  0.3657 -1.3572 -0.7404
  815MPD2     C12045   1.029   1.250  12.050  0.4859 -0.1713 -0.1142
  815MPD2    C112046   0.951   1.168  11.975 -0.4168  0.3394 -0.0979
  815MPD2    C212047   0.816   1.176  11.989  0.2105  0.2935  0.4086
  815MPD2    C312048   0.767   1.247  12.093  0.5535  0.0793 -0.0427
  815MPD2    C412049   0.845   1.312  12.181 -0.4582  0.4180  0.4150
  815MPD2    C512050   0.980   1.312  12.160  0.5456  0.5827 -0.4974
  815MPD2     H12051   0.751   1.130  11.915 -1.8665  1.0687  1.7317
  815MPD2    H112052   0.808   1.373  12.263 -2.8598 -1.4185  0.7057
  815MPD2    H212053   1.137   1.252  12.035  0.4516 -1.9767 -0.5532
  815MPD2    H312054   1.039   1.367  12.233  3.1038 -0.8767 -1.4535
  815MPD2     N12055   0.626   1.241  12.108 -0.1144 -0.4917 -0.3029
  815MPD2    H512056   0.574   1.189  12.038 -0.7996  0.7308 -0.6964
  815MPD2    N112057   1.020   1.110  11.867  0.4143 -0.1657  0.6418
  815MPD2    H712058   1.119   1.124  11.847  0.5417  2.0979  2.8959
  816MPD2     C12059   0.316   1.055  17.191  0.1122  1.2438  0.0772
  816MPD2    C112060   0.413   1.129  17.259 -0.2132  0.0817 -0.2848
  816MPD2    C212061   0.538   1.073  17.271  0.1168  0.7718  0.1130
  816MPD2    C312062   0.571   0.962  17.195 -0.0419 -0.0718 -0.1983
  816MPD2    C412063   0.480   0.899  17.124  0.1956 -1.0119 -0.1411
  816MPD2    C512064   0.354   0.943  17.128 -0.5554 -0.1365 -0.8754
  816MPD2     H12065   0.606   1.113  17.345 -1.5477  0.5724  1.7433
  816MPD2    H112066   0.496   0.816  17.056  0.3440  0.0526 -1.3956
  816MPD2    H212067   0.209   1.069  17.202 -0.1656  0.0657 -1.1437
  816MPD2    H312068   0.278   0.889  17.072 -0.0341 -0.6399 -1.0988
  816MPD2     N12069   0.710   0.920  17.174 -0.2266  0.1677 -0.6379
  816MPD2    H512070   0.784   0.965  17.227 -1.6504  1.6390  0.1081
  816MPD2    N112071   0.380   1.261  17.305 -0.0517 -0.8967 -0.3856
  816MPD2    H712072   0.294   1.291  17.259 -0.4423 -0.0926  0.8802
  817MPD2     C12073   0.786   2.419   9.781 -0.4020  0.1236 -0.4657
  817MPD2    C112074   0.674   2.342   9.760 -0.3370  0.1120 -0.1085
  817MPD2    C212075   0.548   2.403   9.749  0.6998 -0.6943  0.6622
  817MPD2    C312076   0.536   2.540   9.770 -0.4579 -0.2727  0.0035
  817MPD2    C412077   0.651   2.617   9.791 -0.1731 -0.0099  0.8001
  817MPD2    C512078   0.775   2.560   9.796  0.2708 -0.4201  0.1979
  817MPD2     H12079   0.461   2.342   9.729  0.2625 -0.6958  2.5046
  817MPD2    H112080   0.648   2.725   9.792  0.6876  0.0241  0.0418
  817MPD2    H212081   0.883   2.376   9.804 -0.4657 -0.5131 -1.3717
  817MPD2    H312082   0.866   2.619   9.807  1.2494 -1.7420 -0.7552
  817MPD2     N12083   0.404   2.593   9.763 -0.0264  0.0047 -0.3994
  817MPD2    H512084   0.331   2.527   9.738 -2.1062  2.6310 -1.2129
  817MPD2    N112085   0.673   2.200   9.754 -0.2780  0.3672  0.6566
  817MPD2    H712086   0.584   2.153   9.744 -0.8291  1.3801  0.7873
  818MPD2     C12087   0.077   1.985  10.084  0.5762 -0.2619 -0.5835
  818MPD2    C112088   4.707   1.936  10.013  0.2104  0.0910 -0.2673
  818MPD2    C212089   4.729   1.824   9.934  0.0397  0.6400  0.3987
  818MPD2    C312090   0.112   1.759   9.931 -0.6361  0.3197  1.4424
  818MPD2    C412091   0.218   1.822   9.993  0.3855 -0.0439 -0.2816
  818MPD2    C512092   0.197   1.930  10.073  0.5810  0.0341 -0.1480
  818MPD2     H12093   4.650   1.783   9.871 -1.6459  2.2540  1.4807
  818MPD2    H112094   0.319   1.782   9.994  0.3730 -0.0907 -0.7864
  818MPD2    H212095   0.076   2.079  10.137  0.4095 -1.6527  1.8891
  818MPD2    H312096   0.285   1.976  10.117  0.2366 -0.7249  1.3483
  818MPD2     N12097   0.133   1.634   9.877  0.2411 -0.4768 -0.2519
  818MPD2    H512098   0.225   1.594   9.894 -0.0293 -1.9460 -2.2876
  818MPD2    N112099   4.583   2.000  10.006 -0.2571 -0.3654 -0.3278
  818MPD2    H712100   4.518   1.954   9.943  1.8886 -1.9815 -1.3856
  819MPD2     C12101   1.861   3.893  15.505 -0.1548 -0.3768  0.1247
  819MPD2    C112102   1.835   3.771  15.563 -0.0710  0.1363 -0.0336
  819MPD2    C212103   1.910   3.731  15.679 -0.2581 -0.3592 -0.1473
  819MPD2    C312104   1.994   3.821  15.742  0.5515 -0.0870  0.2284
  819MPD2    C412105   2.009   3.944  15.691  0.5624 -0.5318 -0.4214
  819MPD2    C512106   1.950   3.981  15.572 -0.1067 -0.4380 -0.6738
  819MPD2     H12107   1.899   3.629  15.716  1.5260 -1.3783 -2.4095
  819MPD2    H112108   2.055   4.022  15.751 -0.1947 -1.5123  1.4165
  819MPD2    H212109   1.799   3.929  15.423 -2.1981  1.0169  2.2756
  819MPD2    H312110   1.961   4.081  15.530  0.3196  0.9739  2.7593
  819MPD2     N12111   2.071   3.784  15.854  0.8242 -0.0883  0.1030
  819MPD2    H512112   2.051   3.693  15.895  0.3032  0.7208  1.6417
  819MPD2    N112113   1.745   3.688  15.489 -0.4267  0.1351 -0.5563
  819MPD2    H712114   1.711   3.729  15.402  0.5327  3.4446  0.6196
  820MPD2     C12115   1.196   3.722  14.676 -0.3881 -0.1751  0.9074
  820MPD2    C112116   1.247   3.804  14.770 -0.1270 -0.0435  0.2803
  820MPD2    C212117   1.337   3.747  14.867  0.1007 -0.6648  1.0629
  820MPD2    C312118   1.360   3.608  14.869 -0.9817 -0.6825 -0.0146
  820MPD2    C412119   1.307   3.533  14.762 -0.8112 -0.5600 -0.3962
  820MPD2    C512120   1.233   3.596  14.662 -0.2260  0.3910  0.8901
  820MPD2     H12121   1.371   3.804  14.952 -1.5570 -1.4500  2.2722
  820MPD2    H112122   1.308   3.425  14.752  1.0479 -0.5899  0.1754
  820MPD2    H212123   1.128   3.764  14.603 -0.0695 -1.6958 -0.2600
  820MPD2    H312124   1.192   3.544  14.576  0.8706 -0.7042  1.0337
  820MPD2     N12125   1.426   3.550  14.972 -0.4749  0.0142 -0.2921
  820MPD2    H512126   1.417   3.450  14.985  2.2414  0.0264  1.7588
  820MPD2    N112127   1.206   3.940  14.761 -0.4027  0.7979  0.1891
  820MPD2    H712128   1.138   3.948  14.685 -0.3347 -0.9637 -0.0691
  821MPD2     C12129   2.761   0.255  13.066 -0.8579  0.2396  0.2565
  821MPD2    C112130   2.838   0.298  13.173  0.3355 -0.6370 -0.0938
  821MPD2    C212131   2.950   0.376  13.154 -0.0385 -0.8392  0.3197
  821MPD2    C312132   2.987   0.427  13.030 -0.0442 -0.1147  0.0825
  821MPD2    C412133   2.895   0.407  12.930 -0.0669  0.5397 -0.3828
  821MPD2    C512134   2.791   0.316  12.944  0.3370  0.2812  0.2238
  821MPD2     H12135   3.006   0.388  13.246  0.5947  2.6541 -0.5529
  821MPD2    H112136   2.902   0.447  12.830  0.8947  0.3639 -0.3805
  821MPD2    H212137   2.675   0.190  13.073 -0.0636 -0.6033  2.2485
  821MPD2    H312138   2.728   0.292  12.859 -0.1063 -0.3733  0.7352
  821MPD2     N12139   3.109   0.499  13.020  0.3365 -0.2117  0.3340
  821MPD2    H512140   3.126   0.564  12.944  1.4847  2.0371  2.5220
  821MPD2    N112141   2.806   0.256  13.310 -0.3645 -0.1616 -0.5108
  821MPD2    H712142   2.872   0.278  13.383 -0.0849 -2.9491  0.0698
  822MPD2     C12143   2.452   0.475  15.935  0.3008  0.5609  0.3845
  822MPD2    C112144   2.548   0.564  15.976  0.1727  0.4032  0.5650
  822MPD2    C212145   2.513   0.689  16.024 -0.1812 -0.2227 -0.3560
  822MPD2    C312146   2.387   0.726  16.041 -0.0816 -0.2169 -0.4630
  822MPD2    C412147   2.290   0.643  16.001 -0.5493  0.7654  0.6008
  822MPD2    C512148   2.321   0.520  15.936 -0.6156  0.8406  0.5058
  822MPD2     H12149   2.591   0.747  16.072  0.0861 -0.8480 -0.0259
  822MPD2    H112150   2.187   0.677  16.010 -0.8141  0.1608 -0.0934
  822MPD2    H212151   2.473   0.376  15.896  0.9571  1.6095 -1.9328
  822MPD2    H312152   2.246   0.467  15.877  0.3685 -0.6008  0.5623
  822MPD2     N12153   2.353   0.847  16.108 -0.3258 -0.4118  0.9253
  822MPD2    H512154   2.256   0.854  16.136 -0.6159  0.0760 -0.1802
  822MPD2    N112155   2.679   0.519  15.989 -0.1061  0.3393  0.1009
  822MPD2    H712156   2.743   0.596  16.007 -1.1118  0.8962  1.2612
  823MPD2     C12157   2.217   1.153  16.881  0.5461 -0.2869  0.0490
  823MPD2    C112158   2.252   1.060  16.783  0.1897 -1.0268  0.1082
  823MPD2    C212159   2.317   0.944  16.813  0.5390 -0.4683  0.8558
  823MPD2    C312160   2.350   0.915  16.944 -0.1803 -0.3308  0.3335
  823MPD2    C412161   2.320   1.008  17.041  0.1970  0.4464  0.3794
  823MPD2    C512162   2.247   1.121  17.009  0.3668  0.1536 -0.2854
  823MPD2     H12163   2.355   0.876  16.738 -1.3611  0.5193 -1.0127
  823MPD2    H112164   2.347   0.991  17.144  1.6877 -0.2998 -0.1249
  823MPD2    H212165   2.164   1.247  16.867  0.0201 -0.3180  1.8165
  823MPD2    H312166   2.207   1.188  17.084  0.2235 -0.3403  0.0827
  823MPD2     N12167   2.425   0.803  16.984  0.1314 -0.1741  0.2253
  823MPD2    H512168   2.425   0.784  17.084  2.1049 -0.3412  0.2107
  823MPD2    N112169   2.240   1.107  16.646 -0.4779  0.1694 -0.1816
  823MPD2    H712170   2.227   1.206  16.628  1.0544  0.4845  0.4577
  824MPD2     C12171   3.239   4.582  16.085 -0.6693 -0.0339  0.2763
  824MPD2    C112172   3.193   4.650  15.980 -0.4934  0.8366 -0.5016
  824MPD2    C212173   3.217   4.613  15.851  0.6842 -0.5262  0.4102
  824MPD2    C312174   3.309   4.515  15.828 -0.6272  0.6400  0.3085
  824MPD2    C412175   3.358   4.440  15.933 -0.6790  0.3357  0.2361
  824MPD2    C512176   3.333   4.485  16.060  0.2646  0.1965  0.2192
  824MPD2     H12177   3.171   4.668  15.770  0.8528  2.2849  2.2319
  824MPD2    H112178   3.425   4.358  15.914  2.0983  2.2857  1.6260
  824MPD2    H212179   3.213   4.595  16.189 -0.6766 -0.4632  0.3254
  824MPD2    H312180   3.390   4.435  16.138 -1.4318  1.1649  2.0697
  824MPD2     N12181   3.346   4.492  15.695 -0.4652  0.3389 -1.0397
  824MPD2    H512182   3.282   4.518  15.621 -1.5065  3.3718  0.9097
  824MPD2    N112183   3.106   0.030  15.990 -0.1381 -0.1476  0.0681
  824MPD2    H712184   3.071   0.082  15.910  0.9232  1.7019  0.8153
  825MPD2     C12185   3.961   4.540  15.001  0.2360  0.7361 -0.2418
  825MPD2    C112186   3.917   4.582  15.123  0.5430 -1.0121 -0.3625
  825MPD2    C212187   3.952   4.714  15.161 -0.5481 -0.5636  0.1263
  825MPD2    C312188   4.027   0.062  15.083 -0.8435  0.0143  0.1908
  825MPD2    C412189   4.067   0.019  14.957 -0.4629 -0.4030 -0.3561
  825MPD2    C512190   4.041   4.624  14.923  0.0495  0.0417 -0.0795
  825MPD2     H12191   3.902   0.023  15.246  0.3532 -1.9765  1.3968
  825MPD2    H112192   4.141   0.078  14.903  0.9524  0.0808  2.0653
  825MPD2    H212193   3.943   4.442  14.959 -1.0571 -0.2631  2.6959
  825MPD2    H312194   4.083   4.591  14.829 -0.3722 -0.9844  0.0895
  825MPD2     N12195   4.061   0.191  15.120 -0.2762 -0.2418  0.2828
  825MPD2    H512196   4.117   0.248  15.057 -1.5748 -0.0325 -0.6722
  825MPD2    N112197   3.813   4.507  15.185  0.4814 -0.4985 -0.0349
  825MPD2    H712198   3.765   4.437  15.129  0.2894  0.3944 -0.9823
  826MPD2     C12199   3.454   4.119  13.616  0.3798  0.1739  0.1328
  826MPD2    C112200   3.488   4.215  13.518  0.5201 -1.0102 -0.6453
  826MPD2    C212201   3.434   4.346  13.539  0.1749 -0.1727  0.8427
  826MPD2    C312202   3.356   4.378  13.652  0.6422  0.2186 -0.9809
  826MPD2    C412203   3.338   4.279  13.745 -0.3151 -0.8866  0.0221
  826MPD2    C512204   3.375   4.152  13.723 -0.2547 -0.2288 -0.4121
  826MPD2     H12205   3.450   4.422  13.464 -0.4950  0.2576  1.1353
  826MPD2    H112206   3.286   4.299  13.839  0.1247  1.1303 -0.1634
  826MPD2    H212207   3.473   4.013  13.606  1.1187  0.3024  0.2175
  826MPD2    H312208   3.349   4.075  13.795  1.7493  0.9515  1.5661
  826MPD2     N12209   3.317   4.506  13.683  0.5248  0.3885 -0.0947
  826MPD2    H512210   3.270   4.510  13.773  0.8891  1.0353  0.0696
  826MPD2    N112211   3.557   4.173  13.404  0.5567  0.1021 -0.7617
  826MPD2    H712212   3.596   4.080  13.404  0.1510 -0.0715 -3.6259
  827MPD2     C12213   0.152   0.815  10.055  0.1378  0.1153 -0.0361
  827MPD2    C112214   0.088   0.745  10.151  0.1777  0.5849 -0.4898
  827MPD2    C212215   4.721   0.660  10.113 -0.1804  0.0182  0.1932
  827MPD2    C312216   4.676   0.659   9.979  0.1720  0.1678  0.5244
  827MPD2    C412217   0.009   0.736   9.884 -0.2072  0.3137 -0.1620
  827MPD2    C512218   0.117   0.808   9.924 -0.0668  0.2045 -0.2947
  827MPD2     H12219   4.673   0.596  10.186 -0.4244  1.9496  1.7130
  827MPD2    H112220   4.722   0.739   9.778 -3.6761 -0.1508  0.5673
  827MPD2    H212221   0.236   0.881  10.073  0.8052 -0.0659 -2.3406
  827MPD2    H312222   0.173   0.862   9.848 -0.0575  0.8091  0.1474
  827MPD2     N12223   4.572   0.564   9.948 -0.5385 -0.1461  0.0751
  827MPD2    H512224   4.533   0.520  10.031  1.0382 -1.8466 -0.0654
  827MPD2    N112225   0.126   0.755  10.289 -0.0537 -0.4718 -0.5156
  827MPD2    H712226   0.210   0.806  10.314 -0.0163  0.7425 -3.1167
  828MPD2     C12227   3.416   0.650  12.280  0.1941  0.4559  0.1722
  828MPD2    C112228   3.311   0.682  12.194 -0.9390 -0.7197 -0.8360
  828MPD2    C212229   3.326   0.640  12.066 -0.2307 -0.1388 -0.4606
  828MPD2    C312230   3.436   0.580  12.012 -0.0889  0.7770 -0.4493
  828MPD2    C412231   3.530   0.541  12.102  0.1186 -0.1784  0.2384
  828MPD2    C512232   3.526   0.581  12.232 -0.2747  0.5015  0.5595
  828MPD2     H12233   3.246   0.647  11.993 -0.5741 -1.0056 -0.1716
  828MPD2    H112234   3.621   0.486  12.083  1.0229  1.4609 -0.2307
  828MPD2    H212235   3.424   0.676  12.385 -0.1794  1.7382 -0.1136
  828MPD2    H312236   3.602   0.545  12.301 -1.1421 -2.6872 -0.1592
  828MPD2     N12237   3.457   0.537  11.877  0.1013 -0.2128  0.1107
  828MPD2    H512238   3.545   0.489  11.863  0.1698  0.2686 -1.0849
  828MPD2    N112239   3.192   0.751  12.228  0.3941 -0.5540  0.2419
  828MPD2    H712240   3.128   0.769  12.150  0.5931  1.8859  0.6404
  829MPD2     C12241   2.534   0.928  11.714  0.9311  0.4585  0.0643
  829MPD2    C112242   2.486   0.966  11.835 -0.1936 -0.3232  0.3626
  829MPD2    C212243   2.577   0.990  11.941 -0.0473  0.7875 -0.6942
  829MPD2    C312244   2.715   0.973  11.925  0.2578  0.3549 -0.0639
  829MPD2    C412245   2.761   0.928  11.802  0.0660  0.1279  0.6862
  829MPD2    C512246   2.672   0.921  11.696 -0.4393  0.1398 -0.3997
  829MPD2     H12247   2.536   1.022  12.036  0.8667  1.3248 -0.4755
  829MPD2    H112248   2.866   0.930  11.775 -0.0640 -0.2968  0.1588
  829MPD2    H212249   2.465   0.903  11.635  0.6562  1.1598  0.0748
  829MPD2    H312250   2.703   0.908  11.593 -0.6135  0.8135 -0.5381
  829MPD2     N12251   2.813   0.995  12.027  0.4881  0.5013  0.4683
  829MPD2    H512252   2.908   0.961  12.012 -0.0066 -0.6072 -0.1582
  829MPD2    N112253   2.344   0.981  11.844  0.0482  0.1657 -0.0791
  829MPD2    H712254   2.294   0.959  11.758  2.3678 -3.0519 -0.5942
  830MPD2     C12255   2.565   3.171  16.148 -0.3860 -0.1009 -0.0744
  830MPD2    C112256   2.487   3.237  16.061  0.0396  0.2434 -0.5525
  830MPD2    C212257   2.473   3.194  15.929 -0.2440 -0.0226 -0.3614
  830MPD2    C312258   2.549   3.092  15.880  0.2754  0.0702 -1.1902
  830MPD2    C412259   2.643   3.036  15.967  0.3016  0.8241 -0.3795
  830MPD2    C512260   2.639   3.065  16.106 -0.1249 -0.2962 -0.1481
  830MPD2     H12261   2.388   3.221  15.867  0.4426 -0.0058 -1.3007
  830MPD2    H112262   2.696   2.945  15.942  0.7374  0.8139  0.5568
  830MPD2    H212263   2.568   3.197  16.254 -0.5268  0.7928 -0.2901
  830MPD2    H312264   2.703   3.007  16.172  1.6408  1.5840 -0.1879
  830MPD2     N12265   2.555   3.053  15.746 -0.0531  0.4090 -0.1267
  830MPD2    H512266   2.624   2.983  15.720  1.3789  2.4077 -1.7992
  830MPD2    N112267   2.403   3.348  16.098 -0.4305 -0.4365 -0.0947
  830MPD2    H712268   2.402   3.372  16.197  0.1666 -0.3000 -0.1199
  831MPD2     C12269   2.799   1.033  16.402  0.6313  0.5515 -0.1016
  831MPD2    C112270   2.804   0.931  16.311 -0.1145  0.3344 -0.8053
  831MPD2    C212271   2.707   0.826  16.323  0.0591 -0.2494  0.2859
  831MPD2    C312272   2.607   0.842  16.411  0.3853  0.1093 -0.3857
  831MPD2    C412273   2.595   0.957  16.489 -0.0798  0.1226 -1.1033
  831MPD2    C512274   2.688   1.054  16.476  1.1141  0.0138 -0.2206
  831MPD2     H12275   2.709   0.740  16.257  1.1707 -0.1161  0.1463
  831MPD2    H112276   2.515   0.965  16.561  0.3928  1.2482 -0.7015
  831MPD2    H212277   2.874   1.109  16.382  1.5907 -0.4745 -0.3807
  831MPD2    H312278   2.684   1.139  16.542  0.6553  0.4016 -0.7485
  831MPD2     N12279   2.507   0.741  16.430  0.4303 -0.3145 -0.2391
  831MPD2    H512280   2.432   0.778  16.487  0.6693 -0.4083  0.1400
  831MPD2    N112281   2.905   0.933  16.210  0.6325 -0.1947 -0.0372
  831MPD2    H712282   2.987   0.991  16.219  0.5354 -0.4190  2.3086
  832MPD2     C12283   1.254   2.184  17.300  0.3693  0.7701 -0.6271
  832MPD2    C112284   1.202   2.301  17.256 -0.4109  0.6673  0.0238
  832MPD2    C212285   1.090   2.306  17.171  0.7662  0.5198 -0.7458
  832MPD2    C312286   1.034   2.182  17.126 -0.2143 -0.0734  0.0109
  832MPD2    C412287   1.093   2.060  17.165  0.0652  0.4484 -0.2358
  832MPD2    C512288   1.202   2.064  17.252  0.3803  0.9302  0.5629
  832MPD2     H12289   1.057   2.397  17.122 -1.6695  1.2085  2.1547
  832MPD2    H112290   1.046   1.968  17.133  1.7969  0.7036 -3.5192
  832MPD2    H212291   1.346   2.176  17.358  1.7786  3.0020 -2.5902
  832MPD2    H312292   1.247   1.972  17.289  0.1041  1.5296  2.4028
  832MPD2     N12293   0.935   2.173  17.027 -0.0023 -0.8873  0.1426
  832MPD2    H512294   0.913   2.076  17.004  0.3027 -0.9587  0.1532
  832MPD2    N112295   1.260   2.416  17.321 -0.0982  0.1602  0.2534
  832MPD2    H712296   1.346   2.401  17.372 -0.4822  3.2488  1.7917
  833MPD2     C12297   4.038   2.993  12.308  0.3709 -0.1544  0.0162
  833MPD2    C112298   3.925   3.060  12.255 -0.5267  0.4657 -0.3056
  833MPD2    C212299   3.882   3.020  12.130 -0.7915 -0.5510  1.1249
  833MPD2    C312300   3.947   2.923  12.064 -0.4122  1.0433  0.5439
  833MPD2    C412301   4.056   2.857  12.117 -0.2613  0.0230 -0.2226
  833MPD2    C512302   4.099   2.895  12.237  0.5007 -0.3944 -0.1232
  833MPD2     H12303   3.797   3.068  12.082  1.6105  1.6793 -0.9754
  833MPD2    H112304   4.093   2.767  12.071  2.2265  1.3523 -0.7876
  833MPD2    H212305   4.085   3.017  12.402 -2.9671  1.5011  1.2662
  833MPD2    H312306   4.179   2.843  12.290  1.0922  1.2391  0.5876
  833MPD2     N12307   3.915   2.868  11.936 -0.3288  0.3911 -0.3959
  833MPD2    H512308   3.975   2.791  11.909 -0.4497  0.6535 -1.4087
  833MPD2    N112309   3.862   3.165  12.335 -0.3017  0.6425  0.4460
  833MPD2    H712310   3.915   3.188  12.419 -1.7912  2.5190  0.8743
  834MPD2     C12311   3.383   2.245  11.337  0.2771 -0.6055 -0.0167
  834MPD2    C112312   3.426   2.339  11.246 -0.2558  0.1310 -0.3869
  834MPD2    C212313   3.461   2.464  11.300 -0.6359  0.3834  0.0302
  834MPD2    C312314   3.454   2.490  11.437 -0.1509  0.2082  0.1760
  834MPD2    C412315   3.404   2.399  11.522 -0.3203 -0.3124  0.0171
  834MPD2    C512316   3.371   2.277  11.468 -0.1658  0.5703 -0.3655
  834MPD2     H12317   3.496   2.539  11.230 -0.3870  1.4334  1.2856
  834MPD2    H112318   3.392   2.413  11.628  0.7085  0.2853  0.0481
  834MPD2    H212319   3.358   2.146  11.299  1.2562 -0.9983  0.3840
  834MPD2    H312320   3.343   2.205  11.544 -1.6281  0.9030 -0.5908
  834MPD2     N12321   3.509   2.615  11.484 -0.4309  0.1958 -0.2740
  834MPD2    H512322   3.551   2.674  11.413  0.5758 -0.5405 -0.3032
  834MPD2    N112323   3.437   2.304  11.114  0.9015 -0.4146  0.4833
  834MPD2    H712324   3.407   2.210  11.091  0.2718  0.0167 -0.4351
  835MPD2     C12325   3.799   0.481  10.789 -0.5144  0.8479  0.1268
  835MPD2    C112326   3.760   0.595  10.852  0.1725  0.3995 -0.1482
  835MPD2    C212327   3.823   0.625  10.975 -0.6260 -0.4638 -0.4454
  835MPD2    C312328   3.923   0.547  11.032  0.5594  0.8813 -0.0058
  835MPD2    C412329   3.961   0.441  10.960  0.3375 -0.0449  0.3600
  835MPD2    C512330   3.902   0.408  10.841 -0.0482 -0.2515  0.4488
  835MPD2     H12331   3.772   0.698  11.036  1.0815 -0.2339  0.7035
  835MPD2    H112332   4.028   0.367  11.002 -1.2829 -0.4567  2.2574
  835MPD2    H212333   3.757   0.451  10.694 -1.3262 -0.9182  1.0664
  835MPD2    H312334   3.923   0.318  10.785 -0.3987  0.3935 -0.7427
  835MPD2     N12335   3.964   0.566  11.166 -0.1420  0.2643  0.3420
  835MPD2    H512336   3.918   0.641  11.218  0.6897  1.0653 -0.0770
  835MPD2    N112337   3.663   0.679  10.809  0.8342  0.2137 -0.0851
  835MPD2    H712338   3.670   0.770  10.853  1.8337 -0.4595  1.1564
  836MPD2     C12339   3.556   0.872  11.433  0.5696  0.6098 -0.9725
  836MPD2    C112340   3.633   0.849  11.541  0.2859  0.2200  0.5130
  836MPD2    C212341   3.583   0.892  11.663 -0.4243  1.2998 -0.0001
  836MPD2    C312342   3.459   0.955  11.676 -0.3255  0.6931  0.6585
  836MPD2    C412343   3.383   0.975  11.567 -0.0672  0.5415 -0.0658
  836MPD2    C512344   3.429   0.930  11.448 -0.2111  1.0650  0.0650
  836MPD2     H12345   3.644   0.876  11.750  1.8106 -1.0310 -2.0071
  836MPD2    H112346   3.292   1.033  11.580 -0.5878  0.2026 -2.1062
  836MPD2    H212347   3.582   0.844  11.331 -2.2089 -0.6425 -1.3376
  836MPD2    H312348   3.365   0.942  11.362  1.7340 -1.3896 -1.7445
  836MPD2     N12349   3.421   1.014  11.802  0.7956 -0.2675  0.2311
  836MPD2    H512350   3.324   1.042  11.811  0.5325 -1.3410  0.7321
  836MPD2    N112351   3.761   0.790  11.516  0.0574 -0.1982 -0.2416
  836MPD2    H712352   3.776   0.766  11.419 -0.8353 -0.1974 -0.3760
  837MPD2     C12353   1.543   4.120   9.643 -0.6711 -0.2014  0.3534
  837MPD2    C112354   1.429   4.166   9.582 -0.1683 -0.6881 -0.2353
  837MPD2    C212355   1.431   4.303   9.555 -0.5925 -0.2613 -0.5077
  837MPD2    C312356   1.528   4.389   9.602 -0.0556  0.1956 -0.7170
  837MPD2    C412357   1.635   4.336   9.668  0.3942  0.7519 -0.9240
  837MPD2    C512358   1.640   4.204   9.690 -0.0359 -0.2848  0.1418
  837MPD2     H12359   1.341   4.347   9.513  0.2210  1.9430  0.0703
  837MPD2    H112360   1.698   4.401   9.727 -0.2991 -1.3115  2.1062
  837MPD2    H212361   1.561   4.014   9.651 -0.8301 -0.1373  1.4567
  837MPD2    H312362   1.718   4.155   9.746 -0.0075 -0.1168  0.2505
  837MPD2     N12363   1.511   4.525   9.589  1.1310  0.0204  0.1675
  837MPD2    H512364   1.423   4.547   9.544  1.6690 -1.7907 -1.7755
  837MPD2    N112365   1.320   4.075   9.551  0.2382  0.6400  0.6133
  837MPD2    H712366   1.331   3.976   9.566  0.5159  0.5397 -0.2205
  838MPD2     C12367   0.475   4.109  11.830 -0.0446  0.3696  0.3494
  838MPD2    C112368   0.478   3.977  11.805  0.5665  0.3533 -0.2253
  838MPD2    C212369   0.363   3.904  11.840 -0.2210 -0.0176 -0.2053
  838MPD2    C312370   0.268   3.960  11.921  0.1852 -0.3529  0.7602
  838MPD2    C412371   0.272   4.094  11.959  0.2751 -0.2253 -0.5436
  838MPD2    C512372   0.378   4.167  11.906  0.5584 -0.1319  0.1900
  838MPD2     H12373   0.372   3.798  11.818 -0.2032 -0.0449 -0.0659
  838MPD2    H112374   0.203   4.137  12.030 -0.6564  0.6994 -1.9901
  838MPD2    H212375   0.562   4.170  11.808  1.2425 -1.8210 -0.6601
  838MPD2    H312376   0.387   4.266  11.948  0.3081  0.5695 -1.4048
  838MPD2     N12377   0.173   3.873  11.988 -0.3912  0.1308  0.5457
  838MPD2    H512378   0.170   3.773  11.975  0.6820  0.3359 -1.2127
  838MPD2    N112379   0.579   3.909  11.737 -0.0977  0.3944  0.4403
  838MPD2    H712380   0.567   3.812  11.709  0.0117 -0.2464  2.6585
  839MPD2     C12381   0.261   3.350  11.901 -0.6109 -0.9452  1.0058
  839MPD2    C112382   0.255   3.370  11.768  0.8640 -0.1920  0.2693
  839MPD2    C212383   0.361   3.432  11.702  0.5890  0.0979 -0.2889
  839MPD2    C312384   0.480   3.471  11.775  0.4504  0.9852  0.7406
  839MPD2    C412385   0.479   3.456  11.913 -0.2262 -0.6927  0.0014
  839MPD2    C512386   0.371   3.392  11.971 -0.4904 -0.8271 -0.3352
  839MPD2     H12387   0.370   3.443  11.595  2.9113 -0.4376 -0.1499
  839MPD2    H112388   0.564   3.489  11.972 -1.4199 -0.9917  1.8865
  839MPD2    H212389   0.190   3.297  11.964 -0.7852 -2.6013 -0.5791
  839MPD2    H312390   0.364   3.366  12.076 -0.1279 -0.7028 -0.2791
  839MPD2     N12391   0.601   3.530  11.718 -0.4249  0.0667  0.0388
  839MPD2    H512392   0.680   3.530  11.781 -1.6348  0.1909  1.5678
  839MPD2    N112393   0.139   3.333  11.697  0.4021 -0.2635 -0.6739
  839MPD2    H712394   0.146   3.330  11.596  1.2483  2.1495 -0.6864
  840MPD2     C12395   0.730   0.847  10.421  0.7122  0.7884  0.4124
  840MPD2    C112396   0.649   0.901  10.509  0.4770  0.2688 -0.0357
  840MPD2    C212397   0.687   1.022  10.571 -0.0059 -0.3799 -0.6280
  840MPD2    C312398   0.811   1.082  10.548 -0.2287  1.0152  0.3701
  840MPD2    C412399   0.892   1.017  10.456  0.1577 -0.7009  0.4866
  840MPD2    C512400   0.846   0.910  10.391  0.3131  0.6322  0.0599
  840MPD2     H12401   0.620   1.082  10.630  0.3342 -0.9630  0.3519
  840MPD2    H112402   0.994   1.046  10.434  0.7207 -2.2537  1.0193
  840MPD2    H212403   0.703   0.750  10.383 -2.5619  1.6736  0.4802
  840MPD2    H312404   0.915   0.870  10.318 -1.6533 -1.0035 -0.8698
  840MPD2     N12405   0.853   1.200  10.611  0.3429  0.7912  0.1601
  840MPD2    H512406   0.950   1.211  10.583  0.4099  0.4832  0.2738
  840MPD2    N112407   0.523   0.841  10.534  0.5668  0.6485  0.0248
  840MPD2    H712408   0.478   0.777  10.469  0.5771  0.9261 -0.2544
  841MPD2     C12409   4.663   1.156  14.049 -0.5140  0.0086  0.7936
  841MPD2    C112410   4.708   1.057  14.135  0.5657  0.2366 -0.2203
  841MPD2    C212411   0.078   1.092  14.223 -0.1742  0.1309  0.2173
  841MPD2    C312412   0.145   1.212  14.219  0.0954  0.1336 -0.0919
  841MPD2    C412413   0.104   1.297  14.119 -0.1627 -0.0156  0.5482
  841MPD2    C512414   0.001   1.268  14.035 -0.1221  0.7812  0.1046
  841MPD2     H12415   0.109   1.026  14.304 -0.2928  0.8758  0.8746
  841MPD2    H112416   0.153   1.389  14.091 -1.4535  0.3190 -0.6414
  841MPD2    H212417   4.583   1.149  13.976  1.3804 -0.6604 -1.2275
  841MPD2    H312418   4.709   1.338  13.956 -0.4700 -0.1909 -0.6381
  841MPD2     N12419   0.249   1.233  14.311  0.3597 -0.6648 -0.1714
  841MPD2    H512420   0.266   1.170  14.388  1.5821  0.1366  0.2033
  841MPD2    N112421   4.653   0.930  14.154 -0.1934  0.0378  0.0522
  841MPD2    H712422   4.695   0.870  14.225  0.6786  0.1199 -0.3867
  842MPD2     C12423   0.206   2.306  16.731 -0.4400  0.1682  0.1366
  842MPD2    C112424   0.086   2.250  16.699 -0.7030 -0.4038 -0.0048
  842MPD2    C212425   0.047   2.135  16.767 -0.1730 -0.6223 -0.0749
  842MPD2    C312426   0.135   2.075  16.857  0.8884  0.6044  0.4974
  842MPD2    C412427   0.262   2.121  16.868 -0.6662 -0.0109  0.5104
  842MPD2    C512428   0.294   2.240  16.808 -0.6271  0.1208  0.5651
  842MPD2     H12429   4.677   2.109  16.777 -0.2439 -0.1188  0.4997
  842MPD2    H112430   0.320   2.083  16.952  0.0872  0.6692  0.2983
  842MPD2    H212431   0.226   2.408  16.700  1.8662 -0.9994 -2.2001
  842MPD2    H312432   0.391   2.284  16.830  0.0927 -1.2821  0.2411
  842MPD2     N12433   0.090   1.977  16.949  0.3715 -0.1749  0.3227
  842MPD2    H512434   0.151   1.954  17.026 -0.2212  0.0709  0.8677
  842MPD2    N112435   4.730   2.324  16.623 -0.4478 -0.3179  0.6234
  842MPD2    H712436   0.030   2.413  16.588  0.6157 -0.5164  1.1908
  843MPD2     C12437   2.281   3.331   0.572  0.3856 -0.0943  0.3959
  843MPD2    C112438   2.282   3.397   0.456  0.0143  0.2047  0.3534
  843MPD2    C212439   2.394   3.479   0.428 -0.0804  0.2390 -0.7480
  843MPD2    C312440   2.505   3.474   0.513  0.2651 -1.0025 -0.5212
  843MPD2    C412441   2.500   3.395   0.625  0.1243  0.1894 -0.1679
  843MPD2    C512442   2.392   3.321   0.654  0.5299  0.2173  0.9939
  843MPD2     H12443   2.387   3.544   0.342 -1.8628  0.8708 -0.1321
  843MPD2    H112444   2.585   3.395   0.693  1.0726 -1.4030 -1.3332
  843MPD2    H212445   2.202   3.259   0.587 -0.1104  0.8263  2.3404
  843MPD2    H312446   2.388   3.264   0.745  0.7065 -1.4611 -0.0529
  843MPD2     N12447   2.617   3.551   0.495  0.1873 -0.2617 -0.2980
  843MPD2    H512448   2.678   3.554   0.577  1.7419 -0.2466 -1.4506
  843MPD2    N112449   2.171   3.379   0.361  0.3535 -0.8624  0.2226
  843MPD2    H712450   2.101   3.310   0.388 -0.2750 -0.8221 -1.3002
  844MPD2     C12451   0.747   1.700  16.450  0.2159  0.2272  0.2674
  844MPD2    C112452   0.882   1.666  16.437  1.0234 -0.3513 -0.4706
  844MPD2    C212453   0.983   1.746  16.482 -0.0434 -0.0902 -0.1683
  844MPD2    C312454   0.950   1.873  16.527  0.2822 -0.0233  0.3415
  844MPD2    C412455   0.821   1.913  16.529 -0.7931  0.4481 -0.3785
  844MPD2    C512456   0.719   1.831  16.492  0.2493 -0.6185  0.2398
  844MPD2     H12457   1.084   1.708  16.478  0.9207  2.3535  0.8645
  844MPD2    H112458   0.790   2.015  16.550  2.2109  1.6977 -2.0134
  844MPD2    H212459   0.665   1.643  16.408  0.4132 -1.0612  1.6052
  844MPD2    H312460   0.617   1.869  16.489  0.8898  1.0664 -0.1157
  844MPD2     N12461   1.064   1.950  16.559  0.0806  0.3950 -0.1369
  844MPD2    H512462   1.156   1.914  16.534 -0.5461 -2.1243  1.0634
  844MPD2    N112463   0.929   1.546  16.382  0.4103  0.5065  0.0713
  844MPD2    H712464   1.027   1.521  16.393  0.5222  0.8581 -0.1194
  845MPD2     C12465   1.202   2.947  16.486  0.3668  0.5793  0.2275
  845MPD2    C112466   1.248   2.897  16.600  0.4919  0.0167 -1.1064
  845MPD2    C212467   1.269   2.760  16.614  1.2973 -1.4559 -0.0503
  845MPD2    C312468   1.259   2.674  16.503  0.5706  0.5815  0.4981
  845MPD2    C412469   1.217   2.735  16.382  0.1761  0.2994  0.0036
  845MPD2    C512470   1.189   2.866  16.374  0.0888 -0.8698  1.1503
  845MPD2     H12471   1.299   2.726  16.712  1.2921  1.8990  1.0748
  845MPD2    H112472   1.192   2.670  16.299 -0.5798  0.2251  0.2919
  845MPD2    H212473   1.168   3.050  16.476 -0.3726 -0.0320 -3.3366
  845MPD2    H312474   1.160   2.898  16.274  0.4100  3.6909  2.5413
  845MPD2     N12475   1.271   2.529  16.512  0.4640  0.8586 -0.8459
  845MPD2    H512476   1.257   2.469  16.432 -2.1807  1.8719 -1.1651
  845MPD2    N112477   1.274   2.990  16.703 -0.3029  0.6691  0.4421
  845MPD2    H712478   1.261   3.088  16.680  1.5680  1.1840  1.5096
  846MPD2     C12479   3.152   2.799  14.266  0.2669 -0.2012  0.6114
  846MPD2    C112480   3.028   2.776  14.207  0.7257 -0.5644  0.4854
  846MPD2    C212481   2.917   2.761  14.282 -0.5872  0.1134 -0.0324
  846MPD2    C312482   2.925   2.753  14.419  0.4123 -0.4113  0.3964
  846MPD2    C412483   3.045   2.776  14.477  0.5516 -0.0876  0.1402
  846MPD2    C512484   3.151   2.801  14.399 -0.1762 -0.0844 -0.3297
  846MPD2     H12485   2.822   2.752  14.231 -1.3471  2.4148  0.9893
  846MPD2    H112486   3.066   2.790  14.582 -3.5232 -0.9985  1.1072
  846MPD2    H212487   3.242   2.823  14.211 -1.0740  0.3417 -1.3529
  846MPD2    H312488   3.244   2.816  14.453  0.2386  0.2855 -1.1345
  846MPD2     N12489   2.806   2.730  14.494  0.6872 -0.1807  0.9526
  846MPD2    H512490   2.713   2.733  14.453  0.1813  0.7919  2.1967
  846MPD2    N112491   3.014   2.804  14.064 -0.0446 -0.4091 -0.0110
  846MPD2    H712492   2.919   2.800  14.029 -0.4514  0.2482  1.0187
  847MPD2     C12493   3.334   3.929  14.199 -0.2656  0.8373 -0.2001
  847MPD2    C112494   3.277   3.926  14.327  0.3598 -0.1927 -0.1662
  847MPD2    C212495   3.234   3.814  14.391 -0.1518  0.0760 -0.5010
  847MPD2    C312496   3.237   3.694  14.327  0.4255 -0.3398  0.2153
  847MPD2    C412497   3.297   3.692  14.202 -0.7197  0.5303 -0.3095
  847MPD2    C512498   3.344   3.804  14.145 -0.2589  1.3682 -0.0237
  847MPD2     H12499   3.188   3.818  14.489  0.9879 -1.8757  0.0962
  847MPD2    H112500   3.298   3.611  14.130  1.7945  1.2552 -1.0905
  847MPD2    H212501   3.357   4.016  14.139  0.7401 -1.1817 -2.7243
  847MPD2    H312502   3.378   3.795  14.042 -1.5061 -0.7095 -0.2592
  847MPD2     N12503   3.156   3.589  14.371  0.1572  0.6211  0.1342
  847MPD2    H512504   3.109   3.595  14.461  0.9627  0.3838  0.5641
  847MPD2    N112505   3.238   4.044  14.390  0.6631  0.1152 -0.2975
  847MPD2    H712506   3.175   4.045  14.469  0.1074  0.0194 -0.7405
  848MPD2     C12507   0.666   2.355  16.266 -0.4466 -0.2521  0.0846
  848MPD2    C112508   0.649   2.434  16.373 -0.1233 -0.2344 -0.0936
  848MPD2    C212509   0.636   2.570  16.360 -0.1670  0.0430  0.0562
  848MPD2    C312510   0.616   2.630  16.232  0.2237  0.0124  0.0819
  848MPD2    C412511   0.631   2.545  16.125  0.9220  0.3915  0.0887
  848MPD2    C512512   0.671   2.414  16.139  0.0169 -0.2422 -0.2400
  848MPD2     H12513   0.640   2.634  16.447 -2.7966 -1.9554  1.6391
  848MPD2    H112514   0.626   2.572  16.020  1.6589 -1.8155 -0.5124
  848MPD2    H212515   0.687   2.249  16.271  1.2983  0.1375  0.9459
  848MPD2    H312516   0.705   2.364  16.049 -1.7568 -0.2814 -0.8999
  848MPD2     N12517   0.588   2.763  16.208  0.0536 -0.1054  0.1717
  848MPD2    H512518   0.559   2.776  16.111 -0.4431 -1.0897  0.1909
  848MPD2    N112519   0.645   2.371  16.503  0.4049  0.3248 -0.4080
  848MPD2    H712520   0.642   2.444  16.573  1.6659  1.6616 -1.7678
  849MPD2     C12521   0.427   2.269  13.586 -0.2735  0.2029 -0.0121
  849MPD2    C112522   0.523   2.213  13.660  0.2943 -0.0518  0.6095
  849MPD2    C212523   0.492   2.124  13.758  0.3439  0.1391  0.4484
  849MPD2    C312524   0.359   2.095  13.794  0.2242  0.2773  0.5494
  849MPD2    C412525   0.260   2.157  13.718 -0.2825 -0.4796 -0.5983
  849MPD2    C512526   0.294   2.247  13.619 -0.1032 -0.1480  0.2073
  849MPD2     H12527   0.574   2.078  13.812  0.2583 -1.3636 -0.6936
  849MPD2    H112528   0.154   2.138  13.727 -0.4407  1.3107  1.2666
  849MPD2    H212529   0.458   2.330  13.502  0.8418  0.1645  0.3703
  849MPD2    H312530   0.216   2.285  13.555 -1.5754  0.6859  2.4989
  849MPD2     N12531   0.341   2.003  13.902  0.2803  0.3382 -0.3572
  849MPD2    H512532   0.421   1.952  13.938  0.0134 -1.0851 -1.7349
  849MPD2    N112533   0.662   2.225  13.642  0.2057 -0.5996 -0.1551
  849MPD2    H712534   0.730   2.178  13.700  1.5121 -1.1396 -2.0995
  850MPD2     C12535   2.823   4.628  14.923 -0.8150  0.1204 -0.4235
  850MPD2    C112536   2.857   4.554  15.032 -0.0919  0.0027 -0.3796
  850MPD2    C212537   2.966   4.598  15.104  0.3524  0.6792  0.4680
  850MPD2    C312538   3.025   4.721  15.074 -0.4284  0.8004 -0.3441
  850MPD2    C412539   2.986   0.055  14.960 -0.7897  0.4686  0.2341
  850MPD2    C512540   2.890   4.729  14.877 -0.7514  0.0461  0.1774
  850MPD2     H12541   2.995   4.538  15.190 -0.5520  0.6625  0.7594
  850MPD2    H112542   3.031   0.145  14.920  0.6367  0.1227  1.0847
  850MPD2    H212543   2.729   4.599  14.876 -1.1562  0.9546 -0.2515
  850MPD2    H312544   2.853   0.043  14.787  3.1935 -1.9599 -2.5524
  850MPD2     N12545   3.146   0.025  15.131  0.4619 -0.3068  1.1905
  850MPD2    H512546   3.207   0.088  15.080  0.1349 -0.2428  0.8683
  850MPD2    N112547   2.787   4.438  15.054 -0.3110  0.0253  0.2253
  850MPD2    H712548   2.706   4.425  14.994  1.4829 -2.7543 -1.6068
  851MPD2     C12549   2.921   3.797  15.659 -0.2872 -0.6633  0.0163
  851MPD2    C112550   2.831   3.801  15.556 -0.1586  0.3380  0.0847
  851MPD2    C212551   2.789   3.679  15.502 -0.1487  0.1854  0.0896
  851MPD2    C312552   2.848   3.561  15.546  0.5775 -0.7072  0.0298
  851MPD2    C412553   2.948   3.561  15.646 -0.2674  0.6591  0.3077
  851MPD2    C512554   2.978   3.681  15.691 -0.2485  0.3157  0.5490
  851MPD2     H12555   2.708   3.676  15.430  0.1038 -0.2304 -0.1798
  851MPD2    H112556   2.984   3.471  15.694 -0.8546 -0.1135 -0.6955
  851MPD2    H212557   2.964   3.886  15.702  0.5287 -1.5837  1.0952
  851MPD2    H312558   3.059   3.684  15.763 -1.1705 -1.6198  1.6559
  851MPD2     N12559   2.799   3.440  15.485  0.5520  0.2736 -0.5738
  851MPD2    H512560   2.718   3.442  15.424  1.2464 -1.9226 -1.5689
  851MPD2    N112561   2.784   3.925  15.511 -0.0122  0.8901 -0.3751
  851MPD2    H712562   2.812   4.003  15.571 -0.8155 -0.0561  1.2494
  852MPD2     C12563   2.238   2.653  10.938  0.1088  0.0538 -0.3074
  852MPD2    C112564   2.347   2.605  11.003 -0.3917  0.7999  0.2251
  852MPD2    C212565   2.435   2.531  10.934  0.1954  0.2929 -0.3009
  852MPD2    C312566   2.427   2.504  10.799  0.3985 -0.8466 -0.3394
  852MPD2    C412567   2.319   2.565  10.736 -0.7526 -0.7168 -0.1382
  852MPD2    C512568   2.230   2.638  10.805 -0.2285  0.4196  0.2452
  852MPD2     H12569   2.519   2.485  10.984  0.2295  0.6621 -0.0124
  852MPD2    H112570   2.306   2.566  10.628 -0.5374  2.5516 -0.1285
  852MPD2    H212571   2.166   2.712  10.993  1.0027  0.3753  0.5210
  852MPD2    H312572   2.152   2.689  10.749  0.5151 -1.4661 -2.5249
  852MPD2     N12573   2.545   2.448  10.739 -0.2771  0.4741  0.4092
  852MPD2    H512574   2.622   2.417  10.798  1.1241  0.0791 -1.6422
  852MPD2    N112575   2.390   2.625  11.136  0.5561 -0.6126 -0.0851
  852MPD2    H712576   2.477   2.583  11.168 -0.7173 -0.2000  3.8928
  853MPD2     C12577   0.303   2.083  12.341 -0.1687 -0.6722  0.2447
  853MPD2    C112578   0.165   2.105  12.311 -0.1857  0.0092 -0.1422
  853MPD2    C212579   0.123   2.094  12.175  0.0988 -0.3177  0.2169
  853MPD2    C312580   0.223   2.064  12.074  0.6006 -0.0363 -0.2855
  853MPD2    C412581   0.355   2.053  12.110  0.7497  0.4506 -0.7791
  853MPD2    C512582   0.396   2.055  12.245  0.1541 -0.2833  0.2131
  853MPD2     H12583   0.018   2.113  12.158 -0.3373 -2.2826  0.7260
  853MPD2    H112584   0.436   2.040  12.039 -0.8635  1.6033 -2.8265
  853MPD2    H212585   0.323   2.092  12.447  1.9585 -0.2768 -0.2015
  853MPD2    H312586   0.498   2.035  12.273  0.4396 -0.4967 -0.9813
  853MPD2     N12587   0.190   2.063  11.937  0.2731 -0.4866  0.1888
  853MPD2    H512588   0.270   2.060  11.874  0.3134 -1.6847  0.2985
  853MPD2    N112589   0.080   2.150  12.419 -0.7267 -0.2276  0.6802
  853MPD2    H712590   0.108   2.140  12.516 -1.4326 -2.8249  0.6237
  854MPD2     C12591   1.559   2.862  13.132  0.1460  0.2891 -0.1487
  854MPD2    C112592   1.556   2.773  13.023  0.4216  0.2289  0.1805
  854MPD2    C212593   1.588   2.637  13.044 -0.4367  0.3757 -0.4563
  854MPD2    C312594   1.638   2.596  13.172 -0.6701 -0.0262  0.6817
  854MPD2    C412595   1.639   2.686  13.275  0.1673  1.3576 -0.8255
  854MPD2    C512596   1.614   2.818  13.250  0.4555  0.3818 -0.1859
  854MPD2     H12597   1.569   2.569  12.962 -0.6371 -0.0253 -0.0837
  854MPD2    H112598   1.678   2.654  13.371  2.5188  2.3059 -1.4563
  854MPD2    H212599   1.509   2.958  13.124  0.3494  0.6303  2.3765
  854MPD2    H312600   1.623   2.891  13.330  1.3919  2.3790 -2.1003
  854MPD2     N12601   1.688   2.467  13.201 -0.6742 -0.0777 -0.4825
  854MPD2    H512602   1.744   2.458  13.285 -0.8047  2.7518 -0.0931
  854MPD2    N112603   1.504   2.831  12.901  0.3691 -0.1816  0.1662
  854MPD2    H712604   1.483   2.930  12.895 -0.5647 -0.3555  0.4819
  855MPD2     C12605   2.022   2.284  13.960 -0.3430  0.3372 -0.3472
  855MPD2    C112606   2.020   2.165  13.898 -0.2576  1.0622 -0.2238
  855MPD2    C212607   2.000   2.141  13.767 -0.8796  0.1910 -0.2070
  855MPD2    C312608   1.983   2.254  13.689  0.2169  0.1641  0.4347
  855MPD2    C412609   1.981   2.382  13.751  0.5389 -0.0868 -0.1752
  855MPD2    C512610   2.009   2.395  13.884 -0.4898 -0.5461 -0.3999
  855MPD2     H12611   1.995   2.042  13.723 -0.2826  0.4473 -0.8430
  855MPD2    H112612   1.979   2.475  13.696 -0.4880  0.0764  0.1444
  855MPD2    H212613   2.038   2.298  14.066 -1.3892  2.9123 -0.5273
  855MPD2    H312614   2.005   2.492  13.933 -0.7953  0.1711 -1.8477
  855MPD2     N12615   1.936   2.241  13.553  0.2813 -0.1719  0.4314
  855MPD2    H512616   1.899   2.320  13.500  0.5386 -1.4239 -1.6117
  855MPD2    N112617   2.028   2.044  13.971  0.5926  0.5760 -0.8114
  855MPD2    H712618   2.041   1.959  13.917 -0.2135  0.6056 -1.0601
  856MPD2     C12619   4.121   3.046  13.911  0.5630 -0.2082 -0.0594
  856MPD2    C112620   4.196   3.140  13.851 -0.2792 -0.5282 -0.5180
  856MPD2    C212621   4.149   3.207  13.737  0.2444  0.1039  0.0512
  856MPD2    C312622   4.026   3.174  13.687 -0.3738  0.4280 -0.0229
  856MPD2    C412623   3.952   3.072  13.751  0.1442  0.3194  0.0720
  856MPD2    C512624   3.997   3.013  13.868  0.0933  0.2842  0.2313
  856MPD2     H12625   4.218   3.273  13.687 -1.2143  0.4011 -1.5908
  856MPD2    H112626   3.856   3.036  13.716  0.3488  0.7798 -0.9583
  856MPD2    H212627   4.155   2.987  13.996 -0.4192 -1.8560 -0.8233
  856MPD2    H312628   3.943   2.934  13.918  1.2119 -1.7797 -1.7852
  856MPD2     N12629   3.967   3.265  13.593  0.1351 -0.2088 -0.1480
  856MPD2    H512630   3.869   3.249  13.569 -0.1745 -0.9470  1.6320
  856MPD2    N112631   4.326   3.182  13.898 -0.0551 -0.4434  0.0917
  856MPD2    H712632   4.381   3.249  13.845  2.7477  0.1398  3.7080
  857MPD2     C12633   0.640   0.217  13.185  0.1158 -0.0965 -0.1712
  857MPD2    C112634   0.764   0.220  13.113 -0.1795  0.3084 -0.1399
  857MPD2    C212635   0.863   0.296  13.166 -0.2387  0.1776  0.1869
  857MPD2    C312636   0.850   0.371  13.283 -0.4502  0.1630  0.3589
  857MPD2    C412637   0.733   0.367  13.346  0.1959  0.3061  0.1640
  857MPD2    C512638   0.632   0.291  13.298  0.4341 -0.1005 -0.3479
  857MPD2     H12639   0.964   0.299  13.127  0.2573 -2.3684  1.3323
  857MPD2    H112640   0.709   0.428  13.432 -2.0833 -3.1815  1.9910
  857MPD2    H212641   0.551   0.165  13.152 -0.5290  0.2843  1.0071
  857MPD2    H312642   0.540   0.299  13.354  0.3794 -0.8485 -0.3235
  857MPD2     N12643   0.965   0.445  13.332 -0.1267 -0.2284 -0.7981
  857MPD2    H512644   1.045   0.437  13.270 -0.3311 -1.1208 -0.9484
  857MPD2    N112645   0.777   0.142  12.997 -0.2395 -0.1965  0.8104
  857MPD2    H712646   0.698   0.086  12.967 -0.7196  1.5410 -1.2203
  858MPD2     C12647   1.225   0.088  16.518  0.3714 -0.1416 -0.5465
  858MPD2    C112648   1.216   4.695  16.567 -0.0724 -0.3172 -0.3960
  858MPD2    C212649   1.155   4.675  16.689 -0.8360 -0.5853 -0.3975
  858MPD2    C312650   1.107   0.052  16.764 -0.4222 -0.6645  0.1405
  858MPD2    C412651   1.107   0.174  16.706 -0.3994  0.2233 -0.3985
  858MPD2    C512652   1.174   0.193  16.586 -0.1377  0.3252  0.5729
  858MPD2     H12653   1.144   4.574  16.728  0.8087  0.6349  3.2314
  858MPD2    H112654   1.064   0.263  16.751  1.8598  0.5112  1.2132
  858MPD2    H212655   1.270   0.105  16.421  1.4393  2.6456  0.4229
  858MPD2    H312656   1.170   0.288  16.535  0.2599  0.0787  0.0870
  858MPD2     N12657   1.038   0.045  16.889 -0.4543  0.2800 -0.0149
  858MPD2    H512658   0.979   0.121  16.920  0.1212  1.0876 -0.9233
  858MPD2    N112659   1.252   4.594  16.479  0.2747  0.3729 -0.2217
  858MPD2    H712660   1.252   4.614  16.380  1.5442 -0.2943 -0.3580
  859MPD2     C12661   4.695   1.923  15.788  0.0754  0.6093 -0.2607
  859MPD2    C112662   0.041   1.901  15.679 -0.5194  1.2893  0.8738
  859MPD2    C212663   0.093   1.772  15.653  0.5882 -0.0918 -0.4245
  859MPD2    C312664   0.047   1.664  15.728  0.0404 -0.7120  0.4302
  859MPD2    C412665   4.684   1.685  15.823 -0.7728  0.0511 -0.3099
  859MPD2    C512666   4.648   1.815  15.859  0.0647 -0.0348 -0.3296
  859MPD2     H12667   0.167   1.757  15.576  2.2756  2.8485  0.6591
  859MPD2    H112668   4.640   1.598  15.870 -0.9917  0.4813  0.2832
  859MPD2    H212669   4.657   2.018  15.822 -0.3725  1.2153 -2.4329
  859MPD2    H312670   4.573   1.817  15.937  0.8014  0.3639  0.3677
  859MPD2     N12671   0.100   1.534  15.714 -0.4706  0.2449 -0.5713
  859MPD2    H512672   0.076   1.463  15.782  1.9554 -0.9440 -0.9629
  859MPD2    N112673   0.067   2.015  15.605 -0.2271 -0.0111  0.5485
  859MPD2    H712674   0.041   2.103  15.648 -4.8507 -1.7071  1.2534
  860MPD2     C12675   2.480   1.688  11.576  0.8311 -0.6337 -0.4340
  860MPD2    C112676   2.533   1.745  11.682 -0.8902  0.0938 -0.4903
  860MPD2    C212677   2.449   1.808  11.773 -0.1245  0.0975 -0.1999
  860MPD2    C312678   2.312   1.807  11.757  0.3054 -0.0170  0.4983
  860MPD2    C412679   2.262   1.754  11.637  0.0517 -0.1236  0.4470
  860MPD2    C512680   2.346   1.702  11.546 -0.1839 -0.8506 -0.2033
  860MPD2     H12681   2.493   1.849  11.863  0.8903 -0.0787 -0.6236
  860MPD2    H112682   2.157   1.765  11.615  0.0417 -0.7244  0.1801
  860MPD2    H212683   2.537   1.634  11.502  0.4473 -0.1635 -1.0703
  860MPD2    H312684   2.307   1.657  11.455  0.0522 -1.4908  0.0114
  860MPD2     N12685   2.221   1.860  11.852 -0.1499  0.5442 -0.4678
  860MPD2    H512686   2.271   1.902  11.930 -0.3842 -0.0383 -0.0043
  860MPD2    N112687   2.669   1.744  11.718  0.6826 -0.0170 -0.3376
  860MPD2    H712688   2.698   1.804  11.794  1.0099 -0.9697  0.2972
  861MPD2     C12689   1.362   0.276  10.749  0.1509 -0.2365  0.0886
  861MPD2    C112690   1.248   0.235  10.813  0.5206  0.6356 -0.1693
  861MPD2    C212691   1.131   0.299  10.772 -0.3789 -0.0332 -0.1805
  861MPD2    C312692   1.125   0.403  10.677 -0.3135 -0.2008 -0.3336
  861MPD2    C412693   1.242   0.428  10.609  0.6545 -0.3736  0.1197
  861MPD2    C512694   1.359   0.369  10.646 -0.3590 -0.6258  0.2737
  861MPD2     H12695   1.039   0.276  10.824  0.7650 -1.3664  1.2714
  861MPD2    H112696   1.253   0.491  10.521  0.0197 -1.0824 -0.4655
  861MPD2    H212697   1.454   0.231  10.784  0.5843  1.1819  0.7561
  861MPD2    H312698   1.451   0.386  10.591 -1.1313  2.8691  0.0732
  861MPD2     N12699   1.005   0.468  10.641  0.4787  0.3950 -0.0444
  861MPD2    H512700   1.010   0.547  10.578  0.8135  0.1910 -0.2792
  861MPD2    N112701   1.256   0.152  10.926 -0.1053 -0.4423  0.8248
  861MPD2    H712702   1.166   0.122  10.963 -1.0400  1.3385 -0.0187
  862MPD2     C12703   0.432   0.176  10.987 -0.4330 -0.1822  0.1500
  862MPD2    C112704   0.539   0.199  10.912  0.0700 -0.3220  0.7391
  862MPD2    C212705   0.601   0.095  10.849  0.3548 -0.6881  0.1026
  862MPD2    C312706   0.554   4.697  10.851  0.2946 -0.0723 -0.4370
  862MPD2    C412707   0.434   4.683  10.917 -0.1924 -0.3989  0.8109
  862MPD2    C512708   0.377   0.049  10.985  0.1752 -0.2611  0.3508
  862MPD2     H12709   0.687   0.117  10.786 -1.3414 -0.8438 -2.2387
  862MPD2    H112710   0.383   4.587  10.913 -0.6249 -0.1644  0.7546
  862MPD2    H212711   0.382   0.252  11.046 -3.8828 -1.5211 -1.0983
  862MPD2    H312712   0.285   0.029  11.038  0.0532 -1.1297 -0.1994
  862MPD2     N12713   0.613   4.592  10.780 -0.2624  0.5131 -0.1238
  862MPD2    H512714   0.559   4.506  10.771 -1.4356  1.2321  0.1062
  862MPD2    N112715   0.587   0.321  10.868  0.2910  0.4044  0.4789
  862MPD2    H712716   0.667   0.320  10.805 -0.7138  1.2393 -0.8311
  863MPD2     C12717   3.964   3.372  16.865 -0.9697 -0.0873 -0.0412
  863MPD2    C112718   4.062   3.446  16.811 -0.5904  0.3979  0.1321
  863MPD2    C212719   4.201   3.428  16.841 -0.2221  0.0778 -0.0082
  863MPD2    C312720   4.226   3.327  16.937  0.1529 -0.2565  1.2456
  863MPD2    C412721   4.121   3.247  16.983  0.4832  0.3210 -0.6960
  863MPD2    C512722   3.995   3.267  16.946  0.0933  0.2797  0.5926
  863MPD2     H12723   4.266   3.505  16.802  1.3145  0.6963  3.8249
  863MPD2    H112724   4.138   3.177  17.065  0.7373  0.0158 -1.0093
  863MPD2    H212725   3.859   3.380  16.839 -0.4986  1.2932 -1.5155
  863MPD2    H312726   3.915   3.220  17.002  1.1586 -1.8218  0.3587
  863MPD2     N12727   4.355   3.317  16.999  0.1965  0.0317 -0.3307
  863MPD2    H512728   4.361   3.245  17.071 -0.5812 -2.2053 -2.5094
  863MPD2    N112729   4.018   3.555  16.723 -0.0484 -0.0889  0.2292
  863MPD2    H712730   3.918   3.575  16.727  1.1401  5.7339  0.3141
  864MPD2     C12731   4.459   4.527  17.157 -0.1453  0.2673 -0.2511
  864MPD2    C112732   4.568   4.464  17.106 -0.1005  0.1359  0.5895
  864MPD2    C212733   4.662   4.540  17.044  0.2565 -0.0071  0.4499
  864MPD2    C312734   4.650   4.678  17.029 -0.4279  0.4042 -0.5416
  864MPD2    C412735   4.537   0.005  17.088 -0.4732  0.0737  0.2458
  864MPD2    C512736   4.443   4.666  17.155 -0.3776 -0.1861  0.2848
  864MPD2     H12737   0.018   4.485  17.022  0.6797 -0.0330  2.3452
  864MPD2    H112738   4.530   0.112  17.107 -1.0692  0.3870 -1.7185
  864MPD2    H212739   4.371   4.474  17.192  1.8023 -3.1900 -0.4922
  864MPD2    H312740   4.352   4.713  17.191 -0.1009 -0.0239  0.7745
  864MPD2     N12741   0.026   0.021  16.985  0.9512 -0.6885  0.0008
  864MPD2    H512742   0.022   0.122  16.993  0.2539 -0.6793 -0.4697
  864MPD2    N112743   4.578   4.321  17.113  0.2638 -0.5555 -0.4289
  864MPD2    H712744   4.644   4.276  17.051  0.9965  0.6760 -0.5483
  865MPD2     C12745   0.411   0.253  16.254  0.0591 -0.7498 -0.2318
  865MPD2    C112746   0.358   0.169  16.347 -0.4749  0.2380  0.4302
  865MPD2    C212747   0.278   0.223  16.444 -0.4687  0.2624  0.2347
  865MPD2    C312748   0.252   0.358  16.447  0.3224 -0.6535  0.3925
  865MPD2    C412749   0.309   0.441  16.354  0.3194 -1.1690  0.4573
  865MPD2    C512750   0.403   0.388  16.268 -0.9386 -0.7092  0.2531
  865MPD2     H12751   0.215   0.167  16.512  0.3254 -0.0511  0.7134
  865MPD2    H112752   0.303   0.549  16.362 -2.6180 -1.3856  1.1811
  865MPD2    H212753   0.468   0.220  16.167  1.3877  1.1055 -0.0677
  865MPD2    H312754   0.462   0.453  16.204  0.5665 -3.6609 -1.3548
  865MPD2     N12755   0.178   0.421  16.553 -0.4942  0.0239  0.2416
  865MPD2    H512756   0.159   0.518  16.529 -1.6390 -0.8275 -2.2066
  865MPD2    N112757   0.379   0.033  16.326 -0.2395 -0.1921 -0.2780
  865MPD2    H712758   0.415   0.013  16.233 -0.3300  0.3062 -0.4164
  866MPD2     C12759   1.917   0.412  11.512  0.2894 -0.3833 -0.0641
  866MPD2    C112760   1.943   0.353  11.387 -0.6253  0.2582 -0.3887
  866MPD2    C212761   1.840   0.355  11.293  0.1822  0.7693 -0.1957
  866MPD2    C312762   1.721   0.428  11.312 -0.0957 -0.0636  0.2790
  866MPD2    C412763   1.706   0.488  11.438 -0.9301  0.0178 -0.2753
  866MPD2    C512764   1.800   0.476  11.531 -0.1206  0.6386 -0.0768
  866MPD2     H12765   1.867   0.312  11.197  0.7972  1.8166 -0.4966
  866MPD2    H112766   1.616   0.543  11.466 -1.4551 -2.0198  2.0478
  866MPD2    H212767   1.994   0.406  11.588 -1.7220  0.9658  2.0917
  866MPD2    H312768   1.776   0.516  11.630 -0.0895  0.1129  0.1429
  866MPD2     N12769   1.625   0.451  11.212  0.1238 -0.4714 -0.8685
  866MPD2    H512770   1.540   0.488  11.253 -0.0216 -3.2772  1.3990
  866MPD2    N112771   2.063   0.289  11.371  0.5691  0.6940  0.0787
  866MPD2    H712772   2.113   0.264  11.456  0.6469 -0.2223 -0.2401
  867MPD2     C12773   3.460   0.044  16.449 -0.0050 -0.0453 -0.2868
  867MPD2    C112774   3.481   0.043  16.586 -0.7161 -0.3162 -0.2679
  867MPD2    C212775   3.443   0.152  16.659 -0.4075  1.0859  0.1185
  867MPD2    C312776   3.398   0.265  16.597  0.4500 -0.3948 -0.5346
  867MPD2    C412777   3.381   0.257  16.462 -0.2904  0.1312  0.7674
  867MPD2    C512778   3.413   0.154  16.384 -0.2893 -0.1144 -0.0535
  867MPD2     H12779   3.457   0.162  16.766 -0.3111  0.6057  0.1506
  867MPD2    H112780   3.337   0.345  16.416 -1.8389  0.3799  2.7301
  867MPD2    H212781   3.474   4.693  16.384 -1.6348  0.7663 -1.6995
  867MPD2    H312782   3.400   0.156  16.276  0.5447 -1.0197 -0.1747
  867MPD2     N12783   3.371   0.383  16.668  0.5617  0.2832  0.4746
  867MPD2    H512784   3.345   0.461  16.609  0.9527 -1.0089 -1.4005
  867MPD2    N112785   3.535   4.659  16.645 -0.0965  0.3910 -0.0505
  867MPD2    H712786   3.561   4.582  16.584 -1.9002 -0.7338  0.5766
  868MPD2     C12787   1.090   3.624  13.000 -0.0464  0.8544  0.4388
  868MPD2    C112788   1.154   3.642  13.121  0.5510 -0.8144 -0.0971
  868MPD2    C212789   1.082   3.701  13.229  0.0001  0.0252  0.4111
  868MPD2    C312790   0.955   3.759  13.203  0.8371  0.3371  0.8536
  868MPD2    C412791   0.900   3.739  13.078 -0.3973 -0.3428 -1.0807
  868MPD2    C512792   0.965   3.674  12.975 -0.0311 -0.4175 -0.7455
  868MPD2     H12793   1.126   3.726  13.325  1.3809  1.4744 -0.5862
  868MPD2    H112794   0.802   3.775  13.046  0.0850  0.9927 -1.0523
  868MPD2    H212795   1.143   3.574  12.919 -0.0592  1.3550  0.1200
  868MPD2    H312796   0.917   3.669  12.878 -1.0294  1.4305 -0.3379
  868MPD2     N12797   0.910   3.851  13.301  0.5829  0.3639  0.3506
  868MPD2    H512798   0.977   3.871  13.374  1.0021 -0.2181  0.1214
  868MPD2    N112799   1.280   3.582  13.133 -0.3613 -0.3571  0.5830
  868MPD2    H712800   1.316   3.541  13.047  0.9563  1.2266  0.3833
  869MPD2     C12801   0.844   2.632   1.094 -0.0453 -0.7337 -0.1921
  869MPD2    C112802   0.824   2.740   1.006 -0.2411  0.1223  0.6913
  869MPD2    C212803   0.917   2.841   1.012 -0.6872  0.3953 -0.4926
  869MPD2    C312804   1.030   2.842   1.096  0.2776  1.1331 -0.3962
  869MPD2    C412805   1.039   2.737   1.193 -0.0496  0.7091  0.1556
  869MPD2    C512806   0.946   2.638   1.188  0.2186  0.4315 -0.1073
  869MPD2     H12807   0.915   2.912   0.930  0.5357 -0.1571 -1.0043
  869MPD2    H112808   1.101   2.743   1.282  0.6623  1.7230 -0.4128
  869MPD2    H212809   0.786   2.542   1.083  0.0708 -0.7291 -0.8455
  869MPD2    H312810   0.968   2.555   1.254 -4.1705  0.0365  0.8761
  869MPD2     N12811   1.138   2.936   1.092 -0.7296  0.5096 -0.0957
  869MPD2    H512812   1.214   2.922   1.158  0.3566  1.5746 -1.1109
  869MPD2    N112813   0.733   2.718   0.898 -0.8863  0.0521 -0.3501
  869MPD2    H712814   0.689   2.627   0.901  0.2111 -0.4300  0.8864
  870MPD2     C12815   1.483   0.524   1.871  0.9593  0.0917 -0.3858
  870MPD2    C112816   1.477   0.485   1.739  0.0042 -0.2088 -0.2450
  870MPD2    C212817   1.362   0.509   1.668  0.5533  0.6572  0.0222
  870MPD2    C312818   1.265   0.595   1.718  0.7937  0.0880 -0.1081
  870MPD2    C412819   1.269   0.639   1.852  0.2819  0.6448 -0.3847
  870MPD2    C512820   1.382   0.599   1.930 -0.3866  0.8425  0.2971
  870MPD2     H12821   1.355   0.474   1.566 -1.8097 -0.4815  0.5716
  870MPD2    H112822   1.193   0.698   1.901  0.7433 -0.7412  1.9908
  870MPD2    H212823   1.562   0.488   1.937 -0.1596  0.8365  1.3632
  870MPD2    H312824   1.390   0.639   2.030  0.0684 -0.4259  0.7732
  870MPD2     N12825   1.166   0.633   1.620 -0.8691  0.3621 -0.5396
  870MPD2    H512826   1.194   0.610   1.526 -0.3801 -0.1778 -0.2635
  870MPD2    N112827   1.580   0.408   1.692  0.1294 -0.0794 -0.1913
  870MPD2    H712828   1.655   0.389   1.758  0.0971 -1.0329 -0.4249
  871MPD2     C12829   2.705   0.261  16.480 -0.2401 -0.6345 -0.0736
  871MPD2    C112830   2.683   0.211  16.608 -0.4431 -1.4103 -0.3432
  871MPD2    C212831   2.697   0.071  16.617  0.0072  0.0358 -0.9132
  871MPD2    C312832   2.718   4.725  16.502  0.2959  0.2058 -0.4328
  871MPD2    C412833   2.729   0.050  16.377  0.4332  0.0344 -0.9723
  871MPD2    C512834   2.726   0.187  16.366 -0.5986 -0.0128 -0.1693
  871MPD2     H12835   2.685   0.014  16.707  3.2722  1.3968  0.3615
  871MPD2    H112836   2.742   4.726  16.286 -0.1986 -1.1804 -0.2803
  871MPD2    H212837   2.714   0.369  16.474 -1.7055 -0.5272 -0.2809
  871MPD2    H312838   2.734   0.235  16.269 -0.4720  3.2498  1.4427
  871MPD2     N12839   2.728   4.583  16.522 -0.1293 -0.3891 -0.7042
  871MPD2    H512840   2.751   4.548  16.615 -4.7312  0.1317  0.6245
  871MPD2    N112841   2.678   0.299  16.716  0.3764 -0.3185  0.4381
  871MPD2    H712842   2.673   0.399  16.696 -0.2478 -0.4471 -0.0697
  872MPD2     C12843   4.011   2.384  14.259 -0.6298  0.0924  0.5384
  872MPD2    C112844   3.955   2.473  14.169  0.1022  0.6635  0.2859
  872MPD2    C212845   3.818   2.500  14.169  0.1707 -0.1852  0.2285
  872MPD2    C312846   3.733   2.428  14.250  0.0158  0.1038  0.8851
  872MPD2    C412847   3.786   2.331  14.337 -0.0843  0.4290  0.3723
  872MPD2    C512848   3.925   2.317  14.344  0.2963  0.1632 -0.1340
  872MPD2     H12849   3.769   2.577  14.110  0.4806 -0.2131 -0.0691
  872MPD2    H112850   3.722   2.278  14.407  1.6206 -1.1616  0.7207
  872MPD2    H212851   4.117   2.360  14.260 -0.6430  0.0273  0.4014
  872MPD2    H312852   3.983   2.249  14.406  2.0624 -1.1847 -3.2679
  872MPD2     N12853   3.595   2.440  14.256 -0.3291 -0.5835  0.1343
  872MPD2    H512854   3.549   2.388  14.329  2.4223 -0.5995  1.8305
  872MPD2    N112855   4.036   2.545  14.072  0.6321 -0.0986 -0.5020
  872MPD2    H712856   3.984   2.598  14.003  0.5704  2.4090  1.4670
  873MPD2     C12857   0.269   2.788   0.532  0.3326  0.1379 -0.2426
  873MPD2    C112858   0.273   2.726   0.654  0.0954 -0.1094 -0.6542
  873MPD2    C212859   0.252   2.595   0.665 -0.2549 -0.1874 -0.8220
  873MPD2    C312860   0.221   2.513   0.554  0.0006 -0.2769  0.6186
  873MPD2    C412861   0.215   2.574   0.433 -0.3863 -0.7425  0.0436
  873MPD2    C512862   0.243   2.707   0.416  0.1290 -0.9322  0.5790
  873MPD2     H12863   0.258   2.555   0.766  1.1238  2.2673  0.0799
  873MPD2    H112864   0.193   2.512   0.346  2.5642 -0.2559 -1.0671
  873MPD2    H212865   0.290   2.894   0.524  0.7750  0.1858  1.5667
  873MPD2    H312866   0.229   2.755   0.320 -2.9238  0.4647  1.6908
  873MPD2     N12867   0.184   2.378   0.561  0.7961  0.4101  0.2647
  873MPD2    H512868   0.147   2.336   0.476  0.3740  0.3488  0.4799
  873MPD2    N112869   0.313   2.816   0.760  0.3900 -0.5362  0.4810
  873MPD2    H712870   0.321   2.910   0.724  1.1906 -0.6233  0.4322
  874MPD2     C12871   4.621   2.835  15.953 -0.3235  0.3224  1.2214
  874MPD2    C112872   4.668   2.806  16.071  0.0027  0.1060  0.2827
  874MPD2    C212873   0.035   2.883  16.127  0.9125 -0.4270  0.1490
  874MPD2    C312874   0.097   2.978  16.052  0.0915 -0.8378 -1.0600
  874MPD2    C412875   0.042   3.010  15.925 -0.2704  0.2402 -0.0480
  874MPD2    C512876   4.669   2.943  15.879  0.1214 -0.0962 -0.3526
  874MPD2     H12877   0.086   2.871  16.222 -0.6255 -0.1347  1.0248
  874MPD2    H112878   0.091   3.086  15.865  0.3948 -0.0250  0.1687
  874MPD2    H212879   4.548   2.769  15.907  0.2796 -0.2333  1.0578
  874MPD2    H312880   4.626   2.972  15.784 -0.8261  3.1064  1.0410
  874MPD2     N12881   0.219   3.039  16.109 -0.6784  0.5468  0.0679
  874MPD2    H512882   0.257   3.002  16.196 -0.9886  1.1759  0.4728
  874MPD2    N112883   4.608   2.697  16.137 -0.7550 -0.0213  0.2268
  874MPD2    H712884   4.516   2.669  16.104  0.1466 -0.6985 -1.7037
  875MPD2     C12885   0.765   0.660  14.696  0.3329 -0.5459 -0.5838
  875MPD2    C112886   0.861   0.740  14.634  0.0336 -0.2506  0.4975
  875MPD2    C212887   0.933   0.834  14.712 -0.3369 -0.5639  0.4676
  875MPD2    C312888   0.896   0.849  14.849 -0.2185 -0.5426 -0.5763
  875MPD2    C412889   0.817   0.755  14.909  0.0904  0.2856 -0.2324
  875MPD2    C512890   0.749   0.669  14.829  0.7722 -0.3152 -0.0035
  875MPD2     H12891   1.006   0.891  14.656  0.6894 -0.8208  1.5430
  875MPD2    H112892   0.779   0.774  15.008  0.7072 -1.5645  0.3676
  875MPD2    H212893   0.699   0.589  14.648  0.1276 -1.7921  1.5554
  875MPD2    H312894   0.680   0.599  14.877 -0.8879  1.1794 -0.2198
  875MPD2     N12895   0.949   0.955  14.930 -0.2018 -0.4467  0.0984
  875MPD2    H512896   0.916   0.950  15.026 -0.4661 -0.8606 -0.0136
  875MPD2    N112897   0.897   0.731  14.501 -0.4110 -0.5520 -0.2956
  875MPD2    H712898   0.972   0.791  14.469  0.3840 -0.7214  1.2329
  876MPD2     C12899   0.289   2.423  16.345  0.5076 -0.6555  0.0170
  876MPD2    C112900   0.227   2.412  16.221  0.7111  0.5064  0.3466
  876MPD2    C212901   0.162   2.290  16.191  0.7924 -0.6258 -0.3265
  876MPD2    C312902   0.166   2.184  16.280  0.3195  1.1037  0.0075
  876MPD2    C412903   0.244   2.185  16.392 -0.2669  0.4958  0.0457
  876MPD2    C512904   0.293   2.310  16.426 -0.4764  0.4525  0.5359
  876MPD2     H12905   0.123   2.269  16.092  0.3644  0.4477 -0.3855
  876MPD2    H112906   0.256   2.108  16.467  0.5452  1.5593  1.0025
  876MPD2    H212907   0.346   2.509  16.379  1.2258 -0.7680 -0.9072
  876MPD2    H312908   0.348   2.315  16.519  0.8854  0.5781 -0.2714
  876MPD2     N12909   0.102   2.063  16.232 -0.2504  0.1965 -0.2795
  876MPD2    H512910   0.061   2.064  16.140 -2.0489 -0.7964  0.5145
  876MPD2    N112911   0.236   2.519  16.123  0.1142  0.6903 -1.0773
  876MPD2    H712912   0.289   2.599  16.155  0.2026  0.3892 -0.4704
  877MPD2     C12913   4.720   2.665  15.331  0.2061 -0.0370  0.1080
  877MPD2    C112914   0.111   2.711  15.359 -0.6101  0.2216  0.0447
  877MPD2    C212915   0.199   2.723  15.249 -0.2756 -0.2619  0.3313
  877MPD2    C312916   0.166   2.683  15.120  0.3163  0.2306 -0.5146
  877MPD2    C412917   0.041   2.634  15.102  0.3956 -0.6557  0.0933
  877MPD2    C512918   4.688   2.628  15.203 -0.7357 -0.1090 -0.2253
  877MPD2     H12919   0.293   2.769  15.274 -0.6863 -1.0078  3.1882
  877MPD2    H112920   0.024   2.593  15.003  4.0379 -0.5134 -0.6202
  877MPD2    H212921   4.639   2.661  15.402  0.1372  1.2006  0.0952
  877MPD2    H312922   4.592   2.578  15.189 -1.3310  0.9855 -0.0082
  877MPD2     N12923   0.248   2.688  15.007  0.1352 -0.2374  0.5978
  877MPD2    H512924   0.227   2.639  14.921  0.0811 -0.0543  0.5070
  877MPD2    N112925   0.160   2.736  15.490 -0.8221 -0.2912 -0.0201
  877MPD2    H712926   0.259   2.744  15.508 -0.1455 -1.3169 -3.4167
  878MPD2     C12927   0.998   1.859  12.865 -0.1623  0.6086  0.5626
  878MPD2    C112928   0.888   1.931  12.901 -0.1225 -0.7307 -0.6494
  878MPD2    C212929   0.889   1.993  13.021 -0.2989  0.4094  0.4411
  878MPD2    C312930   0.997   1.999  13.106  0.3627  0.1946  0.6217
  878MPD2    C412931   1.113   1.960  13.052 -0.2635 -0.2752  0.3225
  878MPD2    C512932   1.112   1.885  12.938  0.7434  0.2740  0.3735
  878MPD2     H12933   0.799   2.044  13.054  0.0592 -0.1566  2.2986
  878MPD2    H112934   1.201   1.957  13.115  0.4013  3.1038 -0.4216
  878MPD2    H212935   1.000   1.792  12.780  2.2172  0.6908  0.5676
  878MPD2    H312936   1.206   1.838  12.912  1.9878  2.3280  1.1539
  878MPD2     N12937   0.982   2.066  13.229  0.0403 -0.0799  0.1501
  878MPD2    H512938   0.890   2.104  13.247  0.3467  1.1762 -0.9978
  878MPD2    N112939   0.768   1.904  12.827 -0.0950  0.4202 -0.8310
  878MPD2    H712940   0.768   1.814  12.780 -2.3341  0.2293 -0.4688
  879MPD2     C12941   0.521   2.679  17.009  0.4408  0.5231 -0.1433
  879MPD2    C112942   0.468   2.798  16.970 -0.3228  0.4930 -0.6394
  879MPD2    C212943   0.329   2.808  16.940 -0.1511 -0.6348 -0.2222
  879MPD2    C312944   0.255   2.696  16.927 -0.6357 -0.4087  0.2323
  879MPD2    C412945   0.315   2.575  16.949 -0.4710 -0.6328 -0.6685
  879MPD2    C512946   0.448   2.565  16.989  0.8374  0.3726  0.4692
  879MPD2     H12947   0.278   2.904  16.948  3.0193  1.1788 -2.0934
  879MPD2    H112948   0.265   2.485  16.917 -1.3811 -0.1841 -0.4872
  879MPD2    H212949   0.623   2.673  17.047 -0.1412 -0.8384  1.1922
  879MPD2    H312950   0.494   2.469  17.006  0.3762 -0.0019 -0.3993
  879MPD2     N12951   0.126   2.701  16.872 -0.1851  0.2167  0.3696
  879MPD2    H512952   0.070   2.616  16.868 -0.4802  0.4351 -0.1033
  879MPD2    N112953   0.557   2.913  16.998 -0.6944  0.5583 -0.3248
  879MPD2    H712954   0.655   2.898  17.018 -0.5936  0.3581 -0.9595
  880MPD2     C12955   1.371   0.012   0.502 -0.0524  0.1221  0.4903
  880MPD2    C112956   1.487   0.084   0.538 -1.0299  0.6874  0.1956
  880MPD2    C212957   1.601   0.011   0.570 -0.5892  0.2520  0.1749
  880MPD2    C312958   1.594   4.605   0.588  0.0933  0.2968 -0.0310
  880MPD2    C412959   1.482   4.537   0.549 -0.5117  0.0550  0.5105
  880MPD2    C512960   1.369   4.610   0.512  0.7217  0.4659  0.6655
  880MPD2     H12961   1.690   0.063   0.604 -1.1106  1.5578 -0.4378
  880MPD2    H112962   1.467   4.430   0.565  1.5843 -0.7672 -3.0144
  880MPD2    H212963   1.278   0.060   0.472 -0.2094 -0.9064 -0.6667
  880MPD2    H312964   1.276   4.560   0.486  0.7694  1.1971 -0.8458
  880MPD2     N12965   1.706   4.544   0.651 -0.0967  0.8730 -0.1627
  880MPD2    H512966   1.766   4.608   0.702  1.1498 -0.3952 -0.0411
  880MPD2    N112967   1.471   0.223   0.551 -0.1597 -0.2153  0.4341
  880MPD2    H712968   1.376   0.258   0.546 -0.2284 -0.5769 -1.0354
  881MPD2     C12969   1.560   1.179   0.098 -0.2310 -0.1392  0.1403
  881MPD2    C112970   1.652   1.075   0.099 -0.4217  0.0310  0.0185
  881MPD2    C212971   1.627   0.965   0.173  0.0243  0.1731 -0.2831
  881MPD2    C312972   1.512   0.963   0.254  0.5092 -0.6562  0.9775
  881MPD2    C412973   1.422   1.061   0.244  0.1051  0.0421 -0.3072
  881MPD2    C512974   1.449   1.182   0.179  1.0615  0.6393  0.0959
  881MPD2     H12975   1.698   0.883   0.175 -1.3540 -1.0286 -0.6568
  881MPD2    H112976   1.329   1.051   0.299 -0.7601 -2.3966 -2.2410
  881MPD2    H212977   1.569   1.255   0.021 -1.0543 -0.3795 -0.1905
  881MPD2    H312978   1.378   1.263   0.168 -0.0873 -0.6803 -2.2754
  881MPD2     N12979   1.481   0.855   0.346 -0.1186 -0.3912  0.4445
  881MPD2    H512980   1.391   0.872   0.390  0.7101  1.6312  1.4139
  881MPD2    N112981   1.744   1.071  17.733  0.4273 -0.1808  0.0293
  881MPD2    H712982   1.739   1.151  17.671 -0.0794  0.4892  0.9253
  882MPD2     C12983   0.791   2.765  14.363 -0.7619 -0.3176  0.4587
  882MPD2    C112984   0.696   2.797  14.465  0.3566 -0.0794 -0.6284
  882MPD2    C212985   0.569   2.743  14.451  0.6014  0.5107 -0.5538
  882MPD2    C312986   0.544   2.656  14.348 -0.1027  0.4784 -0.4100
  882MPD2    C412987   0.637   2.620  14.246  0.9674  0.1183 -0.1308
  882MPD2    C512988   0.760   2.684  14.259 -0.5955  0.3980  0.6349
  882MPD2     H12989   0.488   2.768  14.519  2.6707  4.0884  0.5567
  882MPD2    H112990   0.629   2.553  14.162 -2.4105  0.7231 -0.2801
  882MPD2    H212991   0.889   2.812  14.370 -1.3715  1.2220 -1.2796
  882MPD2    H312992   0.838   2.658  14.188 -1.8430 -0.0852 -0.5385
  882MPD2     N12993   0.418   2.603  14.317 -0.1714 -0.6210 -0.3134
  882MPD2    H512994   0.416   2.557  14.226  1.5347 -1.8094  0.2506
  882MPD2    N112995   0.747   2.878  14.568  0.6555  0.0859 -0.4025
  882MPD2    H712996   0.829   2.934  14.546  0.8677  0.1224  0.4827
  883MPD2     C12997   2.139   2.433  16.350  0.3893  0.8318 -0.0918
  883MPD2    C112998   2.193   2.437  16.222 -0.1754 -0.1346 -0.4934
  883MPD2    C212999   2.318   2.480  16.212  0.7617 -0.5775 -0.3103
  883MPD2    C313000   2.391   2.521  16.322  0.7714  0.2050 -0.1236
  883MPD2    C413001   2.339   2.517  16.448  0.3734  0.2059 -0.1935
  883MPD2    C513002   2.216   2.472  16.461  0.2759 -0.0316 -0.3098
  883MPD2     H13003   2.372   2.470  16.119  1.7666 -0.4062  0.2489
  883MPD2    H113004   2.388   2.548  16.540  1.5583  2.8137 -1.7325
  883MPD2    H213005   2.034   2.411  16.369  0.6436  0.9962  1.4714
  883MPD2    H313006   2.168   2.460  16.557 -1.2740  1.6817 -0.8838
  883MPD2     N13007   2.523   2.570  16.298 -0.0711 -0.3031  0.2167
  883MPD2    H513008   2.556   2.565  16.202  0.8780  0.3139  0.5157
  883MPD2    N113009   2.125   2.397  16.100  0.3916  0.5082 -0.7631
  883MPD2    H713010   2.168   2.408  16.009 -1.6431  0.9669 -1.6492
  884MPD2     C13011   3.888   4.178  15.375 -0.1777  0.4918 -0.3502
  884MPD2    C113012   3.958   4.192  15.259  0.2995  1.1018 -0.0422
  884MPD2    C213013   3.903   4.179  15.134 -0.1262 -0.0906 -0.0652
  884MPD2    C313014   3.775   4.139  15.120  0.5464  0.3710  0.3988
  884MPD2    C413015   3.698   4.134  15.239  0.0512 -0.5721 -0.4658
  884MPD2    C513016   3.759   4.150  15.357 -0.2799  0.6504 -1.1195
  884MPD2     H13017   3.963   4.212  15.050 -0.6242 -0.2625 -0.4948
  884MPD2    H113018   3.592   4.116  15.235  0.3639 -2.6712  0.5720
  884MPD2    H213019   3.927   4.200  15.474 -1.5035  0.1974  0.2362
  884MPD2    H313020   3.695   4.142  15.444  0.5718  0.7105 -0.4857
  884MPD2     N13021   3.734   4.120  14.986 -0.8098  0.9200  0.1316
  884MPD2    H513022   3.792   4.154  14.909  0.4946  0.5022  0.9311
  884MPD2    N113023   4.092   4.231  15.265  0.0980  0.9162 -0.3190
  884MPD2    H713024   4.133   4.256  15.176 -1.3979  3.6458 -0.2243
  885MPD2     C13025   2.035   3.684   0.505 -0.2928  0.2870  0.5005
  885MPD2    C113026   2.155   3.741   0.473  0.0312  0.1823  0.5775
  885MPD2    C213027   2.195   3.784   0.346 -0.6806  0.0869 -0.7023
  885MPD2    C313028   2.097   3.769   0.245 -0.0378  0.1984 -0.7895
  885MPD2    C413029   1.983   3.692   0.279 -0.2088 -0.1872 -0.1433
  885MPD2    C513030   1.946   3.656   0.405  0.5166  0.2452  0.5654
  885MPD2     H13031   2.298   3.813   0.329  0.0953 -1.8345  0.7646
  885MPD2    H113032   1.911   3.671   0.200 -1.1497 -1.6528  1.1102
  885MPD2    H213033   2.008   3.648   0.603  1.4787  1.0951  1.2732
  885MPD2    H313034   1.850   3.607   0.412  1.0958 -0.9751 -0.0370
  885MPD2     N13035   2.122   3.809   0.116 -0.1191 -0.7877 -0.9518
  885MPD2    H513036   2.213   3.850   0.097  0.3329 -1.3235  0.0380
  885MPD2    N113037   2.242   3.747   0.587 -0.2839  0.1310  0.0939
  885MPD2    H713038   2.213   3.698   0.671 -2.0472  0.3218 -0.4204
  886MPD2     C13039   3.863   1.781  15.206 -0.3532 -0.6117 -0.5713
  886MPD2    C113040   3.872   1.882  15.305 -0.2559  0.5871 -0.3945
  886MPD2    C213041   3.874   2.014  15.270  0.5067  0.3041 -0.2549
  886MPD2    C313042   3.863   2.040  15.135 -0.4685  0.7266 -0.0920
  886MPD2    C413043   3.856   1.942  15.037  0.3135 -0.6489 -0.0286
  886MPD2    C513044   3.861   1.811  15.073  0.0993 -0.2398 -0.8417
  886MPD2     H13045   3.886   2.089  15.347  0.2704 -0.9142  0.9666
  886MPD2    H113046   3.860   1.964  14.931 -1.2132 -0.3182 -0.0164
  886MPD2    H213047   3.840   1.677  15.226 -1.7915 -0.3651 -0.9651
  886MPD2    H313048   3.847   1.732  15.001 -0.8966  0.0599 -0.9747
  886MPD2     N13049   3.863   2.172  15.090  0.4812  0.5298  0.4174
  886MPD2    H513050   3.890   2.233  15.167  1.7868  0.4334  0.0402
  886MPD2    N113051   3.878   1.857  15.445  0.5168 -0.3409  0.4115
  886MPD2    H713052   3.844   1.927  15.511  0.0109  0.0788 -0.2972
  887MPD2     C13053   3.901   2.082  16.212  0.1321  0.2656  0.3613
  887MPD2    C113054   3.848   2.075  16.084  0.5592  0.1949  0.1802
  887MPD2    C213055   3.840   2.199  16.021  0.5105  0.7206  0.1790
  887MPD2    C313056   3.875   2.312  16.083 -0.0637  0.2789  0.9046
  887MPD2    C413057   3.930   2.315  16.209  0.6999 -0.5169 -0.0575
  887MPD2    C513058   3.938   2.197  16.274  0.7070 -0.0425 -0.3936
  887MPD2     H13059   3.806   2.199  15.919  0.3462  0.2494  0.2346
  887MPD2    H113060   3.957   2.406  16.262  0.5848  0.4928 -1.7444
  887MPD2    H213061   3.914   1.996  16.277 -0.4178 -0.4492 -0.4906
  887MPD2    H313062   3.982   2.195  16.373 -1.7357  0.0264  0.7161
  887MPD2     N13063   3.865   2.425  16.004  0.0089 -0.4919 -0.2399
  887MPD2    H513064   3.809   2.428  15.919  1.7311 -0.7341 -1.3979
  887MPD2    N113065   3.820   1.952  16.023 -0.6337 -0.2624 -0.0244
  887MPD2    H713066   3.870   1.875  16.066  0.3936  1.6102  2.1288
  888MPD2     C13067   1.327   2.006  14.754  0.5928 -0.8084 -0.2301
  888MPD2    C113068   1.268   2.007  14.880 -0.0144  0.6842 -0.5652
  888MPD2    C213069   1.305   2.105  14.970  0.3127 -0.7886  0.0461
  888MPD2    C313070   1.410   2.189  14.942 -0.3706  0.6100 -0.1821
  888MPD2    C413071   1.482   2.167  14.827 -0.2188 -0.3806  0.4429
  888MPD2    C513072   1.442   2.074  14.741  0.6514  0.4574  0.5268
  888MPD2     H13073   1.258   2.118  15.067  0.8441  1.0756  0.0485
  888MPD2    H113074   1.572   2.219  14.795 -1.4393  0.4900 -1.6103
  888MPD2    H213075   1.318   1.924  14.684  2.7631  0.0597 -1.5140
  888MPD2    H313076   1.506   2.061  14.654  0.6586  2.0573  0.2831
  888MPD2     N13077   1.446   2.299  15.025  0.2182  0.0806 -0.6158
  888MPD2    H513078   1.381   2.336  15.093 -1.5328 -0.3721 -2.0566
  888MPD2    N113079   1.169   1.917  14.920  0.1924  0.0031 -0.0982
  888MPD2    H713080   1.156   1.911  15.020  0.6052  0.2407 -0.0285
  889MPD2     C13081   0.966   1.173  13.462 -0.9026  1.1309  0.0003
  889MPD2    C113082   1.096   1.134  13.492  0.7051  0.2079  0.0823
  889MPD2    C213083   1.174   1.227  13.560  0.1584  0.6912 -0.3296
  889MPD2    C313084   1.161   1.367  13.538  0.5921  0.3557  0.1253
  889MPD2    C413085   1.035   1.400  13.477  0.7140 -0.2009  0.4895
  889MPD2    C513086   0.936   1.307  13.453  0.1799  0.2393  0.4001
  889MPD2     H13087   1.276   1.202  13.589  0.5379  1.5577 -0.9025
  889MPD2    H113088   1.014   1.503  13.451  1.1548 -0.0070  0.8935
  889MPD2    H213089   0.895   1.098  13.429  0.2729 -0.1252  0.3325
  889MPD2    H313090   0.840   1.330  13.408  0.3873  1.5543  0.6392
  889MPD2     N13091   1.247   1.470  13.570 -0.0510  0.0965  0.0715
  889MPD2    H513092   1.222   1.562  13.536 -1.3589 -0.5896 -0.8149
  889MPD2    N113093   1.107   0.993  13.506 -0.4414 -0.0670 -0.8621
  889MPD2    H713094   1.016   0.949  13.494 -0.2047 -1.1577  1.4484
  890MPD2     C13095   0.376   3.070  14.581  0.4424 -0.6728  0.3032
  890MPD2    C113096   0.422   3.147  14.687  0.3539  0.9968  0.1830
  890MPD2    C213097   0.360   3.153  14.812 -0.2351  0.1305  0.2113
  890MPD2    C313098   0.246   3.077  14.822 -0.1318 -0.8286 -0.0163
  890MPD2    C413099   0.199   2.998  14.718  0.6146 -0.1933 -0.3538
  890MPD2    C513100   0.271   2.994  14.597  0.3869  0.1708 -0.0836
  890MPD2     H13101   0.399   3.198  14.903 -0.6993 -0.1932  0.5736
  890MPD2    H113102   0.109   2.937  14.718 -0.3151  1.1833 -0.3265
  890MPD2    H213103   0.429   3.070  14.486  0.0428 -1.1325  0.0868
  890MPD2    H313104   0.237   2.928  14.517 -2.6889  0.5854  0.8913
  890MPD2     N13105   0.177   3.075  14.944  0.3648 -0.2393  0.1395
  890MPD2    H513106   0.215   3.124  15.025 -0.9147 -0.6301  0.9858
  890MPD2    N113107   0.542   3.214  14.666  0.4363  0.6347  0.4591
  890MPD2    H713108   0.589   3.196  14.579  1.3952  1.0245  0.8978
  891MPD2     C13109   2.894   2.245  16.779  0.2660 -0.6823 -0.5009
  891MPD2    C113110   2.820   2.160  16.858  0.5654 -0.2050 -0.3970
  891MPD2    C213111   2.877   2.129  16.984  0.8094 -0.4789  0.3416
  891MPD2    C313112   3.010   2.168  17.016  0.3050 -0.6263  0.5669
  891MPD2    C413113   3.075   2.257  16.936 -0.3166  0.3309 -0.0603
  891MPD2    C513114   3.020   2.294  16.815 -0.2238 -0.1559  0.6591
  891MPD2     H13115   2.824   2.054  17.042  2.1219  0.0830  2.2752
  891MPD2    H113116   3.178   2.285  16.955 -0.5941  3.1095 -2.5592
  891MPD2    H213117   2.852   2.272  16.683 -2.4010  2.2511  1.4925
  891MPD2    H313118   3.071   2.358  16.744  1.3644  0.0633  2.0014
  891MPD2     N13119   3.079   2.119  17.134  0.8717  0.7824  0.5979
  891MPD2    H513120   3.029   2.058  17.199 -1.1435  1.2702 -0.4890
  891MPD2    N113121   2.694   2.116  16.811  0.0237  0.0925 -0.9890
  891MPD2    H713122   2.686   2.144  16.715 -0.3352  2.0090 -0.3881
  892MPD2     C13123   4.361   2.801  14.850  0.2945  0.0367  0.3101
  892MPD2    C113124   4.318   2.840  14.724 -0.5531 -0.0459 -0.0357
  892MPD2    C213125   4.394   2.813  14.609 -0.3472  0.1334 -0.5068
  892MPD2    C313126   4.526   2.773  14.631  0.3301 -0.1096 -0.7353
  892MPD2    C413127   4.580   2.766  14.758  0.5234  0.2092  0.4888
  892MPD2    C513128   4.494   2.767  14.869  0.2687  0.8543  0.4587
  892MPD2     H13129   4.353   2.830  14.510 -0.4694  3.8721  0.1824
  892MPD2    H113130   4.680   2.727  14.775  1.3038  1.3832 -1.3890
  892MPD2    H213131   4.304   2.814  14.942  3.5902  1.1521  2.1697
  892MPD2    H313132   4.526   2.747  14.970  1.4710  0.1862 -0.0433
  892MPD2     N13133   4.610   2.725  14.527 -0.0857 -0.7899 -0.4150
  892MPD2    H513134   4.700   2.687  14.552  0.8388  1.0695 -0.8923
  892MPD2    N113135   4.188   2.894  14.697 -0.2529  0.0880  0.4172
  892MPD2    H713136   4.184   2.935  14.604 -0.8927 -1.4647 -0.2353
  893MPD2     C13137   1.765   2.504   0.896 -0.1219  0.1273  0.2544
  893MPD2    C113138   1.779   2.373   0.920 -0.3103  0.3912 -0.1450
  893MPD2    C213139   1.902   2.313   0.949 -0.5539 -0.3996 -0.4062
  893MPD2    C313140   2.010   2.399   0.976 -0.2177 -0.5677 -0.0516
  893MPD2    C413141   1.989   2.533   0.957  0.1031  0.9203  0.0987
  893MPD2    C513142   1.871   2.584   0.917 -0.3138  0.8819  0.1622
  893MPD2     H13143   1.911   2.208   0.974  0.0522 -0.0510  0.8645
  893MPD2    H113144   2.063   2.606   0.988  1.0234 -0.2064  0.5267
  893MPD2    H213145   1.669   2.549   0.875  0.1394  0.0689 -1.0410
  893MPD2    H313146   1.853   2.691   0.919 -0.6214  0.8708 -1.5735
  893MPD2     N13147   2.135   2.351   1.017  0.3613 -0.3077  0.1690
  893MPD2    H513148   2.201   2.425   1.038 -1.7703  1.7826 -0.6883
  893MPD2    N113149   1.660   2.297   0.913 -0.5055 -0.5025  0.0251
  893MPD2    H713150   1.576   2.350   0.892 -2.2011 -3.3896 -0.5540
  894MPD2     C13151   4.019   3.905   0.844  0.4546 -0.6887 -0.2732
  894MPD2    C113152   3.972   3.942   0.975 -0.3050  0.3810  0.1323
  894MPD2    C213153   3.972   4.073   1.019  0.0991  0.3081 -0.0658
  894MPD2    C313154   4.010   4.173   0.930 -0.2246 -0.1319 -0.3803
  894MPD2    C413155   4.042   4.139   0.804  0.7375 -0.0857  0.3507
  894MPD2    C513156   4.050   4.010   0.762  0.0091 -0.5842  0.6266
  894MPD2     H13157   3.952   4.110   1.119  0.5802  2.8883 -0.8978
  894MPD2    H113158   4.072   4.212   0.729 -0.0534 -0.5779 -0.4504
  894MPD2    H213159   4.040   3.805   0.806  0.8786 -0.7786  0.1916
  894MPD2    H313160   4.094   3.985   0.667 -0.1273  1.0089  0.1378
  894MPD2     N13161   4.009   4.311   0.975  0.4578 -0.0013  0.0839
  894MPD2    H513162   3.997   4.327   1.074  0.2720  3.1372 -0.4642
  894MPD2    N113163   3.936   3.836   1.062 -0.0979 -0.2854 -0.2786
  894MPD2    H713164   3.909   3.861   1.157  0.0407 -2.5488  0.3504
  895MPD2     C13165   3.823   2.407  13.714  0.1048  0.1446 -0.4783
  895MPD2    C113166   3.721   2.350  13.652 -0.0434 -0.3145 -0.3029
  895MPD2    C213167   3.715   2.210  13.647  0.2360 -0.2279 -0.2562
  895MPD2    C313168   3.809   2.132  13.715 -0.3078 -0.1658 -0.0127
  895MPD2    C413169   3.907   2.195  13.789 -0.6562 -0.1590  0.1825
  895MPD2    C513170   3.910   2.335  13.790  0.2352 -0.0880  0.0218
  895MPD2     H13171   3.639   2.161  13.588  2.4290 -2.2016 -1.4288
  895MPD2    H113172   3.972   2.142  13.857 -1.0680 -0.7944  0.0804
  895MPD2    H213173   3.838   2.514  13.717  0.9070  0.0188  0.0216
  895MPD2    H313174   3.993   2.384  13.840 -0.5886  1.7675 -0.4559
  895MPD2     N13175   3.801   1.992  13.696 -0.4522 -0.5238 -0.1293
  895MPD2    H513176   3.729   1.963  13.631 -0.7507 -1.7875  0.7621
  895MPD2    N113177   3.623   2.417  13.578  0.3723 -0.0062  0.4404
  895MPD2    H713178   3.541   2.362  13.556 -0.2649  1.3760 -0.5956
  896MPD2     C13179   0.831   0.071   1.332  0.0410 -0.3544 -0.1363
  896MPD2    C113180   0.812   4.734   1.216 -0.4085 -0.1465 -0.0755
  896MPD2    C213181   0.682   4.696   1.190 -0.4812  0.2046 -0.0619
  896MPD2    C313182   0.569   4.727   1.266 -0.1917  0.3084  0.0051
  896MPD2    C413183   0.593   0.054   1.385  0.9246  0.5288 -0.2601
  896MPD2    C513184   0.723   0.088   1.414  0.2264  0.2183 -0.6809
  896MPD2     H13185   0.658   4.642   1.099  0.6620  1.0083 -0.8399
  896MPD2    H113186   0.523   0.065   1.467  0.8177  3.6650 -0.7749
  896MPD2    H213187   0.929   0.098   1.369 -0.2355 -1.2251  1.2471
  896MPD2    H313188   0.743   0.133   1.511 -2.5113 -2.4115  1.1273
  896MPD2     N13189   0.438   4.690   1.220  0.5789 -0.4731 -0.0662
  896MPD2    H513190   0.442   4.639   1.133 -1.1913  1.3004 -1.1807
  896MPD2    N113191   0.915   4.712   1.121  0.1320  0.0643 -0.7645
  896MPD2    H713192   0.997   0.031   1.147 -1.7360  2.5074  0.1011
  897MPD2     C13193   2.268   0.748  10.470  0.2273  0.1938  0.4173
  897MPD2    C113194   2.249   0.889  10.491 -0.8684 -0.5862 -0.1528
  897MPD2    C213195   2.161   0.936  10.582  0.5990  0.1853 -0.0891
  897MPD2    C313196   2.080   0.841  10.650 -0.1134  0.0071 -0.3543
  897MPD2    C413197   2.099   0.705  10.639 -0.3791  0.0748 -1.3416
  897MPD2    C513198   2.192   0.659  10.538 -0.0333 -0.5587 -0.1302
  897MPD2     H13199   2.119   1.035  10.594  0.0190 -0.0894  0.1783
  897MPD2    H113200   2.044   0.622  10.683 -0.6986  0.5209 -0.9078
  897MPD2    H213201   2.343   0.706  10.404 -1.1150 -1.3245 -0.1359
  897MPD2    H313202   2.208   0.554  10.515  0.0027 -0.9920  1.8315
  897MPD2     N13203   1.989   0.892  10.746 -0.1810  0.3664  0.1154
  897MPD2    H513204   1.997   0.992  10.757  0.3980  0.2830  0.5065
  897MPD2    N113205   2.325   0.976  10.408  0.3650  0.2817  0.5747
  897MPD2    H713206   2.364   0.929  10.327 -1.8060 -1.6306  0.6317
  898MPD2     C13207   2.589   2.692   0.328  0.4870 -0.1816 -0.1075
  898MPD2    C113208   2.728   2.669   0.325  0.2232  0.2423 -0.7244
  898MPD2    C213209   2.801   2.746   0.242 -0.1883  0.3316  0.1222
  898MPD2    C313210   2.744   2.828   0.151 -0.3588  1.2103 -0.0523
  898MPD2    C413211   2.612   2.854   0.153 -0.0168  0.2415 -0.0096
  898MPD2    C513212   2.535   2.781   0.239  0.0077  0.2940 -0.2587
  898MPD2     H13213   2.909   2.734   0.236  0.1490  2.4661  1.8334
  898MPD2    H113214   2.556   2.922   0.090 -2.2613  0.0989  1.8642
  898MPD2    H213215   2.517   2.647   0.395  1.3996 -1.7107 -0.1709
  898MPD2    H313216   2.431   2.805   0.254  0.1777  0.5213  0.6121
  898MPD2     N13217   2.837   2.900   0.066  0.4432  0.4600 -0.6449
  898MPD2    H513218   2.937   2.890   0.073  0.4745 -0.4508 -2.3440
  898MPD2    N113219   2.792   2.581   0.408 -0.0907  0.0642  0.4860
  898MPD2    H713220   2.892   2.583   0.393 -0.0548 -0.1782  0.6907
  899MPD2     C13221   4.506   2.865  17.377  0.1438  0.6355 -0.1326
  899MPD2    C113222   4.554   2.987  17.424  0.0061  0.3583  0.2093
  899MPD2    C213223   4.533   3.032  17.551 -0.1320  0.4035 -0.4440
  899MPD2    C313224   4.466   2.949  17.634  0.9864 -0.1907  0.6804
  899MPD2    C413225   4.416   2.826  17.597 -0.3621  0.3734  0.6717
  899MPD2    C513226   4.445   2.781  17.470 -0.2917 -0.0167  0.1284
  899MPD2     H13227   4.554   3.134  17.581  2.8137 -0.2967 -0.0341
  899MPD2    H113228   4.370   2.752  17.663 -1.0120 -1.4134 -1.7936
  899MPD2    H213229   4.498   2.835  17.273 -0.4422 -2.5443  0.8229
  899MPD2    H313230   4.400   2.692  17.428 -0.0502 -0.4312  0.7520
  899MPD2     N13231   4.453   2.984   0.031  0.4527  0.2484 -0.1534
  899MPD2    H513232   4.407   2.910   0.083 -0.4126 -0.0985 -1.4077
  899MPD2    N113233   4.600   3.082  17.332  0.2641 -0.4325  0.4294
  899MPD2    H713234   4.587   3.056  17.235 -1.4048 -0.3667  0.6407
  900MPD2     C13235   4.507   4.455  12.294  0.0335 -0.0337 -0.4067
  900MPD2    C113236   4.421   4.355  12.263  0.2156 -0.5835  0.3380
  900MPD2    C213237   4.302   4.372  12.201 -0.1362  0.5177 -0.7176
  900MPD2    C313238   4.266   4.496  12.168  0.4097 -0.1898  0.5223
  900MPD2    C413239   4.341   4.606  12.200  0.3667 -0.1756  0.1397
  900MPD2    C513240   4.462   4.589  12.266  0.0701  0.2689  0.1363
  900MPD2     H13241   4.236   4.288  12.183 -0.4255  0.5288  0.3022
  900MPD2    H113242   4.313   4.706  12.170  0.6968  0.0424  0.5612
  900MPD2    H213243   4.601   4.440  12.347 -1.2096 -0.4554  1.6783
  900MPD2    H313244   4.527   4.673  12.283 -0.8040  0.5222  2.2380
  900MPD2     N13245   4.140   4.504  12.103 -0.1045 -0.7423  0.3166
  900MPD2    H513246   4.088   4.419  12.084  2.3876 -1.8454 -1.5567
  900MPD2    N113247   4.470   4.227  12.294 -0.0799 -0.5154 -0.4659
  900MPD2    H713248   4.570   4.215  12.308  0.0063  1.7809  0.7794
  901MPD2     C13249   4.317   3.262  12.759  0.3850 -0.1441 -0.4443
  901MPD2    C113250   4.450   3.285  12.756 -0.2925 -0.3844 -0.5749
  901MPD2    C213251   4.491   3.417  12.729 -0.1862  0.1384  0.0212
  901MPD2    C313252   4.404   3.517  12.697  0.5474  0.1521  0.5403
  901MPD2    C413253   4.271   3.490  12.711 -0.5108  0.1084  0.3420
  901MPD2    C513254   4.227   3.362  12.748  0.4899 -0.2459  0.4024
  901MPD2     H13255   4.597   3.440  12.738 -0.6839  1.9198  1.3791
  901MPD2    H113256   4.202   3.568  12.681  0.0360  0.1514 -0.7899
  901MPD2    H213257   4.272   3.167  12.784  1.3743 -0.0252  1.7790
  901MPD2    H313258   4.120   3.347  12.743 -0.1965  4.5654 -0.0151
  901MPD2     N13259   4.463   3.635  12.639  0.0049 -0.4565  0.2486
  901MPD2    H513260   4.563   3.631  12.627  0.1716  2.3168  0.8576
  901MPD2    N113261   4.539   3.181  12.794 -0.1703 -0.1662 -0.3199
  901MPD2    H713262   4.495   3.094  12.821 -0.2068  0.9499  3.3226
  902MPD2     C13263   4.323   2.247  12.215 -0.1930 -0.0709 -0.0883
  902MPD2    C113264   4.187   2.221  12.218 -0.6161  0.6040 -0.2236
  902MPD2    C213265   4.138   2.092  12.198 -0.5105 -0.3734  0.4089
  902MPD2    C313266   4.237   1.987  12.170 -0.1321  0.1828 -0.1235
  902MPD2    C413267   4.369   2.015  12.181  0.0179  0.0092 -0.9257
  902MPD2    C513268   4.408   2.141  12.198 -0.0296 -0.5662  0.7445
  902MPD2     H13269   4.034   2.062  12.200 -0.6211  0.0011  0.1751
  902MPD2    H113270   4.443   1.948  12.140 -3.1075 -2.8876 -1.8327
  902MPD2    H213271   4.368   2.345  12.228 -0.0282 -0.1305 -0.2159
  902MPD2    H313272   4.514   2.158  12.207 -0.2389  1.0999 -0.0682
  902MPD2     N13273   4.202   1.861  12.126  0.4202 -0.4343  0.1207
  902MPD2    H513274   4.279   1.797  12.112  1.0543  0.6621 -1.3661
  902MPD2    N113275   4.103   2.322  12.259 -0.4960  0.2418 -0.2560
  902MPD2    H713276   4.005   2.302  12.243 -0.5413  0.8527 -0.7110
  903MPD2     C13277   3.662   1.262  11.661  0.1782 -0.7661 -0.3357
  903MPD2    C113278   3.663   1.347  11.774 -0.5759 -0.6487  0.2200
  903MPD2    C213279   3.545   1.422  11.803 -0.6261 -0.2369  0.0586
  903MPD2    C313280   3.440   1.414  11.723 -0.0849 -0.1494 -0.4988
  903MPD2    C413281   3.441   1.331  11.618  0.2043 -0.1201  0.1371
  903MPD2    C513282   3.549   1.256  11.581  0.2691  1.0303 -0.0783
  903MPD2     H13283   3.543   1.480  11.894 -2.3972 -0.2663  0.0486
  903MPD2    H113284   3.354   1.306  11.557  0.6426  0.5249 -0.7514
  903MPD2    H213285   3.745   1.196  11.637 -0.8258 -2.3605  0.5956
  903MPD2    H313286   3.545   1.189  11.496  4.6086  0.5121  0.0938
  903MPD2     N13287   3.324   1.489  11.766  0.1839 -0.2473 -0.0602
  903MPD2    H513288   3.332   1.550  11.847 -0.4648 -0.8832  0.4852
  903MPD2    N113289   3.788   1.362  11.849  0.0799 -0.5227  0.0145
  903MPD2    H713290   3.870   1.308  11.821 -1.6736 -3.3899  0.3557
  904MPD2     C13291   3.306   1.766  13.838 -1.2354  0.5783  0.7463
  904MPD2    C113292   3.240   1.722  13.948 -0.0900 -0.0495 -0.0840
  904MPD2    C213293   3.318   1.702  14.066 -0.2970  0.0906 -0.3445
  904MPD2    C313294   3.449   1.726  14.058  0.3206  0.0282 -0.2788
  904MPD2    C413295   3.510   1.797  13.953 -0.3438 -0.4844  0.4925
  904MPD2    C513296   3.433   1.814  13.847 -0.3824 -0.0594 -0.4720
  904MPD2     H13297   3.273   1.663  14.156  2.2699 -2.2291 -0.0799
  904MPD2    H113298   3.618   1.809  13.947 -0.2072 -2.4842 -0.8340
  904MPD2    H213299   3.248   1.788  13.749  2.0863  0.4136 -1.4440
  904MPD2    H313300   3.478   1.858  13.758  0.4682 -1.2215 -0.6254
  904MPD2     N13301   3.525   1.665  14.164  0.2676 -0.5244 -0.5966
  904MPD2    H513302   3.477   1.596  14.220 -1.4626  1.6818  0.6253
  904MPD2    N113303   3.106   1.680  13.956  0.0290 -0.0650 -0.1335
  904MPD2    H713304   3.089   1.613  14.030  0.2630  1.6294  1.4533
  905MPD2     C13305   3.125   1.628  13.311 -0.1036  0.2420  0.6670
  905MPD2    C113306   3.174   1.742  13.377  0.3211  0.0370 -0.3808
  905MPD2    C213307   3.305   1.749  13.413  0.6987  0.8478  0.2417
  905MPD2    C313308   3.389   1.649  13.377  0.3224  0.1718  0.1340
  905MPD2    C413309   3.347   1.547  13.289  0.2507  0.0311 -0.2503
  905MPD2    C513310   3.214   1.532  13.265  0.3470  0.1221  0.1979
  905MPD2     H13311   3.343   1.834  13.469 -0.7198  0.7737  1.3281
  905MPD2    H113312   3.413   1.465  13.261  0.7018 -0.1308  1.2942
  905MPD2    H213313   3.018   1.620  13.295 -0.2612  1.9084  0.8686
  905MPD2    H313314   3.180   1.437  13.227 -0.8843  1.0479 -1.0371
  905MPD2     N13315   3.523   1.643  13.412 -0.2599 -0.1045  0.2331
  905MPD2    H513316   3.576   1.557  13.400 -1.9741 -1.0882 -0.3442
  905MPD2    N113317   3.075   1.834  13.424  0.2583 -0.0178 -0.1637
  905MPD2    H713318   2.975   1.816  13.420  0.1590  0.0968  1.7174
  906MPD2     C13319   0.892   1.577  11.363  0.2077 -0.1059  0.7815
  906MPD2    C113320   0.872   1.465  11.290  0.4084 -0.2200  1.7720
  906MPD2    C213321   0.819   1.353  11.352 -0.0418 -0.1235 -0.3187
  906MPD2    C313322   0.795   1.350  11.487  0.2738 -0.0725  0.2671
  906MPD2    C413323   0.811   1.465  11.558  0.9743 -0.7084 -0.7510
  906MPD2    C513324   0.869   1.571  11.497  0.0241  0.3056 -0.1910
  906MPD2     H13325   0.806   1.270  11.284  0.5119 -0.2165 -0.3119
  906MPD2    H113326   0.801   1.464  11.666 -1.4797 -1.9993 -0.9848
  906MPD2    H213327   0.946   1.664  11.328  1.6259 -0.3431  2.4075
  906MPD2    H313328   0.877   1.657  11.562  0.3505 -0.4989  0.8262
  906MPD2     N13329   0.747   1.228  11.543 -0.1155  0.2300  0.2187
  906MPD2    H513330   0.703   1.245  11.633 -1.0572  0.4188 -0.2780
  906MPD2    N113331   0.885   1.459  11.146  0.4518  0.5884 -0.9572
  906MPD2    H713332   0.849   1.380  11.094  0.7994  0.4409 -0.9752
  907MPD2     C13333   3.989   0.819  15.727  0.0088  0.3540  0.2106
  907MPD2    C113334   4.041   0.692  15.706 -1.0178  0.2801  0.3611
  907MPD2    C213335   4.070   0.613  15.816  0.5827  0.1948 -0.9179
  907MPD2    C313336   4.039   0.648  15.942 -0.5921  0.6886  0.0035
  907MPD2    C413337   3.987   0.774  15.957 -0.7904 -0.2350  0.2553
  907MPD2    C513338   3.967   0.859  15.857  0.3692 -0.5514 -0.2052
  907MPD2     H13339   4.104   0.510  15.804  0.2239  0.1193 -1.3155
  907MPD2    H113340   3.970   0.817  16.055 -0.7796 -1.5065  0.8245
  907MPD2    H213341   3.979   0.888  15.645 -0.4483  0.0338 -0.0038
  907MPD2    H313342   3.921   0.956  15.870  0.5531 -0.6291  0.9742
  907MPD2     N13343   4.060   0.553  16.045  0.4091  0.0230  0.2337
  907MPD2    H513344   4.088   0.462  16.010  3.4635  0.9707  0.2625
  907MPD2    N113345   4.054   0.635  15.578  0.3412  0.3511 -0.2487
  907MPD2    H713346   4.081   0.538  15.576  1.2262  0.6109 -1.1884
  908MPD2     C13347   2.161   0.996   9.568 -0.4960 -0.2210  0.4009
  908MPD2    C113348   2.098   0.962   9.683 -0.3154  0.5041  0.6891
  908MPD2    C213349   2.163   0.999   9.809  0.1386 -0.5039  0.0412
  908MPD2    C313350   2.287   1.059   9.807  0.1422 -0.6978 -0.0661
  908MPD2    C413351   2.352   1.075   9.687 -0.3553  1.1040 -0.1432
  908MPD2    C513352   2.282   1.053   9.571  0.0984  0.0515 -0.5814
  908MPD2     H13353   2.118   0.982   9.906  1.0601 -1.1359  0.3550
  908MPD2    H113354   2.449   1.121   9.671 -0.5016  1.5407  0.2129
  908MPD2    H213355   2.102   0.987   9.478 -0.5784  1.9037  0.2425
  908MPD2    H313356   2.330   1.084   9.479 -0.3617 -0.6807 -1.0666
  908MPD2     N13357   2.345   1.095   9.936  0.0780  0.0337 -0.4822
  908MPD2    H513358   2.281   1.072  10.011 -0.8501  1.8180 -0.7192
  908MPD2    N113359   1.965   0.919   9.672 -1.2057  0.4113  0.3331
  908MPD2    H713360   1.934   0.897   9.578 -0.3176 -0.6669  0.2968
  909MPD2     C13361   2.104   3.995  12.169  0.4555 -0.1358  1.0173
  909MPD2    C113362   2.050   4.036  12.047  0.0015  0.4315 -0.3980
  909MPD2    C213363   1.932   4.119  12.050  0.6593 -0.5840  0.3642
  909MPD2    C313364   1.864   4.146  12.161  0.0148 -1.1010  0.3038
  909MPD2    C413365   1.911   4.091  12.275 -0.2805 -0.3088  0.1419
  909MPD2    C513366   2.024   4.017  12.276  0.0328  0.7097 -0.0928
  909MPD2     H13367   1.898   4.159  11.956  1.9557  1.8927  0.9683
  909MPD2    H113368   1.862   4.102  12.371  1.7842 -0.4179  1.2143
  909MPD2    H213369   2.201   3.948  12.180  1.3744  1.5395  0.0323
  909MPD2    H313370   2.052   3.975  12.372 -1.1494  0.3819  0.1094
  909MPD2     N13371   1.759   4.242  12.157 -0.2809 -0.5925  0.2051
  909MPD2    H513372   1.743   4.303  12.078  0.3209 -2.3666 -1.2926
  909MPD2    N113373   2.128   4.036  11.931 -0.5188  0.4339 -0.0330
  909MPD2    H713374   2.088   4.082  11.850 -0.2147  0.8791  0.0710
  910MPD2     C13375   3.209   1.106  15.786 -0.0038  0.1223 -0.2047
  910MPD2    C113376   3.335   1.078  15.736  0.8998 -0.2801  0.7967
  910MPD2    C213377   3.356   1.121  15.605 -0.0868  0.7012 -0.6650
  910MPD2    C313378   3.260   1.200  15.538  0.3594  0.1242  0.5733
  910MPD2    C413379   3.141   1.229  15.597 -0.2631 -0.0551 -0.1538
  910MPD2    C513380   3.117   1.179  15.720  0.1749 -0.2818  0.5980
  910MPD2     H13381   3.457   1.107  15.567  0.6281 -0.6979  1.7902
  910MPD2    H113382   3.059   1.274  15.542  1.9530  1.8857 -1.8257
  910MPD2    H213383   3.172   1.077  15.884  0.9490  0.3691  0.2194
  910MPD2    H313384   3.022   1.201  15.766 -1.3178  0.7944 -2.9684
  910MPD2     N13385   3.268   1.248  15.405  0.0973 -0.3782  0.0007
  910MPD2    H513386   3.182   1.288  15.371  1.1409 -1.1419 -3.5187
  910MPD2    N113387   3.422   0.990  15.806 -0.2585  0.1376 -0.5980
  910MPD2    H713388   3.515   0.973  15.767 -0.0088  0.9839 -0.3825
  911MPD2     C13389   1.301   1.525  16.004 -0.4959 -0.5930  0.2102
  911MPD2    C113390   1.309   1.582  16.127  0.5418  0.7265 -0.3563
  911MPD2    C213391   1.221   1.685  16.167  0.4063  0.4643 -0.5488
  911MPD2    C313392   1.128   1.728  16.075 -1.3405  0.5593  0.6305
  911MPD2    C413393   1.118   1.670  15.945  0.1263 -0.4999 -0.4439
  911MPD2    C513394   1.206   1.572  15.916  0.3526 -0.0520 -0.7511
  911MPD2     H13395   1.226   1.712  16.271  2.4053  1.6214 -0.9583
  911MPD2    H113396   1.043   1.703  15.874 -2.3402 -0.7506  2.0091
  911MPD2    H213397   1.359   1.439  15.975 -0.1427 -0.3818  0.2981
  911MPD2    H313398   1.199   1.532  15.815 -2.3819  0.3878 -0.7402
  911MPD2     N13399   1.027   1.823  16.099  0.0492  0.9262 -0.0654
  911MPD2    H513400   0.943   1.822  16.042  0.0749 -1.6985 -0.0741
  911MPD2    N113401   1.389   1.514  16.221  0.0603  0.3238  0.5088
  911MPD2    H713402   1.446   1.442  16.178 -0.7652 -0.0741  0.0716
  912MPD2     C13403   0.836   1.731  15.704 -0.0659 -0.1028 -0.1203
  912MPD2    C113404   0.767   1.720  15.825 -0.1449 -0.1029  0.4245
  912MPD2    C213405   0.763   1.603  15.894 -0.2744  0.9352  0.1352
  912MPD2    C313406   0.828   1.494  15.837  0.4916  0.1648 -0.1471
  912MPD2    C413407   0.907   1.504  15.719 -0.1811 -0.4344 -0.8413
  912MPD2    C513408   0.907   1.624  15.651 -0.3134 -0.0401 -0.3041
  912MPD2     H13409   0.707   1.597  15.987  1.0648  0.0823  0.8840
  912MPD2    H113410   0.974   1.427  15.681  2.0349  0.7881  0.5518
  912MPD2    H213411   0.844   1.821  15.644 -0.3769 -0.5668 -0.8537
  912MPD2    H313412   0.977   1.624  15.568  1.0393 -2.0386  0.8421
  912MPD2     N13413   0.846   1.382  15.924  0.0905  0.3239 -0.3018
  912MPD2    H513414   0.809   1.393  16.017  0.1282 -0.3155 -0.2119
  912MPD2    N113415   0.722   1.838  15.884 -0.0606  0.4967  0.0372
  912MPD2    H713416   0.743   1.926  15.837 -1.4430  1.5212  1.3132
  913MPD2     C13417   1.823   2.405  10.596  0.9744 -0.2267 -0.5589
  913MPD2    C113418   1.841   2.497  10.697 -0.6382  0.5889  0.0531
  913MPD2    C213419   1.827   2.631  10.674  0.6250 -0.7076 -0.3727
  913MPD2    C313420   1.789   2.673  10.548  0.1986 -0.3090  0.6158
  913MPD2    C413421   1.748   2.579  10.452 -0.5511 -0.1652  0.2502
  913MPD2    C513422   1.769   2.448  10.476  0.1961 -0.8988 -0.5145
  913MPD2     H13423   1.851   2.706  10.749  0.3022 -0.3111 -0.6611
  913MPD2    H113424   1.699   2.618  10.364  3.7279 -2.1147 -2.9841
  913MPD2    H213425   1.841   2.300  10.615 -2.4059 -0.6687  0.1458
  913MPD2    H313426   1.740   2.377  10.399 -1.0682 -0.6134 -0.3072
  913MPD2     N13427   1.796   2.803  10.504  0.2286  1.2171  0.2577
  913MPD2    H513428   1.779   2.824  10.406  0.7741 -0.3178 -0.1729
  913MPD2    N113429   1.887   2.447  10.824 -0.0211  0.4107  0.1650
  913MPD2    H713430   1.901   2.347  10.837  0.2528  0.3146 -0.9005
  914MPD2     C13431   0.016   3.086  12.112  0.3594 -0.1842  0.5041
  914MPD2    C113432   0.045   3.193  12.186  0.5604  0.3624 -0.8552
  914MPD2    C213433   0.116   3.172  12.304  0.0964 -0.7259  0.9498
  914MPD2    C313434   0.136   3.043  12.350  0.3195  0.3301  1.1012
  914MPD2    C413435   0.096   2.936  12.274 -0.0541 -0.0054 -0.0166
  914MPD2    C513436   0.048   2.957  12.152  0.8425 -0.7393 -0.1666
  914MPD2     H13437   0.144   3.255  12.368  1.7749 -0.2379 -0.4468
  914MPD2    H113438   0.121   2.833  12.298  0.7627  0.4670  1.2003
  914MPD2    H213439   4.719   3.106  12.010  0.9602 -3.2473 -0.3108
  914MPD2    H313440   0.029   2.875  12.084 -0.3378  0.2462 -1.0209
  914MPD2     N13441   0.181   3.021  12.481 -0.3108 -0.2417  0.2104
  914MPD2    H513442   0.207   3.109  12.525  0.9905 -0.7305  0.3947
  914MPD2    N113443   0.009   3.321  12.145 -0.4307 -0.3809 -0.2217
  914MPD2    H713444   4.682   3.324  12.065  1.7805 -1.8966 -1.9833
  915MPD2     C13445   2.365   2.807  15.972  0.0439  0.4705  0.3281
  915MPD2    C113446   2.286   2.870  15.883 -0.0221 -0.6022  0.2243
  915MPD2    C213447   2.198   2.971  15.918  1.2954 -0.1945 -0.0457
  915MPD2    C313448   2.199   3.009  16.057 -0.1321 -1.0437  0.7628
  915MPD2    C413449   2.297   2.956  16.142  0.1543  0.8504  0.7430
  915MPD2    C513450   2.374   2.853  16.100  0.0853 -0.1244 -0.5617
  915MPD2     H13451   2.137   3.022  15.845 -0.0569 -2.2422 -0.3418
  915MPD2    H113452   2.310   2.990  16.244  1.8008 -0.5796  1.0099
  915MPD2    H213453   2.438   2.731  15.945 -0.9083  0.0454 -1.0847
  915MPD2    H313454   2.444   2.812  16.173 -1.1874 -0.6978  0.3277
  915MPD2     N13455   2.104   3.103  16.101 -0.5131 -1.3208 -0.2337
  915MPD2    H513456   2.022   3.110  16.042 -0.7443  0.1967  0.2633
  915MPD2    N113457   2.300   2.826  15.748  0.2050 -0.1227 -0.6090
  915MPD2    H713458   2.362   2.748  15.732  2.2702  1.1116  1.4299
  916MPD2     C13459   0.399   1.867  15.717 -1.2673  0.6089 -0.1191
  916MPD2    C113460   0.396   1.756  15.796 -0.3220 -0.2722  0.0792
  916MPD2    C213461   0.455   1.637  15.753 -0.0437 -0.2403  0.0482
  916MPD2    C313462   0.517   1.640  15.626 -0.3240  0.1459  0.2323
  916MPD2    C413463   0.529   1.764  15.559  0.7324 -0.0927  0.2790
  916MPD2    C513464   0.470   1.878  15.604  0.0534  0.0679  0.0135
  916MPD2     H13465   0.442   1.550  15.816 -0.1454 -0.6302 -0.5135
  916MPD2    H113466   0.575   1.764  15.461  0.6616 -0.0152  0.2449
  916MPD2    H213467   0.347   1.958  15.747 -1.9066 -0.1176  0.9827
  916MPD2    H313468   0.476   1.972  15.550  0.4991  0.8121  1.3744
  916MPD2     N13469   0.568   1.519  15.574 -0.7759 -0.3489 -0.1777
  916MPD2    H513470   0.579   1.447  15.644  0.6728  0.2212  0.1814
  916MPD2    N113471   0.310   1.765  15.907 -0.1040 -0.1702 -0.1797
  916MPD2    H713472   0.250   1.846  15.901 -0.6467 -0.5310  0.3776
  917MPD2     C13473   0.798   3.422  11.142 -0.3253  0.0204 -0.2336
  917MPD2    C113474   0.914   3.398  11.214 -0.2492 -0.3657 -0.8878
  917MPD2    C213475   1.028   3.464  11.172  0.1434 -0.7449  0.1730
  917MPD2    C313476   1.035   3.533  11.051 -0.6880  0.2078 -0.3833
  917MPD2    C413477   0.912   3.559  10.987  0.1534 -0.0228  1.1323
  917MPD2    C513478   0.795   3.507  11.038 -0.5046 -0.2482  0.5651
  917MPD2     H13479   1.122   3.453  11.225  0.3033 -0.1025  0.0130
  917MPD2    H113480   0.907   3.625  10.902  0.7184 -0.5369  0.6967
  917MPD2    H213481   0.699   3.385  11.168 -0.4875 -0.1567 -1.1223
  917MPD2    H313482   0.708   3.537  10.982  1.2134 -0.7107 -2.3485
  917MPD2     N13483   1.146   3.613  11.012 -0.6437  0.3072 -0.4631
  917MPD2    H513484   1.123   3.687  10.946 -3.3625 -0.0587  0.0854
  917MPD2    N113485   0.908   3.323  11.336  0.0664 -0.3267  0.4338
  917MPD2    H713486   0.825   3.267  11.351  1.5943 -2.3040  1.4491
  918MPD2     C13487   1.145   3.825  12.132 -0.3022  0.4786  0.5336
  918MPD2    C113488   1.251   3.746  12.084 -0.6152 -0.8343 -0.0107
  918MPD2    C213489   1.218   3.633  12.012  0.4280 -0.0585 -0.3984
  918MPD2    C313490   1.080   3.601  11.985 -0.5506  0.5091 -0.5068
  918MPD2    C413491   0.979   3.680  12.043 -0.9073  0.3683  0.4575
  918MPD2    C513492   1.013   3.793  12.108 -0.6241 -0.1934 -0.0907
  918MPD2     H13493   1.297   3.566  11.981  0.0169 -0.0068 -1.5538
  918MPD2    H113494   0.879   3.639  12.054 -2.0387  2.0943 -3.6496
  918MPD2    H213495   1.169   3.908  12.197 -1.5759  1.2097  0.0630
  918MPD2    H313496   0.937   3.852  12.159 -1.1580 -0.7912 -0.1960
  918MPD2     N13497   1.057   3.484  11.907  0.0761 -0.4862 -0.0837
  918MPD2    H513498   1.140   3.435  11.875  1.4421  0.2918  2.2599
  918MPD2    N113499   1.384   3.772  12.116 -0.2244 -0.4257  0.0878
  918MPD2    H713500   1.454   3.709  12.078 -0.4913  0.2990 -1.6216
  919MPD2     C13501   1.735   2.745  11.696  0.2740 -0.7606 -0.4905
  919MPD2    C113502   1.754   2.626  11.626 -0.6048 -0.0389  0.5265
  919MPD2    C213503   1.726   2.627  11.485  0.5271 -0.2366 -0.2668
  919MPD2    C313504   1.667   2.740  11.427  0.0609  0.5635 -0.1514
  919MPD2    C413505   1.652   2.856  11.503 -1.2027  0.1731  0.2548
  919MPD2    C513506   1.698   2.858  11.633  0.0560  0.5874 -0.4881
  919MPD2     H13507   1.750   2.538  11.428 -0.3720 -0.4635 -0.2959
  919MPD2    H113508   1.598   2.940  11.460  0.8488  2.0338  1.3278
  919MPD2    H213509   1.753   2.746  11.803  0.9374  1.0559 -0.6205
  919MPD2    H313510   1.675   2.944  11.694 -2.0799 -0.5862  0.3705
  919MPD2     N13511   1.620   2.752  11.293 -0.0249 -0.1533  0.5436
  919MPD2    H513512   1.594   2.846  11.263 -0.2673 -0.6810 -0.8801
  919MPD2    N113513   1.790   2.503  11.679  0.4311 -0.0486  0.5265
  919MPD2    H713514   1.806   2.436  11.604  1.2681  1.8463 -0.9981
  920MPD2     C13515   1.498   3.297  10.470  0.6981  0.2806 -0.0290
  920MPD2    C113516   1.408   3.200  10.448  0.0976  0.4356 -0.1130
  920MPD2    C213517   1.407   3.098  10.543  0.2236 -0.2035  0.0514
  920MPD2    C313518   1.501   3.089  10.641 -0.0380 -0.9605 -0.0454
  920MPD2    C413519   1.602   3.185  10.659  0.4272  0.1482 -0.5167
  920MPD2    C513520   1.596   3.287  10.565 -0.1267  0.6446  0.3820
  920MPD2     H13521   1.332   3.020  10.543  2.2443 -2.1271 -1.1642
  920MPD2    H113522   1.680   3.189  10.734 -0.5249  0.2779  0.4889
  920MPD2    H213523   1.493   3.385  10.407  1.0478  1.7715  2.0124
  920MPD2    H313524   1.670   3.366  10.568  0.4063  0.2048 -0.9881
  920MPD2     N13525   1.501   2.974  10.727  0.5499 -0.0191  0.0030
  920MPD2    H513526   1.430   2.905  10.700  1.7078 -2.3054  2.8060
  920MPD2    N113527   1.302   3.195  10.350 -0.2260  0.0124  0.0911
  920MPD2    H713528   1.232   3.122  10.351  1.8480 -1.9697 -0.0099
  921MPD2     C13529   1.957   1.894  16.952 -0.5669 -0.5647 -0.0225
  921MPD2    C113530   2.027   1.796  16.893  0.0865  0.9078 -0.1548
  921MPD2    C213531   1.950   1.705  16.826 -0.0514 -0.4495  0.3410
  921MPD2    C313532   1.814   1.714  16.820  0.6749 -0.7942 -0.5323
  921MPD2    C413533   1.749   1.815  16.892 -0.3259 -0.2299 -0.0776
  921MPD2    C513534   1.821   1.906  16.957 -0.0393  0.2802  0.1231
  921MPD2     H13535   1.996   1.636  16.757  0.5548  1.5678 -1.2832
  921MPD2    H113536   1.642   1.830  16.905 -0.5247 -2.0319  0.3812
  921MPD2    H213537   2.003   1.982  16.997 -0.4447 -1.4363  1.5589
  921MPD2    H313538   1.769   1.990  17.001  0.6295  1.1123 -0.6528
  921MPD2     N13539   1.725   1.631  16.738 -0.1550  0.1599  0.2751
  921MPD2    H513540   1.626   1.651  16.735 -0.3037 -0.5056  0.7444
  921MPD2    N113541   2.163   1.808  16.894 -0.2354  0.0551 -0.0852
  921MPD2    H713542   2.215   1.892  16.920  1.5811 -0.7688 -1.0572
  922MPD2     C13543   2.671   0.006  17.268  0.1089 -0.0952  0.3676
  922MPD2    C113544   2.622   0.008  17.397 -0.0510  0.2778 -0.6254
  922MPD2    C213545   2.545   4.639  17.441 -0.1857  0.1301  0.1456
  922MPD2    C313546   2.522   4.529  17.364 -0.0449  0.2339  0.1454
  922MPD2    C413547   2.576   4.528  17.234  0.2748  0.3657 -0.5533
  922MPD2    C513548   2.653   4.629  17.187 -0.3320  0.0570  0.4631
  922MPD2     H13549   2.507   4.644  17.542  1.0334  0.4717  0.5854
  922MPD2    H113550   2.566   4.438  17.174  1.6941 -0.9901  1.2798
  922MPD2    H213551   2.725   0.090  17.227 -1.2501  0.2882 -0.6558
  922MPD2    H313552   2.690   4.634  17.085  3.2270  2.1655  1.8398
  922MPD2     N13553   2.451   4.423  17.422  0.5572 -0.8392  0.1254
  922MPD2    H513554   2.404   4.434  17.511  0.5347  0.2656 -0.0264
  922MPD2    N113555   2.644   0.114  17.489  0.1659  0.2784  0.0215
  922MPD2    H713556   2.603   0.102  17.581 -1.7846  1.1431 -0.7451
  923MPD2     C13557   4.525   2.136   8.774  0.2752 -0.0243  0.1393
  923MPD2    C113558   4.510   2.035   8.865  0.0721 -0.5939  0.4141
  923MPD2    C213559   4.620   1.998   8.946 -0.3918 -0.6463 -0.6949
  923MPD2    C313560   4.734   2.073   8.939  0.0804 -0.7025  0.3469
  923MPD2    C413561   0.016   2.165   8.840 -0.2781 -0.3842 -0.4821
  923MPD2    C513562   4.649   2.190   8.758  0.0988  0.4199 -0.1098
  923MPD2     H13563   4.603   1.921   9.020  0.2991 -0.3123 -0.1946
  923MPD2    H113564   0.112   2.213   8.826  0.2209 -1.7267 -1.6508
  923MPD2    H213565   4.449   2.170   8.704  1.0968 -0.0691 -0.7811
  923MPD2    H313566   4.676   2.267   8.686 -0.2362  2.4217  1.9302
  923MPD2     N13567   0.108   2.048   9.023  0.0019  0.2510  0.5497
  923MPD2    H513568   0.189   2.110   9.020 -0.3944  0.7313 -0.0487
  923MPD2    N113569   4.390   1.970   8.859  0.0564 -0.1935 -0.4798
  923MPD2    H713570   4.322   2.017   8.800 -1.2320  0.2191  1.3430
  924MPD2     C13571   4.556   4.623  15.916 -0.3128  0.2494 -0.1564
  924MPD2    C113572   4.470   4.585  16.012  0.5300 -0.3541  0.0168
  924MPD2    C213573   4.412   4.688  16.089  0.1813 -0.4072  0.3031
  924MPD2    C313574   4.432   0.083  16.061  0.0738 -0.0726  0.6910
  924MPD2    C413575   4.503   0.121  15.948  0.5964 -0.4405  0.1006
  924MPD2    C513576   4.569   0.019  15.883  0.7788  0.0718 -0.0391
  924MPD2     H13577   4.339   4.665  16.166 -2.1827  2.7721 -1.0300
  924MPD2    H113578   4.516   0.222  15.912 -0.2746 -0.2485  0.3242
  924MPD2    H213579   4.615   4.550  15.862  0.2854  0.3977  0.2963
  924MPD2    H313580   4.630   0.049  15.799 -0.0429 -0.1816 -0.7219
  924MPD2     N13581   4.363   0.185  16.125  0.3714 -0.2410 -0.1572
  924MPD2    H513582   4.365   0.276  16.080  0.2839 -1.5739 -2.8829
  924MPD2    N113583   4.441   4.447  16.051 -0.5418  0.0533  0.1068
  924MPD2    H713584   4.504   4.375  16.016  0.4683  0.0762  1.8877
  925MPD2     C13585   3.339   2.462  14.873 -0.3004 -0.0350 -0.7364
  925MPD2    C113586   3.232   2.424  14.794 -0.2852 -0.1044 -0.1785
  925MPD2    C213587   3.120   2.372  14.847  0.3567 -0.0855 -0.0182
  925MPD2    C313588   3.116   2.350  14.984  0.1302 -0.1546  0.0749
  925MPD2    C413589   3.225   2.386  15.065 -0.4343  0.4883  0.3415
  925MPD2    C513590   3.333   2.437  15.004 -0.0675  0.7871  0.5246
  925MPD2     H13591   3.045   2.331  14.780  0.4245  1.9453 -1.3129
  925MPD2    H113592   3.228   2.373  15.173 -0.9634  0.4484  0.3533
  925MPD2    H213593   3.433   2.500  14.836 -2.5274  3.2358 -3.0666
  925MPD2    H313594   3.424   2.452  15.061 -0.5433 -0.5315  1.6479
  925MPD2     N13595   3.005   2.285  15.044  0.3231  0.6497 -0.1905
  925MPD2    H513596   3.016   2.256  15.141 -0.5344  1.8393  0.2511
  925MPD2    N113597   3.231   2.429  14.654 -0.2862 -0.9085 -0.9957
  925MPD2    H713598   3.154   2.386  14.604 -0.4594 -1.4167 -0.2744
  926MPD2     C13599   2.134   0.685  13.404  0.2742 -0.1757 -0.2871
  926MPD2    C113600   2.070   0.787  13.343  0.3038 -0.5280 -0.0672
  926MPD2    C213601   2.131   0.861  13.243 -0.9529  0.2950  0.0495
  926MPD2    C313602   2.261   0.835  13.205  0.0192  0.0533 -0.2301
  926MPD2    C413603   2.321   0.721  13.259  0.4940 -0.2130 -0.1369
  926MPD2    C513604   2.255   0.651  13.360  0.6389 -0.2705  0.7209
  926MPD2     H13605   2.079   0.943  13.197  1.9659  2.1362  0.0135
  926MPD2    H113606   2.425   0.698  13.239  0.7311  1.0710 -0.3625
  926MPD2    H213607   2.095   0.634  13.492  1.4124 -1.3413 -0.4563
  926MPD2    H313608   2.311   0.568  13.403 -0.1815 -1.0167  0.3427
  926MPD2     N13609   2.340   0.919  13.128  0.1543  0.0417 -0.2577
  926MPD2    H513610   2.440   0.906  13.140  0.4014  1.2829 -0.8891
  926MPD2    N113611   1.948   0.842  13.391 -0.8050  0.3026 -0.3063
  926MPD2    H713612   1.909   0.922  13.342 -2.1128  0.1208  0.4167
  927MPD2     C13613   1.366   3.327  17.623 -0.1269 -0.4675  0.1690
  927MPD2    C113614   1.409   3.441  17.683  0.1092 -0.2094 -0.1089
  927MPD2    C213615   1.508   3.508  17.613 -0.1420  0.7082  0.1220
  927MPD2    C313616   1.556   3.465  17.490  0.1860  0.5976  0.4221
  927MPD2    C413617   1.500   3.359  17.431  0.6177 -0.2841  0.2430
  927MPD2    C513618   1.401   3.286  17.495  0.0189  0.3493 -0.0561
  927MPD2     H13619   1.556   3.595  17.656 -1.2762  1.8101 -0.8342
  927MPD2    H113620   1.535   3.326  17.334  0.4460  4.0382 -1.2570
  927MPD2    H213621   1.297   3.263  17.678 -0.0277 -0.8931 -0.2065
  927MPD2    H313622   1.363   3.192  17.456  0.9220  0.5910 -1.4816
  927MPD2     N13623   1.650   3.546  17.424  0.4675 -0.2678 -0.1922
  927MPD2    H513624   1.692   3.621  17.479  2.6261 -1.7357  0.1713
  927MPD2    N113625   1.373   3.474   0.078  0.3069 -0.1989 -0.5187
  927MPD2    H713626   1.297   3.420   0.116  1.9211 -3.5038 -1.9593
  928MPD2     C13627   3.413   2.017   0.548 -0.3889 -0.3895  0.4028
  928MPD2    C113628   3.516   2.050   0.637  0.0293 -0.2145 -0.1962
  928MPD2    C213629   3.640   1.994   0.611  0.1042 -0.1183  0.4149
  928MPD2    C313630   3.668   1.914   0.502 -0.5524 -0.2607  0.6024
  928MPD2    C413631   3.569   1.874   0.420 -0.1087 -0.5768  0.2888
  928MPD2    C513632   3.442   1.923   0.451 -0.4822  0.5269 -0.7432
  928MPD2     H13633   3.717   2.012   0.686 -1.9377 -0.1002  2.4968
  928MPD2    H113634   3.589   1.806   0.337 -2.8025 -2.0879  0.8837
  928MPD2    H213635   3.319   2.066   0.570 -0.2277 -0.1944  0.6570
  928MPD2    H313636   3.355   1.897   0.392 -1.7228  1.8909  0.5049
  928MPD2     N13637   3.799   1.859   0.478  0.0666 -0.6525  0.2837
  928MPD2    H513638   3.802   1.798   0.397 -0.8659 -1.3757  0.7869
  928MPD2    N113639   3.493   2.141   0.740 -0.7221  0.3466 -0.4423
  928MPD2    H713640   3.397   2.157   0.769 -0.1023 -0.6085  2.2267
  929MPD2     C13641   0.359   1.188  10.493  0.9863 -0.2002  0.1005
  929MPD2    C113642   0.238   1.134  10.460  0.4011  0.0344  0.0464
  929MPD2    C213643   0.203   1.129  10.325 -0.0404 -0.1157 -0.1646
  929MPD2    C313644   0.287   1.185  10.228 -0.3592 -0.4400 -0.2421
  929MPD2    C413645   0.411   1.242  10.266  0.4485 -0.3598 -0.0936
  929MPD2    C513646   0.447   1.234  10.397  0.2780 -0.5035 -0.3284
  929MPD2     H13647   0.103   1.105  10.293  0.1451 -0.8239 -0.1980
  929MPD2    H113648   0.485   1.285  10.200  0.1619 -1.9293 -1.4447
  929MPD2    H213649   0.374   1.203  10.600  2.4862 -2.6571  0.2436
  929MPD2    H313650   0.542   1.277  10.424 -0.4340  1.8605 -1.6036
  929MPD2     N13651   0.252   1.210  10.097  0.5323  0.1863  0.4084
  929MPD2    H513652   0.328   1.248  10.042  1.3166  3.6404  3.8901
  929MPD2    N113653   0.152   1.095  10.566 -0.2850  0.8076  0.0422
  929MPD2    H713654   0.182   1.119  10.660  1.9576 -1.5357 -0.0772
  930MPD2     C13655   1.661   3.672  14.204  0.7694  0.0376  0.0923
  930MPD2    C113656   1.603   3.786  14.145 -0.0288 -0.4307 -0.1460
  930MPD2    C213657   1.534   3.765  14.027 -1.0677 -0.2415  0.5768
  930MPD2    C313658   1.521   3.644  13.966  0.1348  0.0373 -0.4013
  930MPD2    C413659   1.584   3.531  14.028  0.1161 -0.3509  0.5706
  930MPD2    C513660   1.646   3.550  14.147  0.3142 -0.6146  0.5424
  930MPD2     H13661   1.486   3.851  13.982  0.5465 -0.0879 -0.8677
  930MPD2    H113662   1.568   3.428  13.999  1.0523 -0.5362  0.7319
  930MPD2    H213663   1.715   3.681  14.298  1.9804  1.3402 -0.7372
  930MPD2    H313664   1.685   3.464  14.201  0.7302 -0.1740  0.9357
  930MPD2     N13665   1.478   3.631  13.836 -0.0746  0.4493 -0.2354
  930MPD2    H513666   1.490   3.547  13.779 -1.0032  0.2159 -0.0877
  930MPD2    N113667   1.632   3.914  14.192 -0.4436  0.1316  0.6284
  930MPD2    H713668   1.606   3.986  14.125  1.7138 -0.5551 -0.9657
  931MPD2     C13669   1.728   3.572   0.752  0.4365 -0.1311 -0.5588
  931MPD2    C113670   1.595   3.548   0.774  0.0972  0.3417 -0.0969
  931MPD2    C213671   1.549   3.520   0.903 -0.6212  0.6410  0.1617
  931MPD2    C313672   1.633   3.520   1.009 -0.3232  0.1044  0.0936
  931MPD2    C413673   1.763   3.562   0.986 -0.6729  0.3993  0.2277
  931MPD2    C513674   1.809   3.581   0.861 -0.4787  0.5545  0.0248
  931MPD2     H13675   1.445   3.500   0.924 -0.5054  1.3658  1.4254
  931MPD2    H113676   1.833   3.577   1.068 -1.4826  0.5843  0.8819
  931MPD2    H213677   1.766   3.597   0.654  2.8165  1.3899  0.7596
  931MPD2    H313678   1.912   3.611   0.848 -0.1110 -0.4674  0.5677
  931MPD2     N13679   1.598   3.481   1.143  0.0146  0.1430  0.4621
  931MPD2    H513680   1.668   3.483   1.217 -0.3950 -1.6168  0.8846
  931MPD2    N113681   1.514   3.540   0.652 -0.1432  0.3940 -0.0624
  931MPD2    H713682   1.559   3.562   0.563 -0.3733  2.2482  0.2814
  932MPD2     C13683   3.431   1.649  10.753 -0.1584  0.0503  0.2543
  932MPD2    C113684   3.543   1.723  10.785 -1.2457 -0.3958  0.6979
  932MPD2    C213685   3.661   1.653  10.801 -0.4107 -0.5508  1.0262
  932MPD2    C313686   3.665   1.511  10.799 -1.0112  0.8924  0.4542
  932MPD2    C413687   3.546   1.442  10.774  0.6389  0.1523  0.6385
  932MPD2    C513688   3.431   1.513  10.753 -0.5583 -0.0193  0.3580
  932MPD2     H13689   3.753   1.708  10.812  0.3324 -1.4254 -0.7626
  932MPD2    H113690   3.548   1.333  10.771  1.3015  0.2091 -0.8352
  932MPD2    H213691   3.336   1.697  10.733 -0.4402  0.3327  2.2769
  932MPD2    H313692   3.340   1.459  10.730 -1.3036  1.1641  0.5369
  932MPD2     N13693   3.783   1.442  10.837 -0.3192 -0.7589 -0.0909
  932MPD2    H513694   3.853   1.504  10.875 -0.4216 -0.1500 -0.8994
  932MPD2    N113695   3.545   1.865  10.799  0.3723 -0.4550 -0.5816
  932MPD2    H713696   3.636   1.905  10.820 -0.6394 -0.1263  3.1919
  933MPD2     C13697   3.288   2.229   1.588 -0.1228 -0.1681 -0.4573
  933MPD2    C113698   3.264   2.283   1.462  0.0563 -0.9538  0.3521
  933MPD2    C213699   3.181   2.386   1.457 -0.0760  0.1307 -0.4101
  933MPD2    C313700   3.115   2.436   1.569 -0.7233  0.7763 -0.2034
  933MPD2    C413701   3.131   2.378   1.690 -0.1920  0.3986  0.0669
  933MPD2    C513702   3.221   2.272   1.701  0.1971 -0.3133 -0.1147
  933MPD2     H13703   3.164   2.429   1.359  0.0719  0.5712 -0.2424
  933MPD2    H113704   3.082   2.418   1.778 -0.5142 -0.3820  0.2417
  933MPD2    H213705   3.360   2.148   1.593  0.6481  0.6322  1.6427
  933MPD2    H313706   3.247   2.213   1.789 -1.4067  0.3892  0.8246
  933MPD2     N13707   3.031   2.554   1.547 -1.2351 -0.2240 -0.8145
  933MPD2    H513708   3.034   2.610   1.462  0.7010 -0.8461 -1.1648
  933MPD2    N113709   3.344   2.238   1.353 -0.3755  0.3776 -0.6333
  933MPD2    H713710   3.426   2.185   1.380  0.7239  1.8449 -1.0894
  934MPD2     C13711   0.551   0.047   2.006  0.2554 -0.5028  0.2261
  934MPD2    C113712   0.618   0.035   1.885 -0.2863 -1.0857  0.6549
  934MPD2    C213713   0.567   4.687   1.785  0.1320 -0.3766  0.6492
  934MPD2    C313714   0.441   4.624   1.809  0.2147 -0.4639 -1.4557
  934MPD2    C413715   0.368   4.651   1.928 -0.0776  0.6602 -0.4251
  934MPD2    C513716   0.431   4.724   2.026 -0.0127 -0.4928  0.4457
  934MPD2     H13717   0.613   4.674   1.688 -0.9287  0.9535 -0.0299
  934MPD2    H113718   0.277   4.601   1.958 -0.2307  1.7908  0.9528
  934MPD2    H213719   0.578   0.107   2.092 -1.1988  1.1746 -0.4889
  934MPD2    H313720   0.390   4.735   2.126 -1.0700  0.9384 -0.1402
  934MPD2     N13721   0.383   4.535   1.718  0.1403 -0.4140  0.0583
  934MPD2    H513722   0.285   4.512   1.736  0.0521  1.4278  1.9280
  934MPD2    N113723   0.745   0.089   1.864 -0.3437 -0.0926 -0.6619
  934MPD2    H713724   0.789   0.058   1.778 -1.4429 -0.6948 -1.0127
  935MPD2     C13725   0.759   3.803   1.162  0.5096  0.3069 -0.1098
  935MPD2    C113726   0.635   3.825   1.103  0.6454  0.0279 -0.5951
  935MPD2    C213727   0.557   3.921   1.161 -0.1858  0.4143 -0.0777
  935MPD2    C313728   0.595   4.000   1.270  0.1857 -0.2319  0.1806
  935MPD2    C413729   0.719   3.979   1.324 -0.5761  0.1497  0.5340
  935MPD2    C513730   0.804   3.884   1.266 -0.1389  0.0375  0.0446
  935MPD2     H13731   0.455   3.926   1.127 -0.3874 -0.9429  0.3067
  935MPD2    H113732   0.762   4.031   1.409  0.7303  0.9927 -0.6461
  935MPD2    H213733   0.838   3.750   1.110  0.3388  0.1270 -0.1839
  935MPD2    H313734   0.904   3.872   1.307 -0.5701  0.2399  1.1647
  935MPD2     N13735   0.520   4.105   1.332 -0.0457  0.1413 -0.3100
  935MPD2    H513736   0.572   4.149   1.407  0.6004  1.0443 -1.2938
  935MPD2    N113737   0.596   3.762   0.985 -0.1241  0.1778  0.6981
  935MPD2    H713738   0.511   3.804   0.948  1.4374  3.2688  0.5270
  936MPD2     C13739   4.249   0.125  12.669 -0.1710 -0.4987  0.2229
  936MPD2    C113740   4.142   0.183  12.610 -0.6221  0.3857  0.2958
  936MPD2    C213741   4.149   0.228  12.478 -0.2935  0.0783 -0.1275
  936MPD2    C313742   4.254   0.201  12.396  0.4792 -1.0438  0.1680
  936MPD2    C413743   4.359   0.142  12.446 -0.3845  0.0142  0.3088
  936MPD2    C513744   4.360   0.107  12.584  0.3914  0.0490 -0.1937
  936MPD2     H13745   4.070   0.293  12.444 -0.6073 -0.2562 -0.0454
  936MPD2    H113746   4.446   0.122  12.385 -0.0770  0.8641  0.4673
  936MPD2    H213747   4.258   0.080  12.767  2.3064  0.7517  0.5761
  936MPD2    H313748   4.454   0.069  12.621  0.6671  0.7324 -0.1867
  936MPD2     N13749   4.250   0.248  12.262 -0.1912 -0.6687 -1.1707
  936MPD2    H513750   4.157   0.282  12.238 -1.4904 -0.6879  3.8282
  936MPD2    N113751   4.028   0.195  12.684  0.5894  0.4575  0.1317
  936MPD2    H713752   3.949   0.232  12.632  0.2148 -0.1514  0.2595
  937MPD2     C13753   1.944   1.868  11.396 -0.3119  0.1109  0.1196
  937MPD2    C113754   2.024   1.967  11.454 -0.0898  0.4699  0.1540
  937MPD2    C213755   2.154   1.968  11.414  0.1908 -0.0443  0.0615
  937MPD2    C313756   2.202   1.887  11.312  0.5703 -0.1207  0.5394
  937MPD2    C413757   2.121   1.794  11.259 -0.6249 -0.1234  0.2005
  937MPD2    C513758   1.987   1.788  11.294  0.3864 -0.2374 -0.4629
  937MPD2     H13759   2.218   2.048  11.449 -2.6049  1.5826  1.4331
  937MPD2    H113760   2.169   1.736  11.181 -2.0058  0.9206 -1.4416
  937MPD2    H213761   1.838   1.859  11.416 -0.2310 -1.3371 -0.1077
  937MPD2    H313762   1.923   1.710  11.254  1.8335 -0.8947 -1.5147
  937MPD2     N13763   2.339   1.896  11.281 -0.2186 -0.1737  0.6792
  937MPD2    H513764   2.391   1.968  11.329 -0.0342  0.3931 -0.3878
  937MPD2    N113765   1.989   2.035  11.579  0.3354 -0.8191  0.1444
  937MPD2    H713766   2.066   2.093  11.612  0.9678 -0.8368 -1.3147
  938MPD2     C13767   4.060   3.919   0.190 -0.7761 -0.5720 -0.0354
  938MPD2    C113768   4.141   3.986   0.281  0.8190  0.2518 -0.0471
  938MPD2    C213769   4.169   3.919   0.398  0.1909 -0.1142  0.1228
  938MPD2    C313770   4.134   3.792   0.429  0.1383  0.2919 -0.2825
  938MPD2    C413771   4.066   3.718   0.329 -0.4637  0.4254  0.0751
  938MPD2    C513772   4.035   3.789   0.216 -0.3577  0.5254 -0.0937
  938MPD2     H13773   4.238   3.973   0.462  1.2075 -1.0198 -0.2133
  938MPD2    H113774   4.042   3.613   0.334  0.0409  0.3969  1.7810
  938MPD2    H213775   4.035   3.962   0.094  1.9159  1.9329  0.4027
  938MPD2    H313776   3.982   3.728   0.144 -2.0632  2.1489 -0.2063
  938MPD2     N13777   4.180   3.729   0.545  0.0513 -0.5676 -0.2077
  938MPD2    H513778   4.146   3.633   0.552  2.2522 -1.2510  1.0977
  938MPD2    N113779   4.179   4.129   0.262  0.4171  0.1223 -0.5798
  938MPD2    H713780   4.226   4.160   0.347  0.5560 -1.7038  0.0208
  939MPD2     C13781   4.650   0.178   0.673  0.1006 -0.2325  0.5267
  939MPD2    C113782   0.035   0.155   0.732 -0.2140 -0.6208 -0.4613
  939MPD2    C213783   0.123   0.062   0.684  0.0379 -0.1621  0.3924
  939MPD2    C313784   0.090   4.725   0.572  0.2526 -0.4004 -0.3536
  939MPD2    C413785   4.702   0.014   0.512  0.6072  0.9584 -0.5385
  939MPD2    C513786   4.618   0.106   0.560  0.0143  0.1150 -0.2560
  939MPD2     H13787   0.223   0.060   0.727  0.1217 -1.1829  0.1523
  939MPD2    H113788   4.676   4.692   0.423  2.1897  2.4033 -1.9303
  939MPD2    H213789   4.580   0.256   0.701  1.4620  1.0469  0.3132
  939MPD2    H313790   4.517   0.115   0.523  0.5134  2.5600 -1.0034
  939MPD2     N13791   0.177   4.626   0.528  0.4649 -0.1903  0.1303
  939MPD2    H513792   0.258   4.612   0.587  1.3585 -2.3069 -1.6170
  939MPD2    N113793   0.059   0.236   0.843 -0.2917  0.0438  0.4583
  939MPD2    H713794   4.723   0.306   0.862  0.6907  0.4470  2.6229
  940MPD2     C13795   4.393   0.963  12.764 -0.5501  0.4373 -0.4481
  940MPD2    C113796   4.377   0.829  12.792 -0.5003 -0.7613  0.1678
  940MPD2    C213797   4.482   0.744  12.768  1.1752 -0.2371 -0.3376
  940MPD2    C313798   4.601   0.785  12.704  0.5064  0.6769 -0.4960
  940MPD2    C413799   4.618   0.919  12.674  0.2848  0.3985 -0.0392
  940MPD2    C513800   4.515   0.998  12.704 -0.1085  0.0736  0.1728
  940MPD2     H13801   4.469   0.642  12.804 -1.1481  0.0037 -0.5100
  940MPD2    H113802   4.708   0.963  12.633  1.0486  1.4397  2.8075
  940MPD2    H213803   4.325   1.039  12.798  0.8707  1.1489  0.8001
  940MPD2    H313804   4.516   1.103  12.678  0.5755  0.0401  0.0870
  940MPD2     N13805   4.712   0.699  12.691 -0.6216  0.5912 -0.3942
  940MPD2    H513806   0.060   0.745  12.657  0.1746 -1.1260 -0.8107
  940MPD2    N113807   4.273   0.782  12.882 -0.2714 -0.6111 -0.8358
  940MPD2    H713808   4.299   0.700  12.936  0.0726  0.8464  1.2391
  941MPD2     C13809   3.635   4.391  10.074  0.4404 -0.2724 -0.1322
  941MPD2    C113810   3.716   4.316  10.155  0.8526  0.6120 -0.4037
  941MPD2    C213811   3.695   4.186  10.180 -0.7500  0.1473  0.3643
  941MPD2    C313812   3.592   4.128  10.118  0.3223 -0.1280 -0.4668
  941MPD2    C413813   3.507   4.191  10.032 -0.3320 -0.3500  0.1917
  941MPD2    C513814   3.534   4.327  10.010 -0.6741  0.1439  0.2307
  941MPD2     H13815   3.767   4.132  10.242 -0.6746 -0.5336 -0.3248
  941MPD2    H113816   3.416   4.145   9.998 -0.3389 -1.0300  1.1391
  941MPD2    H213817   3.652   4.498  10.060 -1.9492 -0.0704 -1.3854
  941MPD2    H313818   3.458   4.383   9.956 -1.4299 -0.6086  0.5056
  941MPD2     N13819   3.550   3.997  10.154  0.0098 -0.1627 -0.4971
  941MPD2    H513820   3.470   3.958  10.105  0.7574 -0.2494 -1.6386
  941MPD2    N113821   3.831   4.369  10.214 -0.3048 -0.5713 -0.4641
  941MPD2    H713822   3.878   4.306  10.279  0.9467  0.2360 -0.5825
  942MPD2     C13823   4.651   1.210   9.015  0.2473  0.2575 -0.6871
  942MPD2    C113824   4.676   1.210   9.149 -0.4983  0.8879  0.1182
  942MPD2    C213825   0.061   1.160   9.196  0.5129 -0.3306 -0.0384
  942MPD2    C313826   0.164   1.111   9.116  0.4342 -0.7265 -0.5779
  942MPD2    C413827   0.137   1.102   8.979 -0.2730 -0.2851  0.3205
  942MPD2    C513828   0.015   1.157   8.932 -0.2784  0.6086 -0.3159
  942MPD2     H13829   0.070   1.163   9.304 -1.1846  0.4193  0.0710
  942MPD2    H113830   0.202   1.048   8.912  0.4635  1.7143 -0.5636
  942MPD2    H213831   4.561   1.241   8.965  1.0260  2.3537 -0.7787
  942MPD2    H313832   4.727   1.155   8.827 -0.2013  0.5985 -0.3329
  942MPD2     N13833   0.290   1.067   9.156 -0.7627  0.3457 -0.1748
  942MPD2    H513834   0.355   1.030   9.087 -0.6822  2.9658 -1.5389
  942MPD2    N113835   4.578   1.269   9.233 -0.1259  0.0357  0.3830
  942MPD2    H713836   4.587   1.242   9.330  2.5963 -0.2640  0.0477
  943MPD2     C13837   3.084   3.647  10.528 -0.3713 -0.6588 -0.0307
  943MPD2    C113838   3.057   3.759  10.453 -0.3895 -1.0370 -0.2860
  943MPD2    C213839   3.141   3.864  10.457 -0.9151  0.4722  0.2879
  943MPD2    C313840   3.257   3.849  10.533  0.0730 -0.3262  0.5385
  943MPD2    C413841   3.280   3.740  10.620  0.0414  0.2063  0.2427
  943MPD2    C513842   3.190   3.639  10.613  0.2503  0.6324  0.1808
  943MPD2     H13843   3.135   3.953  10.394  0.6020 -1.5048 -2.6430
  943MPD2    H113844   3.366   3.727  10.683  1.7313  0.6144 -1.9656
  943MPD2    H213845   3.031   3.552  10.521  1.3060 -1.5380 -0.8270
  943MPD2    H313846   3.209   3.547  10.668  0.4300  0.2689 -0.4864
  943MPD2     N13847   3.359   3.951  10.548 -0.0414 -0.7460 -0.2679
  943MPD2    H513848   3.431   3.940  10.618  1.4933 -2.0851 -2.0538
  943MPD2    N113849   2.937   3.752  10.368  0.5292 -0.4574  0.1407
  943MPD2    H713850   2.876   3.671  10.368  0.8975 -0.7355 -0.1463
  944MPD2     C13851   2.357   3.421  10.749  0.0833  0.1724 -0.0502
  944MPD2    C113852   2.345   3.389  10.889 -0.7944  1.0194  0.1430
  944MPD2    C213853   2.286   3.486  10.974  0.5901  0.1919 -0.2679
  944MPD2    C313854   2.233   3.611  10.927 -0.2002  0.1884  0.1480
  944MPD2    C413855   2.249   3.633  10.797 -0.7410 -0.0816 -0.3925
  944MPD2    C513856   2.311   3.544  10.711 -0.6888 -0.1910  0.0042
  944MPD2     H13857   2.293   3.471  11.081 -1.2238  0.5863 -0.1038
  944MPD2    H113858   2.206   3.714  10.738 -3.2814 -0.4238  0.9881
  944MPD2    H213859   2.416   3.362  10.680 -1.2547 -0.4356 -0.6737
  944MPD2    H313860   2.322   3.558  10.604  1.3180  3.5912  0.7155
  944MPD2     N13861   2.167   3.695  11.018  0.1235 -0.1728  0.7232
  944MPD2    H513862   2.165   3.651  11.110 -0.8937 -0.9702  0.3146
  944MPD2    N113863   2.400   3.267  10.930 -0.4129  0.5557  0.1744
  944MPD2    H713864   2.438   3.204  10.860  0.2039  1.6154 -0.4319
    1TMC1    C113865   0.899   4.313  14.342  0.4906  0.3025  0.5502
    1TMC1    C213866   0.964   4.218  14.417  0.7866 -0.7039  0.4474
    1TMC1    C313867   1.014   4.105  14.353  0.0469 -0.4627  0.6756
    1TMC1    C413868   0.886   4.293  14.203  0.0955 -0.3493 -0.9128
    1TMC1    C513869   0.944   4.180  14.146  0.0521 -0.1321  0.2435
    1TMC1    C613870   1.004   4.079  14.219 -0.6229  0.1652 -0.1165
    1TMC1     C13871   0.838   4.419  14.412 -0.0100 -0.1868 -0.0414
    1TMC1     O13872   0.865   4.443  14.527  0.2514 -0.3817 -0.4103
    1TMC1     H13873   0.982   4.241  14.521  1.0106 -3.2314  0.9782
    1TMC1    H113874   0.857   4.374  14.137 -1.6242 -0.5258 -0.3771
    1TMC1    H213875   1.039   3.986  14.176  2.1424  0.6138  1.2024
    1TMC1    C713876   0.879   4.159  14.014 -0.0220  0.0840  0.2653
    1TMC1    C813877   1.017   3.976  14.421 -0.9101 -0.2127 -0.4276
    1TMC1    O113878   0.763   4.192  14.001  0.8525  0.2618 -0.0091
    1TMC1    O213879   1.093   3.885  14.397  0.2295 -0.2494 -1.0133
    1TMC1    O313880   0.922   4.033  13.975 -0.0872  0.5279  0.0483
    1TMC1    H313881   1.018   4.025  13.962 -0.1823  2.0631 -1.5076
    1TMC1    O513882   0.950   4.007  14.536 -0.2692  0.0196 -0.0032
    1TMC1    H513883   0.880   4.075  14.529  0.4166  0.4810 -2.1535
    2MPD2     C13884   0.493   0.060  14.471  0.8280 -0.1064 -0.3436
    2MPD2    C113885   0.485   0.018  14.339 -0.3909 -0.4284  0.6974
    2MPD2    C213886   0.569   4.652  14.300  0.2088 -0.0447  0.5066
    2MPD2    C313887   0.659   4.595  14.384  0.1957  0.7027 -0.6810
    2MPD2    C413888   0.677   4.650  14.515 -0.7493  0.1707 -0.2957
    2MPD2    C513889   0.589   0.009  14.555  0.0873 -0.7173 -0.1074
    2MPD2     H13890   0.577   4.622  14.196  2.2694  0.8328  0.4020
    2MPD2    H113891   0.766   4.623  14.571 -1.1405 -0.7936 -0.1318
    2MPD2    H213892   0.433   0.138  14.518  0.6205 -0.0978 -0.6204
    2MPD2    H313893   0.599   0.050  14.655 -2.1749  0.4655 -0.3644
    2MPD2     N13894   0.742   4.490  14.333  0.4323 -0.2806 -0.2358
    2MPD2    H513895   0.739   4.469  14.233 -0.1749 -0.0626 -0.2645
    2MPD2    N113896   0.404   0.087  14.247 -0.1028 -0.0116  0.1616
    2MPD2    H713897   0.341   0.157  14.285  2.3391  3.3515 -1.9802
    3TMC2    C113898   0.350   0.195  14.049  0.1148  0.0360 -0.1667
    3TMC2    C213899   0.236   0.240  14.104  0.1816  0.3980  0.2985
    3TMC2    C313900   0.186   0.354  14.056  0.1867 -0.6581 -0.3522
    3TMC2    C413901   0.417   0.264  13.950 -0.2790 -0.2605 -0.8659
    3TMC2    C513902   0.360   0.386  13.909  1.0640  0.0521  0.2726
    3TMC2    C613903   0.238   0.425  13.948 -0.3811  0.0577  0.7543
    3TMC2     C13904   0.418   0.084  14.108  0.3864  0.5790 -0.3434
    3TMC2     O13905   0.492   0.014  14.039  0.6533  0.3176  0.1155
    3TMC2     H13906   0.187   0.183  14.182  2.7854  0.2927  1.8180
    3TMC2    H113907   0.511   0.225  13.913  0.0055  2.1820 -2.6783
    3TMC2    H213908   0.197   0.522  13.922  1.5931  0.7395  0.1925
    3TMC2    C713909   0.422   0.446  13.792 -0.5747 -0.3419 -0.1935
    3TMC2    C813910   0.082   0.417  14.114  0.0537  0.2708  0.2619
    3TMC2    O113911   0.534   0.399  13.759 -0.1610 -0.2604  0.5685
    3TMC2    O213912   0.015   0.499  14.048 -0.2599  0.3905  0.2585
    3TMC2    O513913   0.082   0.396  14.249  0.0028  0.7368  0.6951
    3TMC2    H513914   0.155   0.335  14.274 -0.0259 -0.0865 -1.1929
    4TMC2    C113915   4.466   0.928  13.254 -0.3688  0.9440  0.2591
    4TMC2    C213916   4.499   0.994  13.140  0.6680  0.5375 -0.4003
    4TMC2    C313917   4.639   0.996  13.125  0.1312  0.3857  0.1693
    4TMC2    C413918   4.554   0.864  13.344  0.4364  0.3244 -0.8336
    4TMC2    C513919   4.688   0.886  13.330  0.7026  0.5900  0.2356
    4TMC2    C613920   4.731   0.958  13.221  0.0559  0.3604 -0.2343
    4TMC2     C13921   4.324   0.933  13.297  0.3104  0.1139  0.6095
    4TMC2     O13922   4.290   0.854  13.386  0.5275 -0.2150 -0.0332
    4TMC2     H13923   4.436   1.024  13.057  1.3014 -1.0907 -1.4904
    4TMC2    H113924   4.512   0.835  13.440  1.5711 -1.4080 -0.8579
    4TMC2    H213925   0.102   0.982  13.217  0.7466 -2.9384 -1.9182
    4TMC2    C713926   0.044   0.803  13.403  0.4982  0.3990  0.1217
    4TMC2    C813927   4.683   1.080  13.018  0.1382 -0.9866 -0.0812
    4TMC2    O113928   4.724   0.745  13.496  0.4013  0.1016 -0.3790
    4TMC2    O213929   4.610   1.146  12.940 -0.2108 -0.0894 -0.6857
    4TMC2    O513930   0.075   1.041  12.992  0.3744 -0.5467  0.2429
    4TMC2    H513931   0.116   0.963  13.034  1.1783  0.0784  0.6195
    5MPD2     C13932   3.911   1.209  13.401  0.6502 -0.0206 -0.9822
    5MPD2    C113933   3.946   1.233  13.270  0.0263  0.1499 -0.3948
    5MPD2    C213934   4.064   1.178  13.217  0.2013 -0.5445 -0.2890
    5MPD2    C313935   4.135   1.094  13.297 -0.2835 -0.2907  0.4690
    5MPD2    C413936   4.094   1.064  13.421 -0.3218  0.2436  0.6007
    5MPD2    C513937   3.986   1.125  13.475 -0.1595 -0.0577  0.3903
    5MPD2     H13938   4.115   1.202  13.124 -1.4682 -0.7653 -1.2644
    5MPD2    H113939   4.143   0.990  13.483 -0.2138 -0.8462 -0.8044
    5MPD2    H213940   3.839   1.269  13.454  1.9171 -1.7644  2.6981
    5MPD2    H313941   3.972   1.125  13.582 -0.8294  0.3393  0.3066
    5MPD2     N13942   4.261   1.044  13.244  0.3452 -0.1813 -0.0147
    5MPD2    H513943   4.294   1.087  13.158 -0.6472  1.6954  0.5455
    5MPD2    N113944   3.868   1.328  13.199  0.8970 -0.1955  0.6928
    5MPD2    H713945   3.790   1.370  13.249  0.6642 -0.6631  0.7316
    6MPD1     C13946   3.397   3.154  12.800  0.2327  0.1156  0.3999
    6MPD1    C113947   3.357   3.053  12.718  0.5751  0.4107 -0.6735
    6MPD1    C213948   3.421   2.929  12.729  0.0339  0.2685  0.7313
    6MPD1    C313949   3.536   2.918  12.807  0.7975 -0.7014 -0.5500
    6MPD1    C413950   3.575   3.024  12.887 -0.2549 -0.0780 -0.2121
    6MPD1    C513951   3.506   3.144  12.885  0.2746  0.2878  0.5975
    6MPD1     H13952   3.383   2.847  12.670  0.7673 -0.5517  1.4010
    6MPD1    H113953   3.666   3.021  12.946  0.4892 -0.1840 -1.3706
    6MPD1    H213954   3.349   3.251  12.790  0.4041  0.3126  1.4846
    6MPD1    H313955   3.534   3.234  12.938  0.1205  2.4410 -2.9887
    6MPD1     N13956   3.612   2.797  12.811  0.9725  0.2524 -1.0690
    6MPD1    H513957   3.680   2.786  12.885 -1.7940  2.1550  1.7473
    6MPD1    N113958   3.242   3.071  12.636  0.2698 -0.9152  0.7501
    6MPD1    H613959   3.228   3.172  12.630  2.1092 -0.6680  0.5053
    6MPD1    H713960   3.261   3.041  12.541  3.6149  0.4152  0.9930
    7MPD2     C13961   3.901   2.173  13.207 -0.1852 -0.5210  0.5410
    7MPD2    C113962   3.793   2.160  13.131  0.0260 -0.8411  0.3250
    7MPD2    C213963   3.737   2.034  13.119  0.1017  0.0642 -0.3382
    7MPD2    C313964   3.780   1.933  13.196 -0.0345  0.2352 -0.2364
    7MPD2    C413965   3.891   1.948  13.272 -0.3006 -0.4323  0.4169
    7MPD2    C513966   3.947   2.068  13.282  0.1388  0.5090 -0.1301
    7MPD2     H13967   3.645   2.028  13.062 -0.7449  0.9744  0.9260
    7MPD2    H113968   3.943   1.867  13.322 -0.5798 -1.4602 -0.9443
    7MPD2    H213969   3.957   2.262  13.234 -0.7871 -0.0069  0.0803
    7MPD2    H313970   4.035   2.077  13.345  0.6484 -1.0365 -0.6230
    7MPD2     N13971   3.733   1.806  13.186  0.3861 -0.3977 -0.0636
    7MPD2    H513972   3.782   1.733  13.236  0.5334 -0.5115 -0.3755
    7MPD2    N113973   3.738   2.259  13.049 -0.1996 -0.2224 -0.8150
    7MPD2    H713974   3.657   2.239  12.991 -0.5391  0.5043 -0.5883
    8TMC3    C113975   3.633   1.622  13.057  0.1203  0.0743  0.3251
    8TMC3    C213976   3.734   1.549  13.105  0.4025 -0.3768 -0.2065
    8TMC3    C313977   3.785   1.456  13.020  0.4691  0.2063  0.1071
    8TMC3    C413978   3.585   1.594  12.931 -0.4099  0.5587  0.5401
    8TMC3    C513979   3.642   1.508  12.840  0.3421  0.3842 -0.3708
    8TMC3    C613980   3.745   1.436  12.887 -0.3169  0.0108  0.4168
    8TMC3     C13981   3.652   1.766  13.083 -0.0636  0.0655  0.4255
    8TMC3     O13982   3.633   1.827  12.977  0.6043  0.2859 -0.4053
    8TMC3     H13983   3.766   1.558  13.209 -0.9007  0.1690  0.1498
    8TMC3    H113984   3.500   1.657  12.908 -0.4978 -0.2165 -1.2065
    8TMC3    H213985   3.818   1.387  12.824  0.1732  0.9948  0.2233
    8TMC3    C713986   3.673   1.571  12.711 -0.7434  0.2919  0.5201
    8TMC3    C813987   3.892   1.368  13.066  1.5718 -0.0214  0.1026
    8TMC3    O113988   3.736   1.511  12.622  0.3320  0.0511 -0.6876
    8TMC3    O213989   3.976   1.320  12.990  0.6465  0.4625 -0.1344
    9TMC3    C113990   3.689   2.590  12.736  0.1239 -0.2204  0.4502
    9TMC3    C213991   3.692   2.506  12.631 -0.7051 -0.3144  0.4187
    9TMC3    C313992   3.714   2.375  12.669 -0.0368  0.4738 -0.3820
    9TMC3    C413993   3.727   2.557  12.867 -0.0680  0.0871 -0.3533
    9TMC3    C513994   3.748   2.431  12.893 -0.2520 -0.3406 -0.1990
    9TMC3    C613995   3.746   2.336  12.796  0.5437  0.2275  0.3619
    9TMC3     C13996   3.616   2.712  12.706 -0.6818  0.6160  0.2538
    9TMC3     O13997   3.558   2.721  12.598  0.0449  0.4370  0.3740
    9TMC3     H13998   3.666   2.537  12.531 -1.3366  0.4057  0.8110
    9TMC3    H113999   3.707   2.614  12.958 -1.8818  3.3075 -2.7679
    9TMC3    H214000   3.803   2.245  12.809  0.2626  0.2194  1.5715
    9TMC3    C714001   3.783   2.388  13.025  1.3279 -0.7327 -0.2606
    9TMC3    C814002   3.716   2.275  12.564  0.1035  0.0282  0.2875
    9TMC3    O114003   3.858   2.455  13.096  0.0305  0.0858 -0.1023
    9TMC3    O214004   3.731   2.310  12.446 -0.1620  1.0284  0.6901
   10MPD2     C14005   3.687   1.769  12.482  0.2896 -0.0110  0.3484
   10MPD2    C114006   3.673   1.801  12.616  0.0027  0.0942 -0.2025
   10MPD2    C214007   3.664   1.929  12.651 -0.5819  0.1394  1.1156
   10MPD2    C314008   3.673   2.029  12.557  0.6846  0.9086  0.2301
   10MPD2    C414009   3.699   1.998  12.424 -0.1811  0.7247  0.4690
   10MPD2    C514010   3.699   1.862  12.386  0.0022  0.3270  0.2413
   10MPD2     H14011   3.657   1.954  12.757 -2.5450  1.9584  0.5589
   10MPD2    H114012   3.710   2.070  12.344 -2.1136  1.2936  0.7025
   10MPD2    H214013   3.710   1.667  12.454  0.6041  0.7323 -2.0833
   10MPD2    H314014   3.709   1.833  12.282  1.3264  0.0507  0.4446
   10MPD2     N14015   3.680   2.158  12.624 -0.3234  0.2438 -0.4769
   10MPD2    H514016   3.658   2.165  12.723  1.8523  2.1124 -0.1225
   10MPD2    N114017   3.651   1.707  12.722 -0.6306  0.8146  0.6349
   10MPD2    H714018   3.608   1.748  12.803  0.3692  3.6004 -0.2521
   11MPD2     C14019   0.479   0.565  13.521 -0.0363 -0.4264 -0.6702
   11MPD2    C114020   0.361   0.577  13.586 -0.6538  0.4871 -0.1952
   11MPD2    C214021   0.261   0.658  13.538  0.7254 -0.3192  0.1145
   11MPD2    C314022   0.273   0.716  13.416  0.0917  0.0391  0.0500
   11MPD2    C414023   0.395   0.704  13.354 -0.7123  0.3553  0.0070
   11MPD2    C514024   0.501   0.632  13.401 -0.3658 -0.3041  0.3217
   11MPD2     H14025   0.175   0.667  13.604  0.2078  1.4456 -0.8121
   11MPD2    H114026   0.400   0.755  13.258  0.2593 -0.0923 -0.1828
   11MPD2    H214027   0.553   0.493  13.555 -0.9366 -1.2727 -0.4888
   11MPD2    H314028   0.590   0.619  13.340 -0.7393  0.1424 -0.3114
   11MPD2     N14029   0.173   0.794  13.352 -0.3878  0.5595 -0.2506
   11MPD2    H514030   0.191   0.838  13.262 -0.6294  1.7825  0.2896
   11MPD2    N114031   0.344   0.520  13.714 -0.4848 -0.8560  0.4336
   11MPD2    H714032   0.252   0.533  13.755  0.2629  0.2193  1.7746
    1MPD1     C14033   2.153   2.343  16.989  0.4433  0.2378  0.3768
    1MPD1    C114034   2.068   2.254  16.932 -0.2838 -0.9766 -0.6053
    1MPD1    C214035   2.098   2.202  16.803  0.0093 -0.2657  0.4663
    1MPD1    C314036   2.226   2.222  16.746 -0.3572  0.1700 -0.7209
    1MPD1    C414037   2.318   2.309  16.812  0.5551  0.5804  0.2247
    1MPD1    C514038   2.272   2.375  16.924  0.2124 -0.9603  0.6294
    1MPD1     H14039   2.022   2.147  16.750  1.3111 -1.3823 -0.2537
    1MPD1    H114040   2.406   2.351  16.764  1.2161  0.7502  1.5588
    1MPD1    H214041   2.133   2.391  17.083 -0.6743 -0.2940  0.4116
    1MPD1    H314042   2.327   2.453  16.975  2.0270 -0.2328 -2.4529
    1MPD1     N14043   2.266   2.174  16.623 -0.3555 -0.5687 -0.5736
    1MPD1    H514044   2.359   2.200  16.594 -0.6320 -1.2968 -2.1252
    1MPD1    N114045   1.946   2.235  16.992 -0.2731 -0.3760  0.2516
    1MPD1    H614046   1.902   2.145  16.975  0.4942 -0.6803 -0.1513
    1MPD1    H714047   1.969   2.238  17.091  0.3954 -0.5412  0.1018
    2MPD1     C14048   3.037   2.245  16.390  0.3944 -0.5383  0.3780
    2MPD1    C114049   2.996   2.124  16.448 -0.8709 -0.4936  0.3928
    2MPD1    C214050   2.873   2.078  16.406 -0.0963  0.4095 -0.1353
    2MPD1    C314051   2.791   2.152  16.331 -0.1602 -0.7643  0.2871
    2MPD1    C414052   2.831   2.274  16.285 -0.5312  0.0010  0.4507
    2MPD1    C514053   2.957   2.323  16.319  0.2905 -0.3562 -0.3556
    2MPD1     H14054   2.836   1.981  16.437  2.4489 -1.1265 -1.8546
    2MPD1    H114055   2.772   2.359  16.250 -1.6764 -0.8456  0.3205
    2MPD1    H214056   3.140   2.272  16.408 -0.1726  1.5242  0.5702
    2MPD1    H314057   2.993   2.419  16.285 -1.2136  0.0142 -0.8792
    2MPD1     N14058   2.661   2.101  16.316  0.0256  0.1519 -0.0315
    2MPD1    H514059   2.636   2.017  16.367 -2.6363  0.4976 -0.7641
    2MPD1    N114060   3.091   2.037  16.504  0.5182  0.6204 -0.1888
    2MPD1    H614061   3.058   1.968  16.571  2.5000 -0.1853 -0.0188
    2MPD1    H714062   3.173   2.083  16.544  1.9108 -2.8442  0.9621
    3TMC3    C114063   2.428   2.082  16.244 -0.0168  0.7305 -0.1106
    3TMC3    C214064   2.343   2.086  16.139  0.3015 -0.1748  0.2902
    3TMC3    C314065   2.214   2.049  16.172  0.4046 -0.5419 -0.2754
    3TMC3    C414066   2.384   2.077  16.374  0.1048  0.1581  0.4633
    3TMC3    C514067   2.249   2.071  16.405 -0.6350 -0.2174  0.0663
    3TMC3    C614068   2.160   2.048  16.298  0.2852 -0.3011 -0.2428
    3TMC3     C14069   2.568   2.132  16.216 -0.5695  0.1671  0.3270
    3TMC3     O14070   2.586   2.222  16.139  0.2432 -0.2578 -0.0729
    3TMC3     H14071   2.380   2.080  16.038  0.3056 -2.0409  0.4085
    3TMC3    H114072   2.457   2.076  16.453  0.6308  1.7196  0.0080
    3TMC3    H214073   2.054   2.049  16.316  0.2700 -0.5143 -0.3110
    3TMC3    C714074   2.194   2.091  16.538 -0.9380 -0.3862  0.0537
    3TMC3    C814075   2.116   2.007  16.067 -0.6731  0.1574 -0.3518
    3TMC3    O114076   2.086   2.037  16.559 -0.3526  0.4279 -0.0639
    3TMC3    O214077   2.002   1.979  16.096 -0.2051  0.1696  0.0573
    4MPD1     C14078   2.033   1.862  15.577 -0.0050  0.1894 -0.0024
    4MPD1    C114079   2.139   1.949  15.581  0.4116  0.0964 -0.7072
    4MPD1    C214080   2.195   1.980  15.706  0.1169 -0.3225 -0.4573
    4MPD1    C314081   2.130   1.946  15.822 -0.0634 -0.2905 -0.1164
    4MPD1    C414082   2.012   1.872  15.813 -0.1294 -0.1328  1.4378
    4MPD1    C514083   1.971   1.825  15.692 -0.5218  0.6062 -0.4571
    4MPD1     H14084   2.282   2.045  15.705 -1.0624  1.2719  1.8052
    4MPD1    H114085   1.959   1.839  15.902 -0.1058  0.9686  1.8561
    4MPD1    H214086   1.993   1.818  15.486  0.8227 -0.8188  0.1196
    4MPD1    H314087   1.887   1.757  15.684 -1.9644  2.3037  0.4435
    4MPD1     N14088   2.175   2.005  15.944 -0.0646 -0.1218  0.1683
    4MPD1    H514089   2.269   2.043  15.949  0.0631 -0.2757 -1.1635
    4MPD1    N114090   2.209   1.977  15.458  0.3048 -0.3020 -0.0833
    4MPD1    H614091   2.277   2.052  15.456  1.5326 -1.4113  0.5366
    4MPD1    H714092   2.139   1.990  15.385 -0.7951 -2.7339  0.5150
    1TCq1    O114093   0.095   1.432  11.286  0.0173 -0.5434 -0.0115
    1TCq1    C114094   0.017   1.451  11.398  0.2111  0.5695 -0.6255
    1TCq1    O214095   0.062   1.512  11.495 -0.3719 -0.3912 -0.2629
    1TCq1    C214096   4.616   1.474  11.335 -0.2932  0.9686 -0.5558
    1TCq1    C314097   4.587   1.405  11.223 -0.3957  0.2268 -0.4821
    1TCq1    C414098   4.490   1.453  11.141 -0.3678  0.3242 -0.0792
    1TCq1    C514099   4.397   1.538  11.193  0.8211 -0.0368 -0.2176
    1TCq1    C614100   4.424   1.606  11.313 -0.3383 -0.1033 -0.3137
    1TCq1    C714101   4.538   1.577  11.388  0.9923 -0.0664  0.0555
    1TCq1    C814102   4.311   1.663  11.385 -0.3295 -0.2188 -0.1012
    1TCq1    O414103   4.207   1.623  11.335 -0.1531 -0.0777 -0.3925
    1TCq1    C914104   4.439   1.355  11.042  0.1814 -0.2346 -0.0958
    1TCq1    O514105   4.360   1.391  10.946  0.1856  0.0169 -0.4122
    1TCq1    O614106   4.479   1.236  11.059 -0.2410 -0.0522  0.1290
    1TCq1    H114107   0.042   1.426  11.204 -0.9727 -1.0648  0.6739
    1TCq1    H214108   4.648   1.321  11.190  1.3223  0.4773  2.0796
    1TCq1    H314109   4.304   1.546  11.139  1.0675 -2.0508 -0.9177
    1TCq1    H414110   4.555   1.624  11.484 -0.8440  0.0741  0.3084
    2MPD1     C14111   4.072   1.907  11.765  0.1785  0.5116  0.3816
    2MPD1    C114112   4.192   1.972  11.754 -0.0928  0.1545 -0.8133
    2MPD1    C214113   4.277   1.912  11.660  0.7652 -0.0660 -0.1228
    2MPD1    C314114   4.245   1.807  11.573  0.1754 -0.3984  0.1326
    2MPD1    C414115   4.113   1.758  11.582 -0.0864  0.0950  0.1266
    2MPD1    C514116   4.037   1.803  11.685 -1.2316  0.5554  0.5137
    2MPD1     H14117   4.376   1.954  11.649  1.6328 -2.0473  0.1733
    2MPD1    H114118   4.072   1.674  11.526 -1.6854  1.4954 -0.8030
    2MPD1    H214119   4.005   1.957  11.834  1.7092 -2.8045  4.2923
    2MPD1    H314120   3.932   1.777  11.684 -1.3744  1.1305  0.6076
    2MPD1     N14121   4.342   1.741  11.492 -0.1138 -0.4014  0.4028
    2MPD1    H514122   4.438   1.770  11.509  0.3176 -0.8369 -1.3654
    2MPD1    N114123   4.237   2.073  11.839  1.0440  0.6257 -0.2363
    2MPD1    H614124   4.312   2.134  11.806 -1.1065  2.4404 -1.7814
    2MPD1    H714125   4.168   2.133  11.883 -1.4077 -2.0913 -0.3931
    1TMC1    C114126   0.841   1.465  16.748  0.6444  0.4643  0.2016
    1TMC1    C214127   0.811   1.498  16.878  0.0843 -0.4583  0.1754
    1TMC1    C314128   0.672   1.497  16.910  1.0913  0.4042 -0.0771
    1TMC1    C414129   0.747   1.437  16.656  0.0053 -0.0094  0.1963
    1TMC1    C514130   0.618   1.447  16.687 -0.1121  0.1726  0.7516
    1TMC1    C614131   0.575   1.487  16.817  0.6223 -0.0443 -0.5510
    1TMC1     C14132   0.976   1.415  16.715 -0.6942  0.9209 -0.1622
    1TMC1     O14133   0.985   1.347  16.616 -0.3424 -0.2640  0.5878
    1TMC1     H14134   0.882   1.516  16.957 -2.7473  2.2415  2.1039
    1TMC1    H114135   0.775   1.402  16.557  1.7064 -1.3529  1.1494
    1TMC1    H214136   0.472   1.504  16.844  1.3675 -0.4928  2.5219
    1TMC1    C714137   0.540   1.347  16.616  0.7125 -0.0457 -0.1322
    1TMC1    C814138   0.642   1.519  17.050  0.2527 -0.1628  0.2377
    1TMC1    O114139   0.573   1.311  16.504  0.5830  0.1301 -0.1174
    1TMC1    O214140   0.712   1.579  17.130 -0.1153 -0.2022 -0.2231
    1TMC1    O314141   0.417   1.331  16.662 -0.2633 -0.1893 -0.0338
    1TMC1    H314142   0.411   1.350  16.759 -2.5310  1.5623 -0.4896
    1TMC1    O514143   0.528   1.452  17.073 -0.2729  0.2423 -0.3662
    1TMC1    H514144   0.482   1.405  17.000  0.2121 -1.0625  0.1615
    2MPD1     C14145   1.463   1.397  16.823  0.5711  0.0634  0.0614
    2MPD1    C114146   1.396   1.468  16.923  0.2046  0.4570  0.1653
    2MPD1    C214147   1.266   1.476  16.923 -0.0195  0.5848 -0.6099
    2MPD1    C314148   1.190   1.417  16.824 -0.0873 -0.6291  0.0855
    2MPD1    C414149   1.250   1.328  16.739 -0.2144 -0.0631  0.6118
    2MPD1    C514150   1.388   1.314  16.738 -0.1673  0.5429 -0.1544
    2MPD1     H14151   1.220   1.556  16.981 -2.6109  0.8339 -3.0019
    2MPD1    H114152   1.196   1.270  16.665 -0.0541  1.1736 -0.4598
    2MPD1    H214153   1.571   1.395  16.826  0.5972 -0.1556 -1.3439
    2MPD1    H314154   1.434   1.257  16.658  0.0171  0.8544 -0.2754
    2MPD1     N14155   1.062   1.454  16.811 -0.0665  0.0570  0.7936
    2MPD1    H514156   1.026   1.514  16.885 -2.0210  0.5463 -0.5283
    2MPD1    N114157   1.476   1.559  16.999 -0.3589 -0.2449 -0.2401
    2MPD1    H614158   1.567   1.518  17.019  0.3138  1.4782  0.1505
    2MPD1    H714159   1.447   1.583  17.093 -0.1259 -0.3431 -0.1428
    1MPD1     C14160   0.378   1.648  12.259  0.9023 -0.1221 -0.1630
    1MPD1    C114161   0.470   1.694  12.345 -0.4070 -0.0601  0.1623
    1MPD1    C214162   0.601   1.709  12.314  0.5517 -0.1165 -0.4037
    1MPD1    C314163   0.645   1.677  12.189 -0.0770  0.6052 -0.5233
    1MPD1    C414164   0.553   1.621  12.106 -0.3820  0.9935 -1.0555
    1MPD1    C514165   0.420   1.626  12.137 -0.6646 -0.0461 -0.4654
    1MPD1     H14166   0.674   1.736  12.389 -1.0346  1.8171  0.4493
    1MPD1    H114167   0.578   1.605  12.002  0.7687  2.6770 -1.0428
    1MPD1    H214168   0.270   1.654  12.270  0.8139 -3.6368  0.6582
    1MPD1    H314169   0.349   1.604  12.058 -2.0246  0.0188  0.7469
    1MPD1     N14170   0.781   1.707  12.157 -0.2327  0.7425  0.5973
    1MPD1    H514171   0.828   1.760  12.230  2.1094 -0.7848  0.1885
    1MPD1    N114172   0.428   1.730  12.475 -0.5873  0.1767  0.0453
    1MPD1    H614173   0.505   1.721  12.540 -0.1185 -0.8345 -0.6515
    1MPD1    H714174   0.341   1.686  12.505  0.5927 -0.6976  2.1581
    2MPD1     C14175   4.703   1.790  11.150  0.3660  0.6774 -0.0194
    2MPD1    C114176   4.721   1.703  11.038  0.5462  0.3132 -0.0656
    2MPD1    C214177   0.116   1.719  10.976 -0.3621 -0.2438  0.0523
    2MPD1    C314178   0.221   1.773  11.046 -0.8148 -0.5313 -0.8165
    2MPD1    C414179   0.198   1.838  11.163 -0.5043  0.4699 -0.2043
    2MPD1    C514180   0.074   1.854  11.202  0.2070 -0.1526  0.2259
    2MPD1     H14181   0.124   1.689  10.873 -3.5065 -3.2672  0.6792
    2MPD1    H114182   0.264   1.913  11.205 -0.2342 -0.8549  1.7195
    2MPD1    H214183   4.607   1.804  11.198  0.7966 -0.3673  1.1345
    2MPD1    H314184   0.053   1.919  11.286  1.7910 -1.4280  1.6010
    2MPD1     N14185   0.354   1.792  10.990 -0.8294 -0.5758 -0.1359
    2MPD1    H514186   0.427   1.812  11.057 -0.2105 -0.1832 -0.9225
    2MPD1    N114187   4.604   1.671  10.967  0.0452 -0.1346  0.4777
    2MPD1    H614188   4.515   1.666  11.015 -0.5798 -0.1677 -0.6863
    2MPD1    H714189   4.618   1.597  10.898 -2.1307  0.0558 -0.1620
    3MPD1     C14190   1.031   1.442  10.221  0.1356 -0.0782 -0.3935
    3MPD1    C114191   1.058   1.576  10.224 -0.1029  0.4461  0.3675
    3MPD1    C214192   0.989   1.657  10.319 -0.3832 -0.0310 -0.2619
    3MPD1    C314193   0.890   1.607  10.394  0.0012  0.7252  0.2198
    3MPD1    C414194   0.845   1.474  10.378  0.6355 -0.3591  0.3931
    3MPD1    C514195   0.923   1.395  10.297  0.0517  0.3141 -0.3018
    3MPD1     H14196   1.015   1.762  10.327  1.1173 -0.6380  3.1796
    3MPD1    H114197   0.767   1.427  10.437  0.8272 -2.0992 -0.7514
    3MPD1    H214198   1.086   1.372  10.159 -0.1265 -0.5025 -0.1453
    3MPD1    H314199   0.907   1.288  10.302 -0.2994  0.4528  1.7739
    3MPD1     N14200   0.826   1.692  10.488  0.2569  0.0163 -0.0198
    3MPD1    H514201   0.868   1.782  10.507 -1.0437  0.5325  0.3766
    3MPD1    N114202   1.185   1.624  10.185  0.5963 -0.4046  0.1718
    3MPD1    H614203   1.177   1.720  10.155 -2.4929 -1.1527 -1.3232
    3MPD1    H714204   1.230   1.572  10.110  0.4778  0.1338 -0.2623
    4MPD2     C14205   1.322   2.158  12.010  0.2161  0.8714 -0.1438
    4MPD2    C114206   1.341   2.034  11.943 -0.0942 -0.7067 -0.2776
    4MPD2    C214207   1.392   2.034  11.814  0.1971 -0.3348  0.2792
    4MPD2    C314208   1.436   2.153  11.758  0.0302  0.1694  0.3552
    4MPD2    C414209   1.411   2.277  11.817 -0.3403  0.5518  0.0494
    4MPD2    C514210   1.359   2.273  11.943 -0.4697 -0.1843 -0.5783
    4MPD2     H14211   1.402   1.942  11.757 -0.9653  0.3907 -1.0822
    4MPD2    H114212   1.438   2.367  11.764 -1.1971  1.1917  0.7096
    4MPD2    H214213   1.288   2.174  12.112 -0.7313 -0.2298 -0.2756
    4MPD2    H314214   1.353   2.369  11.994 -1.7953 -0.5395 -0.0503
    4MPD2     N14215   1.492   2.143  11.628 -0.0635  0.0022 -0.5719
    4MPD2    H514216   1.498   2.046  11.598 -1.4066 -1.2169  3.0630
    4MPD2    N114217   1.301   1.907  11.997  0.1217 -0.1120  0.3374
    4MPD2    H714218   1.334   1.830  11.940 -0.7313 -0.4749  0.3353
    5TMC3    C114219   1.176   1.757  12.134 -0.5448 -0.3324 -0.2609
    5TMC3    C214220   1.046   1.765  12.119  0.3187 -0.4013  0.2670
    5TMC3    C314221   0.986   1.670  12.045 -0.0138 -0.0509 -0.0339
    5TMC3    C414222   1.252   1.668  12.063 -0.6503  0.0547  0.0523
    5TMC3    C514223   1.190   1.568  11.984 -0.3001  0.6764 -0.4267
    5TMC3    C614224   1.055   1.571  11.972  0.0406 -0.0060  0.2801
    5TMC3     C14225   1.232   1.894  12.116 -0.5042  0.5085 -0.2204
    5TMC3     O14226   1.190   1.982  12.194 -0.0878  0.2262 -0.1472
    5TMC3     H14227   1.002   1.859  12.150 -0.5153 -1.0785  1.1535
    5TMC3    H114228   1.358   1.658  12.086 -0.7678 -1.7715 -0.1989
    5TMC3    H214229   0.997   1.489  11.932 -1.3990 -0.9240  4.2288
    5TMC3    C714230   1.263   1.582  11.859  0.3905  0.0574 -0.1458
    5TMC3    C814231   0.840   1.665  12.042  0.7141  0.2865 -0.7346
    5TMC3    O114232   1.361   1.662  11.865  0.6981 -0.4339 -0.5247
    5TMC3    O214233   0.796   1.599  11.945 -0.1825  0.1962 -0.3735
    6TMC3    C114234   0.515   1.784  10.821  0.9508  0.0493  0.1502
    6TMC3    C214235   0.548   1.736  10.702  0.1675  0.3578  0.3153
    6TMC3    C314236   0.680   1.727  10.672 -1.0508  0.9999  0.0207
    6TMC3    C414237   0.606   1.841  10.906  0.3029  0.3025 -0.4100
    6TMC3    C514238   0.738   1.839  10.865  0.0220 -0.2424 -0.2530
    6TMC3    C614239   0.779   1.770  10.755  0.8245 -0.1085 -0.4103
    6TMC3     C14240   0.378   1.778  10.855 -0.9009  0.3145  0.3034
    6TMC3     O14241   0.309   1.791  10.751  0.6400 -1.0492  0.2915
    6TMC3     H14242   0.473   1.696  10.634 -0.2885  1.7684 -0.0157
    6TMC3    H114243   0.578   1.901  10.991  0.9557 -0.0383  0.0481
    6TMC3    H214244   0.882   1.752  10.726  1.0635  2.2754 -1.0642
    6TMC3    C714245   0.836   1.924  10.925  0.1177  0.0294 -0.0465
    6TMC3    C814246   0.709   1.647  10.557 -0.0966  0.1741  0.8702
    6TMC3    O114247   0.955   1.900  10.909 -0.4830  0.3383  0.7185
    6TMC3    O214248   0.632   1.557  10.531  0.4352  0.3594  0.4312
    7MPD2     C14249   1.270   1.559  11.338 -0.8025  0.5160  0.0653
    7MPD2    C114250   1.339   1.646  11.423  0.5997 -0.7076  0.4964
    7MPD2    C214251   1.316   1.643  11.564  0.2794  0.2347 -0.4931
    7MPD2    C314252   1.240   1.533  11.618 -0.1209  0.8978  0.4302
    7MPD2    C414253   1.186   1.439  11.531 -0.6791 -0.2921 -0.4146
    7MPD2    C514254   1.187   1.468  11.394  0.0121  0.0689  0.1733
    7MPD2     H14255   1.357   1.723  11.624  0.0905 -0.0594  0.0246
    7MPD2    H114256   1.112   1.378  11.582 -0.6788 -0.0582 -0.1342
    7MPD2    H214257   1.275   1.576  11.230  0.3934  2.3039  0.3872
    7MPD2    H314258   1.127   1.409  11.326  1.1671 -0.4835 -0.3663
    7MPD2     N14259   1.196   1.530  11.753  0.4219  0.6418 -0.3626
    7MPD2    H514260   1.132   1.455  11.778  0.8415  0.0755 -0.9952
    7MPD2    N114261   1.430   1.737  11.360 -0.7804 -0.2080 -0.4014
    7MPD2    H714262   1.439   1.728  11.259 -1.3976 -0.0436 -0.4721
    8TMC3    C114263   1.524   1.954  11.333  0.0871 -0.0994  1.2015
    8TMC3    C214264   1.432   1.987  11.235  0.5022  0.3095 -0.7221
    8TMC3    C314265   1.378   2.116  11.237  0.2932 -0.1037 -0.0152
    8TMC3    C414266   1.573   2.051  11.415 -0.3290  0.0497 -0.7617
    8TMC3    C514267   1.523   2.180  11.405  0.4934  0.1043 -0.3751
    8TMC3    C614268   1.430   2.217  11.309  0.0863  0.0638  0.0542
    8TMC3     C14269   1.498   1.841  11.418  0.0424  0.3074 -0.2968
    8TMC3     O14270   1.526   1.864  11.533 -0.3008 -0.2182 -0.2747
    8TMC3     H14271   1.381   1.909  11.180  0.8461  0.3899 -1.1642
    8TMC3    H114272   1.655   2.032  11.484 -0.9970 -0.7335 -0.1843
    8TMC3    H214273   1.398   2.321  11.305 -3.0570 -0.8779  1.0436
    8TMC3    C714274   1.517   2.242  11.538  0.0777  0.2916  0.0479
    8TMC3    C814275   1.260   2.138  11.153 -0.8258  0.0217 -0.0334
    8TMC3    O114276   1.494   2.362  11.540 -0.1180 -0.2416 -0.1924
    8TMC3    O214277   1.246   2.062  11.057 -0.4825 -0.5410  0.4162
    9MPD2     C14278   0.948   2.344  11.193 -0.1356 -0.6748  0.4926
    9MPD2    C114279   1.030   2.234  11.162 -0.4998  0.3618  0.0138
    9MPD2    C214280   0.967   2.131  11.088  0.4252  0.0497  0.0309
    9MPD2    C314281   0.835   2.123  11.067  0.0122 -0.0600  0.2000
    9MPD2    C414282   0.756   2.225  11.115 -0.3929 -0.1358  0.7292
    9MPD2    C514283   0.811   2.334  11.173  0.1462 -0.7376 -0.5059
    9MPD2     H14284   1.023   2.038  11.076 -1.7543 -1.2339 -0.1777
    9MPD2    H114285   0.651   2.249  11.099 -0.9091 -2.7788  0.2689
    9MPD2    H214286   0.995   2.427  11.244  1.9623 -2.3286  1.2627
    9MPD2    H314287   0.753   2.416  11.214 -0.9687 -1.4376 -0.6821
    9MPD2     N14288   0.775   2.020  10.995 -0.3261 -0.5377 -0.5038
    9MPD2    H514289   0.674   2.028  10.982 -0.1526 -1.5991 -2.5381
    9MPD2    N114290   1.165   2.224  11.206  0.6866 -0.1660 -0.5699
    9MPD2    H714291   1.197   2.287  11.279  2.5654 -3.1567  1.2247
    1MPD1     C14292   1.031   1.262  17.232  1.1549  0.1597 -0.0430
    1MPD1    C114293   0.898   1.282  17.224 -0.4923  0.3627  0.0201
    1MPD1    C214294   0.834   1.242  17.110  0.1333 -0.7403 -0.0750
    1MPD1    C314295   0.904   1.195  16.997  0.3803 -0.2729 -0.7305
    1MPD1    C414296   1.038   1.178  17.002 -0.5028 -0.5564 -0.0773
    1MPD1    C514297   1.100   1.221  17.119  0.3747  0.1859 -0.1655
    1MPD1     H14298   0.726   1.236  17.108  0.0990 -0.5978  1.4391
    1MPD1    H114299   1.088   1.131  16.918  1.2225  3.3945 -1.2434
    1MPD1    H214300   1.085   1.274  17.325  0.6312  0.6340  0.1934
    1MPD1    H314301   1.202   1.194  17.145  1.2137  2.6066 -0.9288
    1MPD1     N14302   0.843   1.140  16.882 -0.0252  0.0859 -0.0548
    1MPD1    H514303   0.894   1.086  16.813  2.0046  0.9206  0.8073
    1MPD1    N114304   0.825   1.295  17.341 -0.7215  0.0778 -0.0356
    1MPD1    H614305   0.742   1.350  17.320 -0.4778 -0.3827 -2.2159
    1MPD1    H714306   0.882   1.350  17.405  0.0392 -0.7491  0.0087
    2TMC2    C114307   0.736   1.017  16.510 -0.5163 -0.2570  0.0893
    2TMC2    C214308   0.623   0.939  16.498  0.3021  0.1680 -0.3665
    2TMC2    C314309   0.549   0.930  16.609  0.6971  0.7972  0.5706
    2TMC2    C414310   0.775   1.075  16.627  0.3774 -0.1880  0.0057
    2TMC2    C514311   0.692   1.053  16.733 -0.1689 -0.9940 -0.0800
    2TMC2    C614312   0.573   0.983  16.727  0.5136  0.1244 -0.1839
    2TMC2     C14313   0.853   0.983  16.422 -0.7335  0.1614  0.3635
    2TMC2     O14314   0.947   1.057  16.442  0.1036 -0.4728 -0.4544
    2TMC2     H14315   0.595   0.880  16.411 -0.8853  0.0068  0.1232
    2TMC2    H114316   0.860   1.142  16.626 -0.0864  0.4009  1.1856
    2TMC2    H214317   0.505   0.980  16.810  1.4751  0.6566  0.6252
    2TMC2    C714318   0.708   1.141  16.851 -0.6592 -0.0594 -1.1780
    2TMC2    C814319   0.413   0.881  16.598  0.6670  0.7005  0.3525
    2TMC2    O114320   0.611   1.173  16.920 -0.1943 -0.4085 -0.1910
    2TMC2    O214321   0.379   0.792  16.675  0.1942 -0.2500 -0.4233
    2TMC2    O514322   0.369   0.909  16.472  0.6595  0.3268 -0.2083
    2TMC2    H514323   0.384   0.998  16.433 -1.3582  1.5396  1.8124
    3MPD1     C14324   1.095   0.711  16.072 -0.0099 -0.1828 -0.3029
    3MPD1    C114325   0.983   0.643  16.100 -0.0027 -0.4679 -1.0073
    3MPD1    C214326   0.902   0.694  16.200  0.2024 -0.0008  0.4114
    3MPD1    C314327   0.932   0.818  16.257  0.6044  0.3332 -0.1970
    3MPD1    C414328   1.041   0.889  16.220  0.1619  0.1792 -0.1751
    3MPD1    C514329   1.121   0.833  16.131  0.3645 -0.0045 -0.6672
    3MPD1     H14330   0.813   0.643  16.235 -0.6221  1.8771  1.0085
    3MPD1    H114331   1.063   0.989  16.255  0.0424 -0.6017  2.1219
    3MPD1    H214332   1.177   0.680  16.008 -1.7320 -2.5782 -1.3384
    3MPD1    H314333   1.216   0.884  16.114  0.5380  0.3202  1.3115
    3MPD1     N14334   0.845   0.860  16.360  0.9201 -0.7661  0.7532
    3MPD1    H514335   0.777   0.792  16.392 -0.5678  1.7692  3.0409
    3MPD1    N114336   0.969   0.511  16.049 -0.6405  0.5971 -0.1105
    3MPD1    H614337   1.010   0.500  15.956  1.0065 -1.6203  0.8941
    3MPD1    H714338   0.872   0.480  16.049 -0.2918 -0.4650  1.1587
    1TMC1    C114339   3.314   4.527  12.913  0.4831 -0.6450  0.1714
    1TMC1    C214340   3.288   4.476  13.045  0.3707 -0.4627  0.3614
    1TMC1    C314341   3.157   4.429  13.071 -0.0016  0.5716 -0.3201
    1TMC1    C414342   3.218   4.505  12.816  0.8028  0.2661  0.0886
    1TMC1    C514343   3.102   4.445  12.848 -0.2749  0.2522  0.4547
    1TMC1    C614344   3.060   4.415  12.974 -0.0206 -0.2145  0.3168
    1TMC1     C14345   3.438   4.576  12.869  0.5797 -0.1430  0.1625
    1TMC1     O14346   3.430   4.627  12.762  0.1264  0.5420 -0.1319
    1TMC1     H14347   3.364   4.494  13.120 -0.6733 -2.6645  1.9419
    1TMC1    H114348   3.234   4.538  12.714  1.9712  1.4477  0.6657
    1TMC1    H214349   2.959   4.388  13.001  0.5268  0.9320  3.5288
    1TMC1    C714350   2.998   4.434  12.748  0.1416  0.1406 -0.6151
    1TMC1    C814351   3.110   4.408  13.212  0.0409  0.6201  0.4855
    1TMC1    O114352   2.898   4.373  12.777 -0.6222 -0.2446 -0.3981
    1TMC1    O214353   2.993   4.416  13.252  0.0187 -0.8153 -0.0341
    1TMC1    O314354   3.002   4.545  12.663  0.4088  0.8765  0.0568
    1TMC1    H314355   3.082   4.599  12.675 -0.0595  1.4103  0.7847
    1TMC1    O514356   3.217   4.352  13.274 -0.7076  0.1319 -0.1314
    1TMC1    H514357   3.308   4.368  13.239  0.0924 -2.5570  0.7304
    2MPD2     C14358   3.740   4.601  12.817  0.7129 -0.1402 -0.2383
    2MPD2    C114359   3.683   4.564  12.933 -0.2689  0.2437  0.4147
    2MPD2    C214360   3.771   4.531  13.037 -0.2185 -0.3759  0.1023
    2MPD2    C314361   3.910   4.519  13.007  0.1738 -0.3530  0.2768
    2MPD2    C414362   3.957   4.548  12.885 -0.3508  0.0064  0.2240
    2MPD2    C514363   3.875   4.603  12.795 -0.1076  0.6384 -0.4926
    2MPD2     H14364   3.734   4.513  13.137 -1.2097 -0.9981 -0.3757
    2MPD2    H114365   4.062   4.540  12.860 -1.2852 -6.4767 -1.6864
    2MPD2    H214366   3.675   4.647  12.744 -0.6225  0.0781  1.1123
    2MPD2    H314367   3.913   4.643  12.701  0.5761  0.6379 -0.2155
    2MPD2     N14368   3.987   4.459  13.112  0.6470 -0.5648  0.0067
    2MPD2    H514369   3.937   4.445  13.199  1.0911  1.0672  0.5216
    2MPD2    N114370   3.542   4.558  12.960  0.4065  0.2208 -0.0038
    2MPD2    H714371   3.517   4.542  13.057 -0.4851 -2.2339 -0.6154
    3TCq1    O114372   4.518   4.341  13.492 -0.3661  0.2689 -0.1037
    3TCq1    C114373   4.486   4.319  13.363  0.0764  0.2409 -0.5474
    3TCq1    O214374   4.561   4.287  13.271  0.1190  0.3260 -0.2068
    3TCq1    C214375   4.342   4.312  13.348  0.5386 -0.6100  0.0457
    3TCq1    C314376   4.252   4.270  13.447  0.2017  0.6176  0.4961
    3TCq1    C414377   4.116   4.269  13.423  0.0145 -0.7883  0.5197
    3TCq1    C514378   4.066   4.294  13.297 -0.3159  0.3111 -0.8446
    3TCq1    C614379   4.163   4.334  13.203 -0.4837 -0.1716  0.2167
    3TCq1    C714380   4.296   4.347  13.224 -0.0296 -0.3301 -0.4034
    3TCq1    C814381   4.108   4.401  13.086  0.3072  0.4124 -0.2174
    3TCq1    O414382   4.179   4.391  12.986 -0.4700  0.0373 -0.2663
    3TCq1    C914383   4.028   4.248  13.533  0.3238 -0.5778 -0.3528
    3TCq1    O514384   3.902   4.226  13.507 -0.2684 -0.5530  0.3180
    3TCq1    O614385   4.074   4.293  13.642  0.5360 -0.3124  0.0969
    3TCq1    H114386   4.445   4.385  13.541  1.0979  2.9005 -0.2901
    3TCq1    H214387   4.285   4.241  13.546 -1.1233  0.4778  0.8961
    3TCq1    H314388   3.959   4.282  13.286 -0.3613 -0.9676  1.0324
    3TCq1    H414389   4.354   4.396  13.146  1.9959 -0.3411  1.0857
    1MPD2     C14390   3.009   0.963  15.372 -0.1085  0.2042  0.6219
    1MPD2    C114391   2.901   0.886  15.355 -0.3747  0.1699  0.2164
    1MPD2    C214392   2.912   0.745  15.370 -0.0780 -0.0769 -0.0986
    1MPD2    C314393   3.031   0.682  15.376 -0.3201 -0.1668  0.1198
    1MPD2    C414394   3.143   0.763  15.386  0.2307  0.1758  0.0008
    1MPD2    C514395   3.132   0.901  15.391 -0.5473  0.8249 -0.6991
    1MPD2     H14396   2.823   0.682  15.369 -0.7668  0.8697  1.5529
    1MPD2    H114397   3.244   0.726  15.401  0.3988 -0.0943 -1.8943
    1MPD2    H214398   3.013   1.071  15.367  3.2466  0.0964  0.5991
    1MPD2    H314399   3.224   0.955  15.408  1.6695 -3.2326  0.1959
    1MPD2     N14400   3.045   0.538  15.382 -0.2102 -0.1107 -0.0602
    1MPD2    H514401   3.139   0.502  15.394 -0.5234  0.1430  3.2277
    1MPD2    N114402   2.778   0.956  15.334  0.5835  0.0470  0.0415
    1MPD2    H714403   2.776   1.057  15.338  1.5853  0.1034 -1.0371
    2TMC3    C114404   2.545   0.967  15.279 -0.6049  0.0930 -0.3771
    2TMC3    C214405   2.422   0.916  15.311 -0.1083 -0.2897  0.4923
    2TMC3    C314406   2.334   0.891  15.212 -0.8004  0.0019  0.5626
    2TMC3    C414407   2.564   1.022  15.153  0.9057 -0.5001 -1.0572
    2TMC3    C514408   2.462   1.010  15.065 -0.4514 -0.1456  0.2167
    2TMC3    C614409   2.343   0.942  15.087 -1.0626 -0.2454 -0.3262
    2TMC3     C14410   2.658   0.886  15.329 -0.3985 -0.5053 -0.2817
    2TMC3     O14411   2.621   0.771  15.357  0.0363 -0.1425  0.0497
    2TMC3     H14412   2.414   0.880  15.413  1.3500  0.2605  0.8095
    2TMC3    H114413   2.667   1.038  15.123  1.1454  1.6246  0.8812
    2TMC3    H214414   2.263   0.934  15.015  0.5276 -2.9114 -1.8309
    2TMC3    C714415   2.482   1.038  14.926  0.5010  0.2962  0.2970
    2TMC3    C814416   2.281   0.752  15.205 -1.0892 -0.1534 -0.3044
    2TMC3    O114417   2.385   1.010  14.859  0.7861 -0.1903 -0.4753
    2TMC3    O214418   2.182   0.734  15.137 -0.5930  0.0374  0.3775
    3TCq1    O114419   3.166   1.911  14.277 -0.3730  0.4803 -0.1759
    3TCq1    C114420   3.042   1.859  14.289  0.6579  0.0954 -0.2319
    3TCq1    O214421   2.955   1.862  14.204  0.4167 -0.3847  0.1109
    3TCq1    C214422   3.034   1.768  14.402  0.6638  0.7506 -0.3711
    3TCq1    C314423   3.110   1.787  14.518  0.6060 -0.3591 -0.1449
    3TCq1    C414424   3.110   1.685  14.609 -0.3365  0.5361  0.1296
    3TCq1    C514425   3.027   1.575  14.602 -0.6377  0.1308  0.8590
    3TCq1    C614426   2.949   1.563  14.485 -0.2672  0.5933  0.4496
    3TCq1    C714427   2.957   1.654  14.385 -0.8167 -0.3121  0.2151
    3TCq1    C814428   2.880   1.431  14.462  0.2354 -0.0826 -0.3861
    3TCq1    O414429   2.830   1.407  14.352 -0.2217  0.9905 -0.2492
    3TCq1    C914430   3.192   1.697  14.732  0.4194 -0.4625 -0.5414
    3TCq1    O514431   3.175   1.610  14.820  0.4192 -0.4403  1.2719
    3TCq1    O614432   3.258   1.801  14.751 -0.2452 -0.1512 -0.6657
    3TCq1    H114433   3.224   1.875  14.347 -0.0960  0.9575 -0.1627
    3TCq1    H214434   3.163   1.881  14.526  0.1218 -0.2582  1.9475
    3TCq1    H314435   3.002   1.517  14.690  0.4973 -0.6203  0.6936
    3TCq1    H414436   2.903   1.639  14.292  0.8770 -0.8701 -0.6770
    4MPD2     C14437   2.736   1.173  14.505  0.6605  0.0852  0.3255
    4MPD2    C114438   2.781   1.253  14.605 -0.7386 -0.1427  0.4442
    4MPD2    C214439   2.740   1.214  14.736  0.1174 -0.0805  0.5536
    4MPD2    C314440   2.645   1.117  14.761 -0.0958 -0.9575  0.5698
    4MPD2    C414441   2.586   1.051  14.652 -0.5435 -0.5208  0.4551
    4MPD2    C514442   2.642   1.078  14.523  0.3647 -0.4800  0.1177
    4MPD2     H14443   2.777   1.270  14.822  0.4543  2.7354 -1.4464
    4MPD2    H114444   2.512   0.974  14.668  0.2241 -0.5957  3.6469
    4MPD2    H214445   2.782   1.170  14.407  2.0282 -1.1478  0.9966
    4MPD2    H314446   2.609   1.030  14.432  2.2954  0.0786 -0.8788
    4MPD2     N14447   2.599   1.100  14.891  0.1388 -0.2566 -0.3497
    4MPD2    H514448   2.658   1.139  14.964 -0.9433  0.6784  0.0348
    4MPD2    N114449   2.867   1.363  14.584  0.1962  0.1540 -0.1949
    4MPD2    H714450   2.900   1.412  14.667 -0.4950  1.6245 -0.7952
    5TMC2    C114451   2.834   0.151  15.292  0.0297  0.4005  0.2879
    5TMC2    C214452   2.860   0.091  15.414  0.2108 -0.7490  0.4658
    5TMC2    C314453   2.954   0.161  15.493 -0.7488  0.5230 -0.0254
    5TMC2    C414454   2.892   0.268  15.259  0.3229  0.3219 -0.1836
    5TMC2    C514455   2.988   0.326  15.334 -0.1184  0.2423  0.8068
    5TMC2    C614456   3.019   0.273  15.453 -0.3793 -0.5246 -0.4868
    5TMC2     C14457   2.694   0.154  15.266 -0.3636  0.1937 -0.1463
    5TMC2     O14458   2.625   0.053  15.265 -0.1810 -0.0634  0.4273
    5TMC2     H14459   2.784   0.029  15.460  1.9277 -2.4074  1.0854
    5TMC2    H114460   2.868   0.299  15.158 -0.8283  1.1119  0.3360
    5TMC2    H214461   3.075   0.341  15.515 -0.1264 -0.9112 -0.2885
    5TMC2    C714462   2.951   0.459  15.338  0.4859  0.2312  0.8311
    5TMC2    C814463   2.981   0.127  15.635  0.5353  0.9838 -0.1024
    5TMC2    O114464   2.835   0.477  15.287 -0.7178 -0.0772 -0.7075
    5TMC2    O214465   3.044   0.194  15.713 -0.1954 -0.2364  0.4859
    5TMC2    O514466   2.934   0.001  15.649 -0.0598  0.6895  0.0324
    5TMC2    H514467   2.908   4.699  15.562  2.6761  2.8643 -1.7092
    6MPD2     C14468   2.291   0.445  15.161 -0.4441  0.6022 -0.1198
    6MPD2    C114469   2.379   0.523  15.242 -0.5119 -0.1752  0.8598
    6MPD2    C214470   2.498   0.457  15.279  0.2604 -0.8006  0.0252
    6MPD2    C314471   2.522   0.330  15.248 -0.2811 -0.0655  0.5538
    6MPD2    C414472   2.435   0.254  15.165 -0.1274  0.4654 -1.0346
    6MPD2    C514473   2.319   0.316  15.129 -0.2350  0.2360  0.4722
    6MPD2     H14474   2.575   0.512  15.332 -0.0754  0.6348 -0.9791
    6MPD2    H114475   2.454   0.151  15.140  2.4452  1.2973 -2.4623
    6MPD2    H214476   2.193   0.478  15.129  0.5281  1.2021 -2.5194
    6MPD2    H314477   2.256   0.247  15.073 -0.6023  1.7939 -1.0304
    6MPD2     N14478   2.650   0.284  15.282  0.0774  0.2539  0.2780
    6MPD2    H514479   2.720   0.355  15.301  0.3469 -0.2830  1.3240
    6MPD2    N114480   2.379   0.664  15.255  0.2483 -0.6878 -1.3814
    6MPD2    H714481   2.468   0.706  15.277 -0.4191 -0.6713  1.2223
  945NH4     N114482   2.499   3.499  16.579 -0.5345  0.0185 -0.0966
  945NH4     H214483   2.462   3.573  16.517  0.5960  0.1572 -0.6115
  945NH4     H314484   2.603   3.494  16.583 -0.5821 -0.6495  0.3148
  945NH4     H414485   2.472   3.404  16.547 -1.0321  0.6867 -1.6417
  945NH4     H514486   2.465   3.503  16.677 -1.2065 -1.0873 -0.2795
  946SOD     NA14487   4.103   1.046  12.032 -0.4213  0.0711  0.0655
  947SOD     NA14488   1.989   4.636  16.402 -0.1301 -0.4316 -0.4205
  948SOD     NA14489   1.816   4.715  12.895  0.1476 -0.0985 -0.0255
  949SOD     NA14490   4.609   3.567  16.737 -0.0401  0.0452  0.3186
  950SOD     NA14491   3.217   0.609   8.631  0.1105  0.5280 -0.0543
  951SOD     NA14492   0.481   3.870   8.095 -0.3106  0.0492 -0.0038
  952SOD     NA14493   2.024   3.371   9.014 -0.0456  0.6825  0.6406
  953SOL     OW14494   1.620   1.241   9.338  0.0251 -0.4993  0.7323
  953SOL    HW114495   1.529   1.223   9.313  1.1945 -1.4715 -2.8593
  953SOL    HW214496   1.672   1.163   9.319  0.4837 -0.6053  2.4426
  954SOL     OW14497   2.335   0.947   2.422  0.6565  0.0846  0.3385
  954SOL    HW114498   2.375   0.993   2.496 -1.5433  1.7931  0.4568
  954SOL    HW214499   2.381   0.976   2.343  1.3250  2.0829  1.4512
  955SOL     OW14500   2.054   3.634   6.070 -0.1266 -0.1362  0.1834
  955SOL    HW114501   2.098   3.549   6.079  1.0688  0.3968 -0.5845
  955SOL    HW214502   1.986   3.629   6.138 -0.0158  1.3265  0.3942
  956SOL     OW14503   3.232   1.201   9.589 -0.1786 -0.3817  0.1406
  956SOL    HW114504   3.291   1.150   9.644  1.2466  0.0111 -1.0454
  956SOL    HW214505   3.291   1.233   9.522 -0.1808 -0.7173 -0.0209
  957SOL     OW14506   0.435   1.989   2.938  0.1350  0.6267  0.0161
  957SOL    HW114507   0.430   1.895   2.917  2.4974  0.4551  0.2237
  957SOL    HW214508   0.358   2.001   2.995 -0.8190 -2.0632 -0.7021
  958SOL     OW14509   1.980   2.711   3.442  0.1634  0.0492 -0.3178
  958SOL    HW114510   1.967   2.616   3.442  1.9436 -0.1827  1.3200
  958SOL    HW214511   1.992   2.729   3.535 -4.6338  1.2756  0.0475
  959SOL     OW14512   1.374   0.185   3.172  0.1974  0.3282 -0.0240
  959SOL    HW114513   1.340   0.222   3.091 -0.1631  0.2595  0.0951
  959SOL    HW214514   1.305   0.212   3.233 -2.7517 -0.8260 -2.8254
  960SOL     OW14515   3.643   1.083   7.243  0.4415 -0.0581 -0.4428
  960SOL    HW114516   3.554   1.050   7.237  0.1469  0.9142 -1.3645
  960SOL    HW214517   3.635   1.159   7.301  0.4888  0.8404 -1.6317
  961SOL     OW14518   1.283   1.106  13.143 -0.2761  0.3649  0.5907
  961SOL    HW114519   1.286   1.033  13.082  1.8819  2.4159 -1.7102
  961SOL    HW214520   1.188   1.122  13.147 -0.1882  0.8144  0.8552
  962SOL     OW14521   4.016   4.615  14.053  0.5124 -0.5684 -0.5388
  962SOL    HW114522   4.037   4.595  13.962 -3.1937  0.4445 -1.6443
  962SOL    HW214523   3.931   4.657  14.039  0.3887  0.0085  1.8362
  963SOL     OW14524   4.591   3.194   4.964  0.5684  0.2882  0.5499
  963SOL    HW114525   4.570   3.273   4.913 -0.2270  0.8293  1.7114
  963SOL    HW214526   4.589   3.220   5.056 -1.1889  1.3556  0.2176
  964SOL     OW14527   1.131   0.705   2.745 -0.1346  0.2973 -0.0871
  964SOL    HW114528   1.161   0.783   2.791  1.2090  0.2802 -0.9199
  964SOL    HW214529   1.212   0.655   2.757 -1.1371 -1.1031  0.9216
  965SOL     OW14530   4.204   0.648   0.830 -0.5814 -0.2352  0.3477
  965SOL    HW114531   4.131   0.639   0.892  0.0014  0.7763  1.1706
  965SOL    HW214532   4.270   0.680   0.891 -0.7168 -0.1829  0.4679
  966SOL     OW14533   0.798   0.137   6.387  0.7343 -0.0972 -0.9330
  966SOL    HW114534   0.886   0.111   6.416  1.2857  1.6740 -1.0416
  966SOL    HW214535   0.740   0.070   6.424 -0.8219  1.5683 -0.3493
  967SOL     OW14536   1.115   3.149   5.482 -0.2003 -0.7937 -0.1686
  967SOL    HW114537   1.048   3.112   5.540 -1.5667 -2.5564 -2.8628
  967SOL    HW214538   1.091   3.241   5.472  1.8163 -0.3247 -0.6106
  968SOL     OW14539   4.294   1.003   7.710  0.1044  0.2600  0.2515
  968SOL    HW114540   4.285   0.992   7.615  0.6914 -1.0545  0.3531
  968SOL    HW214541   4.208   1.018   7.748  0.4111 -0.5490  1.2862
  969SOL     OW14542   3.263   4.662   1.890  0.0161 -0.5078  0.5143
  969SOL    HW114543   3.268   4.628   1.801  3.5069  0.4937  0.3134
  969SOL    HW214544   3.345   4.627   1.926  0.6746  0.0534 -0.4523
  970SOL     OW14545   1.695   2.232   4.845  0.0985 -0.1738  0.3508
  970SOL    HW114546   1.610   2.278   4.848  0.1366  0.0608 -2.5593
  970SOL    HW214547   1.671   2.156   4.792  0.0395 -0.4332  0.7471
  971SOL     OW14548   2.471   0.631   6.565  0.1441 -0.5464  0.0215
  971SOL    HW114549   2.451   0.714   6.522 -1.4112 -0.0907  1.6309
  971SOL    HW214550   2.564   0.624   6.541 -0.1332  1.1137 -1.5981
  972SOL     OW14551   0.722   2.497  13.818  0.1537 -0.4182  0.0598
  972SOL    HW114552   0.800   2.531  13.860  0.3911  1.9433 -2.3382
  972SOL    HW214553   0.655   2.548  13.864  0.4560  1.4151 -1.5311
  973SOL     OW14554   3.463   4.712   5.549 -0.0620 -0.1330 -0.2235
  973SOL    HW114555   3.427   4.727   5.637 -0.4361 -0.8647 -0.2529
  973SOL    HW214556   3.487   0.067   5.528 -1.5078  0.0841 -0.9748
  974SOL     OW14557   0.548   1.431   8.690  0.1797  0.3385  0.2089
  974SOL    HW114558   0.505   1.508   8.652  0.2312 -0.1601 -0.8506
  974SOL    HW214559   0.543   1.367   8.620 -0.0572  1.4404 -0.7781
  975SOL     OW14560   0.948   1.010   3.310  0.1456 -0.7432  0.1315
  975SOL    HW114561   0.944   0.962   3.393 -1.2128  0.1018  0.5566
  975SOL    HW214562   0.905   1.093   3.331 -1.1392 -1.2828 -0.3568
  976SOL     OW14563   2.667   4.470  10.971 -0.4351 -0.3254 -0.0880
  976SOL    HW114564   2.640   4.553  10.930  1.8934  0.3907 -0.1649
  976SOL    HW214565   2.659   4.410  10.896 -0.1542 -0.3798 -0.0755
  977SOL     OW14566   3.589   3.206   0.138 -0.0726  0.3405 -0.4726
  977SOL    HW114567   3.523   3.169   0.079  0.7089 -1.1935 -0.3761
  977SOL    HW214568   3.612   3.291   0.102  3.0519 -0.2692  0.1222
  978SOL     OW14569   1.258   4.435   4.510  1.0626  0.5211  0.2341
  978SOL    HW114570   1.187   4.475   4.560  0.6248  1.1346 -0.8871
  978SOL    HW214571   1.331   4.433   4.572  0.8636 -2.3231  0.3502
  979SOL     OW14572   3.065   1.898   3.620 -0.0950 -0.0312 -0.4676
  979SOL    HW114573   3.069   1.978   3.672  2.2334 -0.6175  0.2537
  979SOL    HW214574   3.000   1.840   3.659 -1.6031  1.5796 -0.6162
  980SOL     OW14575   2.039   1.010  13.733  0.0306  0.1286  0.4578
  980SOL    HW114576   2.049   1.065  13.655  0.2278 -0.0095  0.3873
  980SOL    HW214577   2.031   1.074  13.804 -0.7164 -0.5883  1.0178
  981SOL     OW14578   2.692   1.446  13.930 -0.4704  0.2997 -0.4693
  981SOL    HW114579   2.740   1.512  13.879 -3.1762  1.0448 -2.0831
  981SOL    HW214580   2.661   1.498  14.004 -2.7121  1.5385 -2.2791
  982SOL     OW14581   0.376   2.234   7.189 -0.3702  0.1587  0.0422
  982SOL    HW114582   0.364   2.308   7.129 -1.4712 -0.3805 -0.3889
  982SOL    HW214583   0.404   2.279   7.269  0.6819 -1.2678  0.4811
  983SOL     OW14584   1.351   3.430  12.902 -0.2626  0.6999  0.0553
  983SOL    HW114585   1.371   3.501  12.841 -0.6887  1.1363  0.4165
  983SOL    HW214586   1.350   3.352  12.847  1.2925  1.3961 -0.9488
  984SOL     OW14587   2.314   2.879   1.268  0.1685 -0.1164 -0.1267
  984SOL    HW114588   2.378   2.949   1.257  0.6396 -0.5093  0.1379
  984SOL    HW214589   2.238   2.921   1.307 -1.3176 -2.5122 -0.4143
  985SOL     OW14590   4.553   1.751   9.558 -0.0645 -0.8035  0.0122
  985SOL    HW114591   4.592   1.680   9.610  0.7522 -0.6262 -0.3712
  985SOL    HW214592   4.599   1.724   9.479  0.0654 -1.5346  0.3361
  986SOL     OW14593   2.473   1.837   8.185 -0.1965 -0.4188 -0.8127
  986SOL    HW114594   2.543   1.831   8.251 -1.4716 -1.1643  0.4887
  986SOL    HW214595   2.452   1.743   8.185 -1.9882 -0.0149 -2.0545
  987SOL     OW14596   1.219   1.264   7.384 -0.4360 -0.5419 -0.0659
  987SOL    HW114597   1.278   1.269   7.459 -0.1129 -1.0126 -0.2873
  987SOL    HW214598   1.198   1.357   7.380  1.9993 -0.0207 -1.1266
  988SOL     OW14599   3.657   4.709   9.054  0.4837  0.1826 -0.2924
  988SOL    HW114600   3.583   4.676   9.104  2.8786 -2.9378  1.2274
  988SOL    HW214601   3.717   0.006   9.121 -0.3935  0.1527  0.5118
  989SOL     OW14602   3.761   4.705   2.069 -0.6345  0.3468 -0.1433
  989SOL    HW114603   3.707   4.670   2.140  1.5593  0.2982  1.5050
  989SOL    HW214604   3.850   4.677   2.090 -1.2559 -1.3437  0.2592
  990SOL     OW14605   1.741   2.268   9.517 -0.4094  0.0347  0.0866
  990SOL    HW114606   1.808   2.336   9.516 -1.9212  1.5206  1.5061
  990SOL    HW214607   1.726   2.258   9.423  1.8821 -0.4400 -0.2409
  991SOL     OW14608   0.626   2.167   3.025  0.1975  0.5641 -0.2392
  991SOL    HW114609   0.589   2.079   3.014 -1.6274  1.4733 -1.4560
  991SOL    HW214610   0.637   2.193   2.933 -0.6580 -0.0401 -0.5219
  992SOL     OW14611   0.685   0.223  14.867 -0.2532 -0.0619 -0.1239
  992SOL    HW114612   0.592   0.201  14.872 -1.0432  3.2313 -0.1780
  992SOL    HW214613   0.686   0.262  14.780 -0.3630 -0.4382 -0.2918
  993SOL     OW14614   0.410   2.241  16.012 -0.1525 -0.3911 -0.0655
  993SOL    HW114615   0.372   2.317  16.057 -0.6565 -1.5785  1.5141
  993SOL    HW214616   0.420   2.184  16.088 -1.5949 -3.0043 -1.8221
  994SOL     OW14617   4.247   4.694   4.203  0.1910 -0.2571 -0.2594
  994SOL    HW114618   4.335   4.658   4.191 -0.0576 -1.2855  0.9187
  994SOL    HW214619   4.263   0.045   4.165 -1.3151 -0.4605 -1.3632
  995SOL     OW14620   4.282   2.087  16.462 -0.4835  0.0143  0.2701
  995SOL    HW114621   4.372   2.108  16.487 -0.2356 -0.4661 -0.2192
  995SOL    HW214622   4.269   1.993  16.474  1.9123 -0.3356  0.1078
  996SOL     OW14623   2.451   0.506  11.085 -0.1529 -0.3336  0.2807
  996SOL    HW114624   2.518   0.573  11.094 -0.8580  0.5853 -1.2608
  996SOL    HW214625   2.372   0.560  11.090  0.2312 -0.1923  5.1461
  997SOL     OW14626   1.872   4.166  17.692  0.7984  0.0767 -0.0575
  997SOL    HW114627   1.850   4.138   0.042  1.0663 -0.4282 -0.1566
  997SOL    HW214628   1.794   4.129  17.652  0.6179 -1.5282  1.7686
  998SOL     OW14629   2.814   0.567   1.275 -0.2672  0.2305  0.2235
  998SOL    HW114630   2.907   0.548   1.262 -0.5015 -1.5868  1.2497
  998SOL    HW214631   2.777   0.480   1.267  0.1061  0.2102 -1.2883
  999SOL     OW14632   1.601   0.544   3.221  0.3622 -0.0627 -0.0460
  999SOL    HW114633   1.542   0.529   3.295 -0.1609 -1.9470 -0.8311
  999SOL    HW214634   1.616   0.637   3.235  0.0583  0.1651 -1.2156
 1000SOL     OW14635   1.180   0.994   4.754  0.3663 -0.2250  0.7736
 1000SOL    HW114636   1.111   1.061   4.757 -0.1557 -0.6219 -2.8057
 1000SOL    HW214637   1.246   1.030   4.813  0.0150  0.5919  0.6766
 1001SOL     OW14638   1.639   3.311   2.343 -0.6189 -0.1387 -0.2896
 1001SOL    HW114639   1.594   3.343   2.264 -2.2170 -0.8303  0.3308
 1001SOL    HW214640   1.651   3.220   2.314 -0.4232  0.0144 -0.6948
 1002SOL     OW14641   3.063   4.697   3.338  0.4553  0.1254  0.4522
 1002SOL    HW114642   3.118   4.627   3.302 -0.3455  0.1924 -0.9161
 1002SOL    HW214643   3.026   0.000   3.259  0.8019 -0.5770 -0.0480
 1003SOL     OW14644   4.555   2.873   2.676 -0.1310 -0.0576  0.0594
 1003SOL    HW114645   4.584   2.810   2.610 -1.2675 -0.9466  0.4173
 1003SOL    HW214646   4.530   2.815   2.748 -2.3260  2.0057  0.9735
 1004SOL     OW14647   0.813   4.138   0.242 -0.1486 -0.4261  0.7002
 1004SOL    HW114648   0.880   4.070   0.252 -0.3821 -0.9178 -1.1748
 1004SOL    HW214649   0.746   4.105   0.183  1.7548 -3.0658  0.0263
 1005SOL     OW14650   1.890   0.181   5.423 -0.5130 -0.2643  0.4234
 1005SOL    HW114651   1.972   0.164   5.375  0.2919  0.3742  1.5930
 1005SOL    HW214652   1.824   0.128   5.377  1.9591 -1.7556 -1.4673
 1006SOL     OW14653   0.518   3.510   6.301  0.0532  0.1486  0.6134
 1006SOL    HW114654   0.468   3.578   6.257  0.4124 -1.2874 -2.0605
 1006SOL    HW214655   0.471   3.512   6.384 -0.1573 -0.5762  0.5150
 1007SOL     OW14656   4.145   3.133   6.430  0.3364  0.3707 -0.0115
 1007SOL    HW114657   4.207   3.066   6.402  0.3137  0.3288  0.0373
 1007SOL    HW214658   4.195   3.204   6.389  0.8666  0.7544  1.3029
 1008SOL     OW14659   3.628   1.781   4.253 -0.2357  0.0228 -0.3484
 1008SOL    HW114660   3.589   1.719   4.314 -1.3870  1.6547  0.5704
 1008SOL    HW214661   3.582   1.860   4.280  3.1700  1.7762  0.2309
 1009SOL     OW14662   2.919   0.064  10.220  0.0581 -0.2787  0.4316
 1009SOL    HW114663   2.992   0.122  10.240  1.7957 -2.2520 -0.2333
 1009SOL    HW214664   2.947   0.010  10.146 -0.6351 -0.9301  0.6377
 1010SOL     OW14665   0.309   2.249   6.341  0.4865 -0.5174  0.7062
 1010SOL    HW114666   0.236   2.231   6.281 -1.7284 -0.6637  3.4731
 1010SOL    HW214667   0.370   2.300   6.287  1.6599 -1.8023  0.8306
 1011SOL     OW14668   4.589   3.429  14.671 -0.2426 -0.0470 -0.3027
 1011SOL    HW114669   4.567   3.442  14.764  0.3051 -2.3934  0.1469
 1011SOL    HW214670   4.612   3.337  14.669  0.6858  0.2275 -2.2808
 1012SOL     OW14671   1.281   4.318  11.324 -0.1989 -0.0904 -0.3473
 1012SOL    HW114672   1.287   4.223  11.335  1.4073 -0.1381 -1.7065
 1012SOL    HW214673   1.355   4.345  11.377 -0.1353  1.2940 -1.1513
 1013SOL     OW14674   2.468   2.180   6.977  0.1398  0.3180 -0.2287
 1013SOL    HW114675   2.547   2.136   7.008  0.3841  2.4342  2.2102
 1013SOL    HW214676   2.470   2.267   7.019 -1.5666  0.4692 -0.4710
 1014SOL     OW14677   0.205   0.949   1.862 -0.1287  1.0115  0.3441
 1014SOL    HW114678   0.274   0.909   1.809 -0.6763  1.3721 -0.6358
 1014SOL    HW214679   0.231   0.896   1.938 -1.1603  0.9366  0.6404
 1015SOL     OW14680   2.565   2.943   4.394 -0.6632  0.2534  0.3670
 1015SOL    HW114681   2.492   3.003   4.412 -0.9738 -0.0457  0.0854
 1015SOL    HW214682   2.635   2.995   4.434 -1.4301  2.1557 -0.7345
 1016SOL     OW14683   3.963   3.864  17.209 -0.1049 -0.0072 -0.0035
 1016SOL    HW114684   3.972   3.794  17.145  1.4405  0.2187 -0.0246
 1016SOL    HW214685   4.032   3.851  17.275  0.8894 -1.7584 -1.3951
 1017SOL     OW14686   3.981   0.949   2.774  0.4760 -0.5129 -0.1440
 1017SOL    HW114687   4.046   0.968   2.706 -1.6567 -0.1570 -2.1119
 1017SOL    HW214688   3.900   0.957   2.723  0.4211 -2.6490 -0.3681
 1018SOL     OW14689   2.338   2.598   1.286 -0.0041  0.2369 -0.0738
 1018SOL    HW114690   2.250   2.619   1.254 -0.8525 -3.1766  0.0570
 1018SOL    HW214691   2.354   2.690   1.310 -0.1179 -0.1338  1.4075
 1019SOL     OW14692   4.684   3.893   1.256 -0.4552 -0.1954 -0.5977
 1019SOL    HW114693   4.648   3.975   1.289  2.4813 -0.2017  2.6245
 1019SOL    HW214694   4.646   3.882   1.168  0.2665  0.0392 -0.9327
 1020SOL     OW14695   3.459   1.659   1.878 -0.3165 -0.4570  0.0324
 1020SOL    HW114696   3.486   1.663   1.786  0.8623  2.6638  0.4964
 1020SOL    HW214697   3.425   1.570   1.883  0.9844 -1.0272 -1.1977
 1021SOL     OW14698   3.439   1.950   6.940  0.2464 -0.2098  0.3292
 1021SOL    HW114699   3.490   1.921   6.865 -0.1084  1.1536 -0.4289
 1021SOL    HW214700   3.446   2.045   6.929  2.1626 -0.1657  1.8500
 1022SOL     OW14701   0.390   2.753   5.595 -0.0531 -0.3897  0.4501
 1022SOL    HW114702   0.311   2.797   5.627 -0.3053 -0.8229  0.4179
 1022SOL    HW214703   0.415   2.709   5.676 -0.9877  0.9063  1.4462
 1023SOL     OW14704   2.179   1.592   7.566 -0.3809  0.0396  0.3544
 1023SOL    HW114705   2.111   1.627   7.624 -0.4277  1.8286 -0.7933
 1023SOL    HW214706   2.218   1.530   7.628  2.3523  1.0455 -0.3936
 1024SOL     OW14707   4.539   1.471   6.188  0.1182 -0.3008 -0.3808
 1024SOL    HW114708   4.551   1.563   6.167  1.0912 -0.5336 -0.8337
 1024SOL    HW214709   4.547   1.447   6.096  0.1600 -0.9488 -0.2129
 1025SOL     OW14710   3.069   2.546   0.286  0.3285 -0.1007  0.1515
 1025SOL    HW114711   3.159   2.530   0.315 -0.5490 -1.0429  2.3859
 1025SOL    HW214712   3.088   2.600   0.210  0.5274 -0.6954 -0.2249
 1026SOL     OW14713   3.738   2.518   4.108 -0.2141 -0.0558 -0.6347
 1026SOL    HW114714   3.719   2.603   4.148  0.0212  0.6637 -2.0512
 1026SOL    HW214715   3.827   2.501   4.138 -0.2760 -0.0166 -0.4239
 1027SOL     OW14716   4.222   1.536   2.189  0.8030 -0.1868  0.0282
 1027SOL    HW114717   4.240   1.458   2.136  1.0587  0.3108 -0.6233
 1027SOL    HW214718   4.273   1.602   2.142 -0.7780 -0.8297 -2.6174
 1028SOL     OW14719   2.803   4.200  13.354  0.3977 -0.3496 -0.5040
 1028SOL    HW114720   2.828   4.274  13.298  1.8034  1.6765  2.8218
 1028SOL    HW214721   2.847   4.218  13.437 -2.2591 -2.7652  1.4061
 1029SOL     OW14722   0.489   2.280  12.948  0.3174 -0.5263 -0.4210
 1029SOL    HW114723   0.477   2.275  13.043 -1.5560  0.5547 -0.6134
 1029SOL    HW214724   0.552   2.208  12.939 -0.7336 -1.4528 -0.4017
 1030SOL     OW14725   4.317   1.122  12.402  0.4216  0.1721  0.0928
 1030SOL    HW114726   4.285   1.190  12.462  0.1022  1.0161 -1.0158
 1030SOL    HW214727   4.289   1.039  12.439 -3.2517  0.7894 -1.2693
 1031SOL     OW14728   4.001   1.919   7.309  0.3115 -0.4525  0.0784
 1031SOL    HW114729   4.004   1.871   7.227  1.4260  3.0290 -1.9301
 1031SOL    HW214730   3.917   1.882   7.336  0.4762 -0.3926  0.6732
 1032SOL     OW14731   4.267   2.328   6.099  0.2080 -0.3640 -0.4436
 1032SOL    HW114732   4.358   2.337   6.070  0.7751 -0.4031  1.3176
 1032SOL    HW214733   4.236   2.409   6.060 -1.0371 -0.9316 -0.6374
 1033SOL     OW14734   0.724   0.661   2.254  0.1745 -0.2910 -0.0112
 1033SOL    HW114735   0.770   0.620   2.327  1.1934  3.2412  1.3430
 1033SOL    HW214736   0.708   0.595   2.187  0.0069 -0.7733  0.5055
 1034SOL     OW14737   0.630   1.383  11.805 -0.2952 -0.3968  0.1674
 1034SOL    HW114738   0.689   1.442  11.852 -2.5267  0.9029  1.3773
 1034SOL    HW214739   0.583   1.441  11.746  0.7272 -1.8970 -2.1166
 1035SOL     OW14740   2.188   2.770  17.070  0.4994  0.0573 -0.4490
 1035SOL    HW114741   2.216   2.778  17.161 -0.1209  0.9956 -0.3435
 1035SOL    HW214742   2.273   2.745  17.034  0.4113  0.7463 -1.1392
 1036SOL     OW14743   2.521   4.694   8.537  0.3295  0.6774  0.4324
 1036SOL    HW114744   2.528   4.623   8.473 -0.5293  1.7487 -0.8440
 1036SOL    HW214745   2.463   4.659   8.604 -0.0744 -2.4198 -1.5116
 1037SOL     OW14746   4.400   4.166   8.938 -0.2429  0.1625 -0.5835
 1037SOL    HW114747   4.376   4.083   8.897  1.5917 -0.3282 -0.6525
 1037SOL    HW214748   4.445   4.212   8.866 -1.6327  0.8414 -1.0151
 1038SOL     OW14749   0.379   1.298  16.925 -0.2375 -0.4133 -0.2520
 1038SOL    HW114750   0.453   1.241  16.946 -1.2175 -0.8413  2.0388
 1038SOL    HW214751   0.311   1.232  16.921  0.3307 -1.0706  0.8164
 1039SOL     OW14752   0.635   3.853   4.787  0.1538  0.4243 -0.2104
 1039SOL    HW114753   0.718   3.824   4.824  0.4334  2.4584  0.7281
 1039SOL    HW214754   0.578   3.865   4.864  0.4945  1.1005 -0.0652
 1040SOL     OW14755   0.847   1.737   5.228 -0.3944  0.2841  0.1425
 1040SOL    HW114756   0.759   1.769   5.249 -0.9774 -2.7204  2.3255
 1040SOL    HW214757   0.893   1.819   5.213  0.5612 -0.3843 -0.5648
 1041SOL     OW14758   4.324   1.544  14.834  0.0926 -0.2609 -0.4228
 1041SOL    HW114759   4.341   1.560  14.741  1.1203  0.5200 -0.0929
 1041SOL    HW214760   4.334   1.449  14.847 -2.2197 -0.5610 -0.7499
 1042SOL     OW14761   1.317   3.270  13.565 -0.4797 -0.4708  0.3674
 1042SOL    HW114762   1.252   3.314  13.510 -0.8260  0.1079  1.2513
 1042SOL    HW214763   1.275   3.186  13.584 -0.9549 -0.0205  1.2881
 1043SOL     OW14764   1.760   2.803   7.578 -0.1406 -0.4260 -0.1234
 1043SOL    HW114765   1.726   2.845   7.656 -3.6568 -2.2368 -0.6852
 1043SOL    HW214766   1.684   2.750   7.553 -0.5642  0.1810 -0.1276
 1044SOL     OW14767   2.461   3.478  15.660 -0.8588  0.3685 -0.0588
 1044SOL    HW114768   2.436   3.439  15.743  0.5384 -0.3441  0.0311
 1044SOL    HW214769   2.425   3.422  15.592 -0.6263 -1.2541  1.1636
 1045SOL     OW14770   3.506   4.662   6.362 -0.0338  0.3386  0.2943
 1045SOL    HW114771   3.414   4.641   6.374 -0.1243  0.3749 -0.3434
 1045SOL    HW214772   3.547   4.614   6.435  1.0346  0.6146 -0.1151
 1046SOL     OW14773   4.387   3.900   7.610  0.6766 -0.2515 -0.4124
 1046SOL    HW114774   4.368   3.855   7.693  0.8676  0.4240 -0.0059
 1046SOL    HW214775   4.412   3.987   7.641  0.4470 -1.6469  3.7232
 1047SOL     OW14776   3.799   1.586   0.969 -0.1135 -0.5920  0.3147
 1047SOL    HW114777   3.706   1.569   0.985 -0.9233  2.4405 -0.9987
 1047SOL    HW214778   3.793   1.606   0.876  0.2243 -1.9950  0.0026
 1048SOL     OW14779   1.805   1.499   8.038  0.0015 -0.8009 -0.0368
 1048SOL    HW114780   1.853   1.436   8.091  0.7663  0.8713  1.2635
 1048SOL    HW214781   1.827   1.478   7.948 -0.8868  1.1803 -0.7069
 1049SOL     OW14782   4.289   4.390  13.939  0.2618 -0.3330 -0.0272
 1049SOL    HW114783   4.259   4.301  13.923 -0.5006  0.1372 -1.2325
 1049SOL    HW214784   4.211   4.435  13.905 -0.0831 -1.4583 -0.7380
 1050SOL     OW14785   4.022   0.616   1.246  0.2799 -0.8032  0.9457
 1050SOL    HW114786   4.095   0.677   1.260 -0.9785  0.7168  0.8600
 1050SOL    HW214787   3.951   0.677   1.266  2.5190  2.2099 -0.3272
 1051SOL     OW14788   4.702   2.947   4.536 -0.3673  0.1211 -0.4930
 1051SOL    HW114789   0.010   2.865   4.512 -1.7766 -0.5013 -0.9072
 1051SOL    HW214790   4.639   2.914   4.600  1.0050 -1.2953  0.1130
 1052SOL     OW14791   3.882   0.765   7.657  0.3770  0.1381 -0.3073
 1052SOL    HW114792   3.942   0.781   7.584  1.3452 -1.9732  0.0495
 1052SOL    HW214793   3.872   0.858   7.679  0.6344 -0.2751  1.5465
 1053SOL     OW14794   3.663   3.121   5.729 -0.4788  0.5460 -0.0614
 1053SOL    HW114795   3.665   3.122   5.633  3.0115 -2.4510 -0.0345
 1053SOL    HW214796   3.576   3.150   5.755 -0.0171  0.3281  1.7519
 1054SOL     OW14797   3.434   1.016  17.323 -0.0251  0.3560 -0.5076
 1054SOL    HW114798   3.508   0.955  17.328  1.4135  2.2113  0.7608
 1054SOL    HW214799   3.468   1.094  17.279  0.7785 -0.6592 -1.7133
 1055SOL     OW14800   0.856   0.164   6.824  0.1148  0.0606  0.0323
 1055SOL    HW114801   0.819   0.089   6.778 -0.9336 -1.4533  3.3630
 1055SOL    HW214802   0.905   0.118   6.892  0.7205  1.6183  0.6605
 1056SOL     OW14803   1.946   1.127   8.419 -0.3316 -0.0796  0.5429
 1056SOL    HW114804   2.014   1.193   8.430 -0.0005 -0.2493 -0.5206
 1056SOL    HW214805   1.953   1.079   8.502  0.3820  0.6508  0.9035
 1057SOL     OW14806   0.471   2.169   1.283 -0.4573  0.1210  0.5795
 1057SOL    HW114807   0.529   2.093   1.294 -1.7631 -0.7782  1.2960
 1057SOL    HW214808   0.406   2.125   1.229 -0.7076  1.3912 -0.1517
 1058SOL     OW14809   3.968   1.455   1.111  0.2913  0.4968 -0.5776
 1058SOL    HW114810   4.059   1.482   1.099  0.3181  1.0315  0.8952
 1058SOL    HW214811   3.929   1.504   1.039  0.4944 -0.2796 -1.2151
 1059SOL     OW14812   3.237   2.764   4.315 -0.0247 -0.9183 -0.2152
 1059SOL    HW114813   3.167   2.764   4.380 -1.5547 -1.7828 -1.8830
 1059SOL    HW214814   3.213   2.705   4.243  1.1055 -0.5004 -0.9433
 1060SOL     OW14815   1.320   0.487  16.484  0.2602 -0.4208  0.4401
 1060SOL    HW114816   1.290   0.575  16.507  0.8556  0.2300 -1.2741
 1060SOL    HW214817   1.408   0.511  16.454 -0.1529  0.2135 -0.2484
 1061SOL     OW14818   1.124   4.632  10.393  0.6067 -0.3783  0.1729
 1061SOL    HW114819   1.135   4.709  10.449  0.4608  0.1032 -0.4545
 1061SOL    HW214820   1.209   4.628  10.349  0.6160  0.1692  0.1431
 1062SOL     OW14821   4.176   2.158   8.315 -0.3599 -0.0271  0.1470
 1062SOL    HW114822   4.197   2.248   8.341 -1.9888 -0.3681  2.5480
 1062SOL    HW214823   4.082   2.149   8.328 -0.2698 -0.2050  0.6678
 1063SOL     OW14824   3.763   0.882  15.470  0.3762  0.2346 -0.7175
 1063SOL    HW114825   3.854   0.856  15.485 -0.4865  0.8767  5.4161
 1063SOL    HW214826   3.780   0.974  15.447  2.2288  0.0906  0.0589
 1064SOL     OW14827   0.000   3.010   8.307 -0.2105 -0.2571 -0.8218
 1064SOL    HW114828   0.085   2.973   8.282 -0.7549 -3.4458  2.0175
 1064SOL    HW214829   4.706   3.039   8.221 -2.2978 -2.2605 -0.7713
 1065SOL     OW14830   0.772   2.341   1.285  0.4214  0.0348  0.5077
 1065SOL    HW114831   0.780   2.372   1.375 -0.4649 -1.6258  1.1561
 1065SOL    HW214832   0.693   2.288   1.282  0.3186  0.3907 -3.4795
 1066SOL     OW14833   1.333   4.516  15.524  0.2606  0.3021  0.6178
 1066SOL    HW114834   1.352   4.508  15.617  1.1521 -2.1477  0.2039
 1066SOL    HW214835   1.333   4.612  15.516 -1.3585  0.2174 -0.4542
 1067SOL     OW14836   3.628   2.128  14.637  0.6487 -0.0060  0.2533
 1067SOL    HW114837   3.556   2.091  14.688  1.6363 -0.6948  1.1404
 1067SOL    HW214838   3.682   2.146  14.714  1.4650 -1.0615 -0.0681
 1068SOL     OW14839   2.189   1.654   0.971  0.5612  0.5684  0.0055
 1068SOL    HW114840   2.185   1.558   0.977 -3.1429  0.7079 -0.2083
 1068SOL    HW214841   2.265   1.675   0.917  0.4139 -0.2219 -0.5034
 1069SOL     OW14842   0.803   1.861  17.708  0.0226  0.0996  0.2002
 1069SOL    HW114843   0.747   1.936  17.728  0.4749  1.2119 -2.6588
 1069SOL    HW214844   0.745   1.834  17.637 -0.2467  1.9509 -0.2825
 1070SOL     OW14845   0.509   2.014   5.801 -0.7381 -0.0742 -0.3707
 1070SOL    HW114846   0.579   1.992   5.862 -0.6336  1.9239  0.2073
 1070SOL    HW214847   0.552   2.014   5.716 -0.6103 -0.0465 -0.3055
 1071SOL     OW14848   3.179   3.209  10.564 -0.1875  0.1724  0.0699
 1071SOL    HW114849   3.224   3.244  10.641 -0.6059 -1.8379  1.2553
 1071SOL    HW214850   3.244   3.155  10.520  0.7248  0.0790  1.5447
 1072SOL     OW14851   1.960   3.276   4.726 -0.5586  0.2604  0.0224
 1072SOL    HW114852   1.910   3.322   4.659  0.4281  1.0097 -0.1802
 1072SOL    HW214853   1.893   3.267   4.794 -1.8552  0.5107 -1.2360
 1073SOL     OW14854   2.530   1.857  13.377  0.3528 -0.1617 -0.0312
 1073SOL    HW114855   2.511   1.792  13.445 -0.8941 -1.2129 -1.3914
 1073SOL    HW214856   2.624   1.847  13.361  0.5022  0.8443  0.2487
 1074SOL     OW14857   3.764   2.004   9.972  0.1248  0.0241 -0.6036
 1074SOL    HW114858   3.796   1.994   9.882  3.1691  1.4306  0.3235
 1074SOL    HW214859   3.824   2.068  10.010 -0.4510  0.7436 -0.8985
 1075SOL     OW14860   2.033   4.151  11.678 -0.3464  0.0380  0.5002
 1075SOL    HW114861   1.944   4.118  11.661  0.1793 -1.1485  0.0680
 1075SOL    HW214862   2.029   4.241  11.647  0.1485  0.1732  0.8406
 1076SOL     OW14863   3.333   1.584  11.377  0.0378  0.2846 -0.4929
 1076SOL    HW114864   3.370   1.663  11.418  2.4780 -1.8047  1.3088
 1076SOL    HW214865   3.305   1.532  11.453  0.0272 -2.5293 -2.4657
 1077SOL     OW14866   3.611   0.427  14.250 -0.1003 -0.2523  0.5210
 1077SOL    HW114867   3.520   0.414  14.277 -0.1111 -0.8457  0.1961
 1077SOL    HW214868   3.622   0.352  14.192 -0.8042 -0.5879  0.8095
 1078SOL     OW14869   1.584   4.365   7.031 -0.0447  0.3810  0.2808
 1078SOL    HW114870   1.498   4.375   6.991  0.4096  0.0135 -0.7864
 1078SOL    HW214871   1.620   4.453   7.023  1.7315 -0.4635 -1.1749
 1079SOL     OW14872   3.377   0.822   5.243 -0.6832 -0.2240 -0.1295
 1079SOL    HW114873   3.302   0.858   5.291 -0.7889 -0.0513 -0.4248
 1079SOL    HW214874   3.433   0.893   5.273 -1.1214  1.1987 -2.6648
 1080SOL     OW14875   0.683   3.229   9.141  0.4410 -0.4532 -0.1214
 1080SOL    HW114876   0.676   3.320   9.111  1.4110  0.5613  2.7581
 1080SOL    HW214877   0.589   3.210   9.148  0.0937  0.9947 -0.8917
 1081SOL     OW14878   1.151   2.782   7.853  0.3252  0.5447 -0.6298
 1081SOL    HW114879   1.155   2.839   7.930 -0.4527  0.3530 -0.4413
 1081SOL    HW214880   1.193   2.705   7.891 -0.7312  0.5524  0.5619
 1082SOL     OW14881   2.674   2.532  11.192  0.1453 -0.1544  0.3503
 1082SOL    HW114882   2.730   2.516  11.117 -0.5915 -0.5225 -0.1123
 1082SOL    HW214883   2.739   2.535  11.263  1.9161  0.3480 -1.3120
 1083SOL     OW14884   0.879   0.045  14.781  0.8350 -0.5977 -0.0348
 1083SOL    HW114885   0.859   4.712  14.845 -0.5257  0.8827  1.1077
 1083SOL    HW214886   0.819   0.117  14.795  0.5325 -1.4984  3.2865
 1084SOL     OW14887   4.718   2.510  11.595  0.2284 -0.8717 -0.1651
 1084SOL    HW114888   4.704   2.463  11.677 -1.5536  1.0369  0.6246
 1084SOL    HW214889   4.727   2.593  11.641  0.2598 -0.0447 -1.6844
 1085SOL     OW14890   1.854   1.633  10.965  0.0730  0.4598 -0.1463
 1085SOL    HW114891   1.854   1.544  11.000  0.9330  1.0305  1.2544
 1085SOL    HW214892   1.769   1.673  10.982 -0.4989 -1.3689  1.3081
 1086SOL     OW14893   2.372   2.083   9.756  0.7919  0.1353  0.5593
 1086SOL    HW114894   2.414   2.123   9.832 -1.2850  0.6161  1.4677
 1086SOL    HW214895   2.409   1.995   9.761  1.6780  0.5299  1.0018
 1087SOL     OW14896   1.145   4.280   3.814  0.2689 -0.1565 -0.1430
 1087SOL    HW114897   1.201   4.209   3.783 -0.9589 -0.4145 -1.7748
 1087SOL    HW214898   1.058   4.254   3.784  0.1878  1.9830 -1.7192
 1088SOL     OW14899   2.743   4.319  17.021 -0.1447  0.3404 -0.3505
 1088SOL    HW114900   2.765   4.301  17.112  0.6313 -0.2967 -0.6686
 1088SOL    HW214901   2.684   4.244  17.013 -0.0255  0.2737 -0.5991
 1089SOL     OW14902   0.313   0.029   3.733 -0.1858  0.1674 -0.4439
 1089SOL    HW114903   0.351   0.116   3.736 -0.5768  0.3011  0.5679
 1089SOL    HW214904   0.384   4.702   3.721 -0.0294  0.3902 -0.6615
 1090SOL     OW14905   2.046   2.621   1.365  0.1661 -0.0913  0.2394
 1090SOL    HW114906   1.965   2.665   1.340 -0.1492 -0.3843  0.7391
 1090SOL    HW214907   2.027   2.530   1.342 -2.0887  0.4268 -0.0253
 1091SOL     OW14908   3.141   1.928   5.803  0.0284  0.1486  0.2082
 1091SOL    HW114909   3.181   1.851   5.844 -1.3631 -0.5577  0.2366
 1091SOL    HW214910   3.157   1.924   5.709  1.6437  0.9086  0.4475
 1092SOL     OW14911   3.200   1.461   0.708  0.0041 -0.3887  0.0623
 1092SOL    HW114912   3.270   1.496   0.653 -0.3260 -0.9418 -0.7055
 1092SOL    HW214913   3.166   1.388   0.656  1.6590 -0.7672 -0.4934
 1093SOL     OW14914   3.987   1.480  12.552  0.1338 -0.4572 -0.4011
 1093SOL    HW114915   4.004   1.572  12.572  2.2125 -0.8895 -0.1160
 1093SOL    HW214916   3.893   1.472  12.569  0.1782 -1.3565 -0.5585
 1094SOL     OW14917   3.169   1.273  10.741 -0.1899  0.1875  0.0380
 1094SOL    HW114918   3.183   1.223  10.661 -0.2559 -1.4995  1.0793
 1094SOL    HW214919   3.250   1.250  10.788 -0.0962 -2.0928 -1.2762
 1095SOL     OW14920   0.037   3.253  10.691 -0.7346  0.2334  0.2506
 1095SOL    HW114921   0.125   3.268  10.725 -0.3207  1.6337 -1.4212
 1095SOL    HW214922   0.015   3.185  10.754 -0.2563  1.7077  1.9839
 1096SOL     OW14923   0.632   3.250  11.377 -0.0936  0.1126  0.1456
 1096SOL    HW114924   0.597   3.316  11.437  1.4394 -0.9975  2.2351
 1096SOL    HW214925   0.549   3.206  11.359 -0.3702  0.5687  0.3204
 1097SOL     OW14926   2.256   3.744   4.233 -1.4865  0.2155 -0.4100
 1097SOL    HW114927   2.244   3.778   4.144  1.1430  1.3412 -0.3470
 1097SOL    HW214928   2.257   3.823   4.287  0.9146  0.0408 -0.2129
 1098SOL     OW14929   2.511   2.323   7.768 -0.1077 -0.1323  0.0963
 1098SOL    HW114930   2.473   2.351   7.851 -0.4284  1.0706 -0.4603
 1098SOL    HW214931   2.446   2.350   7.703  1.5885  2.1363 -0.6639
 1099SOL     OW14932   3.750   0.712   1.308 -0.4835  0.3372 -0.4550
 1099SOL    HW114933   3.664   0.754   1.300  1.0453  3.5694  0.2148
 1099SOL    HW214934   3.722   0.640   1.365 -0.9067  0.9305  0.0824
 1100SOL     OW14935   2.299   4.661   3.643 -0.1132 -0.7812  0.4602
 1100SOL    HW114936   2.226   4.604   3.667  0.1208 -0.7746  1.2091
 1100SOL    HW214937   2.268   4.684   3.556  1.4662  0.4989  0.2525
 1101SOL     OW14938   1.416   1.780   8.904  0.2541  0.1835  0.4845
 1101SOL    HW114939   1.427   1.815   8.992  1.4201 -0.0235  0.4243
 1101SOL    HW214940   1.506   1.756   8.882 -0.3544 -2.0470  0.3795
 1102SOL     OW14941   3.645   2.195  17.193  1.1135 -0.2139  0.2179
 1102SOL    HW114942   3.681   2.194  17.104  0.9425  0.6311  0.1373
 1102SOL    HW214943   3.563   2.241  17.176  0.8566 -0.5212  0.6287
 1103SOL     OW14944   0.543   1.190   0.516  0.5211 -0.0701  0.6093
 1103SOL    HW114945   0.468   1.227   0.563  0.6308 -0.7964  1.3573
 1103SOL    HW214946   0.604   1.263   0.521  1.3240 -0.6714 -0.4193
 1104SOL     OW14947   2.504   3.754  12.805  0.4758  0.3755 -0.0386
 1104SOL    HW114948   2.536   3.844  12.815 -0.2289  0.4106  2.0916
 1104SOL    HW214949   2.422   3.753  12.856  0.4932  2.3056  0.0569
 1105SOL     OW14950   3.290   4.171   7.711 -0.1026  0.6994  0.1259
 1105SOL    HW114951   3.298   4.200   7.620  0.1889 -1.0847 -0.4175
 1105SOL    HW214952   3.198   4.147   7.722  0.2225 -0.8279 -0.5897
 1106SOL     OW14953   4.646   1.413   5.957 -0.2418 -0.0901  0.0608
 1106SOL    HW114954   4.675   1.357   5.884 -1.8882 -1.1821  0.2533
 1106SOL    HW214955   4.732   1.447   5.982  0.1326 -2.6933  2.2821
 1107SOL     OW14956   4.251   2.202   4.404 -0.0243  0.0697 -0.1287
 1107SOL    HW114957   4.314   2.273   4.397  1.1270 -0.8099  1.2590
 1107SOL    HW214958   4.172   2.242   4.440 -1.6462 -2.1254 -1.2392
 1108SOL     OW14959   2.370   1.561   1.774  0.2643 -0.1723  0.0724
 1108SOL    HW114960   2.377   1.515   1.690  1.2831 -0.8190  0.5079
 1108SOL    HW214961   2.327   1.644   1.754  1.7990  1.2913  2.8532
 1109SOL     OW14962   4.512   3.187   8.061 -0.1554  0.6726  0.0772
 1109SOL    HW114963   4.420   3.186   8.033 -0.1929 -0.1967  0.2242
 1109SOL    HW214964   4.505   3.269   8.109 -0.8003  0.4703  0.3340
 1110SOL     OW14965   0.279   4.045   4.714 -0.3386 -0.0995 -0.3458
 1110SOL    HW114966   0.312   3.967   4.670  0.3933 -0.6941  1.2488
 1110SOL    HW214967   0.319   4.109   4.656 -1.3597  0.1176 -0.8166
 1111SOL     OW14968   0.118   0.584   2.621  0.1327  0.3303  0.4162
 1111SOL    HW114969   0.171   0.539   2.686 -0.1831  1.2096  1.2897
 1111SOL    HW214970   0.094   0.516   2.558  3.3230 -0.8066  0.4287
 1112SOL     OW14971   4.093   3.902  15.626 -0.1829  0.3909 -0.1015
 1112SOL    HW114972   4.007   3.915  15.666  0.2020  1.3545  0.4184
 1112SOL    HW214973   4.107   3.983  15.577  1.3468 -0.8978 -1.7808
 1113SOL     OW14974   3.206   4.017   6.179 -0.1592  0.5232  0.1321
 1113SOL    HW114975   3.122   4.024   6.226  0.4586 -1.5861  1.5459
 1113SOL    HW214976   3.206   4.107   6.146  1.4827  1.1626  1.8638
 1114SOL     OW14977   1.695   1.464   4.767 -0.0456  0.0431  0.4458
 1114SOL    HW114978   1.660   1.392   4.714 -0.2184 -0.1603  0.8361
 1114SOL    HW214979   1.692   1.533   4.701 -2.6611 -0.3701  0.1381
 1115SOL     OW14980   2.384   4.528   0.990  0.0065 -0.2492  0.1755
 1115SOL    HW114981   2.455   4.590   0.972  0.1072 -0.2977  0.4109
 1115SOL    HW214982   2.374   4.551   1.083  0.4718  1.5783 -0.2270
 1116SOL     OW14983   3.881   2.243   0.571  0.6024 -0.2371 -0.2552
 1116SOL    HW114984   3.794   2.244   0.611  1.1174  2.6474  0.7768
 1116SOL    HW214985   3.914   2.163   0.613 -0.4280 -0.8523 -0.6104
 1117SOL     OW14986   0.373   1.659   7.404 -0.7855 -0.3423  0.3894
 1117SOL    HW114987   0.378   1.741   7.454 -1.8814 -0.0032 -0.0540
 1117SOL    HW214988   0.466   1.663   7.382 -0.8662  0.9024  0.2976
 1118SOL     OW14989   0.328   4.012   7.017  0.4632  0.8899 -0.2326
 1118SOL    HW114990   0.402   3.985   6.963  1.4562  3.0231  0.0790
 1118SOL    HW214991   0.365   4.081   7.071 -0.0577 -0.0242  1.2925
 1119SOL     OW14992   3.504   3.989   5.027  0.0629 -0.0177  0.1866
 1119SOL    HW114993   3.544   4.067   4.988 -0.0830  0.6200  1.3235
 1119SOL    HW214994   3.568   3.988   5.099  0.6474 -1.0031 -0.3359
 1120SOL     OW14995   3.238   1.629   4.975  0.0835  0.5144 -0.2505
 1120SOL    HW114996   3.266   1.540   4.997 -2.8064 -0.9912 -2.6282
 1120SOL    HW214997   3.300   1.672   5.033  1.3313 -0.4638 -0.8746
 1121SOL     OW14998   1.500   3.608  11.834 -0.4016 -0.0094 -0.0747
 1121SOL    HW114999   1.520   3.570  11.920  1.7673 -0.4603 -0.7761
 1121SOL    HW215000   1.585   3.620  11.793  0.0587  0.0442  0.8797
 1122SOL     OW15001   1.355   3.685   6.933 -0.7780 -0.3031  0.0218
 1122SOL    HW115002   1.311   3.740   6.998 -1.0652 -2.1466  1.3931
 1122SOL    HW215003   1.284   3.676   6.871  0.0345  0.4213 -1.0082
 1123SOL     OW15004   2.485   2.094   8.160 -0.2775 -0.2107 -0.8869
 1123SOL    HW115005   2.575   2.120   8.177 -0.2524  0.4932 -2.0360
 1123SOL    HW215006   2.496   2.000   8.152 -0.7305 -0.2677 -0.8575
 1124SOL     OW15007   1.801   4.409  11.866  0.6642  0.2287 -0.8021
 1124SOL    HW115008   1.714   4.405  11.826 -0.3608 -2.3568  1.6910
 1124SOL    HW215009   1.858   4.440  11.795  1.1942 -0.7331 -0.7841
 1125SOL     OW15010   1.580   0.514  16.802 -0.0261 -0.1661  0.5470
 1125SOL    HW115011   1.623   0.454  16.862 -0.7220 -0.9418  0.2648
 1125SOL    HW215012   1.525   0.453  16.752 -0.0875  0.0913  0.2958
 1126SOL     OW15013   4.172   2.522   5.919  0.5424 -0.3130  0.4846
 1126SOL    HW115014   4.116   2.477   5.855  0.6951  2.3227 -1.4901
 1126SOL    HW215015   4.247   2.544   5.864 -0.2051  1.4466  0.1602
 1127SOL     OW15016   4.174   2.217  17.326  0.5296  0.1921 -0.1102
 1127SOL    HW115017   4.239   2.173  17.380 -0.3573  0.7973  1.4291
 1127SOL    HW215018   4.108   2.150  17.310  1.2746 -0.4819 -0.3846
 1128SOL     OW15019   1.267   2.789   4.637 -0.2489  0.4613 -0.7676
 1128SOL    HW115020   1.262   2.840   4.556  0.8535  0.1418 -1.0375
 1128SOL    HW215021   1.240   2.859   4.696 -1.0259 -1.2857  0.9451
 1129SOL     OW15022   4.580   3.188   0.623 -0.1453 -0.0247 -0.2640
 1129SOL    HW115023   4.667   3.176   0.585 -0.1513  1.4248 -0.7516
 1129SOL    HW215024   4.550   3.098   0.629 -1.5671  0.4953  0.4846
 1130SOL     OW15025   0.490   2.498  10.947  0.3523 -0.3055  0.5733
 1130SOL    HW115026   0.492   2.512  11.041 -2.3748  0.3628  0.5327
 1130SOL    HW215027   0.539   2.577  10.921  2.2940 -2.1538 -1.3442
 1131SOL     OW15028   2.081   0.635   6.793 -0.6522 -0.1945  0.1027
 1131SOL    HW115029   2.087   0.618   6.699 -3.0389  2.7465 -0.5852
 1131SOL    HW215030   2.167   0.670   6.817 -0.5934  1.0670 -1.9553
 1132SOL     OW15031   2.502   4.592   8.078  0.0413 -0.6136  0.2192
 1132SOL    HW115032   2.412   4.612   8.051  0.2360 -0.8288 -0.5742
 1132SOL    HW215033   2.520   4.667   8.135  0.6179 -0.5143 -0.0956
 1133SOL     OW15034   2.961   0.779   1.603 -0.2137  0.2102  0.1942
 1133SOL    HW115035   2.977   0.685   1.602 -1.2811  0.0485 -0.8806
 1133SOL    HW215036   3.007   0.804   1.683  1.1657  0.7430 -0.7629
 1134SOL     OW15037   3.458   2.796  15.522 -0.6137  0.0468  0.2359
 1134SOL    HW115038   3.429   2.816  15.611 -0.0255  2.2731 -0.0780
 1134SOL    HW215039   3.444   2.701  15.523  1.9694 -0.3761 -1.6437
 1135SOL     OW15040   3.114   0.835  11.911  0.1537  0.2695 -0.3275
 1135SOL    HW115041   3.143   0.925  11.898 -0.5573  0.4002 -0.9947
 1135SOL    HW215042   3.173   0.782  11.857  1.9301  1.3679  0.5422
 1136SOL     OW15043   0.931   4.140   2.701  0.0494 -0.0626 -0.0429
 1136SOL    HW115044   0.845   4.115   2.735  0.4688 -1.3390  0.0907
 1136SOL    HW215045   0.902   4.187   2.623 -0.6352 -1.1226 -0.4368
 1137SOL     OW15046   3.238   1.404   2.706  0.0408 -0.3349 -0.1909
 1137SOL    HW115047   3.235   1.493   2.740  1.9903 -0.2821 -0.1425
 1137SOL    HW215048   3.184   1.410   2.628 -0.0894  1.7367  0.0550
 1138SOL     OW15049   4.549   2.253   4.705  0.3902  0.0136 -0.3438
 1138SOL    HW115050   4.548   2.198   4.626  2.3396 -1.6142  0.7604
 1138SOL    HW215051   4.514   2.191   4.769  1.0266 -0.1354 -0.1382
 1139SOL     OW15052   1.507   2.639   7.844 -0.1549  0.0661 -0.5179
 1139SOL    HW115053   1.430   2.596   7.881 -0.0744 -0.8687 -1.4280
 1139SOL    HW215054   1.514   2.706   7.912 -0.4836  0.6095 -1.0208
 1140SOL     OW15055   3.535   4.407   8.851  1.0085  0.2783 -0.5237
 1140SOL    HW115056   3.499   4.433   8.766 -0.6373  0.0481  0.1065
 1140SOL    HW215057   3.460   4.442   8.899  0.4713 -0.1554 -1.0499
 1141SOL     OW15058   3.737   3.318   6.859  0.1633  0.0121 -0.2042
 1141SOL    HW115059   3.774   3.381   6.921  1.6626 -0.7051 -0.3659
 1141SOL    HW215060   3.814   3.295   6.807  0.8850 -0.2863  0.9862
 1142SOL     OW15061   0.158   1.052   7.490  0.0979 -0.0346  0.1058
 1142SOL    HW115062   0.156   1.145   7.514  1.1673  0.0821 -0.2660
 1142SOL    HW215063   0.084   1.025   7.545 -0.4901 -2.0499 -1.6973
 1143SOL     OW15064   0.133   0.688   1.617 -0.3997  1.1410 -0.2118
 1143SOL    HW115065   0.077   0.745   1.670  0.4221  0.8367  0.9708
 1143SOL    HW215066   0.217   0.715   1.653  1.1904 -0.8783 -2.4028
 1144SOL     OW15067   1.652   1.230   8.950  0.1937 -0.1746  0.1331
 1144SOL    HW115068   1.720   1.268   8.895  0.3152  0.1033  0.4762
 1144SOL    HW215069   1.628   1.309   8.997 -2.0989 -0.5829 -0.3417
 1145SOL     OW15070   2.315   0.672   2.813 -0.1315 -0.5090  0.3259
 1145SOL    HW115071   2.286   0.757   2.846  2.8074  0.7172 -0.2694
 1145SOL    HW215072   2.299   0.683   2.720  3.2761 -0.1745 -0.2077
 1146SOL     OW15073   2.995   1.873   5.210  0.7935  0.1544  0.3570
 1146SOL    HW115074   2.945   1.809   5.261  1.0569  0.0257  0.4495
 1146SOL    HW215075   2.996   1.839   5.121  0.6029 -0.0345  0.4277
 1147SOL     OW15076   3.295   2.638  17.631  0.7212  0.3209  0.8381
 1147SOL    HW115077   3.346   2.644  17.712  1.1898 -0.5468  0.6049
 1147SOL    HW215078   3.344   2.702  17.579 -2.8359  1.9261 -0.5292
 1148SOL     OW15079   0.478   1.883  14.672  0.4454  0.2685  0.4463
 1148SOL    HW115080   0.544   1.819  14.647  1.2151  0.6926  1.4075
 1148SOL    HW215081   0.409   1.868  14.607  1.0895  0.1429 -0.2090
 1149SOL     OW15082   2.792   3.808   5.420 -0.0056  0.2637 -0.0424
 1149SOL    HW115083   2.722   3.804   5.355 -0.8354  1.2883  0.7898
 1149SOL    HW215084   2.781   3.728   5.472 -1.4905  0.6391  0.2163
 1150SOL     OW15085   3.354   3.329   2.608  0.0400 -0.3098  0.4672
 1150SOL    HW115086   3.424   3.372   2.559 -0.0870 -2.4584 -1.6246
 1150SOL    HW215087   3.388   3.327   2.697  2.6427  0.8265 -0.4730
 1151SOL     OW15088   4.241   0.458  12.738  0.0841  0.1976 -0.7556
 1151SOL    HW115089   4.311   0.437  12.800 -1.1598 -1.3893  0.1103
 1151SOL    HW215090   4.192   0.376  12.744 -0.9818  0.9569  1.0008
 1152SOL     OW15091   1.561   0.799   2.395  0.2709  0.0271  0.0813
 1152SOL    HW115092   1.553   0.801   2.490 -1.4864 -0.3415 -0.0661
 1152SOL    HW215093   1.587   0.890   2.383  0.2328  0.0518  0.1849
 1153SOL     OW15094   0.107   2.536   7.940 -0.5057  0.2715  0.2992
 1153SOL    HW115095   0.064   2.621   7.934  0.7896  0.8000 -1.4648
 1153SOL    HW215096   0.077   2.510   7.853 -0.5613  1.8904 -0.1799
 1154SOL     OW15097   2.302   1.182  14.183 -0.2822  0.0186 -0.1920
 1154SOL    HW115098   2.390   1.148  14.198 -0.4581 -0.1826  0.3911
 1154SOL    HW215099   2.257   1.099  14.200  0.5662 -0.6881 -1.4331
 1155SOL     OW15100   2.943   0.976   7.808 -0.6473  0.0298 -0.1606
 1155SOL    HW115101   2.981   1.026   7.880 -1.8553 -1.6865  1.6646
 1155SOL    HW215102   3.022   0.939   7.768  0.5468 -0.2629  2.4666
 1156SOL     OW15103   2.412   2.252   4.844  0.7017 -0.1123  0.2783
 1156SOL    HW115104   2.395   2.160   4.825  1.1240 -0.0232 -0.5203
 1156SOL    HW215105   2.323   2.287   4.848  1.5195  1.8914  0.9743
 1157SOL     OW15106   3.273   0.909  11.124 -0.4482  0.3302 -0.4856
 1157SOL    HW115107   3.213   0.946  11.059 -2.9584 -0.3801  1.4214
 1157SOL    HW215108   3.224   0.916  11.206 -0.8625 -3.3478 -0.4022
 1158SOL     OW15109   3.285   4.195   3.910 -0.6909  0.3257 -0.0249
 1158SOL    HW115110   3.308   4.138   3.837  1.1818  1.3187 -0.1975
 1158SOL    HW215111   3.312   4.281   3.878 -0.4100  1.2367  2.5762
 1159SOL     OW15112   3.136   1.074  11.788  0.4983 -0.1605 -0.2326
 1159SOL    HW115113   3.064   1.081  11.724 -0.2945 -0.5521  0.6111
 1159SOL    HW215114   3.117   1.162  11.821  0.5263 -0.2625  0.0576
 1160SOL     OW15115   1.749   3.596   8.469 -0.4488 -0.4553  0.1110
 1160SOL    HW115116   1.843   3.616   8.466 -0.6596  0.1487 -2.5270
 1160SOL    HW215117   1.744   3.501   8.473  1.0352 -0.4894  1.2487
 1161SOL     OW15118   2.273   2.887   6.018  0.6195 -0.1027  0.0399
 1161SOL    HW115119   2.258   2.829   6.093 -1.5773  0.5622  0.1046
 1161SOL    HW215120   2.227   2.834   5.952 -1.1504  1.1708  0.2526
 1162SOL     OW15121   2.391   4.523   2.550 -0.1341 -0.3844 -0.0436
 1162SOL    HW115122   2.403   4.554   2.460  3.0204 -2.7225 -0.4324
 1162SOL    HW215123   2.480   4.513   2.585 -0.5862  0.3946  1.3360
 1163SOL     OW15124   4.642   0.355   1.429  0.4186 -0.5153  0.1821
 1163SOL    HW115125   4.549   0.374   1.423  0.2350 -1.2618  0.5629
 1163SOL    HW215126   4.629   0.269   1.389  0.0625  0.5530 -1.9610
 1164SOL     OW15127   0.445   1.656   4.842  0.1774  0.2695 -0.4264
 1164SOL    HW115128   0.430   1.570   4.801 -0.6177 -0.4989  1.4794
 1164SOL    HW215129   0.372   1.657   4.903 -1.4324  2.7408 -2.3992
 1165SOL     OW15130   0.405   4.600  15.339  0.3613  0.3305 -0.1639
 1165SOL    HW115131   0.361   4.582  15.256  1.3798 -0.2191 -0.5945
 1165SOL    HW215132   0.348   4.670  15.369  0.0980 -0.4503  1.1352
 1166SOL     OW15133   1.884   2.579   0.567 -0.0008  0.3790 -0.2352
 1166SOL    HW115134   1.916   2.668   0.551  0.5984  0.2695  0.3726
 1166SOL    HW215135   1.850   2.593   0.655  0.3113 -0.2908 -0.0070
 1167SOL     OW15136   3.755   1.136  15.392  0.6553 -0.0943 -0.1500
 1167SOL    HW115137   3.811   1.193  15.341 -0.7083  3.0057  1.8450
 1167SOL    HW215138   3.687   1.199  15.414  0.0256  0.0869 -2.6119
 1168SOL     OW15139   1.014   2.898   3.862  0.4014 -0.2668 -0.3947
 1168SOL    HW115140   1.035   2.929   3.950  1.1615 -3.1271  0.4238
 1168SOL    HW215141   1.093   2.924   3.814 -1.1469  1.4862 -1.9553
 1169SOL     OW15142   2.619   1.195  17.002 -0.3733  0.0381 -0.2950
 1169SOL    HW115143   2.603   1.130  16.934  0.0409  1.2902 -1.5898
 1169SOL    HW215144   2.568   1.270  16.971  3.1261  0.7125 -4.3739
 1170SOL     OW15145   1.383   2.887   6.003  0.0832  0.2675  0.7410
 1170SOL    HW115146   1.295   2.853   6.020  0.0080  0.1345  0.0611
 1170SOL    HW215147   1.365   2.966   5.953  3.9158  0.7159  0.0923
 1171SOL     OW15148   1.451   1.486  14.725 -0.2553  0.4462 -0.8779
 1171SOL    HW115149   1.368   1.494  14.772  1.1717 -0.2822  1.7331
 1171SOL    HW215150   1.449   1.577  14.695 -0.4295  0.5030 -0.6970
 1172SOL     OW15151   2.649   2.926  16.954 -0.2556 -0.6520  0.2418
 1172SOL    HW115152   2.724   2.983  16.938 -1.3539  0.7538  0.1170
 1172SOL    HW215153   2.582   2.994  16.963 -0.5627 -1.1015  1.4012
 1173SOL     OW15154   2.857   4.219  10.319  0.3054 -0.7354 -0.2638
 1173SOL    HW115155   2.940   4.264  10.340 -0.9718  1.1364  0.7825
 1173SOL    HW215156   2.882   4.127  10.320 -1.6306 -1.2722 -2.3689
 1174SOL     OW15157   0.829   3.122   1.003  0.3154 -0.2144 -0.1509
 1174SOL    HW115158   0.916   3.132   0.963 -0.4754  0.0469 -1.8136
 1174SOL    HW215159   0.782   3.063   0.943  0.0108  0.1013 -0.2243
 1175SOL     OW15160   1.027   3.483   7.566  0.2074 -0.0084  0.4268
 1175SOL    HW115161   1.067   3.403   7.534  0.1894 -0.0045  0.3939
 1175SOL    HW215162   0.932   3.470   7.573  0.0429  0.0204 -1.6377
 1176SOL     OW15163   1.408   4.096   5.150 -0.3254 -0.4765  0.0051
 1176SOL    HW115164   1.394   4.041   5.228  0.1557 -1.2079 -0.4338
 1176SOL    HW215165   1.487   4.053   5.117  0.1899  1.2131 -0.9956
 1177SOL     OW15166   1.775   0.289   7.668 -0.0444  0.3615 -0.2982
 1177SOL    HW115167   1.740   0.210   7.708  1.3618 -0.7078 -1.1795
 1177SOL    HW215168   1.858   0.300   7.713 -0.8172 -1.4834  1.5811
 1178SOL     OW15169   3.640   1.161   7.530 -0.3406  0.2252 -0.2574
 1178SOL    HW115170   3.648   1.232   7.594  0.4517  0.3621 -0.5162
 1178SOL    HW215171   3.550   1.132   7.545 -0.4211  0.1502 -0.8930
 1179SOL     OW15172   3.024   3.768   6.228  0.0937 -0.8377  0.6038
 1179SOL    HW115173   2.968   3.693   6.208  0.4958 -1.0402  0.2437
 1179SOL    HW215174   2.967   3.844   6.219  2.2759  0.6262 -1.0166
 1180SOL     OW15175   1.993   1.542   5.730  0.6375 -0.5730  0.1703
 1180SOL    HW115176   2.083   1.533   5.760  0.5486  0.6933  0.8563
 1180SOL    HW215177   1.972   1.449   5.734 -0.1606 -0.3738  0.8578
 1181SOL     OW15178   1.295   2.212   7.617 -0.2488  0.4709  0.2978
 1181SOL    HW115179   1.231   2.268   7.573 -1.5329 -1.1105  0.1327
 1181SOL    HW215180   1.370   2.217   7.558  0.5751 -2.0939  1.1183
 1182SOL     OW15181   4.246   0.351   2.911 -0.3210  0.1068 -0.4154
 1182SOL    HW115182   4.213   0.328   2.998  2.2174 -2.3783 -0.1313
 1182SOL    HW215183   4.241   0.446   2.924  0.1401 -0.0287  0.7823
 1183SOL     OW15184   4.629   4.228  14.501  0.1380 -0.0981 -0.2022
 1183SOL    HW115185   4.638   4.317  14.534 -2.5451  0.0940 -0.0192
 1183SOL    HW215186   4.560   4.227  14.435 -0.1377 -1.0018  0.0935
 1184SOL     OW15187   2.402   1.807   3.698 -0.7864 -0.2014  0.9300
 1184SOL    HW115188   2.319   1.834   3.658  1.6550  4.0750 -1.2736
 1184SOL    HW215189   2.443   1.888   3.730  0.7422 -0.6637  0.1517
 1185SOL     OW15190   3.044   0.906   8.422  0.0135 -0.1728 -0.7863
 1185SOL    HW115191   2.979   0.837   8.441 -0.6375  0.9014  0.8933
 1185SOL    HW215192   3.002   0.975   8.473  2.0601  0.3535  0.1773
 1186SOL     OW15193   0.366   2.124   9.774  0.0379  0.7511  0.3667
 1186SOL    HW115194   0.388   2.076   9.854 -2.3109 -0.4720  0.2892
 1186SOL    HW215195   0.283   2.088   9.743  0.1188 -0.5890  1.6831
 1187SOL     OW15196   3.271   1.636  17.264  0.3610 -0.0057 -0.0715
 1187SOL    HW115197   3.316   1.640  17.180 -2.2948  0.8450 -1.4236
 1187SOL    HW215198   3.213   1.560  17.256 -0.2547  0.4428  0.1930
 1188SOL     OW15199   3.979   3.151  10.021  0.1320  0.3388 -0.4070
 1188SOL    HW115200   4.049   3.192  10.072  0.3151  1.1040 -1.2607
 1188SOL    HW215201   4.007   3.136   9.930 -0.5526  0.8759 -0.7045
 1189SOL     OW15202   2.352   3.442  16.833 -0.0446 -0.2276 -0.4581
 1189SOL    HW115203   2.279   3.408  16.782  0.6972 -0.0698 -1.6409
 1189SOL    HW215204   2.306   3.489  16.902  0.8432 -2.2991  1.5540
 1190SOL     OW15205   1.321   4.401  11.047  0.0662  0.3413 -0.1668
 1190SOL    HW115206   1.324   4.367  11.136  4.0418  0.6025 -0.2297
 1190SOL    HW215207   1.411   4.424  11.027  0.2352  0.3438  0.6070
 1191SOL     OW15208   2.964   0.568  10.134  0.2289  0.1920  0.0472
 1191SOL    HW115209   3.039   0.512  10.155  0.0512  0.6421  1.9335
 1191SOL    HW215210   2.932   0.594  10.221 -1.5186 -3.6240  0.5554
 1192SOL     OW15211   0.186   1.850   4.249 -0.6313  0.5210 -0.2731
 1192SOL    HW115212   0.166   1.763   4.282 -0.2051  1.1689  1.7359
 1192SOL    HW215213   0.167   1.892   4.333 -1.9528 -4.2743  1.8229
 1193SOL     OW15214   2.655   3.556  16.285  0.0452 -0.2232 -0.5168
 1193SOL    HW115215   2.750   3.566  16.279  0.0888 -1.7985 -2.2473
 1193SOL    HW215216   2.635   3.598  16.202  0.6617  1.1406  0.0204
 1194SOL     OW15217   3.971   0.648   9.268 -0.4261  0.0611  0.2040
 1194SOL    HW115218   4.004   0.630   9.356 -0.6950  1.0394  0.5051
 1194SOL    HW215219   3.904   0.715   9.283 -0.8133 -0.2296 -0.2041
 1195SOL     OW15220   3.284   2.828   5.989  0.7837 -0.1787  0.6207
 1195SOL    HW115221   3.377   2.803   5.996  1.7684  2.8326 -1.5775
 1195SOL    HW215222   3.298   2.922   5.984  1.0166 -0.1720  1.4877
 1196SOL     OW15223   1.090   3.422   3.795  0.7763 -0.6466 -0.2358
 1196SOL    HW115224   1.113   3.358   3.728  0.5142 -0.3782 -0.5822
 1196SOL    HW215225   1.175   3.460   3.819  1.7936 -1.4575 -2.5178
 1197SOL     OW15226   2.326   3.334  16.435  0.2698 -0.1923  0.4536
 1197SOL    HW115227   2.285   3.266  16.382  0.5241  0.0663 -0.0727
 1197SOL    HW215228   2.262   3.353  16.504  0.9879  3.1227  0.1906
 1198SOL     OW15229   4.711   1.854  12.924 -0.6342  0.5224  0.0623
 1198SOL    HW115230   4.659   1.885  12.998 -1.1637  0.5446 -0.3150
 1198SOL    HW215231   4.655   1.871  12.849 -0.1451 -1.3199 -0.7291
 1199SOL     OW15232   1.144   1.199   5.219 -0.2897 -0.7991  0.2048
 1199SOL    HW115233   1.167   1.291   5.201 -1.9751  0.1038  2.6337
 1199SOL    HW215234   1.049   1.200   5.207 -0.4309  1.5705  1.4774
 1200SOL     OW15235   3.089   4.359   7.270  0.2716  0.6560  0.0842
 1200SOL    HW115236   3.025   4.402   7.326 -0.2205 -0.7489  0.6143
 1200SOL    HW215237   3.037   4.317   7.202  0.7818 -0.3234  0.2959
 1201SOL     OW15238   1.694   3.486   2.664 -0.5456  0.0755 -0.0601
 1201SOL    HW115239   1.707   3.579   2.645 -2.8905  0.3588 -0.3224
 1201SOL    HW215240   1.781   3.464   2.694 -0.8519  1.2406  1.6747
 1202SOL     OW15241   0.816   0.448   2.417  0.4265  0.0894 -0.2189
 1202SOL    HW115242   0.808   0.352   2.413 -0.4305  0.0442  2.0344
 1202SOL    HW215243   0.911   0.453   2.429  0.3284 -0.8690  1.0215
 1203SOL     OW15244   2.322   4.292  16.285 -0.1914  0.9496  0.2929
 1203SOL    HW115245   2.293   4.361  16.226 -0.1189  1.2651  0.6308
 1203SOL    HW215246   2.346   4.219  16.228  0.2591  1.3560 -0.0346
 1204SOL     OW15247   3.285   1.767  16.427  0.1555 -0.0698  0.1154
 1204SOL    HW115248   3.217   1.832  16.407  1.3706  1.0897 -0.2971
 1204SOL    HW215249   3.354   1.821  16.466  0.3595 -0.0550 -0.2684
 1205SOL     OW15250   2.361   3.928   2.501  0.3677  0.0357  0.2454
 1205SOL    HW115251   2.340   3.879   2.422  2.3470 -1.8551  0.8718
 1205SOL    HW215252   2.321   4.010   2.473 -0.9066  0.2105  2.5529
 1206SOL     OW15253   0.380   3.955  15.276 -0.1406 -0.5808 -0.4826
 1206SOL    HW115254   0.372   4.028  15.215  0.7046  0.9674  1.2568
 1206SOL    HW215255   0.471   3.927  15.267 -0.6087 -1.5975 -2.1577
 1207SOL     OW15256   1.577   0.181  16.417 -0.5341 -0.2226 -0.5497
 1207SOL    HW115257   1.593   0.221  16.503 -0.6082 -0.1350 -0.5765
 1207SOL    HW215258   1.649   0.214  16.363 -0.0106 -0.2144  0.1531
 1208SOL     OW15259   1.804   4.653  12.678  0.0736 -0.0562  0.1886
 1208SOL    HW115260   1.883   4.613  12.644  0.3431 -0.1641  0.9254
 1208SOL    HW215261   1.742   4.581  12.664  0.6902 -0.5703  0.1292
 1209SOL     OW15262   3.108   4.253   2.004  0.2509 -0.6488  0.1904
 1209SOL    HW115263   3.175   4.281   1.941 -1.4169 -3.2094 -2.7345
 1209SOL    HW215264   3.091   4.336   2.048 -2.2340 -1.3332  0.5246
 1210SOL     OW15265   3.648   2.221   2.585  0.5262  0.1145 -0.1570
 1210SOL    HW115266   3.682   2.190   2.501  1.8835  1.8486 -0.2382
 1210SOL    HW215267   3.722   2.275   2.612  0.0690  1.0561 -0.7696
 1211SOL     OW15268   0.180   1.443   3.621 -0.3329  0.3593 -0.0564
 1211SOL    HW115269   0.207   1.515   3.563 -1.5670 -0.9402 -2.2140
 1211SOL    HW215270   0.168   1.368   3.564 -0.1054  0.4173 -0.1815
 1212SOL     OW15271   3.896   3.071   6.150 -0.2142  1.1845 -0.4094
 1212SOL    HW115272   3.818   3.098   6.199  0.3391  0.2252  1.0166
 1212SOL    HW215273   3.859   3.009   6.087 -0.3844  0.6295  0.2366
 1213SOL     OW15274   2.527   3.083   5.507 -0.8388 -0.1041 -0.0660
 1213SOL    HW115275   2.576   3.012   5.466  2.5184  1.6924  0.8604
 1213SOL    HW215276   2.473   3.032   5.567  0.2373  0.3017  1.2351
 1214SOL     OW15277   4.628   2.050  17.548  0.1402 -0.1395 -0.7901
 1214SOL    HW115278   4.610   2.101  17.628  0.9573  0.5888 -1.0654
 1214SOL    HW215279   4.721   2.066  17.528  0.2955 -1.0589 -0.8067
 1215SOL     OW15280   2.138   1.763   4.989 -0.3821 -0.6569 -0.1841
 1215SOL    HW115281   2.066   1.706   4.962 -0.6129 -0.8949  0.9286
 1215SOL    HW215282   2.187   1.699   5.041 -0.9616 -2.3573 -1.7536
 1216SOL     OW15283   1.980   4.536  12.098 -0.4943 -0.1939 -0.2735
 1216SOL    HW115284   1.925   4.494  12.033 -2.0187  0.2327  0.7487
 1216SOL    HW215285   2.065   4.537  12.054 -0.5601  0.9572 -0.3696
 1217SOL     OW15286   1.637   1.728  11.853 -0.2546 -0.1916 -0.0503
 1217SOL    HW115287   1.546   1.739  11.826 -0.4756 -2.7847 -0.3897
 1217SOL    HW215288   1.670   1.704  11.766 -0.1142 -0.4947  0.0837
 1218SOL     OW15289   4.627   4.257   4.163 -0.3547  0.1971 -0.3256
 1218SOL    HW115290   4.561   4.320   4.191 -0.1197  0.0527  0.5298
 1218SOL    HW215291   4.588   4.175   4.191 -2.9173  1.2238 -0.9221
 1219SOL     OW15292   1.437   1.941  10.352  0.0607 -0.3567 -0.4529
 1219SOL    HW115293   1.398   1.923  10.437 -1.3797  0.8633 -0.8463
 1219SOL    HW215294   1.471   1.855  10.326 -3.1907 -1.3054 -1.4759
 1220SOL     OW15295   0.490   0.201   4.248  0.0407  0.0610  0.5611
 1220SOL    HW115296   0.520   0.286   4.217  2.0141 -1.1876 -0.9948
 1220SOL    HW215297   0.525   0.152   4.173  0.6293  0.0111  0.8668
 1221SOL     OW15298   2.170   1.816   8.028  1.3003 -0.0463 -0.2369
 1221SOL    HW115299   2.171   1.902   8.071  1.7282 -0.3610  0.3968
 1221SOL    HW215300   2.136   1.766   8.102  3.3797  2.7375  2.6140
 1222SOL     OW15301   4.710   0.199  14.468 -0.3739 -0.3176  0.8867
 1222SOL    HW115302   0.003   0.133  14.404 -0.6465 -0.5881  1.0538
 1222SOL    HW215303   4.623   0.170  14.493 -1.3676  0.3239 -1.8080
 1223SOL     OW15304   0.772   0.898   7.625  0.1959 -0.3990  0.1289
 1223SOL    HW115305   0.761   0.816   7.674  0.7907 -0.1442  0.6855
 1223SOL    HW215306   0.687   0.913   7.583  0.1256  1.7579  1.0413
 1224SOL     OW15307   3.123   3.339   5.781  0.4061  0.1031 -0.1174
 1224SOL    HW115308   3.194   3.404   5.777 -0.4553  1.0993  0.6230
 1224SOL    HW215309   3.127   3.331   5.876  0.5420  1.2470 -0.0200
 1225SOL     OW15310   4.401   3.152   6.741  0.4432 -0.2622  0.7900
 1225SOL    HW115311   4.448   3.080   6.700  1.0061  0.7491 -0.3684
 1225SOL    HW215312   4.370   3.201   6.664 -1.1615 -0.4634  1.3106
 1226SOL     OW15313   3.313   1.429   1.823 -0.3864 -0.1971  0.2036
 1226SOL    HW115314   3.249   1.439   1.753  0.0661  2.2535  0.1445
 1226SOL    HW215315   3.310   1.333   1.830 -1.4205 -0.0878  1.1894
 1227SOL     OW15316   3.170   0.119  17.632 -0.7871  0.4988 -0.2270
 1227SOL    HW115317   3.074   0.120  17.635 -0.7366 -0.0086  1.1439
 1227SOL    HW215318   3.180   0.091  17.722  1.7495  0.1354 -0.6313
 1228SOL     OW15319   0.504   4.727   6.901  0.3676  0.1960  0.0127
 1228SOL    HW115320   0.510   0.081   6.934 -0.0627 -0.2602  1.3105
 1228SOL    HW215321   0.411   4.719   6.920  0.2040  0.9089 -0.5073
 1229SOL     OW15322   0.440   1.518  16.359  0.3985  0.8422 -0.1159
 1229SOL    HW115323   0.510   1.472  16.405  0.9884  0.7414 -1.1121
 1229SOL    HW215324   0.366   1.457  16.364 -0.5014  1.8294 -1.3798
 1230SOL     OW15325   0.705   2.693  17.618 -0.9152 -0.6243  0.2842
 1230SOL    HW115326   0.754   2.702  17.537  0.9656  1.0966  1.6090
 1230SOL    HW215327   0.692   2.787  17.630 -1.3666 -0.5263 -0.9573
 1231SOL     OW15328   0.438   1.458  11.633  0.2803 -0.4324 -0.0553
 1231SOL    HW115329   0.369   1.411  11.680 -0.7413  1.8317  0.6932
 1231SOL    HW215330   0.439   1.411  11.550 -2.6650 -0.3319 -0.1510
 1232SOL     OW15331   0.067   0.508   8.855  0.6087  0.0463 -0.1218
 1232SOL    HW115332   0.012   0.477   8.927 -0.6813 -3.7169 -2.6993
 1232SOL    HW215333   0.031   0.596   8.846 -0.5793 -0.4620 -0.3264
 1233SOL     OW15334   1.496   3.816   1.922  0.0225 -0.0457 -0.3049
 1233SOL    HW115335   1.517   3.730   1.887 -0.2655  0.1750 -1.0191
 1233SOL    HW215336   1.578   3.857   1.950  0.5278 -2.4283  1.6602
 1234SOL     OW15337   4.714   0.321   4.469  0.0197 -0.4503 -0.4767
 1234SOL    HW115338   4.661   0.247   4.441 -0.9142  1.0985 -2.7513
 1234SOL    HW215339   0.055   0.311   4.412 -0.6960 -1.7212 -1.2238
 1235SOL     OW15340   0.820   2.062   2.829  0.4192  0.1996  0.4427
 1235SOL    HW115341   0.817   2.027   2.918  0.1047 -0.8018  0.0450
 1235SOL    HW215342   0.885   2.019   2.773 -0.6098 -0.5407 -0.1909
 1236SOL     OW15343   3.019   1.875   7.275  0.7469  0.1031 -0.6775
 1236SOL    HW115344   3.023   1.802   7.213  0.0979  0.9888 -1.7461
 1236SOL    HW215345   3.102   1.872   7.322  0.2023 -0.1587  0.2651
 1237SOL     OW15346   2.577   1.850   1.660 -0.7658  0.9121  0.2285
 1237SOL    HW115347   2.485   1.852   1.684 -0.5705  3.2338  0.8498
 1237SOL    HW215348   2.584   1.772   1.606 -1.3267  1.8240 -1.1499
 1238SOL     OW15349   0.643   1.829   4.862 -0.2673 -0.5151 -0.1023
 1238SOL    HW115350   0.719   1.808   4.808  0.6335 -0.6153  1.2118
 1238SOL    HW215351   0.605   1.742   4.850  0.3400 -0.5427 -1.9228
 1239SOL     OW15352   1.775   4.021   2.469  0.5670  0.1153 -0.2671
 1239SOL    HW115353   1.812   4.037   2.556  1.2266 -0.7373 -0.3949
 1239SOL    HW215354   1.846   3.970   2.430  2.5426  1.9944  0.8824
 1240SOL     OW15355   2.413   4.090   3.203  0.2925  0.4077 -0.1175
 1240SOL    HW115356   2.491   4.039   3.179 -0.3409  0.1488 -1.6325
 1240SOL    HW215357   2.442   4.121   3.288  1.1862 -3.3762  0.9854
 1241SOL     OW15358   0.127   0.882   7.261  0.1001 -0.3674  0.2464
 1241SOL    HW115359   0.187   0.954   7.283 -0.8297  0.2498  0.7881
 1241SOL    HW215360   0.043   0.923   7.282  0.4884  0.4049  0.3104
 1242SOL     OW15361   0.215   0.815   5.404  0.3473 -0.0295 -0.2277
 1242SOL    HW115362   0.125   0.832   5.376  0.3412  0.0750 -0.1456
 1242SOL    HW215363   0.243   0.901   5.437 -1.9102  0.7937 -0.4310
 1243SOL     OW15364   0.158   0.722  16.499 -0.1262 -0.2282  0.1980
 1243SOL    HW115365   0.238   0.775  16.492  0.2418 -1.0179 -1.6791
 1243SOL    HW215366   0.117   0.736  16.414  2.5646 -0.3359 -1.1258
 1244SOL     OW15367   1.381   0.979   1.112  0.5753  0.1074  0.3984
 1244SOL    HW115368   1.474   0.957   1.123  0.7092  0.1951 -0.5333
 1244SOL    HW215369   1.351   0.889   1.094  1.4577 -0.5202  2.1107
 1245SOL     OW15370   2.398   0.551   5.212  0.5965 -0.2314  0.3698
 1245SOL    HW115371   2.446   0.633   5.224 -0.4582  0.9376 -3.2142
 1245SOL    HW215372   2.322   0.559   5.269  0.5238  0.0340  0.2347
 1246SOL     OW15373   2.935   3.062   4.367  0.4013 -0.1240  0.2184
 1246SOL    HW115374   2.939   2.975   4.327 -0.7411 -0.1359  0.1175
 1246SOL    HW215375   3.026   3.091   4.367  0.0972  0.8574 -1.5010
 1247SOL     OW15376   0.828   1.074   4.259 -0.6142  0.3677  0.2864
 1247SOL    HW115377   0.881   1.096   4.335 -0.3320  1.7069 -0.3005
 1247SOL    HW215378   0.849   1.152   4.208  0.3049  0.1529  0.3407
 1248SOL     OW15379   4.192   0.187   1.549 -0.3012 -0.6069 -0.5874
 1248SOL    HW115380   4.179   0.102   1.506 -2.3740 -1.0252  0.8828
 1248SOL    HW215381   4.108   0.231   1.539 -1.2674 -2.2489  0.2317
 1249SOL     OW15382   2.245   1.089   7.392 -0.0955  0.1747 -0.1121
 1249SOL    HW115383   2.268   1.154   7.325 -1.5755  1.4503  0.6043
 1249SOL    HW215384   2.213   1.153   7.456  1.3673  2.5722 -1.7808
 1250SOL     OW15385   2.536   2.422   7.100  0.1325 -0.0744 -0.0165
 1250SOL    HW115386   2.453   2.468   7.099 -0.4514 -1.0527  3.5591
 1250SOL    HW215387   2.586   2.440   7.180  1.5762  0.6845 -1.0701
 1251SOL     OW15388   0.522   2.364   2.246 -0.8599  0.0897  0.1262
 1251SOL    HW115389   0.583   2.380   2.319  0.2219 -1.4043 -0.4579
 1251SOL    HW215390   0.578   2.320   2.183 -2.4386 -1.2368 -0.3374
 1252SOL     OW15391   2.625   3.891   5.222  0.1404  0.1358  0.1874
 1252SOL    HW115392   2.604   3.948   5.296 -3.4262  0.0181 -0.7625
 1252SOL    HW215393   2.620   3.950   5.147 -0.1351  0.3072  0.3378
 1253SOL     OW15394   0.494   3.755  17.594 -0.4672 -0.2133 -0.7692
 1253SOL    HW115395   0.508   3.773  17.687 -1.3890  2.5791 -1.1929
 1253SOL    HW215396   0.424   3.820  17.593  0.3401  0.6355 -1.2505
 1254SOL     OW15397   0.825   2.405   7.694  0.2864  0.1939 -0.1370
 1254SOL    HW115398   0.774   2.371   7.768 -0.9048 -0.8501 -1.4294
 1254SOL    HW215399   0.889   2.334   7.691 -0.4913 -0.4826 -0.6504
 1255SOL     OW15400   2.502   4.599  15.079  0.1822 -0.8290  0.4778
 1255SOL    HW115401   2.432   4.653  15.042 -0.7808 -1.6102  1.1615
 1255SOL    HW215402   2.553   4.654  15.139  0.5077 -0.0389 -0.5266
 1256SOL     OW15403   2.342   2.519   5.138  0.5948 -0.1502 -0.1133
 1256SOL    HW115404   2.394   2.585   5.093 -2.5860  3.6281  1.7290
 1256SOL    HW215405   2.293   2.584   5.190  1.0154  1.2413 -1.4460
 1257SOL     OW15406   1.652   3.679   3.886  0.2768  0.2555 -0.1287
 1257SOL    HW115407   1.639   3.731   3.807 -3.0377 -1.8406 -0.9709
 1257SOL    HW215408   1.736   3.643   3.859  0.8472  2.2953 -1.0535
 1258SOL     OW15409   0.400   4.587   6.645  0.9719 -0.5405 -0.6936
 1258SOL    HW115410   0.416   4.501   6.682 -0.2590 -1.6199 -2.6574
 1258SOL    HW215411   0.373   4.646   6.715 -1.1602 -1.1978 -0.9549
 1259SOL     OW15412   0.790   3.540   1.783  0.3648 -0.1664  0.7227
 1259SOL    HW115413   0.739   3.461   1.766 -1.0029  0.3663  2.3590
 1259SOL    HW215414   0.759   3.595   1.711  0.5127  1.5426  1.9714
 1260SOL     OW15415   0.158   2.112  17.506 -0.0370  0.4223 -0.4447
 1260SOL    HW115416   0.128   2.197  17.538 -2.4584 -0.9934  0.9980
 1260SOL    HW215417   0.203   2.085  17.586 -1.7261 -0.9229  0.0504
 1261SOL     OW15418   2.191   1.390  10.693 -0.5877  0.7749  0.2437
 1261SOL    HW115419   2.264   1.434  10.649 -0.1417 -1.0754 -0.8471
 1261SOL    HW215420   2.157   1.467  10.740  0.4065  1.5931 -0.3638
 1262SOL     OW15421   1.617   0.913   8.151  0.3805 -0.2994  0.2428
 1262SOL    HW115422   1.633   0.869   8.068  0.0213 -2.0440  1.1097
 1262SOL    HW215423   1.550   0.854   8.183  1.3217 -1.9291 -0.7591
 1263SOL     OW15424   3.294   0.226   9.557  0.1416  0.6642 -0.3202
 1263SOL    HW115425   3.370   0.181   9.519  0.2657  0.7650 -0.1906
 1263SOL    HW215426   3.320   0.214   9.648 -0.5949 -2.1670 -0.4725
 1264SOL     OW15427   0.429   2.203   0.395  0.4329  0.1010  0.0643
 1264SOL    HW115428   0.483   2.282   0.388  0.9344  0.0226  3.0795
 1264SOL    HW215429   0.441   2.177   0.487 -1.7023 -0.7634  0.1245
 1265SOL     OW15430   3.831   2.745   7.551  0.2347  0.4226  0.3412
 1265SOL    HW115431   3.787   2.665   7.578 -0.6545  1.2323  1.2711
 1265SOL    HW215432   3.777   2.808   7.598  1.7338  0.4660  2.0122
 1266SOL     OW15433   4.606   4.120  11.343  0.0136 -0.1707  0.0368
 1266SOL    HW115434   4.570   4.208  11.355 -0.5501 -0.1835 -1.6992
 1266SOL    HW215435   4.693   4.120  11.303  1.5188 -1.1945  3.2894
 1267SOL     OW15436   3.392   3.242   7.851  0.5156 -0.3926 -0.2755
 1267SOL    HW115437   3.415   3.150   7.836 -1.1659 -0.4653 -2.3494
 1267SOL    HW215438   3.467   3.283   7.894 -1.2310  2.7713 -0.2889
 1268SOL     OW15439   4.434   3.527  10.990  0.2668 -0.7859 -0.2128
 1268SOL    HW115440   4.506   3.534  10.928  1.5561 -0.9631  1.2424
 1268SOL    HW215441   4.376   3.463  10.948  0.9199 -0.3346 -1.7866
 1269SOL     OW15442   2.057   4.293   8.693 -0.2540 -0.7402  0.2396
 1269SOL    HW115443   2.138   4.331   8.658 -0.9190  1.9731  1.6271
 1269SOL    HW215444   1.981   4.313   8.637  0.0512  0.9586  0.4492
 1270SOL     OW15445   0.039   3.180   2.171 -0.2247  0.3996  0.1477
 1270SOL    HW115446   0.108   3.170   2.237 -1.8141 -0.4357  1.7028
 1270SOL    HW215447   0.017   3.271   2.192  1.9836  1.3901 -1.9490
 1271SOL     OW15448   1.071   3.929   4.393 -0.0428 -0.3912 -0.4860
 1271SOL    HW115449   1.120   4.010   4.409  1.3863 -1.6166  1.3104
 1271SOL    HW215450   1.026   3.961   4.315 -2.5822 -0.2317  1.0077
 1272SOL     OW15451   0.476   1.491   3.070  0.6827  0.2140 -0.4833
 1272SOL    HW115452   0.455   1.400   3.090 -0.4480  0.9494  1.7468
 1272SOL    HW215453   0.520   1.488   2.986  2.7605 -0.1339  0.6224
 1273SOL     OW15454   2.889   1.935   2.866 -0.2077  0.7117  0.1457
 1273SOL    HW115455   2.925   1.988   2.794 -2.0279 -0.2102 -1.4283
 1273SOL    HW215456   2.948   1.969   2.933 -0.0307  2.3100 -0.8023
 1274SOL     OW15457   1.521   1.141   6.296  0.1765 -0.3111 -0.2531
 1274SOL    HW115458   1.570   1.223   6.298 -0.3765  0.0478 -1.2092
 1274SOL    HW215459   1.471   1.157   6.215  0.4017  1.5976 -0.0000
 1275SOL     OW15460   1.662   2.178  12.641  0.3210  0.0134 -0.4077
 1275SOL    HW115461   1.722   2.155  12.571 -0.3520  0.4705 -1.1330
 1275SOL    HW215462   1.588   2.129  12.605 -0.7649  0.3541  1.3555
 1276SOL     OW15463   1.333   3.562   5.822  0.2097 -0.0432  0.5964
 1276SOL    HW115464   1.387   3.525   5.892  1.9342 -0.7902 -1.1354
 1276SOL    HW215465   1.303   3.478   5.786  0.3755  0.9567 -1.8519
 1277SOL     OW15466   2.197   3.163   4.710 -0.0908  0.3270 -0.0668
 1277SOL    HW115467   2.111   3.206   4.713  0.3044  1.2178 -1.5310
 1277SOL    HW215468   2.253   3.213   4.768 -0.2991 -0.2916  0.6773
 1278SOL     OW15469   1.715   4.142   8.281 -0.1352  0.3590  0.2860
 1278SOL    HW115470   1.743   4.183   8.200  0.5142 -2.9354 -1.1277
 1278SOL    HW215471   1.626   4.177   8.287 -1.5639 -3.4922  1.6498
 1279SOL     OW15472   2.329   1.391  15.797 -0.0972 -0.1975 -0.2012
 1279SOL    HW115473   2.325   1.342  15.715 -0.9461  0.0068 -0.2765
 1279SOL    HW215474   2.236   1.408  15.807  0.0193  0.5355 -0.3438
 1280SOL     OW15475   1.414   1.406   4.398  0.1362 -0.0912  0.4658
 1280SOL    HW115476   1.336   1.393   4.344  0.3335  0.9905 -0.1011
 1280SOL    HW215477   1.418   1.314   4.424 -0.8624 -0.5155 -0.8859
 1281SOL     OW15478   2.408   3.759   9.182 -0.6619  0.2716  0.2607
 1281SOL    HW115479   2.342   3.811   9.228  0.0651  0.6337  0.8876
 1281SOL    HW215480   2.372   3.735   9.097 -0.2232 -0.2041  0.2079
 1282SOL     OW15481   3.001   1.692   5.731 -0.2092 -0.2027 -0.1917
 1282SOL    HW115482   2.926   1.745   5.703 -1.8956 -2.6611 -0.2516
 1282SOL    HW215483   2.964   1.676   5.818 -0.8725  1.1059 -0.2254
 1283SOL     OW15484   3.824   0.060  11.157  0.3227 -0.7134 -0.1198
 1283SOL    HW115485   3.864   0.141  11.187 -0.1104 -0.4977 -0.1280
 1283SOL    HW215486   3.795   0.016  11.237 -0.6954 -0.9996 -0.6399
 1284SOL     OW15487   1.296   2.716   5.407  0.6528  0.4113 -0.8652
 1284SOL    HW115488   1.206   2.714   5.373  0.3771 -2.6973 -0.0229
 1284SOL    HW215489   1.328   2.806   5.406 -0.7980  0.9337  0.2870
 1285SOL     OW15490   0.143   0.883   5.874 -0.3989 -0.0222 -0.3031
 1285SOL    HW115491   0.172   0.956   5.928  1.6124 -0.9923 -0.0625
 1285SOL    HW215492   0.224   0.833   5.882 -0.1726 -0.1482 -3.2988
 1286SOL     OW15493   3.581   0.774   4.514 -0.0160  0.4900  0.6039
 1286SOL    HW115494   3.648   0.810   4.571  0.4241  1.5515 -0.5933
 1286SOL    HW215495   3.545   0.707   4.573  2.9416 -1.4572  0.1844
 1287SOL     OW15496   2.185   1.542  12.316  0.1362 -0.1517 -0.2368
 1287SOL    HW115497   2.097   1.580  12.323  0.0636 -0.5972  1.4134
 1287SOL    HW215498   2.184   1.523  12.410  1.6371 -0.5424 -0.3081
 1288SOL     OW15499   2.545   2.571   6.836  0.0614  0.3692 -0.6928
 1288SOL    HW115500   2.546   2.623   6.916  1.2759  2.1530 -1.8555
 1288SOL    HW215501   2.457   2.533   6.842  0.1769  0.1014 -0.7314
 1289SOL     OW15502   0.633   1.984   5.561 -0.3011  0.2336 -0.2353
 1289SOL    HW115503   0.595   1.933   5.490  0.8209  0.7193 -1.1825
 1289SOL    HW215504   0.706   1.929   5.590  0.0851  0.8711 -0.0138
 1290SOL     OW15505   4.734   4.511   7.819 -0.8121 -0.0910 -0.3157
 1290SOL    HW115506   4.649   4.505   7.863  1.2712 -4.6838  3.1105
 1290SOL    HW215507   0.016   4.417   7.816  0.7899  0.1050  2.7020
 1291SOL     OW15508   1.189   0.182   4.626 -0.0465  0.0402 -0.0479
 1291SOL    HW115509   1.276   0.175   4.586 -0.2362 -0.0711 -0.4344
 1291SOL    HW215510   1.199   0.102   4.678  1.0292  0.2683  0.1028
 1292SOL     OW15511   2.040   2.794  14.526  0.4314 -0.3523  0.1260
 1292SOL    HW115512   2.091   2.800  14.607  1.3409  0.1559 -0.4764
 1292SOL    HW215513   2.089   2.861  14.478 -1.3217 -0.1092 -1.2848
 1293SOL     OW15514   1.042   1.158  13.066  0.1688 -0.7091  0.2532
 1293SOL    HW115515   0.970   1.140  13.005  0.5211 -0.6798 -0.1634
 1293SOL    HW215516   1.033   1.254  13.073 -0.3086 -0.9439  2.7891
 1294SOL     OW15517   2.937   4.635   9.106 -0.4737  0.3144 -0.5290
 1294SOL    HW115518   2.872   4.635   9.035  1.7509 -0.6346 -2.5789
 1294SOL    HW215519   2.998   4.586   9.051 -1.2454 -0.9000 -0.3205
 1295SOL     OW15520   0.870   1.611   7.618 -0.2472 -0.7726 -0.0284
 1295SOL    HW115521   0.941   1.607   7.681 -0.2827  1.2228  0.1289
 1295SOL    HW215522   0.908   1.562   7.545 -0.2825 -0.0617 -0.5128
 1296SOL     OW15523   3.924   2.187   3.219  0.3616 -0.1813  0.4857
 1296SOL    HW115524   3.851   2.142   3.262  0.1082  0.6469  0.9177
 1296SOL    HW215525   3.936   2.260   3.279  1.2008 -0.1861  0.3309
 1297SOL     OW15526   3.238   0.947  10.025  0.1297 -0.5879 -0.1804
 1297SOL    HW115527   3.284   1.030  10.041  1.3628 -1.1731 -0.6711
 1297SOL    HW215528   3.310   0.903  10.070 -0.5400  0.2829  1.7267
 1298SOL     OW15529   4.537   1.141   8.071 -0.4414  0.1178  0.2530
 1298SOL    HW115530   4.508   1.050   8.082  0.8371 -0.3258 -0.0469
 1298SOL    HW215531   4.627   1.126   8.042 -1.1660  0.3122 -2.1338
 1299SOL     OW15532   1.473   2.121   9.621 -0.5158  0.3248 -0.4562
 1299SOL    HW115533   1.563   2.148   9.606  0.7084 -2.7061  1.4534
 1299SOL    HW215534   1.485   2.090   9.711  0.4917  0.4044 -0.5672
 1300SOL     OW15535   2.138   2.995   4.935  0.0500 -0.2016  0.1320
 1300SOL    HW115536   2.173   3.051   4.865  1.3938  0.2693  1.1791
 1300SOL    HW215537   2.207   3.005   5.000 -0.5278 -2.0567  1.0398
 1301SOL     OW15538   2.549   1.495  15.167  0.2332  0.0352  0.3986
 1301SOL    HW115539   2.643   1.498  15.145 -0.5827  1.9293 -2.7471
 1301SOL    HW215540   2.514   1.583  15.153  0.2422 -0.0129  0.0811
 1302SOL     OW15541   1.877   2.521  13.462  0.8131  0.0866  0.1743
 1302SOL    HW115542   1.849   2.574  13.537  1.2929  0.6839 -0.0715
 1302SOL    HW215543   1.971   2.516  13.474  0.7499 -0.4686  0.4392
 1303SOL     OW15544   2.116   3.512  11.273  0.1313 -0.4196 -0.4625
 1303SOL    HW115545   2.191   3.522  11.331 -0.1379 -1.3931  0.0507
 1303SOL    HW215546   2.101   3.417  11.273  1.9891 -0.7013 -0.3801
 1304SOL     OW15547   1.429   1.072  15.559  0.0039  0.5549  0.2491
 1304SOL    HW115548   1.346   1.041  15.522  0.2091  0.5714 -0.2335
 1304SOL    HW215549   1.475   1.114  15.485  1.5592 -0.2279  0.7868
 1305SOL     OW15550   4.415   3.316   6.500  0.2413  0.0733  1.0284
 1305SOL    HW115551   4.387   3.302   6.409  1.3936 -2.3311  1.0402
 1305SOL    HW215552   4.509   3.328   6.489  0.6028 -2.1223  1.7028
 1306SOL     OW15553   3.512   3.712   6.087 -0.5369 -0.4947 -0.7237
 1306SOL    HW115554   3.493   3.676   6.173  0.9614  0.1198 -0.1303
 1306SOL    HW215555   3.432   3.703   6.036 -0.7290  1.0067 -0.6804
 1307SOL     OW15556   4.218   1.343  15.083 -0.3921 -0.2051  0.1571
 1307SOL    HW115557   4.180   1.271  15.032  0.0161 -0.6411  0.4630
 1307SOL    HW215558   4.313   1.328  15.078 -0.4291 -0.1088 -0.9277
 1308SOL     OW15559   3.341   2.394  15.592 -0.0623 -0.2110  0.1672
 1308SOL    HW115560   3.392   2.436  15.662 -1.5158  2.5779 -0.4429
 1308SOL    HW215561   3.366   2.452  15.520 -0.2098  0.0352  0.3144
 1309SOL     OW15562   3.483   0.979  15.202  0.3124  0.3611  0.0409
 1309SOL    HW115563   3.466   1.053  15.261  2.4358  0.2420  0.7936
 1309SOL    HW215564   3.566   1.015  15.170  0.3612  0.8059  0.6778
 1310SOL     OW15565   1.729   0.928   3.441  0.1825 -0.1206 -0.2611
 1310SOL    HW115566   1.823   0.925   3.424  0.2102 -1.7286  0.1287
 1310SOL    HW215567   1.717   0.882   3.524  1.4513  0.1401  0.0590
 1311SOL     OW15568   3.068   0.330   7.557 -0.2107 -0.1042 -0.0227
 1311SOL    HW115569   3.110   0.272   7.621  0.4270  0.1581 -0.2021
 1311SOL    HW215570   3.139   0.333   7.493 -2.0747 -0.9451 -2.1271
 1312SOL     OW15571   2.051   3.328   9.241  0.2990 -0.1112 -0.0128
 1312SOL    HW115572   1.982   3.267   9.268  2.0980 -1.7094  0.9942
 1312SOL    HW215573   2.052   3.370   9.326  0.7811  1.1036 -0.6274
 1313SOL     OW15574   0.368   0.777   1.752 -0.0045  0.0870  0.3112
 1313SOL    HW115575   0.446   0.783   1.696  0.7653  0.2874  1.3860
 1313SOL    HW215576   0.413   0.733   1.824  0.2388 -0.0618  0.0679
 1314SOL     OW15577   2.486   2.111  13.415 -0.2179  0.1876 -0.0240
 1314SOL    HW115578   2.504   2.120  13.509  0.0933  1.6802 -0.2333
 1314SOL    HW215579   2.516   2.022  13.395 -0.2878  0.1403  0.0792
 1315SOL     OW15580   3.389   1.117   9.787 -0.4161 -0.2915  0.1268
 1315SOL    HW115581   3.340   1.168   9.852 -0.7257 -1.0601  0.4940
 1315SOL    HW215582   3.478   1.124   9.822  0.9820  2.5528 -4.0251
 1316SOL     OW15583   2.677   1.275   2.902 -0.4418 -0.2439 -0.0623
 1316SOL    HW115584   2.638   1.311   2.981 -0.9980 -1.5534  0.2676
 1316SOL    HW215585   2.651   1.184   2.919 -1.7122 -0.1070 -1.1995
 1317SOL     OW15586   3.816   4.599   5.989  0.0090  0.2133  0.4957
 1317SOL    HW115587   3.856   4.589   6.076  0.8159 -2.5666 -0.2290
 1317SOL    HW215588   3.828   4.690   5.962 -1.6427  0.0648 -0.7165
 1318SOL     OW15589   1.781   0.662  16.623  0.0596 -0.2127 -0.0965
 1318SOL    HW115590   1.748   0.651  16.712  1.2132 -1.8018  0.1330
 1318SOL    HW215591   1.712   0.614  16.578  0.6497 -0.9764 -0.1941
 1319SOL     OW15592   1.078   4.586   5.881  0.7342  0.5679  0.1824
 1319SOL    HW115593   1.116   4.614   5.798 -0.4658 -0.2868 -0.6426
 1319SOL    HW215594   1.047   4.672   5.910  1.3221  0.4125  1.2989
 1320SOL     OW15595   1.189   0.355   8.208 -0.1817 -0.7453  0.9234
 1320SOL    HW115596   1.130   0.355   8.284  0.5005 -1.1360  1.4543
 1320SOL    HW215597   1.273   0.382   8.245  1.5414 -2.7163 -1.5062
 1321SOL     OW15598   3.063   2.216   4.696  0.1149  0.2095 -0.6672
 1321SOL    HW115599   3.099   2.247   4.613  0.5596 -0.0182 -0.5620
 1321SOL    HW215600   3.033   2.296   4.739 -0.3195  1.3923 -3.1613
 1322SOL     OW15601   2.842   4.455  10.520  0.0190  0.5570 -0.0566
 1322SOL    HW115602   2.883   4.520  10.576  3.2720 -0.5183 -1.2076
 1322SOL    HW215603   2.819   4.509  10.445 -0.9428 -0.6916 -0.6684
 1323SOL     OW15604   3.036   2.994  12.807 -0.3636 -0.4626  0.0542
 1323SOL    HW115605   3.102   3.035  12.752  1.0856 -1.5263  0.9843
 1323SOL    HW215606   2.993   2.935  12.745 -0.3175 -0.4691  0.0290
 1324SOL     OW15607   2.416   3.811  16.788 -0.1387 -0.2138 -0.0907
 1324SOL    HW115608   2.501   3.782  16.755  0.2796  0.4245  0.4306
 1324SOL    HW215609   2.412   3.898  16.748  0.1574 -0.0371  0.2688
 1325SOL     OW15610   0.552   1.673   6.691 -0.3043 -0.3319  0.4788
 1325SOL    HW115611   0.636   1.660   6.647 -0.3330  0.6229  0.1398
 1325SOL    HW215612   0.507   1.590   6.675 -2.2163  1.1665 -1.9866
 1326SOL     OW15613   2.974   1.187   1.878 -0.0045  0.7232 -0.4333
 1326SOL    HW115614   3.053   1.137   1.856 -0.2215  0.7573 -1.2728
 1326SOL    HW215615   2.964   1.254   1.811 -2.2558 -1.2531 -2.0770
 1327SOL     OW15616   1.635   3.615   2.268 -0.6986  0.1350 -0.3226
 1327SOL    HW115617   1.650   3.667   2.189  1.3470 -1.2171 -0.8095
 1327SOL    HW215618   1.698   3.640   2.335  1.1050 -0.7907 -1.6958
 1328SOL     OW15619   1.193   2.256   1.289  0.3495  0.4356  0.4880
 1328SOL    HW115620   1.207   2.318   1.361 -2.8913  0.4606  1.1026
 1328SOL    HW215621   1.216   2.166   1.312 -0.6571 -0.2099 -1.0442
 1329SOL     OW15622   1.708   1.901   1.743 -0.2652 -0.1451  0.7293
 1329SOL    HW115623   1.616   1.928   1.748 -0.7189 -1.3579 -1.0381
 1329SOL    HW215624   1.701   1.815   1.785 -0.1462 -1.2090 -1.4463
 1330SOL     OW15625   0.799   3.333  14.010  0.0751 -0.4110  0.4472
 1330SOL    HW115626   0.837   3.357  13.926 -1.2461  0.2874  0.0602
 1330SOL    HW215627   0.719   3.384  14.015 -0.8880 -2.0292  1.3955
 1331SOL     OW15628   4.259   4.110   1.887  0.0428 -0.2076  0.0162
 1331SOL    HW115629   4.308   4.107   1.804  1.2931  0.5471  0.7172
 1331SOL    HW215630   4.322   4.074   1.949  0.4984 -0.8422 -0.8055
 1332SOL     OW15631   0.537   2.616   2.144 -0.2594 -0.2459 -0.5055
 1332SOL    HW115632   0.537   2.527   2.178  0.5360 -0.1284 -0.2122
 1332SOL    HW215633   0.632   2.619   2.153  0.0546 -1.2916 -3.4030
 1333SOL     OW15634   2.824   0.939   4.774  0.2134  0.1750 -0.0446
 1333SOL    HW115635   2.729   0.938   4.766  0.0898 -1.8614  1.7281
 1333SOL    HW215636   2.839   0.845   4.765  1.7357  0.0600  3.4244
 1334SOL     OW15637   4.291   0.566   3.335 -0.2129 -0.1154 -0.1532
 1334SOL    HW115638   4.329   0.553   3.422 -3.2193  2.2233  1.4737
 1334SOL    HW215639   4.272   0.659   3.338 -0.7148 -0.2270  0.1922
 1335SOL     OW15640   0.786   2.455   6.032 -0.4041 -0.2531  0.2385
 1335SOL    HW115641   0.776   2.374   6.083 -2.8326 -1.4033 -2.0564
 1335SOL    HW215642   0.747   2.427   5.949  0.4358 -0.3823 -0.1149
 1336SOL     OW15643   0.189   4.094   3.968  0.3983  0.3508  0.3972
 1336SOL    HW115644   0.261   4.156   3.977 -0.4585  1.1719  1.5925
 1336SOL    HW215645   0.233   4.017   4.004 -0.7655 -0.7177 -0.4763
 1337SOL     OW15646   1.522   2.574  12.030 -0.2789  0.1622  0.5640
 1337SOL    HW115647   1.609   2.556  11.994 -1.0847 -0.1820 -1.2090
 1337SOL    HW215648   1.547   2.615  12.113  2.6608 -1.6500  0.5737
 1338SOL     OW15649   2.722   2.668   3.841  0.1490 -0.6683  0.0554
 1338SOL    HW115650   2.676   2.656   3.925 -0.7946  0.3972 -0.3175
 1338SOL    HW215651   2.662   2.622   3.783  0.0404  1.0300 -1.1676
 1339SOL     OW15652   1.674   3.259   5.542  0.4165 -0.1306  0.1818
 1339SOL    HW115653   1.733   3.187   5.562 -0.0601 -0.7240 -0.5076
 1339SOL    HW215654   1.717   3.286   5.461 -2.3727  0.3700 -1.1647
 1340SOL     OW15655   3.024   0.850   4.017  0.3619  0.8433  0.1421
 1340SOL    HW115656   2.981   0.766   4.034 -1.1334  1.6180  0.1650
 1340SOL    HW215657   3.113   0.824   3.995  0.2532  0.6735 -0.0988
 1341SOL     OW15658   4.074   3.320   4.438  0.1069  0.6191 -0.1207
 1341SOL    HW115659   4.084   3.386   4.369 -1.2625  2.2446  1.2442
 1341SOL    HW215660   3.983   3.295   4.424  0.4597 -0.0201 -1.3094
 1342SOL     OW15661   4.346   4.176   6.988 -0.4263 -0.0029  0.0920
 1342SOL    HW115662   4.343   4.082   6.970 -0.0445  0.3475 -1.7462
 1342SOL    HW215663   4.410   4.182   7.059  1.1463 -1.6800 -1.2028
 1343SOL     OW15664   1.363   0.131   1.349  0.0090 -0.6600 -0.0164
 1343SOL    HW115665   1.387   0.205   1.404 -0.7503 -0.0799 -0.4751
 1343SOL    HW215666   1.367   0.055   1.408  1.0933 -0.0623  0.6678
 1344SOL     OW15667   1.511   1.701  10.181 -0.0566  0.5226 -0.1309
 1344SOL    HW115668   1.480   1.641  10.113 -1.7843  0.7223  0.4989
 1344SOL    HW215669   1.565   1.644  10.236 -2.7385 -0.1013  1.8174
 1345SOL     OW15670   3.212   1.147  10.511 -0.0050  0.7552  0.1738
 1345SOL    HW115671   3.185   1.060  10.482  0.3938  0.3518  1.0307
 1345SOL    HW215672   3.251   1.177  10.429  0.0045  1.0790  0.2943
 1346SOL     OW15673   0.273   4.622  15.082  0.0546  0.1726  0.2453
 1346SOL    HW115674   0.208   4.691  15.072  1.3649  1.3031 -0.5851
 1346SOL    HW215675   0.327   4.638  15.004 -0.8712 -0.1527 -0.4646
 1347SOL     OW15676   4.622   3.809   6.080 -0.1853  0.0335  0.3632
 1347SOL    HW115677   4.593   3.766   6.000 -0.6688 -0.2477  0.6903
 1347SOL    HW215678   4.612   3.902   6.060  0.6730 -0.1309 -0.8027
 1348SOL     OW15679   0.582   1.915   2.271 -0.5233 -0.1321 -0.0346
 1348SOL    HW115680   0.550   1.826   2.257  1.9041 -1.0977  0.4145
 1348SOL    HW215681   0.535   1.949   2.347  0.2406  0.5379  0.1364
 1349SOL     OW15682   1.857   1.622   4.945 -0.3926 -0.3971  0.2079
 1349SOL    HW115683   1.804   1.569   4.884 -0.5193 -1.1178  0.9472
 1349SOL    HW215684   1.903   1.552   4.991 -0.7851 -1.3688 -0.8499
 1350SOL     OW15685   3.722   1.975   8.413 -0.2002  0.4099  0.9571
 1350SOL    HW115686   3.691   1.962   8.503 -1.2268 -2.4787  0.1724
 1350SOL    HW215687   3.678   1.902   8.371 -1.3494  1.3115  0.5890
 1351SOL     OW15688   0.992   0.078   7.044  0.2846 -0.3530 -0.0078
 1351SOL    HW115689   0.944   0.146   7.092 -0.1086 -0.0582 -0.8150
 1351SOL    HW215690   1.082   0.108   7.043  0.4274 -0.8877 -1.7286
 1352SOL     OW15691   2.347   2.926   4.023  0.7442  0.3006  0.2955
 1352SOL    HW115692   2.348   2.879   4.107 -0.9866 -1.1212 -0.4859
 1352SOL    HW215693   2.404   2.874   3.966 -0.5564 -0.7779  0.0020
 1353SOL     OW15694   3.324   2.819   1.866 -0.0094 -0.2856 -0.3631
 1353SOL    HW115695   3.345   2.726   1.873  1.5832  0.1812  1.1864
 1353SOL    HW215696   3.401   2.857   1.824  0.0885  3.1165  2.8434
 1354SOL     OW15697   0.204   0.728   9.345  0.3326  0.0554 -0.4372
 1354SOL    HW115698   0.160   0.697   9.424  1.7741 -1.2267 -0.1410
 1354SOL    HW215699   0.194   0.823   9.354 -1.2104 -0.1342 -0.2709
 1355SOL     OW15700   4.205   1.735   1.412 -0.4441 -0.0401  0.5999
 1355SOL    HW115701   4.186   1.818   1.368 -1.8544 -0.1355  1.0182
 1355SOL    HW215702   4.234   1.761   1.499  0.2960 -1.5588  0.8053
 1356SOL     OW15703   1.455   4.145   1.548 -0.1254  0.3362 -0.1392
 1356SOL    HW115704   1.506   4.125   1.626 -0.0674 -2.8034 -0.9950
 1356SOL    HW215705   1.527   4.165   1.489  0.1927  2.1850  0.8765
 1357SOL     OW15706   0.264   1.800   1.333 -0.1088 -0.5411 -0.2280
 1357SOL    HW115707   0.334   1.778   1.395 -0.3224  0.0626  0.2314
 1357SOL    HW215708   0.225   1.713   1.323  0.3324 -0.9359  1.4896
 1358SOL     OW15709   2.629   4.168   3.412 -0.2001  0.7096 -0.0989
 1358SOL    HW115710   2.674   4.103   3.465 -1.2852 -0.5924 -0.7929
 1358SOL    HW215711   2.657   4.135   3.326  1.8724  0.1943  0.7727
 1359SOL     OW15712   3.762   2.334  11.416 -0.0082  0.2014 -0.4816
 1359SOL    HW115713   3.772   2.296  11.504 -1.0481  3.1680  0.9091
 1359SOL    HW215714   3.783   2.425  11.438  0.2750  0.4701 -1.9013
 1360SOL     OW15715   2.165   4.621   3.400 -0.2770  0.3255  0.4613
 1360SOL    HW115716   2.073   4.601   3.385 -0.1266 -0.7138  0.9557
 1360SOL    HW215717   2.203   4.548   3.352  0.5450 -0.0226  1.6497
 1361SOL     OW15718   1.743   0.951   5.336  0.6859  0.1858  0.0810
 1361SOL    HW115719   1.651   0.976   5.323 -0.2339 -2.2079  2.1100
 1361SOL    HW215720   1.742   0.863   5.374  0.0753  0.2152  0.1383
 1362SOL     OW15721   3.439   4.081   2.670 -0.0320  0.1162  0.2521
 1362SOL    HW115722   3.511   4.095   2.731 -0.6906 -0.8490  1.2477
 1362SOL    HW215723   3.365   4.050   2.721 -2.3104  0.9511 -2.5552
 1363SOL     OW15724   3.743   4.238   9.693 -0.0728 -0.2184  0.6220
 1363SOL    HW115725   3.742   4.156   9.741 -3.0586 -0.3337  0.3359
 1363SOL    HW215726   3.796   4.217   9.615 -0.3919  5.6081 -1.1975
 1364SOL     OW15727   2.402   2.874  10.181 -0.9365  0.3867  0.3276
 1364SOL    HW115728   2.404   2.848  10.273 -0.7500  0.4242  0.3339
 1364SOL    HW215729   2.361   2.960  10.178 -0.9265  0.3666 -0.6466
 1365SOL     OW15730   0.111   1.775   3.717 -0.1925 -0.0403  0.1599
 1365SOL    HW115731   0.082   1.695   3.673  0.4698  0.6210 -1.4646
 1365SOL    HW215732   0.028   1.811   3.749 -0.4251 -0.4751  0.0399
 1366SOL     OW15733   1.157   3.563   2.042 -0.2633 -0.4298 -0.5032
 1366SOL    HW115734   1.248   3.568   2.069  0.2268 -0.9561 -2.1015
 1366SOL    HW215735   1.116   3.623   2.105  3.8884  1.1339  0.7008
 1367SOL     OW15736   0.056   4.015   3.280  0.4555  0.1836  0.4386
 1367SOL    HW115737   4.714   3.996   3.333 -0.9918  0.6804 -1.4888
 1367SOL    HW215738   0.036   3.969   3.199  2.4460  0.2799 -0.1111
 1368SOL     OW15739   2.947   4.013   4.234  0.0654 -1.3031  0.1487
 1368SOL    HW115740   2.973   4.047   4.148 -0.1973 -1.3802  0.0396
 1368SOL    HW215741   2.994   4.072   4.293 -0.8826  0.9076 -1.2762
 1369SOL     OW15742   3.965   4.520  15.627  0.5409 -0.2394 -0.1889
 1369SOL    HW115743   4.015   4.582  15.681  2.1863  0.4538 -2.5187
 1369SOL    HW215744   3.922   4.563  15.553  2.7222  1.3010 -0.5528
 1370SOL     OW15745   0.090   0.499   5.442 -0.4161 -0.5348  0.1343
 1370SOL    HW115746   0.103   0.479   5.534 -0.7820 -1.1845  0.0500
 1370SOL    HW215747   0.009   0.450   5.427  0.1659 -2.1500  2.3503
 1371SOL     OW15748   1.009   3.978   0.220 -0.1394 -0.1255  0.4828
 1371SOL    HW115749   0.974   3.889   0.225  1.8189 -0.9269 -0.2329
 1371SOL    HW215750   1.041   3.991   0.131  1.4508  0.1737  1.0946
 1372SOL     OW15751   1.686   1.178  11.747  0.5217  0.6744  0.1045
 1372SOL    HW115752   1.712   1.173  11.655  0.9573  1.2874  0.1953
 1372SOL    HW215753   1.667   1.272  11.746 -0.8835  0.3743 -1.3962
 1373SOL     OW15754   2.477   3.501   7.896  0.2172  0.3996 -0.3129
 1373SOL    HW115755   2.529   3.581   7.905 -0.1769  0.2434  3.5869
 1373SOL    HW215756   2.413   3.519   7.965 -0.4886  1.7209 -1.3261
 1374SOL     OW15757   1.746   0.863   5.643  0.2130  0.2457 -0.4317
 1374SOL    HW115758   1.756   0.794   5.709  0.0218 -0.7061 -1.3883
 1374SOL    HW215759   1.708   0.807   5.575 -0.6789 -0.0095  0.2784
 1375SOL     OW15760   0.783   1.885   7.592  0.4463 -0.1931 -0.4488
 1375SOL    HW115761   0.807   1.931   7.672  0.4688 -0.4592 -0.3004
 1375SOL    HW215762   0.795   1.794   7.618  2.0016  0.0547 -0.3333
 1376SOL     OW15763   3.753   0.061   4.272  0.0826 -0.0893 -0.3513
 1376SOL    HW115764   3.824   4.733   4.279  1.9078  1.6354 -3.1625
 1376SOL    HW215765   3.774   0.109   4.192  0.9795 -0.8479 -0.5574
 1377SOL     OW15766   0.244   4.321   1.917  0.0356 -0.6615  0.0341
 1377SOL    HW115767   0.307   4.257   1.884  0.0296 -1.8147  2.2919
 1377SOL    HW215768   0.285   4.369   1.989  1.1369 -0.6526 -0.5973
 1378SOL     OW15769   1.175   3.663   7.397 -0.2443  0.0553  0.0988
 1378SOL    HW115770   1.133   3.726   7.456 -0.8129  0.9059 -1.2260
 1378SOL    HW215771   1.132   3.584   7.429  0.4656 -0.8299 -1.1353
 1379SOL     OW15772   1.212   4.363   4.931  0.0053 -0.0580  0.0242
 1379SOL    HW115773   1.145   4.317   4.982  1.8921 -0.9928  1.6822
 1379SOL    HW215774   1.210   4.296   4.862  5.1821  0.9895 -1.1311
 1380SOL     OW15775   4.650   3.927   8.952  0.2083  0.2934  0.0620
 1380SOL    HW115776   4.588   3.859   8.926  1.2335  0.4198 -2.7019
 1380SOL    HW215777   4.607   3.941   9.036  0.5939 -1.2928  0.5176
 1381SOL     OW15778   0.407   0.193  17.325  0.4259 -0.4749 -0.0306
 1381SOL    HW115779   0.499   0.203  17.300  0.1522  1.2869 -0.3512
 1381SOL    HW215780   0.415   0.202  17.420 -0.5566  1.8484 -0.1475
 1382SOL     OW15781   4.490   0.455   0.872  0.0673 -0.0524  0.3701
 1382SOL    HW115782   4.403   0.417   0.887 -0.4282  0.7513 -0.4492
 1382SOL    HW215783   4.477   0.549   0.862  1.5305 -0.0726 -1.8964
 1383SOL     OW15784   2.647   2.182   3.988  0.2893 -0.5238  0.0399
 1383SOL    HW115785   2.594   2.203   3.912 -0.7008 -0.7276  0.6674
 1383SOL    HW215786   2.721   2.243   3.988  0.4952 -0.7400  3.0756
 1384SOL     OW15787   1.170   3.401   0.954 -0.5969 -0.4136  0.2409
 1384SOL    HW115788   1.226   3.437   1.023 -1.5062 -2.2066  1.8713
 1384SOL    HW215789   1.223   3.420   0.876 -0.9331  3.4471  0.9170
 1385SOL     OW15790   3.367   2.858  10.243  0.3810 -0.0799 -0.1430
 1385SOL    HW115791   3.289   2.889  10.198 -0.7030 -0.9480  1.1425
 1385SOL    HW215792   3.407   2.941  10.268 -0.6461  0.9218 -1.8305
 1386SOL     OW15793   3.618   3.361  15.772  0.2380 -0.2006  0.0544
 1386SOL    HW115794   3.522   3.362  15.774  0.2569  2.1381 -0.2683
 1386SOL    HW215795   3.640   3.376  15.681 -2.0464 -0.3491 -0.5285
 1387SOL     OW15796   1.347   0.887   8.967 -0.7116 -0.1898  0.3216
 1387SOL    HW115797   1.382   0.974   8.985  0.4599 -0.7473  0.7005
 1387SOL    HW215798   1.412   0.833   9.012  0.1855  2.2329  1.9252
 1388SOL     OW15799   4.090   2.660   5.178  0.1643  0.1734  0.9156
 1388SOL    HW115800   3.998   2.686   5.191 -0.5368 -1.8967 -0.0606
 1388SOL    HW215801   4.122   2.745   5.148  0.5201  0.4961  2.2065
 1389SOL     OW15802   4.111   3.873   8.697  0.4402 -0.3454 -0.0622
 1389SOL    HW115803   4.031   3.827   8.724 -1.3414  2.1398 -1.1163
 1389SOL    HW215804   4.133   3.805   8.634  0.7028 -1.9971  1.8032
 1390SOL     OW15805   1.361   1.917   2.856  0.1105 -0.3321 -0.1362
 1390SOL    HW115806   1.442   1.868   2.866  0.1652 -0.4219 -1.0096
 1390SOL    HW215807   1.298   1.847   2.839 -1.1211  0.2432  2.0151
 1391SOL     OW15808   0.477   2.613   5.827 -0.5508  0.0084  0.0384
 1391SOL    HW115809   0.395   2.593   5.873 -0.6285 -1.1585 -0.6140
 1391SOL    HW215810   0.538   2.597   5.898  0.1360 -0.8162 -0.7318
 1392SOL     OW15811   4.148   2.142   7.258  0.6665  0.2412  0.4705
 1392SOL    HW115812   4.102   2.064   7.289  1.2064  0.1092  0.9376
 1392SOL    HW215813   4.075   2.204   7.265  0.2239 -0.2237 -0.0674
 1393SOL     OW15814   0.185   3.226   8.062 -0.2390 -0.0653  0.4400
 1393SOL    HW115815   0.244   3.296   8.033 -3.4750  1.5145 -2.2873
 1393SOL    HW215816   0.105   3.277   8.066 -0.5493 -0.5435  0.3224
 1394SOL     OW15817   2.659   0.446   7.724 -0.1838 -0.1639 -0.3472
 1394SOL    HW115818   2.565   0.463   7.716 -0.4459 -1.1503  0.5315
 1394SOL    HW215819   2.674   0.497   7.804 -0.1217 -1.4438  0.4598
 1395SOL     OW15820   3.439   1.471   7.173 -0.4182  0.1620 -0.7301
 1395SOL    HW115821   3.452   1.549   7.119  2.9120 -0.1833 -0.4277
 1395SOL    HW215822   3.470   1.404   7.112  0.1967  0.3685 -0.6380
 1396SOL     OW15823   1.127   0.931   9.108 -0.4323  0.1472  0.3958
 1396SOL    HW115824   1.197   0.919   9.043 -1.5902 -0.2797 -0.7788
 1396SOL    HW215825   1.056   0.957   9.049 -0.5110 -1.4234 -0.1796
 1397SOL     OW15826   2.142   2.397  12.708  0.1656 -0.1718 -0.4152
 1397SOL    HW115827   2.184   2.351  12.635  3.7762 -0.5584  1.9185
 1397SOL    HW215828   2.059   2.434  12.677  0.8341  2.4181  0.8652
 1398SOL     OW15829   4.416   4.208   3.739  0.0780 -0.0756 -0.1105
 1398SOL    HW115830   4.410   4.257   3.822 -1.4265 -1.9943  0.8914
 1398SOL    HW215831   4.508   4.224   3.716  0.6218  0.4519  2.4014
 1399SOL     OW15832   3.747   0.404   6.433  1.0280  0.1568  0.1339
 1399SOL    HW115833   3.690   0.448   6.496  0.7266  0.4664 -0.3541
 1399SOL    HW215834   3.782   0.340   6.495 -0.2994 -0.7648 -0.0577
 1400SOL     OW15835   0.582   4.541   8.935 -0.3122 -0.4006  0.0411
 1400SOL    HW115836   0.561   4.635   8.933 -0.4089 -0.4612 -1.7266
 1400SOL    HW215837   0.642   4.533   9.008 -0.2611  0.3020  0.0781
 1401SOL     OW15838   2.482   1.720  10.205 -0.2061  0.0038  0.4264
 1401SOL    HW115839   2.550   1.705  10.271 -0.3690 -2.0451  0.1416
 1401SOL    HW215840   2.475   1.815  10.212  4.0005  0.2520  1.0380
 1402SOL     OW15841   3.155   4.069   0.759  0.2923  0.1865 -0.3056
 1402SOL    HW115842   3.067   4.099   0.780 -0.0910  1.3581 -3.6316
 1402SOL    HW215843   3.148   3.981   0.723  2.7113 -0.6232  1.1707
 1403SOL     OW15844   0.782   0.416   1.511 -0.5139  0.6269 -0.3201
 1403SOL    HW115845   0.854   0.414   1.448  0.6693  2.1002  0.9752
 1403SOL    HW215846   0.704   0.381   1.469 -1.6112  1.1137  1.3251
 1404SOL     OW15847   3.371   2.739   1.545  0.0899 -0.4502 -0.1975
 1404SOL    HW115848   3.378   2.806   1.613 -1.3465 -0.0440 -0.4531
 1404SOL    HW215849   3.409   2.659   1.582  0.8207 -0.8384 -1.7686
 1405SOL     OW15850   2.145   3.329  14.390 -0.0625  0.2369  0.0840
 1405SOL    HW115851   2.231   3.288  14.393  0.0680  0.5332  0.4119
 1405SOL    HW215852   2.163   3.408  14.440  0.4387  1.0215 -1.3449
 1406SOL     OW15853   2.527   0.085   4.191 -0.0492 -0.1212  0.3199
 1406SOL    HW115854   2.612   0.042   4.192  0.2709  0.5269  2.0000
 1406SOL    HW215855   2.544   0.176   4.166  2.5916 -0.6690  0.1891
 1407SOL     OW15856   0.300   4.021  15.632  0.2554  0.4876  0.2934
 1407SOL    HW115857   0.304   4.050  15.541  2.0588  1.3596  0.6606
 1407SOL    HW215858   0.376   3.963  15.625  0.9453  1.5559 -1.0537
 1408SOL     OW15859   3.186   0.863   6.775  0.3750  0.2883 -0.1253
 1408SOL    HW115860   3.111   0.821   6.817  1.5281 -0.5264  1.1082
 1408SOL    HW215861   3.198   0.933   6.839 -3.7409 -0.7419  1.7895
 1409SOL     OW15862   3.056   2.005  10.732 -0.4232  0.9124 -0.2919
 1409SOL    HW115863   3.150   1.991  10.741 -0.7916  0.1740  2.4359
 1409SOL    HW215864   3.016   1.951  10.800  0.7678  2.3802  1.5652
 1410SOL     OW15865   0.580   1.299   3.504  0.0980  0.0094  0.4735
 1410SOL    HW115866   0.499   1.335   3.468  0.7975  0.3177 -0.7719
 1410SOL    HW215867   0.628   1.374   3.538 -0.6644  0.9706 -0.5597
 1411SOL     OW15868   0.289   2.891   8.518  0.4749  0.1187 -0.4511
 1411SOL    HW115869   0.301   2.986   8.514  4.2813 -0.3814 -0.3623
 1411SOL    HW215870   0.276   2.863   8.428 -1.3572 -1.6936  0.3688
 1412SOL     OW15871   2.699   3.840   7.151 -0.2953  0.3890 -0.6980
 1412SOL    HW115872   2.677   3.786   7.227 -0.4701  1.0216 -0.2950
 1412SOL    HW215873   2.791   3.814   7.143 -0.5633 -0.9054  0.3899
 1413SOL     OW15874   2.852   1.903   5.511 -0.1868 -0.1915  0.0373
 1413SOL    HW115875   2.765   1.915   5.548  0.1618 -1.2340  1.1790
 1413SOL    HW215876   2.899   1.982   5.536 -0.7192  0.7337 -1.8601
 1414SOL     OW15877   1.156   0.127   3.939 -0.4650 -0.3099 -0.2712
 1414SOL    HW115878   1.247   0.097   3.940 -0.4618 -0.2936 -0.1243
 1414SOL    HW215879   1.112   0.053   3.897  0.5970 -1.4497  0.6397
 1415SOL     OW15880   1.639   3.513   6.418 -0.0940 -0.1455  0.6063
 1415SOL    HW115881   1.639   3.520   6.514  0.9162  1.6296  0.4787
 1415SOL    HW215882   1.576   3.580   6.392  2.4727  1.6863 -0.8758
 1416SOL     OW15883   2.491   1.315   7.838  0.0929  0.5135  0.0193
 1416SOL    HW115884   2.530   1.228   7.851  2.2366  1.7658  2.0710
 1416SOL    HW215885   2.545   1.361   7.902 -0.3497 -0.9943  1.4765
 1417SOL     OW15886   3.478   0.566  15.535  0.9674  0.1611  0.6612
 1417SOL    HW115887   3.513   0.589  15.621  0.5170  0.3174  0.8020
 1417SOL    HW215888   3.520   0.630  15.478  0.2512  0.4156  0.4206
 1418SOL     OW15889   3.286   1.640   3.608  0.4238 -0.1661 -0.0457
 1418SOL    HW115890   3.203   1.636   3.561 -0.7977  2.6590  1.8842
 1418SOL    HW215891   3.263   1.673   3.695  0.0016  2.6401 -1.2383
 1419SOL     OW15892   0.240   1.340   3.176 -0.2325 -0.0124  0.2590
 1419SOL    HW115893   0.165   1.290   3.142 -0.4738  0.3539  0.2509
 1419SOL    HW215894   0.221   1.426   3.139 -0.0690 -1.0401 -2.1705
 1420SOL     OW15895   4.529   0.544   3.094 -0.2321  0.1651 -0.1177
 1420SOL    HW115896   4.610   0.540   3.144 -0.9348 -0.3064  0.9856
 1420SOL    HW215897   4.460   0.569   3.156  1.4076  1.0896  1.3332
 1421SOL     OW15898   3.599   1.786  16.789  0.5158  0.5333 -0.0869
 1421SOL    HW115899   3.669   1.798  16.854  1.2769 -1.3793 -0.5355
 1421SOL    HW215900   3.631   1.832  16.712  0.1569  0.6375 -0.1695
 1422SOL     OW15901   2.215   3.777   4.991  0.4305  0.4375  0.4597
 1422SOL    HW115902   2.290   3.760   5.048 -0.0858  0.6867  1.2168
 1422SOL    HW215903   2.216   3.687   4.958 -0.0771  0.3966  0.5492
 1423SOL     OW15904   2.023   2.508   6.176 -0.3220  0.0230 -0.3396
 1423SOL    HW115905   2.000   2.421   6.145  1.3882 -0.2940 -0.7175
 1423SOL    HW215906   1.935   2.528   6.209  1.4052  1.7501  3.1858
 1424SOL     OW15907   0.464   1.771   1.524 -0.5329 -0.1008  0.7116
 1424SOL    HW115908   0.526   1.843   1.540 -1.2924  0.5822  0.5557
 1424SOL    HW215909   0.508   1.693   1.490 -1.6448 -0.9307  1.1816
 1425SOL     OW15910   0.003   0.153  12.141  0.1944  0.0128 -0.0925
 1425SOL    HW115911   0.019   0.201  12.222  0.9187  0.5837 -0.5712
 1425SOL    HW215912   4.644   0.170  12.145 -0.0222 -2.0207  2.6854
 1426SOL     OW15913   4.426   3.414   2.538 -0.6394  0.2399 -0.0089
 1426SOL    HW115914   4.405   3.338   2.483 -2.5715  1.1579 -0.5356
 1426SOL    HW215915   4.348   3.468   2.526 -1.8059 -1.6126 -0.8307
 1427SOL     OW15916   2.290   3.131  11.522 -0.7857  0.4436  0.0643
 1427SOL    HW115917   2.262   3.205  11.576  0.4055  0.1301  1.1126
 1427SOL    HW215918   2.240   3.141  11.441 -1.5285 -0.6606  0.3877
 1428SOL     OW15919   3.562   1.000   4.748  0.2241  0.3404  0.5470
 1428SOL    HW115920   3.479   1.044   4.765 -0.0820 -0.1755  0.4041
 1428SOL    HW215921   3.534   0.908   4.752  1.0655 -0.0430 -2.1284
 1429SOL     OW15922   0.511   0.762   7.479  0.0094 -0.2358 -0.1883
 1429SOL    HW115923   0.542   0.673   7.497 -0.6095 -0.1312  1.4309
 1429SOL    HW215924   0.552   0.762   7.393 -0.4123  0.3602 -0.3894
 1430SOL     OW15925   3.364   3.475   4.496 -0.2915  0.1662 -0.6005
 1430SOL    HW115926   3.319   3.536   4.437  0.3649  2.2693  1.0713
 1430SOL    HW215927   3.347   3.525   4.576 -1.1239  0.7982 -1.1693
 1431SOL     OW15928   3.025   4.169   7.656 -0.5623  0.6433 -0.0380
 1431SOL    HW115929   2.997   4.244   7.707  1.7537  2.3951 -1.3678
 1431SOL    HW215930   2.958   4.156   7.588 -1.3068 -0.4721  0.8987
 1432SOL     OW15931   2.375   2.208  17.275 -0.1519  0.3697  0.3559
 1432SOL    HW115932   2.360   2.300  17.299 -2.0240 -0.1993  1.4641
 1432SOL    HW215933   2.435   2.181  17.344  2.2424 -2.3332 -2.8218
 1433SOL     OW15934   0.184   3.979   5.979  0.3446 -0.0710 -0.0303
 1433SOL    HW115935   0.202   4.015   6.066  3.0965 -1.0507 -0.2019
 1433SOL    HW215936   0.093   4.002   5.960  0.7023 -0.0833 -1.6998
 1434SOL     OW15937   2.851   3.214   1.286 -0.0569 -0.6285 -0.6293
 1434SOL    HW115938   2.943   3.226   1.312 -0.1650  3.3205 -2.0541
 1434SOL    HW215939   2.863   3.213   1.191 -1.3995 -0.8522 -0.7963
 1435SOL     OW15940   0.081   2.931   5.886  0.2482 -0.3048  0.0042
 1435SOL    HW115941   0.090   2.912   5.793  0.2328 -0.1292 -0.0333
 1435SOL    HW215942   0.165   2.976   5.894  0.9284 -1.3631 -1.1797
 1436SOL     OW15943   4.169   2.046  13.624 -0.3436 -0.1326  0.0044
 1436SOL    HW115944   4.173   1.965  13.573 -0.9605  0.8586 -1.6374
 1436SOL    HW215945   4.077   2.068  13.611  0.4814  2.8527 -0.9585
 1437SOL     OW15946   1.335   2.992   3.177  0.2161 -0.3222 -0.4889
 1437SOL    HW115947   1.341   3.055   3.104  1.5637  0.2461  0.1155
 1437SOL    HW215948   1.415   3.007   3.227 -0.0973 -1.2172  0.2790
 1438SOL     OW15949   3.406   1.804   4.683 -0.6102  0.0368  0.1978
 1438SOL    HW115950   3.500   1.782   4.678 -0.5706  0.7513 -2.1062
 1438SOL    HW215951   3.418   1.865   4.756  2.3494 -0.1101 -0.1659
 1439SOL     OW15952   3.581   1.384   4.084 -0.0756 -0.4076  0.1180
 1439SOL    HW115953   3.643   1.456   4.092  0.2186 -0.8702  1.9372
 1439SOL    HW215954   3.619   1.325   4.019 -1.1228 -2.4587  1.3575
 1440SOL     OW15955   0.127   4.136   1.040  0.3393  0.2743  0.1302
 1440SOL    HW115956   0.197   4.111   1.099 -0.9557  1.2237  2.0582
 1440SOL    HW215957   0.161   4.219   1.005 -1.3403  0.9955  0.2273
 1441SOL     OW15958   1.579   2.389  12.335  0.0455  0.0622  0.2578
 1441SOL    HW115959   1.564   2.313  12.279 -0.5174  0.2083  0.2053
 1441SOL    HW215960   1.503   2.392  12.393  0.1483 -1.1333  0.4410
 1442SOL     OW15961   2.301   3.945   7.767 -0.0151  0.1627 -0.3936
 1442SOL    HW115962   2.379   3.916   7.815 -0.2931  2.6888  1.6191
 1442SOL    HW215963   2.344   3.975   7.687 -0.5438 -0.0725 -0.7624
 1443SOL     OW15964   3.250   2.240   0.267 -0.0467 -0.4554 -0.3032
 1443SOL    HW115965   3.254   2.318   0.211  0.7083 -0.7191 -0.6201
 1443SOL    HW215966   3.220   2.179   0.199 -1.5384 -1.5276  1.3477
 1444SOL     OW15967   4.080   4.533  13.786  0.3618  0.3144 -0.2940
 1444SOL    HW115968   4.078   4.447  13.744  0.9645  0.3278 -0.3475
 1444SOL    HW215969   4.048   4.580  13.709 -0.5441  0.7176  0.3216
 1445SOL     OW15970   3.878   3.860  12.815  0.2116 -0.3272  0.0944
 1445SOL    HW115971   3.928   3.845  12.734 -1.6727 -0.7612 -1.0018
 1445SOL    HW215972   3.866   3.955  12.808 -1.2323 -0.4896  0.4070
 1446SOL     OW15973   2.448   2.524   9.596 -0.2110 -0.4195  0.0888
 1446SOL    HW115974   2.391   2.471   9.652 -1.0749  0.0690 -0.3209
 1446SOL    HW215975   2.393   2.600   9.577 -0.5485 -1.0947 -1.5795
 1447SOL     OW15976   2.960   1.161   9.619 -0.1685 -0.2250  0.3343
 1447SOL    HW115977   2.910   1.240   9.641  1.8841  1.6863 -1.9227
 1447SOL    HW215978   3.040   1.189   9.574 -0.4563 -3.2115 -2.0286
 1448SOL     OW15979   2.211   3.188   6.030  0.4227 -0.1839  0.0267
 1448SOL    HW115980   2.236   3.153   6.116  1.7152 -0.9821 -0.6787
 1448SOL    HW215981   2.134   3.238   6.059  1.1193  1.2235 -0.5481
 1449SOL     OW15982   0.806   2.648   8.255 -0.0779  0.4363  0.6566
 1449SOL    HW115983   0.767   2.563   8.231 -1.0493  1.6022 -1.8954
 1449SOL    HW215984   0.849   2.669   8.172  0.2279 -0.4989  0.5720
 1450SOL     OW15985   3.496   4.372   9.580 -0.4342 -0.0261  1.1167
 1450SOL    HW115986   3.578   4.354   9.625  0.8153  1.4375 -0.5689
 1450SOL    HW215987   3.526   4.446   9.527 -0.8719 -0.7225 -0.1193
 1451SOL     OW15988   0.932   0.269   7.453 -0.4374 -0.2726  0.0067
 1451SOL    HW115989   1.004   0.300   7.398  2.5075 -1.8072  3.0248
 1451SOL    HW215990   0.963   0.182   7.479  1.2260 -0.0043 -1.1333
 1452SOL     OW15991   2.810   3.264   5.231  0.1580  0.4293 -0.4115
 1452SOL    HW115992   2.858   3.184   5.212  0.8033  1.3138 -2.5127
 1452SOL    HW215993   2.818   3.309   5.147 -0.5753  0.3050 -0.5481
 1453SOL     OW15994   1.969   0.995   4.783  0.6874 -0.0264 -0.1857
 1453SOL    HW115995   1.929   0.984   4.869 -0.7902  1.0129 -0.7390
 1453SOL    HW215996   2.007   1.082   4.779  0.2179  0.1658 -0.4688
 1454SOL     OW15997   3.101   3.908   2.295  0.1217  0.0551  0.3046
 1454SOL    HW115998   3.167   3.900   2.363  0.0945  1.2975  0.4915
 1454SOL    HW215999   3.034   3.858   2.341  2.0122 -2.1323  0.6334
 1455SOL     OW16000   2.277   0.460   2.322 -0.2272 -0.0668  0.3649
 1455SOL    HW116001   2.340   0.522   2.358  1.1637  0.3062 -2.6678
 1455SOL    HW216002   2.216   0.517   2.275  0.7510 -0.1300 -0.9938
 1456SOL     OW16003   2.034   4.395   2.066  0.8175  0.1999 -0.7448
 1456SOL    HW116004   2.114   4.395   2.014  2.0960  1.0347  1.2364
 1456SOL    HW216005   1.976   4.439   2.004  1.0585  1.1732 -0.2737
 1457SOL     OW16006   2.201   1.455  17.087  0.0210  0.1240 -0.2052
 1457SOL    HW116007   2.229   1.532  17.136 -2.7780  2.2968 -2.0747
 1457SOL    HW216008   2.172   1.398  17.159  1.4911 -0.6255 -0.2071
 1458SOL     OW16009   2.298   3.758  12.994 -0.3185  0.2651  0.5231
 1458SOL    HW116010   2.291   3.806  13.077  1.2562 -2.2984  2.1774
 1458SOL    HW216011   2.233   3.805  12.941  0.5029  1.7979  0.8817
 1459SOL     OW16012   3.409   2.958   0.043  0.8147 -0.0880  0.8060
 1459SOL    HW116013   3.347   2.917   0.104  0.6246 -2.9514 -1.3092
 1459SOL    HW216014   3.482   2.897   0.050  0.2573 -0.6641  1.5871
 1460SOL     OW16015   0.667   4.313  11.624 -0.5826 -0.0152 -0.3002
 1460SOL    HW116016   0.714   4.239  11.663  0.1980  0.2668 -0.7016
 1460SOL    HW216017   0.604   4.265  11.570  0.9490  0.9883 -2.9607
 1461SOL     OW16018   4.735   2.173   8.110 -0.5136 -0.0972 -0.3777
 1461SOL    HW116019   4.690   2.236   8.054  0.0068 -0.5551 -1.3229
 1461SOL    HW216020   4.710   2.088   8.072  1.1074 -0.6986 -0.0883
 1462SOL     OW16021   3.773   3.603   6.351 -0.1993  0.0545  0.3076
 1462SOL    HW116022   3.787   3.540   6.280  3.4529  0.6321  0.5243
 1462SOL    HW216023   3.799   3.685   6.310 -1.0275  0.7138  1.0881
 1463SOL     OW16024   4.617   3.323   1.606 -0.6217 -0.2603 -0.0988
 1463SOL    HW116025   4.552   3.335   1.537 -0.1747  1.4383 -0.2268
 1463SOL    HW216026   4.666   3.246   1.577  1.1428  1.2579 -1.1303
 1464SOL     OW16027   3.265   2.582   6.412 -0.3549  0.2318 -0.1936
 1464SOL    HW116028   3.267   2.579   6.316 -0.9163 -1.4637 -0.1459
 1464SOL    HW216029   3.172   2.578   6.431 -0.0668 -2.4074  0.5936
 1465SOL     OW16030   2.539   0.754   5.399 -0.3903 -0.0284 -0.8343
 1465SOL    HW116031   2.513   0.806   5.475  0.8048  0.0360 -0.4693
 1465SOL    HW216032   2.558   0.822   5.335  1.0479 -0.4264 -0.8214
 1466SOL     OW16033   2.664   0.700   5.759 -0.1555  0.2264 -0.5043
 1466SOL    HW116034   2.683   0.661   5.845 -1.9953 -1.9988 -1.1019
 1466SOL    HW216035   2.617   0.625   5.723 -2.4098  1.2930  0.2440
 1467SOL     OW16036   2.722   0.322   5.569 -0.6328 -0.3327 -0.5758
 1467SOL    HW116037   2.791   0.384   5.593 -1.4218  0.9304 -1.6118
 1467SOL    HW216038   2.648   0.383   5.572 -0.6701 -0.3232 -1.7604
 1468SOL     OW16039   1.514   2.529   1.866  0.4254 -0.5178  0.5009
 1468SOL    HW116040   1.582   2.530   1.932 -0.0469 -2.0005  1.0126
 1468SOL    HW216041   1.556   2.482   1.794  0.7005 -1.3907  1.2326
 1469SOL     OW16042   3.442   2.065   5.120 -0.3633 -0.1139  0.4158
 1469SOL    HW116043   3.469   2.144   5.166  0.4353  0.2932 -0.7472
 1469SOL    HW216044   3.350   2.088   5.103  0.7929  2.6121 -2.0473
 1470SOL     OW16045   2.866   2.145  11.778  0.0012  0.3086 -0.1841
 1470SOL    HW116046   2.782   2.129  11.735 -0.1919  2.2960 -0.5708
 1470SOL    HW216047   2.857   2.239  11.791  0.6399  0.5105 -1.1947
 1471SOL     OW16048   0.605   1.458   7.859  0.0789  0.5204 -0.3338
 1471SOL    HW116049   0.672   1.511   7.903  0.3844 -0.3862  0.3006
 1471SOL    HW216050   0.655   1.377   7.845 -1.4957 -0.1629 -1.8525
 1472SOL     OW16051   2.098   1.621   1.592 -0.2498 -0.1228  0.2470
 1472SOL    HW116052   2.094   1.705   1.545  1.6334  1.4142  2.8652
 1472SOL    HW216053   2.041   1.641   1.666  0.8209 -1.0919  1.3335
 1473SOL     OW16054   0.615   1.222  13.180 -0.1258  0.0536 -0.2882
 1473SOL    HW116055   0.618   1.310  13.141 -0.7397 -0.6722 -1.9964
 1473SOL    HW216056   0.697   1.189  13.145 -1.1733 -1.1162 -1.6526
 1474SOL     OW16057   3.002   3.332   6.073  0.1133 -0.4917  0.2058
 1474SOL    HW116058   2.929   3.279   6.041 -0.3987  1.3659 -1.7029
 1474SOL    HW216059   3.023   3.263   6.136  0.9925 -1.1923 -0.8576
 1475SOL     OW16060   3.678   0.650   4.982  0.5073 -0.0829 -0.1696
 1475SOL    HW116061   3.767   0.620   5.004  0.5394  0.8980  1.0634
 1475SOL    HW216062   3.646   0.562   4.962 -0.8852  0.1589  1.0063
 1476SOL     OW16063   1.429   3.658  12.783 -0.2537 -0.2861 -0.7186
 1476SOL    HW116064   1.523   3.671  12.799  0.4973 -2.2028 -3.6101
 1476SOL    HW216065   1.396   3.746  12.766  3.3073  1.5320  1.6234
 1477SOL     OW16066   4.703   2.371   5.512  0.2053  0.1189  0.0026
 1477SOL    HW116067   4.700   2.404   5.422  1.6150 -3.0397 -1.2085
 1477SOL    HW216068   0.005   2.284   5.500 -0.9619 -0.6059  1.6616
 1478SOL     OW16069   2.109   4.640   1.865  0.5652 -0.0954 -0.0127
 1478SOL    HW116070   2.014   4.635   1.877  0.7082  0.9134  1.5295
 1478SOL    HW216071   2.110   4.609   1.774  0.5076  2.3695 -0.8438
 1479SOL     OW16072   2.704   0.780   2.227  0.3999 -0.5904  0.4301
 1479SOL    HW116073   2.741   0.793   2.315  1.5866  2.4229 -0.5337
 1479SOL    HW216074   2.661   0.694   2.233 -1.0765  0.2337  1.5933
 1480SOL     OW16075   3.479   0.575   6.205  0.0814 -0.3775  0.2618
 1480SOL    HW116076   3.516   0.654   6.243  1.2629 -0.8442  0.0861
 1480SOL    HW216077   3.392   0.610   6.191  0.3732 -0.0568 -0.7123
 1481SOL     OW16078   0.617   3.532  12.866 -0.7037 -0.7379  0.1420
 1481SOL    HW116079   0.611   3.606  12.805  0.0131  0.5984  1.6965
 1481SOL    HW216080   0.533   3.492  12.843 -0.7373 -1.0260  0.7691
 1482SOL     OW16081   0.453   0.053   6.236 -0.5363 -0.0703  0.4136
 1482SOL    HW116082   0.381   4.725   6.237 -1.4528  0.9519 -0.7752
 1482SOL    HW216083   0.492   0.040   6.322 -1.2483 -1.8749  0.4573
 1483SOL     OW16084   1.193   1.865   8.146  0.0006 -0.1393 -0.0108
 1483SOL    HW116085   1.128   1.816   8.197  0.2101  0.5301  0.9052
 1483SOL    HW216086   1.274   1.840   8.190 -0.1459  0.0969  0.4014
 1484SOL     OW16087   3.260   1.361  12.639  0.4746 -0.2721  0.4064
 1484SOL    HW116088   3.342   1.342  12.594  1.2988 -2.4595  2.8466
 1484SOL    HW216089   3.223   1.272  12.643 -0.0407 -0.0419  0.8034
 1485SOL     OW16090   4.733   1.683  13.630  0.5863 -0.3205  0.4489
 1485SOL    HW116091   4.706   1.775  13.621 -1.3058 -0.6629  2.5659
 1485SOL    HW216092   0.067   1.674  13.564  0.3830 -2.3621  0.5083
 1486SOL     OW16093   2.001   1.259  11.071 -0.2777  0.0101  0.2895
 1486SOL    HW116094   1.906   1.263  11.085 -0.3661  0.3516 -0.4012
 1486SOL    HW216095   2.031   1.208  11.146 -3.0094 -0.2173  1.2025
 1487SOL     OW16096   4.211   2.215  12.525  0.0292 -0.1678  0.8497
 1487SOL    HW116097   4.222   2.271  12.449  2.7563 -1.1402  0.5274
 1487SOL    HW216098   4.169   2.276  12.586  0.7109  0.7885  0.3523
 1488SOL     OW16099   3.299   3.268   5.288  0.1070 -0.5753  0.0786
 1488SOL    HW116100   3.217   3.313   5.306  1.2102  1.8549 -0.9168
 1488SOL    HW216101   3.277   3.233   5.201  0.3648 -0.5645  0.0092
 1489SOL     OW16102   1.683   2.169  14.513  0.1848 -0.3224 -0.2813
 1489SOL    HW116103   1.734   2.147  14.591  1.0415 -1.2313 -1.0971
 1489SOL    HW216104   1.645   2.085  14.487  0.6903 -0.2666 -1.2005
 1490SOL     OW16105   1.629   0.897   7.753 -0.2502  0.6002 -0.1980
 1490SOL    HW116106   1.623   0.884   7.658  0.0709  2.5197 -0.4776
 1490SOL    HW216107   1.541   0.871   7.781 -0.4064  0.2077 -1.0402
 1491SOL     OW16108   0.762   3.266   7.320  0.0339 -0.0600  0.2899
 1491SOL    HW116109   0.811   3.347   7.302 -0.2669  0.0625  0.0276
 1491SOL    HW216110   0.714   3.288   7.400 -1.2354 -0.4585 -0.3586
 1492SOL     OW16111   3.247   2.719  15.119 -0.2613  0.0342  0.2499
 1492SOL    HW116112   3.317   2.721  15.185  0.4762  0.5550 -0.5484
 1492SOL    HW216113   3.290   2.742  15.037 -1.0804  0.5243 -0.0380
 1493SOL     OW16114   3.474   3.000   3.658  0.8170  0.2768  0.4503
 1493SOL    HW116115   3.564   3.003   3.627  1.4189 -3.9216  1.7038
 1493SOL    HW216116   3.458   3.088   3.691 -2.3236 -0.2915  0.4451
 1494SOL     OW16117   2.000   3.935   6.021 -0.5220  0.2287 -0.5402
 1494SOL    HW116118   2.041   3.850   6.007 -0.9887 -0.5227  2.6844
 1494SOL    HW216119   1.938   3.900   6.085  0.4545 -0.6340 -0.0703
 1495SOL     OW16120   3.263   3.772  12.473 -0.0855 -0.1080  0.0032
 1495SOL    HW116121   3.260   3.693  12.528  0.9843  0.5355  0.9648
 1495SOL    HW216122   3.210   3.740  12.399 -1.6718  1.1436  0.6025
 1496SOL     OW16123   2.822   2.070   8.174  0.1064 -0.1889  0.5369
 1496SOL    HW116124   2.885   2.108   8.236  2.7207 -0.3994 -2.0294
 1496SOL    HW216125   2.866   2.099   8.094 -0.8135 -0.6536 -0.1300
 1497SOL     OW16126   4.187   2.127   2.829  0.0132 -0.2690 -0.5404
 1497SOL    HW116127   4.111   2.096   2.879  1.0192 -2.7722 -0.5870
 1497SOL    HW216128   4.227   2.180   2.898  0.7391  0.1412 -1.2762
 1498SOL     OW16129   1.817   1.688   6.993  0.3628 -0.5599 -0.2530
 1498SOL    HW116130   1.890   1.638   6.955 -0.7733 -1.1490 -1.6666
 1498SOL    HW216131   1.849   1.779   6.992  1.3027 -0.8832 -0.1072
 1499SOL     OW16132   0.824   0.463   8.950 -0.2611 -0.2624  0.2951
 1499SOL    HW116133   0.730   0.446   8.954 -0.2615 -1.0568 -2.8785
 1499SOL    HW216134   0.835   0.516   9.029 -0.2652 -2.5516  1.8074
 1500SOL     OW16135   0.240   4.714   9.679 -0.0601  0.8047  0.2285
 1500SOL    HW116136   0.317   4.657   9.683 -0.9136 -0.3216  0.3155
 1500SOL    HW216137   0.193   4.691   9.759 -0.6435 -0.2793 -0.4274
 1501SOL     OW16138   4.632   3.102   2.571 -0.4024  0.1304  0.3882
 1501SOL    HW116139   4.617   3.046   2.495 -0.6682  0.1729  0.4082
 1501SOL    HW216140   4.624   3.032   2.636  2.2457 -0.8256 -0.3109
 1502SOL     OW16141   2.349   3.783   8.276 -0.3831 -0.7169  0.0757
 1502SOL    HW116142   2.355   3.861   8.331  0.9057 -0.0812 -0.9838
 1502SOL    HW216143   2.338   3.711   8.339  1.8527  1.1591  2.6248
 1503SOL     OW16144   3.886   3.133   2.736 -0.4569 -0.2192  0.1497
 1503SOL    HW116145   3.970   3.139   2.781 -1.1558  0.4271  1.3729
 1503SOL    HW216146   3.915   3.155   2.647 -0.5621  1.0237  0.4304
 1504SOL     OW16147   2.596   2.915   0.889 -0.3539  0.0793  0.1082
 1504SOL    HW116148   2.687   2.904   0.916  0.4572  0.6313 -2.4324
 1504SOL    HW216149   2.568   2.998   0.928  2.3790  0.6714  0.7530
 1505SOL     OW16150   4.208   3.443   6.611 -0.4051 -0.0942 -0.1149
 1505SOL    HW116151   4.209   3.512   6.545  0.5469 -0.1237 -0.1360
 1505SOL    HW216152   4.279   3.387   6.578 -0.2330 -0.4033  0.7676
 1506SOL     OW16153   1.677   0.655   0.994  0.0834  0.2075  0.1111
 1506SOL    HW116154   1.755   0.697   1.028  2.2311 -2.0481 -2.0501
 1506SOL    HW216155   1.606   0.703   1.037  1.3677  0.4386  1.9542
 1507SOL     OW16156   3.100   2.090   2.329 -0.4501 -0.0458 -0.3675
 1507SOL    HW116157   3.084   2.155   2.397 -1.6510  0.2225 -0.8905
 1507SOL    HW216158   3.061   2.135   2.253 -0.2167 -0.7954 -0.9313
 1508SOL     OW16159   4.232   0.282   2.514  0.3778  0.6500  0.2718
 1508SOL    HW116160   4.178   0.355   2.543  0.0758  0.7166 -0.4686
 1508SOL    HW216161   4.221   0.229   2.593 -0.9641  0.9752  0.3004
 1509SOL     OW16162   0.014   1.975   7.941 -0.4351 -0.0892 -0.5421
 1509SOL    HW116163   0.096   1.940   7.906  0.1866 -0.4416  1.2814
 1509SOL    HW216164   4.685   1.904   7.950 -1.5724  1.3286  2.5234
 1510SOL     OW16165   2.236   0.067  12.369  0.2635 -0.4802 -0.6676
 1510SOL    HW116166   2.174   4.733  12.346  1.2973 -2.1266  1.5468
 1510SOL    HW216167   2.200   0.084  12.456  0.2536 -0.6935 -0.6318
 1511SOL     OW16168   3.947   1.196   8.410  0.0952 -0.1970  0.2167
 1511SOL    HW116169   4.019   1.226   8.355 -2.1947  3.1312 -0.9883
 1511SOL    HW216170   3.949   1.102   8.392 -1.8548 -0.1435 -0.3056
 1512SOL     OW16171   1.858   1.043   0.626  0.1376  0.0778  0.3697
 1512SOL    HW116172   1.860   0.948   0.615 -0.3568  0.1965 -0.6930
 1512SOL    HW216173   1.785   1.066   0.568 -0.0949 -1.6980 -0.0458
 1513SOL     OW16174   2.389   2.121   7.254  0.4540  0.2906  0.1404
 1513SOL    HW116175   2.431   2.067   7.188  1.7953  0.9978  0.4086
 1513SOL    HW216176   2.322   2.064   7.290  1.7758 -1.3032  0.0452
 1514SOL     OW16177   1.072   0.493   6.800  0.3003 -0.3904  0.2012
 1514SOL    HW116178   1.007   0.511   6.732 -0.6749 -1.4414  0.8544
 1514SOL    HW216179   1.154   0.507   6.753 -0.3882 -1.9606 -1.4698
 1515SOL     OW16180   2.507   2.352   9.407  0.3221 -0.1137  0.4931
 1515SOL    HW116181   2.487   2.420   9.472 -1.3742  0.5596 -0.7192
 1515SOL    HW216182   2.416   2.326   9.391  0.3658 -0.6916  1.2030
 1516SOL     OW16183   0.605   4.671   5.621  0.3714  0.2653  0.1235
 1516SOL    HW116184   0.628   0.020   5.583 -1.8267  1.0888  0.6413
 1516SOL    HW216185   0.554   4.617   5.560  0.2573 -0.7468  1.1070
 1517SOL     OW16186   0.448   1.066   6.233 -0.3377  0.1926  0.3781
 1517SOL    HW116187   0.529   1.065   6.283 -0.5449  0.0639  0.7160
 1517SOL    HW216188   0.399   1.005   6.288  0.0420 -0.3851  0.0680
 1518SOL     OW16189   2.200   1.850   4.740  0.2044  0.1068  0.2365
 1518SOL    HW116190   2.290   1.881   4.752 -0.2534  1.8726 -0.9261
 1518SOL    HW216191   2.183   1.821   4.830 -3.3769  0.5516 -0.3049
 1519SOL     OW16192   0.140   1.581   5.952  0.3589 -0.1091  0.5328
 1519SOL    HW116193   0.095   1.661   5.981 -3.1337 -2.4323  1.6033
 1519SOL    HW216194   0.199   1.559   6.024  1.3414 -1.0772 -0.5715
 1520SOL     OW16195   0.042   2.114   5.513 -0.0995  0.2905  0.4984
 1520SOL    HW116196   0.080   2.076   5.433  0.5502 -0.0943  0.9856
 1520SOL    HW216197   0.123   2.104   5.564  0.2932 -0.0454 -0.1800
 1521SOL     OW16198   0.258   3.316  16.567 -0.2116  0.1197 -0.0199
 1521SOL    HW116199   0.307   3.384  16.520 -1.5074  1.4054  0.4860
 1521SOL    HW216200   0.270   3.341  16.658 -0.7554  2.0843 -0.4682
 1522SOL     OW16201   3.365   0.876  17.607 -0.5264 -0.2056 -1.0760
 1522SOL    HW116202   3.394   0.923  17.529  1.6236  0.5477  0.1732
 1522SOL    HW216203   3.324   0.800  17.566  0.7458 -0.9699 -0.9117
 1523SOL     OW16204   1.407   3.864   7.263  0.4993  0.2047  0.4305
 1523SOL    HW116205   1.334   3.857   7.324 -0.9174 -1.7460 -1.4823
 1523SOL    HW216206   1.471   3.919   7.309  1.4190  0.1991 -0.8319
 1524SOL     OW16207   0.347   2.060   8.772 -0.2544  0.0296 -0.4699
 1524SOL    HW116208   0.293   2.100   8.704 -1.7938 -1.0934  0.0856
 1524SOL    HW216209   0.368   2.137   8.826 -0.4103 -0.5824  0.4789
 1525SOL     OW16210   2.442   1.718   8.673  0.1325 -0.1684  0.1772
 1525SOL    HW116211   2.482   1.674   8.748  0.2945 -3.0868 -1.6098
 1525SOL    HW216212   2.500   1.793   8.661 -0.2646  0.1874  0.4790
 1526SOL     OW16213   3.068   2.727   4.505  0.0808 -0.2545  0.2643
 1526SOL    HW116214   3.076   2.713   4.599 -1.2166  1.2680  0.5975
 1526SOL    HW216215   2.979   2.697   4.492 -0.4137  1.2155  0.2125
 1527SOL     OW16216   3.978   2.000   4.512  0.3314 -0.1882 -0.0612
 1527SOL    HW116217   3.929   1.932   4.466  2.2424 -1.4445 -0.2502
 1527SOL    HW216218   4.071   1.983   4.501  0.2200 -0.9668  0.1674
 1528SOL     OW16219   0.101   4.162   9.661 -0.1325 -0.2803 -0.7591
 1528SOL    HW116220   0.098   4.067   9.651  1.0363 -0.3058 -0.8615
 1528SOL    HW216221   0.028   4.195   9.608 -0.3267 -0.1157 -0.3904
 1529SOL     OW16222   3.718   3.939   1.806  0.3359 -0.3326  0.8663
 1529SOL    HW116223   3.682   3.859   1.846  0.6211 -0.9291 -0.0691
 1529SOL    HW216224   3.813   3.935   1.818  0.8680 -0.9806 -3.7482
 1530SOL     OW16225   4.573   1.590   3.917  0.1728  0.3685  0.0284
 1530SOL    HW116226   4.580   1.682   3.893  2.3297  0.0646 -0.5133
 1530SOL    HW216227   4.517   1.551   3.851  1.7400 -2.2335  0.2218
 1531SOL     OW16228   4.179   2.036   3.802 -0.1607 -0.2388  0.4713
 1531SOL    HW116229   4.264   2.044   3.760 -1.6185  0.8402 -2.3045
 1531SOL    HW216230   4.204   2.034   3.895 -4.2804  0.7129  1.6028
 1532SOL     OW16231   4.608   4.150   6.836 -0.5552  0.5060 -0.1883
 1532SOL    HW116232   4.550   4.227   6.836 -1.1083  0.0933  1.2493
 1532SOL    HW216233   4.688   4.198   6.817 -0.5797 -0.4296 -2.5688
 1533SOL     OW16234   2.309   2.110  12.379 -0.1187 -0.4405  0.0861
 1533SOL    HW116235   2.388   2.097  12.326  0.0588 -1.0187  0.4900
 1533SOL    HW216236   2.339   2.063  12.457  1.0925  0.7489  0.3414
 1534SOL     OW16237   0.560   1.808  13.556 -0.2636  0.2279  0.2674
 1534SOL    HW116238   0.474   1.845  13.534 -0.6595 -1.7096 -1.3833
 1534SOL    HW216239   0.531   1.746  13.624  3.3833  0.3414  1.9097
 1535SOL     OW16240   0.241   3.905   3.548  0.2565  0.2208  0.2162
 1535SOL    HW116241   0.269   3.837   3.609 -0.5242 -0.4285 -0.1514
 1535SOL    HW216242   0.188   3.856   3.486  1.6300 -2.6098  1.2868
 1536SOL     OW16243   1.815   3.795   3.378 -0.3032  0.2306 -0.4632
 1536SOL    HW116244   1.854   3.822   3.295 -2.1303 -2.3180 -2.1740
 1536SOL    HW216245   1.854   3.854   3.442 -0.7916  0.8208 -0.7071
 1537SOL     OW16246   3.931   2.653   0.695 -0.1571 -0.1818  0.1940
 1537SOL    HW116247   3.998   2.670   0.760 -0.5807 -1.6694  1.0203
 1537SOL    HW216248   3.986   2.619   0.624  0.3036 -2.4625  1.6236
 1538SOL     OW16249   3.927   2.121   4.769  0.3903  0.6105 -0.6356
 1538SOL    HW116250   3.924   2.097   4.676  1.8552  0.3136 -0.6121
 1538SOL    HW216251   3.876   2.052   4.811  2.5683 -0.3207  0.5059
 1539SOL     OW16252   1.098   1.963   9.616 -0.7016 -0.7089 -0.0932
 1539SOL    HW116253   1.087   2.033   9.551 -0.1021  2.5274  3.2498
 1539SOL    HW216254   1.144   2.010   9.686 -2.0860  0.2532  0.1756
 1540SOL     OW16255   3.993   2.934   6.615 -0.3613  0.2141 -0.0086
 1540SOL    HW116256   3.957   2.853   6.579 -0.8746 -0.2230  1.4857
 1540SOL    HW216257   4.050   2.954   6.541 -1.0285 -0.9267 -0.8221
 1541SOL     OW16258   3.653   2.430  15.208  0.3472 -0.2367 -0.3194
 1541SOL    HW116259   3.706   2.371  15.261 -1.0921 -1.7377 -0.5784
 1541SOL    HW216260   3.697   2.515  15.207 -3.4341  1.7609  1.9400
 1542SOL     OW16261   4.714   2.459   7.713  0.6651  0.2065  0.2739
 1542SOL    HW116262   0.032   2.448   7.635  2.6092 -1.7130  1.8601
 1542SOL    HW216263   4.710   2.368   7.744 -0.5576  0.6853  1.5660
 1543SOL     OW16264   4.014   0.130   2.852 -0.3931  0.2254 -0.7743
 1543SOL    HW116265   4.020   0.214   2.806 -1.2179  1.1648  0.8283
 1543SOL    HW216266   3.931   0.146   2.896 -1.6151  2.0367 -3.7363
 1544SOL     OW16267   1.426   4.004   0.022 -0.4570 -0.2904  0.5304
 1544SOL    HW116268   1.460   4.077   0.073 -1.0251 -0.1632  0.7261
 1544SOL    HW216269   1.333   4.025   0.020 -0.8145 -1.8215  1.2772
 1545SOL     OW16270   2.835   0.289   4.808 -0.0837  0.3153  0.4552
 1545SOL    HW116271   2.898   0.218   4.817 -1.3186 -0.4763  2.9154
 1545SOL    HW216272   2.773   0.268   4.878 -2.3370  0.9752 -1.3434
 1546SOL     OW16273   1.608   3.498  10.179 -0.4057 -0.0959 -0.2454
 1546SOL    HW116274   1.525   3.468  10.216 -1.4087  2.8521 -0.0411
 1546SOL    HW216275   1.646   3.412  10.162  0.3099  0.0116  0.8055
 1547SOL     OW16276   4.703   0.433   4.195  0.2021  0.1727 -0.1228
 1547SOL    HW116277   0.054   0.467   4.170  1.6454 -3.0508  0.4519
 1547SOL    HW216278   4.706   0.342   4.166 -1.4251 -0.1240  0.6909
 1548SOL     OW16279   1.344   2.764   6.513  0.0204  0.1658 -0.6604
 1548SOL    HW116280   1.272   2.756   6.451  1.3915 -2.9817 -1.8166
 1548SOL    HW216281   1.343   2.676   6.551 -0.5487  0.1964 -0.6026
 1549SOL     OW16282   1.096   4.193   4.077 -0.1102 -0.6394  0.2584
 1549SOL    HW116283   1.121   4.238   3.996 -0.5371  1.0387  1.0543
 1549SOL    HW216284   1.173   4.137   4.090 -0.0096 -0.7405 -0.7961
 1550SOL     OW16285   1.324   0.616   8.498 -0.1628  0.5360  0.1340
 1550SOL    HW116286   1.265   0.609   8.573  0.8972 -0.9653  0.8375
 1550SOL    HW216287   1.291   0.696   8.457  0.5894  0.8101  0.0541
 1551SOL     OW16288   2.150   4.542   8.444 -0.3713 -0.0745 -0.2508
 1551SOL    HW116289   2.092   4.486   8.393  0.3219  0.5553 -1.7206
 1551SOL    HW216290   2.167   4.611   8.380  0.7246 -2.8613 -2.9872
 1552SOL     OW16291   2.141   3.213  11.295  0.4345 -0.6314  0.5162
 1552SOL    HW116292   2.099   3.156  11.230  1.1252 -1.1752  0.5526
 1552SOL    HW216293   2.213   3.243  11.240  0.5626 -0.4860  0.7617
 1553SOL     OW16294   1.287   0.921   2.921 -0.3533  0.8590 -0.0683
 1553SOL    HW116295   1.303   1.014   2.935 -2.6125  1.4462 -1.4602
 1553SOL    HW216296   1.317   0.889   3.006  3.4875  2.7412 -0.7200
 1554SOL     OW16297   2.573   3.243   8.749  0.6453 -0.1087  0.9711
 1554SOL    HW116298   2.642   3.310   8.750 -0.1874  0.7639 -0.6231
 1554SOL    HW216299   2.612   3.164   8.787 -3.4825 -2.6832 -0.2133
 1555SOL     OW16300   0.939   3.920   2.023 -0.2592 -0.7761  0.9189
 1555SOL    HW116301   0.921   3.856   1.954 -0.2124 -0.1671  0.3512
 1555SOL    HW216302   0.942   4.000   1.971 -0.3687 -0.4983  1.3359
 1556SOL     OW16303   3.615   0.639   1.589 -0.0920 -0.0555  0.5520
 1556SOL    HW116304   3.601   0.578   1.516  0.0390 -0.9133  1.2409
 1556SOL    HW216305   3.537   0.694   1.578  1.2846  1.5568 -0.8845
 1557SOL     OW16306   0.534   2.837   4.759  0.2568 -0.1991 -0.1349
 1557SOL    HW116307   0.577   2.879   4.685  0.4581 -1.6701 -0.8518
 1557SOL    HW216308   0.555   2.895   4.832  0.9919 -0.7473  0.0927
 1558SOL     OW16309   0.761   2.319   5.266 -0.5034 -0.1977  0.0164
 1558SOL    HW116310   0.821   2.390   5.289  1.7304 -1.4022 -2.0448
 1558SOL    HW216311   0.750   2.283   5.354  0.8730 -2.6046 -0.7995
 1559SOL     OW16312   4.258   2.337  13.690 -0.1626 -0.1856 -0.1351
 1559SOL    HW116313   4.243   2.263  13.631 -1.9619  1.0017 -1.1456
 1559SOL    HW216314   4.238   2.287  13.769  0.8080  0.0440  0.2595
 1560SOL     OW16315   3.037   3.078   3.970 -0.6918 -0.0628 -0.1892
 1560SOL    HW116316   2.957   3.045   4.011 -0.7416  0.0562 -0.1896
 1560SOL    HW216317   3.087   3.006   3.932  0.2942  0.3492  0.3452
 1561SOL     OW16318   1.138   4.151   4.771 -0.1337 -0.1779  0.3829
 1561SOL    HW116319   1.081   4.079   4.743  0.1006  0.9643 -3.0923
 1561SOL    HW216320   1.191   4.095   4.828  0.4361  0.6062  0.6131
 1562SOL     OW16321   2.368   3.631   4.465  0.4002  0.3713 -0.0232
 1562SOL    HW116322   2.438   3.681   4.424 -1.2544  2.0816 -0.7233
 1562SOL    HW216323   2.289   3.643   4.412  0.0418  0.1260  0.4596
 1563SOL     OW16324   1.417   1.222  12.885 -0.7782 -0.1338 -0.1221
 1563SOL    HW116325   1.460   1.150  12.930  0.2862 -0.1246 -1.1200
 1563SOL    HW216326   1.403   1.195  12.794 -0.0731 -1.7870  0.2682
 1564SOL     OW16327   0.313   3.921   5.325 -0.0391 -0.0690 -0.1516
 1564SOL    HW116328   0.292   4.008   5.291 -0.1694  0.3404  0.9538
 1564SOL    HW216329   0.336   3.943   5.416  1.6211  0.0690 -0.6213
 1565SOL     OW16330   4.149   3.949   8.380  0.5687  0.3639 -0.9654
 1565SOL    HW116331   4.152   3.854   8.375 -1.7974  0.1623  1.3834
 1565SOL    HW216332   4.090   3.965   8.454  0.4919 -0.3805 -0.8739
 1566SOL     OW16333   2.294   1.446  14.150 -0.5294 -0.5649  0.0453
 1566SOL    HW116334   2.270   1.354  14.143  2.5166 -1.2990 -0.6179
 1566SOL    HW216335   2.366   1.435  14.212  0.1126  2.1396 -0.2333
 1567SOL     OW16336   0.924   0.607  10.268 -0.1276 -0.2825  0.1005
 1567SOL    HW116337   1.006   0.561  10.284  1.3325  1.3313 -2.8446
 1567SOL    HW216338   0.863   0.546  10.310 -0.3296 -0.1926 -0.0639
 1568SOL     OW16339   0.258   2.275   1.045  0.0026  0.1557 -0.2711
 1568SOL    HW116340   0.294   2.291   0.958  0.4752  0.7674  0.0373
 1568SOL    HW216341   0.291   2.187   1.065 -2.6521 -0.2668  2.4599
 1569SOL     OW16342   3.217   0.917   2.808  0.4723 -0.0482  0.5240
 1569SOL    HW116343   3.241   0.849   2.872 -2.0848 -1.5233 -0.1115
 1569SOL    HW216344   3.297   0.969   2.808 -0.6683  1.6768  0.2065
 1570SOL     OW16345   3.791   3.139  17.482  0.3248  0.3688 -0.3426
 1570SOL    HW116346   3.704   3.103  17.495 -0.7087  2.6692 -0.7567
 1570SOL    HW216347   3.824   3.128  17.571 -0.8806 -0.5295 -0.0161
 1571SOL     OW16348   3.999   2.420   7.409 -0.3838  0.2358 -0.0165
 1571SOL    HW116349   4.045   2.344   7.444 -4.0829 -1.4044  1.2366
 1571SOL    HW216350   3.914   2.402   7.449  0.7084 -4.2822  0.2909
 1572SOL     OW16351   4.425   2.641  10.042  0.4257 -0.1335 -0.4465
 1572SOL    HW116352   4.341   2.682  10.019 -0.6068 -2.2501 -0.4551
 1572SOL    HW216353   4.406   2.582  10.115  1.2004 -0.0073 -0.1462
 1573SOL     OW16354   3.365   2.406  12.266 -0.0465  0.3589  0.6288
 1573SOL    HW116355   3.277   2.423  12.233  1.5584  0.3992 -3.6138
 1573SOL    HW216356   3.402   2.494  12.274 -3.2314  1.9325 -2.4842
 1574SOL     OW16357   4.472   2.609   2.289  0.6076 -0.7681  0.2033
 1574SOL    HW116358   4.487   2.613   2.383  3.8036 -2.2988 -0.2532
 1574SOL    HW216359   4.378   2.594   2.297  0.5770  0.0468  1.3867
 1575SOL     OW16360   1.344   4.386   3.436  0.2573  0.2606  0.3600
 1575SOL    HW116361   1.271   4.345   3.483 -0.0127 -1.8746 -1.9460
 1575SOL    HW216362   1.317   4.474   3.411 -1.8491 -0.6637 -0.6103
 1576SOL     OW16363   3.523   4.469   7.274  0.7751 -0.0720  0.5943
 1576SOL    HW116364   3.464   4.450   7.201  0.6258  1.7567  0.2446
 1576SOL    HW216365   3.537   4.563   7.262  3.4572 -0.2525  2.3165
 1577SOL     OW16366   4.160   3.439   4.668  0.0099  0.7831  0.3208
 1577SOL    HW116367   4.110   3.517   4.642 -0.1623  1.1673  1.7657
 1577SOL    HW216368   4.146   3.395   4.584  0.5520  0.8067  0.2161
 1578SOL     OW16369   4.247   0.825  14.388  0.1968  0.4756 -0.5085
 1578SOL    HW116370   4.199   0.765  14.446 -0.5773  1.8182  0.2240
 1578SOL    HW216371   4.198   0.813  14.306 -0.7650  2.8642 -0.2721
 1579SOL     OW16372   2.776   3.186   8.997 -0.3129  0.4090  0.0454
 1579SOL    HW116373   2.866   3.217   9.004 -0.3296  0.4570  0.0485
 1579SOL    HW216374   2.730   3.266   9.022 -1.3177  0.1018 -0.8273
 1580SOL     OW16375   0.014   1.517   7.518 -0.2668 -0.4091 -0.6212
 1580SOL    HW116376   0.056   1.565   7.447 -0.5863 -1.7595 -1.7221
 1580SOL    HW216377   4.712   1.589   7.570 -1.8514 -1.3475 -0.4364
 1581SOL     OW16378   2.104   0.067  16.517  0.2093  0.0596 -0.6232
 1581SOL    HW116379   2.180   0.125  16.514  0.3017 -0.0319 -0.0865
 1581SOL    HW216380   2.047   0.092  16.590  0.0393  0.9602 -1.0623
 1582SOL     OW16381   1.708   3.509   4.208  0.0075  0.1895 -0.2730
 1582SOL    HW116382   1.723   3.602   4.225  1.2149 -0.0256 -0.1479
 1582SOL    HW216383   1.758   3.490   4.129  1.5853  2.0150  0.2745
 1583SOL     OW16384   1.541   3.487  12.086 -0.1759  0.5051  0.5033
 1583SOL    HW116385   1.503   3.418  12.140  1.3027 -1.9651 -1.6916
 1583SOL    HW216386   1.635   3.472  12.087 -0.0677  1.2101  1.8069
 1584SOL     OW16387   4.219   0.914   7.101 -0.2660 -0.1586 -0.4120
 1584SOL    HW116388   4.193   0.830   7.139 -0.9547  0.8624  1.3914
 1584SOL    HW216389   4.242   0.882   7.014 -0.5987 -2.0226  0.1726
 1585SOL     OW16390   2.921   4.545   6.867  0.3062 -0.1733  0.0149
 1585SOL    HW116391   2.968   4.574   6.945  1.7203  1.7003 -1.5372
 1585SOL    HW216392   2.832   4.526   6.898 -0.0935  0.6762 -0.6354
 1586SOL     OW16393   1.369   0.108   4.204  0.1611  0.7341 -0.2662
 1586SOL    HW116394   1.280   0.077   4.187  0.5938 -0.7850  0.2530
 1586SOL    HW216395   1.420   0.047   4.150  1.2505  1.5239 -0.1307
 1587SOL     OW16396   2.215   2.451  17.339  0.2631  0.1464  0.4667
 1587SOL    HW116397   2.196   2.514  17.270  2.0369 -0.4724 -0.5978
 1587SOL    HW216398   2.187   2.510  17.409 -0.4934 -0.6288  0.8239
 1588SOL     OW16399   1.668   4.385   8.813 -0.0227 -0.0441 -0.3061
 1588SOL    HW116400   1.730   4.453   8.787 -1.3866  1.4579  0.3987
 1588SOL    HW216401   1.582   4.418   8.786  0.4188  1.7370  0.4507
 1589SOL     OW16402   1.625   3.688   7.765 -0.4053  0.1817 -0.2145
 1589SOL    HW116403   1.546   3.723   7.723 -0.7127  1.7115  1.6371
 1589SOL    HW216404   1.679   3.657   7.693 -1.0241  0.4566 -0.7991
 1590SOL     OW16405   0.942   1.587   4.904  0.0904 -0.9815  0.4110
 1590SOL    HW116406   0.853   1.572   4.935  0.1615  3.2187  2.6500
 1590SOL    HW216407   0.969   1.665   4.953  1.6884 -1.4152  0.2344
 1591SOL     OW16408   2.316   0.594   7.433  0.9367 -0.2023  0.6973
 1591SOL    HW116409   2.359   0.652   7.496  0.9994 -2.0946  2.4111
 1591SOL    HW216410   2.389   0.548   7.392 -0.4113 -2.3325  0.6915
 1592SOL     OW16411   0.359   3.795   4.647  0.2595 -0.6267  0.3387
 1592SOL    HW116412   0.384   3.756   4.564  0.2006 -1.0395  0.5165
 1592SOL    HW216413   0.445   3.806   4.687 -0.5708 -0.5317  2.1365
 1593SOL     OW16414   3.796   0.939   8.134  0.3658  0.3395  0.0135
 1593SOL    HW116415   3.853   0.987   8.075  1.5801 -0.1817  0.7716
 1593SOL    HW216416   3.826   0.849   8.123  0.3070  0.3965 -0.5925
 1594SOL     OW16417   4.583   1.048   6.342 -0.0549 -0.3797  0.0127
 1594SOL    HW116418   4.582   1.144   6.349  0.8739 -0.2637 -1.4217
 1594SOL    HW216419   4.490   1.024   6.340 -0.2913  0.5470 -0.3769
 1595SOL     OW16420   3.206   0.139   5.586  0.0683 -0.7115  0.2489
 1595SOL    HW116421   3.241   0.146   5.497 -1.7475  3.3499 -0.1632
 1595SOL    HW216422   3.162   0.220   5.611 -0.0961 -0.6072 -0.3649
 1596SOL     OW16423   2.154   1.394  16.640 -0.0450 -0.0392  0.1872
 1596SOL    HW116424   2.180   1.464  16.701  1.3459 -2.0561  1.9066
 1596SOL    HW216425   2.063   1.420  16.625 -0.0312 -0.0605  0.0678
 1597SOL     OW16426   2.881   0.135   9.239  0.3266  0.0682  0.9442
 1597SOL    HW116427   2.965   0.155   9.197 -0.2214  1.1846  0.3828
 1597SOL    HW216428   2.864   0.045   9.211  0.0318  0.2125  0.6584
 1598SOL     OW16429   1.543   0.044   3.690 -0.8299 -0.0974 -0.0174
 1598SOL    HW116430   1.573   4.703   3.741  1.3306 -0.0301 -1.1972
 1598SOL    HW216431   1.495   4.731   3.623 -1.1526  0.0973  0.0735
 1599SOL     OW16432   3.981   4.703   4.603  0.3915  0.0059 -0.0124
 1599SOL    HW116433   4.066   4.732   4.569  0.3184  1.0653  0.7218
 1599SOL    HW216434   3.988   4.613   4.571  1.4803 -0.3983  1.3615
 1600SOL     OW16435   1.769   0.798  17.010 -0.1669  0.4533 -0.3171
 1600SOL    HW116436   1.839   0.788  17.075  1.9360 -0.4904 -2.7250
 1600SOL    HW216437   1.725   0.715  17.030 -1.1453  1.5251  2.0214
 1601SOL     OW16438   3.552   2.011   5.656 -0.1422 -0.0825 -0.8284
 1601SOL    HW116439   3.509   2.041   5.736  0.5574 -2.0041  0.2724
 1601SOL    HW216440   3.615   1.948   5.691  0.5303  0.0468 -1.8010
 1602SOL     OW16441   3.221   3.249   4.622 -0.2355  0.8014 -0.0360
 1602SOL    HW116442   3.244   3.342   4.616  0.7922  0.6102  0.8175
 1602SOL    HW216443   3.236   3.229   4.529 -1.0139 -2.3894  0.5368
 1603SOL     OW16444   1.338   3.705   9.188  0.4985  0.2917 -0.2535
 1603SOL    HW116445   1.425   3.673   9.211  0.5249 -0.4275 -1.3378
 1603SOL    HW216446   1.352   3.798   9.170 -0.7882  0.0801 -2.3858
 1604SOL     OW16447   0.447   1.484   5.814  0.0123 -0.1387  0.6809
 1604SOL    HW116448   0.505   1.491   5.889  0.7752  1.1137 -0.0219
 1604SOL    HW216449   0.376   1.537   5.851 -0.0051 -0.3168  0.9037
 1605SOL     OW16450   1.637   2.644  17.100  0.0194 -0.1937  0.3146
 1605SOL    HW116451   1.566   2.598  17.055  1.5254 -1.5834 -0.6349
 1605SOL    HW216452   1.714   2.600  17.064  0.1996  0.5287 -0.1890
 1606SOL     OW16453   4.361   0.846   3.981 -0.1290 -0.0509 -0.1279
 1606SOL    HW116454   4.267   0.830   3.971  0.0537 -0.1942 -1.5065
 1606SOL    HW216455   4.386   0.786   4.052 -0.6895  2.4346  2.1913
 1607SOL     OW16456   0.751   4.249   0.496  0.0097 -0.1695 -0.1904
 1607SOL    HW116457   0.766   4.187   0.425  2.5345 -0.0105  0.1946
 1607SOL    HW216458   0.767   4.335   0.456 -0.6864  0.6326  1.2618
 1608SOL     OW16459   2.838   1.356   9.943 -0.1285  0.3942 -0.3114
 1608SOL    HW116460   2.829   1.397  10.029 -0.3967 -1.0674  0.3670
 1608SOL    HW216461   2.900   1.421   9.911 -0.1853  1.6708  2.1460
 1609SOL     OW16462   2.267   2.176  13.668  0.2903 -0.1591 -0.1550
 1609SOL    HW116463   2.316   2.240  13.719  1.3046 -1.1276  0.0790
 1609SOL    HW216464   2.192   2.154  13.723  0.6671 -2.3841 -0.5661
 1610SOL     OW16465   0.067   1.085   7.995  0.5485 -0.3475  0.4902
 1610SOL    HW116466   0.144   1.038   7.964  0.3328  0.6088 -1.4784
 1610SOL    HW216467   0.097   1.175   8.007 -1.8420  0.6057 -0.7417
 1611SOL     OW16468   3.392   4.060   2.392 -0.2242  0.2150 -0.2818
 1611SOL    HW116469   3.421   4.095   2.476 -1.6786  0.1920  0.2307
 1611SOL    HW216470   3.330   3.994   2.422  0.5662  0.7967  2.5647
 1612SOL     OW16471   0.490   3.832   0.116 -0.0779 -0.3996  0.1441
 1612SOL    HW116472   0.457   3.757   0.166 -0.1256 -1.1046 -0.9345
 1612SOL    HW216473   0.447   3.911   0.148  0.8133  0.1309  0.0222
 1613SOL     OW16474   0.788   0.438  16.726  0.1806 -0.1552 -0.5728
 1613SOL    HW116475   0.743   0.363  16.688 -2.9472  1.6488 -0.3886
 1613SOL    HW216476   0.724   0.509  16.734 -2.6514 -2.7716 -0.4111
 1614SOL     OW16477   0.106   0.401   2.384 -0.3365  0.6927  0.0009
 1614SOL    HW116478   0.200   0.406   2.400 -0.2432 -0.8778 -0.1159
 1614SOL    HW216479   0.075   0.311   2.393  1.2240 -0.1044 -2.4920
 1615SOL     OW16480   3.330   2.158  16.613 -0.0352 -0.2591 -0.2623
 1615SOL    HW116481   3.363   2.178  16.700  0.2304 -0.7943 -0.2396
 1615SOL    HW216482   3.407   2.164  16.557 -1.5919 -2.2107 -2.6062
 1616SOL     OW16483   0.445   2.979   3.464 -0.0452 -0.1744  0.6864
 1616SOL    HW116484   0.505   2.906   3.480 -1.7702 -1.4542  1.4057
 1616SOL    HW216485   0.404   3.009   3.545  1.2041 -0.7524  1.5405
 1617SOL     OW16486   1.601   4.106   7.160  0.2244 -0.2239 -0.6236
 1617SOL    HW116487   1.508   4.118   7.141  0.1835  0.1359 -0.1919
 1617SOL    HW216488   1.631   4.185   7.115  2.0998 -1.0406 -0.7940
 1618SOL     OW16489   4.157   0.520   3.688  0.2712  0.0708 -0.1086
 1618SOL    HW116490   4.069   0.484   3.676  0.0047  1.2580 -1.6989
 1618SOL    HW216491   4.141   0.614   3.677 -1.4054 -0.2846 -0.7139
 1619SOL     OW16492   2.417   4.114   4.281 -0.4557  0.3108  0.5520
 1619SOL    HW116493   2.450   4.203   4.296  0.7901 -0.0270 -0.1945
 1619SOL    HW216494   2.498   4.073   4.251  0.5904  4.3437 -2.0793
 1620SOL     OW16495   2.164   4.589  16.281  0.5100 -0.1637  0.0157
 1620SOL    HW116496   2.253   4.624  16.285  0.6305 -0.7245  1.9088
 1620SOL    HW216497   2.171   4.529  16.207  1.2297  0.8987 -0.7779
 1621SOL     OW16498   2.885   2.816   6.041 -0.1799  0.3326 -0.1016
 1621SOL    HW116499   2.820   2.823   5.972 -0.4657 -1.8204 -0.0456
 1621SOL    HW216500   2.822   2.823   6.113 -0.3929  1.2521 -0.3701
 1622SOL     OW16501   1.012   1.013   3.670 -0.4807  0.4824  0.0317
 1622SOL    HW116502   0.960   1.044   3.745  2.4318  2.7733  1.1086
 1622SOL    HW216503   1.055   1.091   3.636  0.5211  0.9883  2.4275
 1623SOL     OW16504   3.377   4.296   5.924  0.0350  0.3043 -0.0706
 1623SOL    HW116505   3.305   4.234   5.915  1.6976 -1.4710 -0.9948
 1623SOL    HW216506   3.452   4.246   5.893 -0.0968 -0.5683  1.0591
 1624SOL     OW16507   2.524   0.778   8.235 -0.4406 -0.9617  0.1649
 1624SOL    HW116508   2.543   0.847   8.298  1.1300  0.4913 -1.8750
 1624SOL    HW216509   2.473   0.725   8.295 -1.8023 -1.1707 -1.1727
 1625SOL     OW16510   3.245   3.569  13.323 -0.0658  0.0111  0.2781
 1625SOL    HW116511   3.238   3.481  13.285 -2.0650 -0.2231  1.2194
 1625SOL    HW216512   3.152   3.589  13.330 -0.2701 -0.2759 -1.5704
 1626SOL     OW16513   2.736   2.895   6.979 -0.0695  0.4618 -0.1944
 1626SOL    HW116514   2.784   2.833   6.925 -2.5643 -3.6869  2.3660
 1626SOL    HW216515   2.681   2.830   7.022  0.4100 -0.1681 -0.5500
 1627SOL     OW16516   4.674   0.017   4.289  0.0002  0.2523  0.7417
 1627SOL    HW116517   4.641   0.046   4.374  3.0638  1.0506  1.6525
 1627SOL    HW216518   0.008   4.689   4.310  0.0362  0.0890  0.1328
 1628SOL     OW16519   0.832   1.661   5.849  0.0978 -0.0114  0.2527
 1628SOL    HW116520   0.897   1.599   5.816 -1.6319 -0.9367 -1.4139
 1628SOL    HW216521   0.861   1.674   5.939 -0.5006  1.9962  0.1572
 1629SOL     OW16522   0.399   4.115  12.969 -0.1711 -0.1239 -0.1909
 1629SOL    HW116523   0.395   4.161  12.886 -3.1996 -0.0321  0.0251
 1629SOL    HW216524   0.461   4.172  13.016 -0.9742  0.7140 -0.1558
 1630SOL     OW16525   1.065   2.914   2.193  0.4085 -0.4904  0.0483
 1630SOL    HW116526   1.048   2.914   2.287 -1.2842  1.3136 -0.2492
 1630SOL    HW216527   1.120   2.836   2.182 -0.2222 -0.8522 -0.5365
 1631SOL     OW16528   4.253   2.502   9.099 -0.5284 -0.5756 -0.9836
 1631SOL    HW116529   4.220   2.541   9.180 -1.2989  0.1191 -1.6328
 1631SOL    HW216530   4.245   2.576   9.040 -0.5673  1.1949  1.2155
 1632SOL     OW16531   1.406   0.013   6.103 -0.4618  0.0720  0.1706
 1632SOL    HW116532   1.501   0.007   6.113 -0.1677  2.6880 -1.0400
 1632SOL    HW216533   1.376   4.717   6.188 -0.1142  1.6323  0.8716
 1633SOL     OW16534   4.636   4.639   6.477  0.0538  0.1934 -0.0351
 1633SOL    HW116535   4.691   4.707   6.438  0.0357 -0.3742 -1.0503
 1633SOL    HW216536   4.593   4.688   6.548 -1.1827 -2.4214  1.0278
 1634SOL     OW16537   2.693   3.419   9.153  0.5555 -0.0026 -0.3496
 1634SOL    HW116538   2.627   3.404   9.221  0.0875  1.4671 -0.4654
 1634SOL    HW216539   2.729   3.500   9.191 -0.0777 -1.0545  2.5106
 1635SOL     OW16540   4.347   2.717  15.397 -0.9686  0.1204 -0.1818
 1635SOL    HW116541   4.304   2.746  15.317 -0.0646 -0.0616 -0.7368
 1635SOL    HW216542   4.362   2.625  15.373 -1.4746  0.5706 -2.1960
 1636SOL     OW16543   2.725   1.548  14.795  0.2397  0.3663 -0.4271
 1636SOL    HW116544   2.653   1.560  14.733 -0.0733  0.5790 -0.0285
 1636SOL    HW216545   2.740   1.641  14.812 -0.8351  0.4790 -0.0593
 1637SOL     OW16546   2.469   3.295   3.161  0.1161  0.0812 -0.2149
 1637SOL    HW116547   2.513   3.297   3.246  0.4586  0.1237 -0.3926
 1637SOL    HW216548   2.390   3.248   3.189 -0.2692  1.2072  0.5905
 1638SOL     OW16549   2.275   0.965   5.525  0.3370 -0.2107  0.1194
 1638SOL    HW116550   2.317   1.046   5.497  2.8019 -0.9865  1.6149
 1638SOL    HW216551   2.190   0.976   5.483  0.4855  1.1860  0.1855
 1639SOL     OW16552   3.055   2.539   2.652 -0.4306  0.0102  0.3028
 1639SOL    HW116553   3.036   2.628   2.684 -1.4151 -0.7539  1.8640
 1639SOL    HW216554   3.142   2.522   2.688  0.2455  2.6333 -0.0388
 1640SOL     OW16555   2.308   4.383   3.988  0.4986  0.2175  0.0386
 1640SOL    HW116556   2.232   4.437   3.967 -0.2177 -1.2336 -1.1021
 1640SOL    HW216557   2.281   4.313   4.048  1.6599 -0.5375 -0.3095
 1641SOL     OW16558   3.371   1.791   7.624  0.3230 -0.0661 -0.3121
 1641SOL    HW116559   3.430   1.737   7.570 -0.3070  1.4972 -2.5760
 1641SOL    HW216560   3.429   1.857   7.661  0.5450  0.1651 -1.0745
 1642SOL     OW16561   2.388   2.485   3.429  0.3794  0.1418  1.2399
 1642SOL    HW116562   2.305   2.438   3.421 -1.3160  3.2647  0.5084
 1642SOL    HW216563   2.449   2.424   3.472 -1.0934 -0.0270  3.0636
 1643SOL     OW16564   3.728   4.334   1.395 -0.7996 -0.4021  0.1883
 1643SOL    HW116565   3.760   4.409   1.445  0.0712 -0.4081 -0.3586
 1643SOL    HW216566   3.711   4.275   1.469  1.5110 -1.7960 -0.3742
 1644SOL     OW16567   1.423   4.045  11.333 -0.2272  0.0113 -0.0786
 1644SOL    HW116568   1.359   3.989  11.290 -0.3533 -2.0525  2.8528
 1644SOL    HW216569   1.391   4.027  11.421 -1.1274 -0.6026 -0.5322
 1645SOL     OW16570   2.320   2.868   5.673  0.3718  0.1889 -0.2234
 1645SOL    HW116571   2.332   2.799   5.607  1.3516 -1.4174  1.6556
 1645SOL    HW216572   2.243   2.832   5.716  0.8682  0.4502  0.8782
 1646SOL     OW16573   3.188   2.066   2.787 -0.0340  0.1376  0.1977
 1646SOL    HW116574   3.209   2.084   2.878 -0.5804 -0.2853  0.4124
 1646SOL    HW216575   3.268   2.087   2.739  0.3963 -0.4368  0.6688
 1647SOL     OW16576   3.457   4.482   1.069  0.4145 -0.6559  0.6318
 1647SOL    HW116577   3.550   4.461   1.078  0.1451 -0.7323  3.4611
 1647SOL    HW216578   3.427   4.417   1.006  0.1806 -2.0301  2.1805
 1648SOL     OW16579   3.624   2.889   7.291  0.1422  0.0940  0.1253
 1648SOL    HW116580   3.563   2.949   7.248  1.1097  0.7919 -0.2700
 1648SOL    HW216581   3.571   2.810   7.297 -0.3521  0.3547 -0.7842
 1649SOL     OW16582   1.192   0.866   4.213 -0.1874 -0.2247 -0.0119
 1649SOL    HW116583   1.181   0.931   4.144 -1.0154 -0.8952 -0.5109
 1649SOL    HW216584   1.284   0.875   4.239 -0.4829 -1.1914  1.4150
 1650SOL     OW16585   2.398   1.032   3.216 -0.1071  0.4938 -0.1175
 1650SOL    HW116586   2.343   1.016   3.293  1.7601  1.2241  1.3542
 1650SOL    HW216587   2.403   0.948   3.172 -0.7630  0.5094 -0.2255
 1651SOL     OW16588   0.209   2.910   4.230 -0.3639 -0.3217 -0.1432
 1651SOL    HW116589   0.192   2.839   4.292  1.4790 -0.5945  0.0537
 1651SOL    HW216590   0.300   2.940   4.235 -0.9926  1.4171  1.0058
 1652SOL     OW16591   1.402   1.316   0.798  0.0955 -0.7483  0.0149
 1652SOL    HW116592   1.350   1.274   0.867  0.2444 -1.8513 -0.5524
 1652SOL    HW216593   1.488   1.301   0.838  0.8197 -0.1371 -1.3175
 1653SOL     OW16594   1.233   2.654   1.508 -0.5107  0.5704  0.1740
 1653SOL    HW116595   1.238   2.564   1.541 -0.1400  1.5637  2.8188
 1653SOL    HW216596   1.273   2.696   1.585 -1.3034 -0.4049  1.1121
 1654SOL     OW16597   1.265   2.465   2.882  0.3174 -0.4802 -0.2570
 1654SOL    HW116598   1.348   2.513   2.883  0.8368 -1.4307  2.1827
 1654SOL    HW216599   1.266   2.411   2.961  2.4886  0.6154  0.4460
 1655SOL     OW16600   4.026   3.425   3.338  0.0044 -0.2628 -0.1666
 1655SOL    HW116601   3.973   3.490   3.385 -0.5453 -0.2543 -0.8040
 1655SOL    HW216602   3.961   3.355   3.326  0.6997 -0.5581 -2.1934
 1656SOL     OW16603   1.184   2.355   8.861  0.2432  0.0943  0.4561
 1656SOL    HW116604   1.196   2.342   8.955 -0.2432 -0.8556  0.3805
 1656SOL    HW216605   1.128   2.285   8.827 -1.6524  0.7668  2.2090
 1657SOL     OW16606   4.701   1.978   4.814  0.2983 -0.5061 -0.5780
 1657SOL    HW116607   4.707   2.000   4.907  0.1460  0.0155 -0.6892
 1657SOL    HW216608   0.028   2.039   4.774 -1.5865  0.9398 -1.3045
 1658SOL     OW16609   0.263   1.438   8.380  0.0034  0.0995 -0.0306
 1658SOL    HW116610   0.181   1.487   8.382  1.8155  3.1842 -2.2732
 1658SOL    HW216611   0.245   1.380   8.455  1.6393 -0.5015 -0.1183
 1659SOL     OW16612   3.008   4.451   5.928  0.5104 -0.1306  0.5792
 1659SOL    HW116613   3.070   4.504   5.977  1.5185 -1.6095  0.9121
 1659SOL    HW216614   2.981   4.401   6.005 -1.2807  0.2263  0.2043
 1660SOL     OW16615   4.570   1.125   6.015  0.1285 -0.3409  0.2740
 1660SOL    HW116616   4.583   1.220   6.008 -1.4486 -0.0060  1.6353
 1660SOL    HW216617   4.476   1.135   6.030 -0.4065 -0.7104 -2.7829
 1661SOL     OW16618   0.031   3.833  10.460 -0.0952 -0.3698 -0.2539
 1661SOL    HW116619   0.058   3.893  10.391  0.3292  0.7737  0.9086
 1661SOL    HW216620   0.020   3.885  10.540 -1.0507 -1.8461  0.6006
 1662SOL     OW16621   0.300   3.250  11.081  0.3154  0.2716 -0.1011
 1662SOL    HW116622   0.248   3.209  11.149  0.4734  3.5351  1.9570
 1662SOL    HW216623   0.317   3.335  11.122 -0.2580  0.6894 -0.7377
 1663SOL     OW16624   1.150   3.408   6.866 -0.6010  0.0352  0.5162
 1663SOL    HW116625   1.054   3.409   6.858 -0.4750 -3.0740 -1.4078
 1663SOL    HW216626   1.162   3.448   6.952 -1.5878 -0.1676  0.7505
 1664SOL     OW16627   0.388   4.359   8.841  0.4027  0.8062  0.5864
 1664SOL    HW116628   0.317   4.421   8.853  0.8411  1.2592  0.8575
 1664SOL    HW216629   0.461   4.411   8.876  2.5243 -2.2940  0.7705
 1665SOL     OW16630   1.053   1.543   6.274  0.0560  0.7621  0.2250
 1665SOL    HW116631   1.111   1.466   6.282  1.1439  1.3501 -2.0849
 1665SOL    HW216632   1.080   1.597   6.349  2.5450  1.2324 -1.0219
 1666SOL     OW16633   1.494   0.581   6.647  0.0333  0.0721  0.0881
 1666SOL    HW116634   1.512   0.651   6.584  0.5863 -0.7118 -0.6255
 1666SOL    HW216635   1.402   0.592   6.624  0.2861  0.4695 -0.7427
 1667SOL     OW16636   2.556   2.764  14.350  0.7086  0.2537  0.7949
 1667SOL    HW116637   2.563   2.759  14.255 -0.2312  2.2881  0.6210
 1667SOL    HW216638   2.463   2.748  14.367  0.5011  0.4757 -0.1408
 1668SOL     OW16639   1.496   3.201   6.567  0.3472  0.0651  0.4397
 1668SOL    HW116640   1.454   3.136   6.624 -0.8343 -1.4557 -2.1801
 1668SOL    HW216641   1.423   3.262   6.560 -1.2240 -1.8217  0.3284
 1669SOL     OW16642   4.410   0.718   1.021 -0.0899 -0.6420 -0.2619
 1669SOL    HW116643   4.502   0.742   1.029 -0.2310 -0.2196  0.0585
 1669SOL    HW216644   4.398   0.644   1.081  2.4764 -0.7071  0.1625
 1670SOL     OW16645   2.268   1.484  13.625 -0.2254  0.4004  0.2370
 1670SOL    HW116646   2.223   1.514  13.546 -0.1740 -1.5516 -0.5340
 1670SOL    HW216647   2.336   1.552  13.634 -0.7508  1.2675 -2.4128
 1671SOL     OW16648   0.616   1.214  12.692 -0.1118  0.4165  0.0622
 1671SOL    HW116649   0.587   1.298  12.656  0.5231  0.2692 -0.7760
 1671SOL    HW216650   0.568   1.158  12.631  0.9985 -0.4836  0.0331
 1672SOL     OW16651   4.190   0.854   2.086 -0.1504  0.4393  0.4306
 1672SOL    HW116652   4.220   0.763   2.081  2.0337  1.1551  0.6944
 1672SOL    HW216653   4.222   0.892   2.005 -1.3512  0.3061 -0.1076
 1673SOL     OW16654   3.750   4.733   7.467  0.0440 -0.5263  0.4316
 1673SOL    HW116655   3.808   4.665   7.500  1.1943  0.6345  0.7822
 1673SOL    HW216656   3.675   4.702   7.518  0.4281 -0.4653  1.0369
 1674SOL     OW16657   0.273   2.177   8.169 -0.2910 -0.3694  0.5195
 1674SOL    HW116658   0.189   2.144   8.139  1.1339 -3.1401 -0.4828
 1674SOL    HW216659   0.323   2.095   8.176  0.0457 -0.0734  1.7776
 1675SOL     OW16660   1.313   3.764   2.335  0.1375  0.2300 -0.2156
 1675SOL    HW116661   1.346   3.707   2.265 -0.8117  0.1954 -0.6251
 1675SOL    HW216662   1.221   3.745   2.321 -0.5630  2.0473  1.9082
 1676SOL     OW16663   3.285   2.504  16.987  0.4008 -0.5247 -0.1991
 1676SOL    HW116664   3.282   2.579  16.928  0.3601 -0.1516  0.2822
 1676SOL    HW216665   3.213   2.516  17.048  1.4505 -2.8668  1.5111
 1677SOL     OW16666   4.615   0.636  15.153  0.1091  0.2419 -0.0585
 1677SOL    HW116667   4.662   0.589  15.222  1.0126  1.0114 -0.1598
 1677SOL    HW216668   4.585   0.704  15.213  1.9696  0.7538  0.2662
 1678SOL     OW16669   4.218   3.168   2.077  0.1059 -0.2990 -0.2890
 1678SOL    HW116670   4.258   3.227   2.013 -1.5169 -0.5217 -1.5064
 1678SOL    HW216671   4.204   3.229   2.150  1.4803  1.5867 -1.6014
 1679SOL     OW16672   0.178   2.647   6.886  0.0207 -0.3129 -0.2111
 1679SOL    HW116673   0.210   2.666   6.798  5.1173 -0.1058  1.6880
 1679SOL    HW216674   0.084   2.649   6.868  0.6073 -1.2583 -3.2685
 1680SOL     OW16675   1.792   1.082  10.071  0.3559 -0.6960  0.0942
 1680SOL    HW116676   1.797   1.166  10.027 -1.5867 -0.4018  0.4542
 1680SOL    HW216677   1.831   1.019  10.009 -1.4136 -1.9853  0.2979
 1681SOL     OW16678   4.225   2.841   6.402 -0.5670  0.2861 -0.0550
 1681SOL    HW116679   4.150   2.790   6.432 -1.5983  1.0752 -1.2797
 1681SOL    HW216680   4.201   2.868   6.313  0.6542 -1.6420 -0.9507
 1682SOL     OW16681   1.177   2.059   4.965 -0.0645  0.0462 -0.2521
 1682SOL    HW116682   1.142   2.147   4.977 -1.4975 -0.7243  1.2187
 1682SOL    HW216683   1.211   2.041   5.052  0.2741 -0.7488 -0.5416
 1683SOL     OW16684   0.010   1.027  15.019 -0.2021 -0.1137 -0.2245
 1683SOL    HW116685   0.100   1.032  15.050 -0.7142  0.2229  1.1897
 1683SOL    HW216686   4.709   0.971  15.087 -1.6605  0.8036 -0.2438
 1684SOL     OW16687   1.390   1.522   7.467  0.0741  0.6974 -0.1000
 1684SOL    HW116688   1.472   1.534   7.515  0.2538  0.7273 -0.4146
 1684SOL    HW216689   1.338   1.486   7.539 -1.1149  0.3707 -1.1401
 1685SOL     OW16690   4.285   3.886  16.730  0.5832 -0.0069  0.4612
 1685SOL    HW116691   4.308   3.796  16.705 -0.2606 -0.6015  1.8302
 1685SOL    HW216692   4.303   3.932  16.648 -0.2547 -0.0601  0.2479
 1686SOL     OW16693   3.754   3.964   1.233 -0.4422  0.0854  0.2194
 1686SOL    HW116694   3.752   4.002   1.321 -1.4050  0.3331  0.0858
 1686SOL    HW216695   3.675   4.006   1.200 -0.7945 -1.3306 -0.7045
 1687SOL     OW16696   3.431   3.331   3.406  0.1126  0.0080 -0.3707
 1687SOL    HW116697   3.471   3.369   3.327 -0.4844  1.5780  0.0943
 1687SOL    HW216698   3.341   3.356   3.388  0.1040 -0.0494 -0.4065
 1688SOL     OW16699   0.205   3.811  16.558 -0.1436  0.7516  1.0745
 1688SOL    HW116700   0.132   3.860  16.519 -0.6573 -1.1117 -0.3146
 1688SOL    HW216701   0.262   3.802  16.481 -2.0914 -0.2751 -0.2718
 1689SOL     OW16702   3.026   2.260   8.900 -0.0240  0.0689 -0.2841
 1689SOL    HW116703   2.931   2.243   8.906 -0.1256  1.0065  0.7793
 1689SOL    HW216704   3.062   2.180   8.938 -2.1508 -0.1352  1.3541
 1690SOL     OW16705   4.417   2.006  13.712  0.0009  0.6191 -0.1369
 1690SOL    HW116706   4.401   1.969  13.799 -1.5271  0.0276 -0.6634
 1690SOL    HW216707   4.328   2.023  13.680  0.0880  1.0141 -0.1640
 1691SOL     OW16708   3.176   3.496  11.136  0.0765 -0.2345 -0.4423
 1691SOL    HW116709   3.243   3.494  11.068  0.1401  2.5738 -0.4777
 1691SOL    HW216710   3.204   3.561  11.201  0.5303 -1.9791  1.0833
 1692SOL     OW16711   0.038   0.028   7.958  0.1040  0.3666 -0.3059
 1692SOL    HW116712   0.036   4.715   8.041 -1.1592 -1.5779 -1.4813
 1692SOL    HW216713   0.045   4.693   7.893  1.6117  1.2199 -1.0820
 1693SOL     OW16714   4.278   0.918  15.419  0.5903 -0.0814 -0.4163
 1693SOL    HW116715   4.273   0.959  15.505 -1.0023 -2.7265  0.7524
 1693SOL    HW216716   4.185   0.931  15.398  0.6678  1.3184  0.1122
 1694SOL     OW16717   3.526   0.488   4.646  0.0329  0.0949  0.2633
 1694SOL    HW116718   3.439   0.458   4.619 -0.2106  1.4686 -0.4750
 1694SOL    HW216719   3.590   0.427   4.610 -1.9131 -2.1087  0.5364
 1695SOL     OW16720   4.114   4.540   7.463  0.4017  0.3966  0.1040
 1695SOL    HW116721   4.189   4.562   7.407 -1.0368  0.1561 -1.9330
 1695SOL    HW216722   4.044   4.542   7.398 -0.0008 -0.8165  0.4921
 1696SOL     OW16723   3.174   2.098  15.307  0.2499  0.8317 -0.2312
 1696SOL    HW116724   3.110   2.027  15.315  0.2467  1.1886  3.1493
 1696SOL    HW216725   3.197   2.088  15.215 -0.6985  1.1057 -0.5001
 1697SOL     OW16726   3.613   2.496   3.848 -0.6713 -0.1128  0.0711
 1697SOL    HW116727   3.550   2.565   3.870  1.7345  2.0035  0.2742
 1697SOL    HW216728   3.674   2.518   3.918 -1.2678  0.3003  0.4623
 1698SOL     OW16729   3.493   2.227   8.054  0.4032 -0.4645  0.7222
 1698SOL    HW116730   3.435   2.301   8.041  3.0928  1.7799  1.3724
 1698SOL    HW216731   3.463   2.189   8.137  2.4073 -2.8641  0.3905
 1699SOL     OW16732   3.690   3.637   8.325  0.3203  0.7205  0.2110
 1699SOL    HW116733   3.763   3.576   8.336 -0.7316 -0.4025  0.9919
 1699SOL    HW216734   3.621   3.571   8.334  0.6156  0.5478  1.1862
 1700SOL     OW16735   1.424   3.737  11.359  0.3083  0.9266 -0.0558
 1700SOL    HW116736   1.389   3.689  11.434  2.4047 -0.7796 -0.1693
 1700SOL    HW216737   1.344   3.751  11.308  2.0480 -0.5497 -3.1948
 1701SOL     OW16738   2.993   0.687   7.309 -0.1327 -0.1408  0.1969
 1701SOL    HW116739   3.074   0.636   7.296 -1.4501 -2.0111 -0.6534
 1701SOL    HW216740   3.014   0.765   7.258 -2.4917  0.6263  0.4348
 1702SOL     OW16741   0.480   1.752   7.820  0.0726 -0.1015 -0.1756
 1702SOL    HW116742   0.531   1.800   7.885 -1.5270 -0.9347  1.6820
 1702SOL    HW216743   0.514   1.664   7.829  2.2513  1.0299  2.7348
 1703SOL     OW16744   1.835   3.194   9.337 -0.4038 -0.0245  0.1755
 1703SOL    HW116745   1.784   3.157   9.265  0.0244  0.4197 -0.3645
 1703SOL    HW216746   1.829   3.126   9.404  1.3299 -4.4919 -4.1983
 1704SOL     OW16747   2.408   1.975   4.838  0.3595 -0.0878 -0.4721
 1704SOL    HW116748   2.454   1.961   4.920 -2.8722 -0.5333  1.2363
 1704SOL    HW216749   2.483   1.963   4.779 -1.5237  1.3373 -3.1327
 1705SOL     OW16750   0.050   3.268   7.752 -0.0462  0.0292  0.2922
 1705SOL    HW116751   4.729   3.191   7.741  1.4130 -1.1634  1.2599
 1705SOL    HW216752   0.132   3.225   7.776 -0.6420  0.4510  3.1314
 1706SOL     OW16753   0.469   3.660  15.459 -0.1433 -0.2042 -0.1717
 1706SOL    HW116754   0.550   3.632  15.501  0.6072  1.4089 -0.5328
 1706SOL    HW216755   0.489   3.754  15.456 -1.3852 -0.0314 -2.7952
 1707SOL     OW16756   1.978   0.243  12.570 -0.0967 -0.0368  0.1493
 1707SOL    HW116757   1.899   0.191  12.585  0.8396 -0.8172  2.3531
 1707SOL    HW216758   1.958   0.299  12.495  0.1140 -1.7456 -1.1729
 1708SOL     OW16759   3.481   1.715   5.765 -0.1870  0.2691  0.6711
 1708SOL    HW116760   3.476   1.717   5.669  1.4515 -1.5695  0.5510
 1708SOL    HW216761   3.549   1.782   5.771  1.5453 -1.1591 -2.8732
 1709SOL     OW16762   0.794   3.681   7.044  0.3157  0.3703  0.2546
 1709SOL    HW116763   0.795   3.712   6.953 -1.1918 -1.5735 -0.4117
 1709SOL    HW216764   0.762   3.759   7.090 -3.1966 -1.8055  1.5393
 1710SOL     OW16765   0.399   0.563  15.076 -0.0961 -0.4108 -0.3430
 1710SOL    HW116766   0.477   0.508  15.081 -0.7536 -0.9045  4.0111
 1710SOL    HW216767   0.412   0.632  15.142  1.3499 -1.4226  0.4192
 1711SOL     OW16768   4.284   3.484   9.040  0.0190 -0.3143 -0.0599
 1711SOL    HW116769   4.208   3.500   8.984  0.2222  1.4027  0.1679
 1711SOL    HW216770   4.294   3.572   9.075  1.3510 -0.1828 -0.7811
 1712SOL     OW16771   1.229   3.966   4.953 -0.2957  0.1530  0.2715
 1712SOL    HW116772   1.252   3.873   4.953  0.1633  0.2515 -2.1722
 1712SOL    HW216773   1.286   3.998   5.022  0.8563 -1.4272  0.0238
 1713SOL     OW16774   1.588   4.622   9.294 -0.4281  0.1542  0.2472
 1713SOL    HW116775   1.640   4.575   9.228  3.0692  0.8499  2.5159
 1713SOL    HW216776   1.650   4.689   9.321  0.4398  0.5344 -2.6754
 1714SOL     OW16777   2.230   4.696   2.108 -0.0785  0.2752  0.1246
 1714SOL    HW116778   2.199   4.636   2.040  0.2575  0.5836 -0.2987
 1714SOL    HW216779   2.199   0.044   2.072  0.2338 -0.0187 -0.8135
 1715SOL     OW16780   1.809   3.736   5.492 -0.7467 -0.4062  0.0561
 1715SOL    HW116781   1.785   3.791   5.566  1.7532 -2.4140  2.3964
 1715SOL    HW216782   1.795   3.649   5.532 -0.0389  0.1241  1.4546
 1716SOL     OW16783   2.318   1.683   8.973 -0.4420 -0.5215  0.3953
 1716SOL    HW116784   2.337   1.681   9.067  0.9047 -2.4923  0.0792
 1716SOL    HW216785   2.236   1.732   8.964 -0.4424 -0.4689  0.6753
 1717SOL     OW16786   4.039   1.153  17.656 -0.3302 -0.1810 -0.4886
 1717SOL    HW116787   4.005   1.242  17.669 -1.8377 -0.9849  1.0317
 1717SOL    HW216788   4.101   1.150  17.729 -1.5611 -1.0329  0.5223
 1718SOL     OW16789   3.171   4.624   9.307  0.3435 -0.3848 -0.0360
 1718SOL    HW116790   3.100   4.567   9.277  1.8824 -2.1837 -0.2561
 1718SOL    HW216791   3.137   4.643   9.394 -0.8052  3.6892 -1.4007
 1719SOL     OW16792   0.024   4.724   3.838  0.3227 -0.5910 -0.5036
 1719SOL    HW116793   0.107   0.031   3.817 -0.0773  0.9443  1.0454
 1719SOL    HW216794   4.703   0.053   3.795  3.6797  2.7643  0.1582
 1720SOL     OW16795   1.529   3.097   6.939  0.0441 -0.1485  0.3067
 1720SOL    HW116796   1.504   3.017   6.985 -0.7157  0.5909  1.1787
 1720SOL    HW216797   1.440   3.129   6.921  0.1386 -0.2729 -0.3724
 1721SOL     OW16798   4.275   0.572   7.789  0.1449 -0.2333  0.2483
 1721SOL    HW116799   4.304   0.533   7.871  2.0311  0.2972 -0.1612
 1721SOL    HW216800   4.190   0.612   7.809  1.3046  1.9001  0.7835
 1722SOL     OW16801   3.290   4.286   1.780 -0.1466  0.6711  0.1343
 1722SOL    HW116802   3.351   4.214   1.793 -0.2751  0.5246 -0.0733
 1722SOL    HW216803   3.354   4.348   1.745 -0.5386  0.4072 -1.0325
 1723SOL     OW16804   0.728   4.118   1.948  0.0058 -0.0689  0.0284
 1723SOL    HW116805   0.672   4.065   1.891  0.8025  1.2041 -1.9127
 1723SOL    HW216806   0.697   4.201   1.911 -0.1241  1.9632  4.6616
 1724SOL     OW16807   1.076   0.792   7.636  0.1935  0.2619 -0.6325
 1724SOL    HW116808   1.007   0.857   7.641  1.0359  1.1969 -1.1673
 1724SOL    HW216809   1.036   0.716   7.678  0.5857  1.1426  1.3400
 1725SOL     OW16810   3.170   1.355   6.277 -0.2056 -0.1815  0.2793
 1725SOL    HW116811   3.092   1.308   6.306  1.2486 -1.8421  1.5776
 1725SOL    HW216812   3.132   1.421   6.220  0.9158 -0.2268 -0.5199
 1726SOL     OW16813   0.654   2.158   7.060  0.0536 -0.0792  0.9962
 1726SOL    HW116814   0.562   2.158   7.089  0.0633  0.4446  1.0112
 1726SOL    HW216815   0.671   2.064   7.068  1.4432  0.0114 -0.9728
 1727SOL     OW16816   1.185   0.197   2.882  0.3676 -0.1942 -0.3866
 1727SOL    HW116817   1.146   0.124   2.931  1.6307  0.1269  1.0940
 1727SOL    HW216818   1.208   0.151   2.802 -4.1786 -3.1881  0.0335
 1728SOL     OW16819   3.066   1.689   9.590 -0.5902  0.0820 -0.6542
 1728SOL    HW116820   3.106   1.768   9.553  0.5839 -0.9461 -1.6057
 1728SOL    HW216821   3.143   1.653   9.635 -0.4639 -1.0392 -1.7535
 1729SOL     OW16822   0.354   3.466  12.404 -0.2284  0.8095 -0.1237
 1729SOL    HW116823   0.274   3.469  12.353 -1.7805 -1.4974  2.2048
 1729SOL    HW216824   0.334   3.400  12.470 -0.9630  0.9295 -0.2327
 1730SOL     OW16825   3.230   2.932   3.826  0.0267 -0.2657 -0.0839
 1730SOL    HW116826   3.303   2.912   3.768  0.3696 -0.9730  0.5975
 1730SOL    HW216827   3.276   2.936   3.909  1.4974 -1.2709 -0.8352
 1731SOL     OW16828   0.164   0.329  15.248 -0.0529 -0.6052 -0.2485
 1731SOL    HW116829   0.242   0.377  15.218  2.4349 -2.2917  3.5699
 1731SOL    HW216830   0.123   0.392  15.307 -0.5377 -1.8763  0.7651
 1732SOL     OW16831   2.112   3.292  15.779 -0.0998  0.1931 -0.9590
 1732SOL    HW116832   2.178   3.246  15.727  1.0671 -1.2741  1.8287
 1732SOL    HW216833   2.161   3.338  15.847  1.0478  1.2432 -2.4901
 1733SOL     OW16834   1.228   0.735   9.432  0.2561 -0.5765  0.0235
 1733SOL    HW116835   1.172   0.803   9.469 -0.2794 -1.9164  1.7048
 1733SOL    HW216836   1.183   0.697   9.357 -0.2754 -1.1678  0.6475
 1734SOL     OW16837   1.846   3.932  13.059  0.1864  0.4893 -0.0809
 1734SOL    HW116838   1.831   3.906  13.150  0.7355  0.5526  0.0291
 1734SOL    HW216839   1.764   3.950  13.013 -1.4889 -0.2277  2.6284
 1735SOL     OW16840   2.902   2.731   8.177 -0.5412 -0.1255  0.0658
 1735SOL    HW116841   2.946   2.738   8.092  0.6258 -1.8962  0.5252
 1735SOL    HW216842   2.883   2.821   8.202  1.0146  0.2889 -0.2825
 1736SOL     OW16843   0.441   2.369  12.553  0.0819 -0.2393 -0.3842
 1736SOL    HW116844   0.399   2.396  12.472  0.2730  0.5808 -0.2138
 1736SOL    HW216845   0.387   2.295  12.581 -0.9943 -0.0205 -1.9161
 1737SOL     OW16846   2.938   1.107  11.588  0.3758 -0.0488  0.0181
 1737SOL    HW116847   2.982   1.153  11.517 -0.1825  0.0025 -0.2997
 1737SOL    HW216848   2.849   1.116  11.553  0.1787  1.0133  0.7945
 1738SOL     OW16849   2.894   4.707   3.575 -0.5816 -0.4522 -1.1663
 1738SOL    HW116850   2.932   4.710   3.487 -0.3403  1.6186 -0.9874
 1738SOL    HW216851   2.806   4.669   3.563 -0.3129 -1.3200 -0.4429
 1739SOL     OW16852   3.885   2.337   6.186  0.2456  0.4389  0.0613
 1739SOL    HW116853   3.925   2.379   6.262 -0.0352  1.4996 -0.3722
 1739SOL    HW216854   3.793   2.330   6.213  0.1041 -0.3338 -0.6481
 1740SOL     OW16855   0.446   0.759   0.542  0.5687 -0.4500  0.8508
 1740SOL    HW116856   0.524   0.796   0.499 -0.9458  1.8749  0.0810
 1740SOL    HW216857   0.478   0.763   0.632 -0.9680  1.6370  1.2989
 1741SOL     OW16858   1.981   0.981   5.576 -0.0725  0.2319  0.8697
 1741SOL    HW116859   1.906   0.932   5.609 -1.9695  1.2133 -1.9794
 1741SOL    HW216860   1.934   1.050   5.529  0.9261  0.0427 -0.4262
 1742SOL     OW16861   3.982   1.740   7.076  0.2787 -0.0507 -0.8944
 1742SOL    HW116862   3.955   1.649   7.063 -0.5193  0.2156 -1.0778
 1742SOL    HW216863   3.926   1.779   7.009 -0.0049  2.0088  0.5348
 1743SOL     OW16864   4.682   1.682   7.715  0.0708  0.2535  0.3311
 1743SOL    HW116865   4.622   1.718   7.780 -1.1653  0.9088 -1.1640
 1743SOL    HW216866   4.710   1.761   7.669  0.0409  0.0212 -0.0862
 1744SOL     OW16867   1.519   4.675   8.803  0.7647 -0.3017  0.6580
 1744SOL    HW116868   1.577   0.014   8.786  2.6762 -1.5949  1.4951
 1744SOL    HW216869   1.442   4.683   8.747  2.0995  1.5864 -0.8770
 1745SOL     OW16870   0.528   4.176   7.760 -0.2661 -0.2559 -0.2110
 1745SOL    HW116871   0.480   4.158   7.679  0.6014  0.0063 -0.7940
 1745SOL    HW216872   0.608   4.122   7.756  0.0724  0.2476 -0.2400
 1746SOL     OW16873   3.650   3.025  17.226 -0.0383  0.3912 -0.1906
 1746SOL    HW116874   3.557   3.025  17.250  0.0324 -0.0144  0.0852
 1746SOL    HW216875   3.679   3.109  17.261 -0.2816 -0.0308  1.0304
 1747SOL     OW16876   2.054   4.025   7.867 -0.1144  0.2480  0.7759
 1747SOL    HW116877   2.061   3.999   7.958  2.2885 -0.3243  0.4344
 1747SOL    HW216878   2.141   4.002   7.834  0.4048  0.8062  1.7675
 1748SOL     OW16879   0.903   2.935   2.428 -0.0924 -0.3876 -0.1897
 1748SOL    HW116880   0.934   2.880   2.500  0.9840  0.5289  0.0602
 1748SOL    HW216881   0.819   2.897   2.404 -0.5779  1.3858 -1.2735
 1749SOL     OW16882   1.945   4.058   6.963 -0.2807 -0.3532 -0.2366
 1749SOL    HW116883   2.035   4.088   6.975 -0.3721 -0.1800 -0.0012
 1749SOL    HW216884   1.903   4.085   7.045  0.8600 -0.4893  0.3846
 1750SOL     OW16885   0.096   0.152   7.176  0.4022 -0.0806 -0.0009
 1750SOL    HW116886   0.141   0.215   7.233 -0.6725  1.3955 -0.7812
 1750SOL    HW216887   0.027   0.120   7.234  0.4751  0.4112  0.3519
 1751SOL     OW16888   3.448   3.156   3.992  0.4138  0.0950 -0.5366
 1751SOL    HW116889   3.523   3.213   4.008  1.0741 -0.3171 -2.0947
 1751SOL    HW216890   3.430   3.185   3.903  2.2433 -2.4521 -1.7784
 1752SOL     OW16891   2.966   1.292   9.022  0.1813  0.4305 -0.3458
 1752SOL    HW116892   2.957   1.263   9.112 -0.5250 -1.7465 -1.1029
 1752SOL    HW216893   2.948   1.215   8.968  2.1532  0.1141 -0.5540
 1753SOL     OW16894   2.430   3.684   5.161  0.1852  0.2513 -0.1194
 1753SOL    HW116895   2.497   3.616   5.152 -0.2680 -0.3474  0.9973
 1753SOL    HW216896   2.482   3.756   5.195  0.8435  0.3727 -1.3605
 1754SOL     OW16897   2.625   2.274  16.587  0.4125 -0.4775 -0.1051
 1754SOL    HW116898   2.698   2.301  16.531 -0.3615 -0.2264 -0.9952
 1754SOL    HW216899   2.577   2.356  16.602  1.8503  0.5351 -0.9535
 1755SOL     OW16900   1.911   1.822  10.326 -0.0546  0.7431  0.0311
 1755SOL    HW116901   1.976   1.805  10.394  1.1008 -0.6517 -1.4281
 1755SOL    HW216902   1.969   1.792  10.255  0.6106  0.6085  0.6324
 1756SOL     OW16903   1.051   2.958   9.692  0.0243 -0.3514  0.2415
 1756SOL    HW116904   1.003   2.959   9.609 -1.9849 -2.5794  1.3763
 1756SOL    HW216905   1.088   3.046   9.697  1.5116 -1.0921  2.1513
 1757SOL     OW16906   4.074   1.741   4.105  0.0666  0.3077  0.1098
 1757SOL    HW116907   4.107   1.807   4.166 -0.7699 -0.2362  1.1270
 1757SOL    HW216908   3.988   1.782   4.094  0.3504  1.4822  2.2285
 1758SOL     OW16909   0.948   4.634   4.137  0.6592  0.7747  0.2541
 1758SOL    HW116910   0.958   4.619   4.043  0.7666  0.8400  0.2546
 1758SOL    HW216911   0.890   4.709   4.127 -0.1655  0.1324  0.2429
 1759SOL     OW16912   0.108   3.703   3.411  0.4265 -0.5698  0.3737
 1759SOL    HW116913   0.019   3.731   3.389  1.2844 -0.1824 -2.5339
 1759SOL    HW216914   0.080   3.622   3.454  1.6016  0.7595  3.6462
 1760SOL     OW16915   1.514   0.366   5.903 -0.1349 -0.0720 -0.3147
 1760SOL    HW116916   1.581   0.428   5.930 -0.3341 -0.5973  1.4036
 1760SOL    HW216917   1.453   0.380   5.975  1.0806  1.6581  0.3727
 1761SOL     OW16918   3.822   0.987   9.157  0.1311 -0.1162  0.2111
 1761SOL    HW116919   3.897   1.046   9.156 -0.5961  0.7393 -3.1497
 1761SOL    HW216920   3.753   1.050   9.179 -1.3383 -2.4750  2.3912
 1762SOL     OW16921   0.127   0.147   4.753  0.4617  0.0235 -0.6899
 1762SOL    HW116922   0.041   0.183   4.728  0.0879 -0.4373 -0.0818
 1762SOL    HW216923   0.188   0.218   4.737  0.4012  0.2329  0.0140
 1763SOL     OW16924   1.111   2.743   9.343  0.0493 -0.4746 -0.1453
 1763SOL    HW116925   1.039   2.792   9.384 -1.0439 -0.9709 -1.5040
 1763SOL    HW216926   1.120   2.785   9.258 -0.0548 -1.1660 -0.4897
 1764SOL     OW16927   4.684   1.295  15.411 -0.3257 -0.2568 -0.4361
 1764SOL    HW116928   4.711   1.239  15.483 -0.1026  0.3761 -0.0269
 1764SOL    HW216929   4.589   1.289  15.420 -0.1958  0.8012  1.5250
 1765SOL     OW16930   2.048   2.651   2.284  0.6630  0.2756  0.0334
 1765SOL    HW116931   2.071   2.637   2.192  0.5827  0.0845  0.0426
 1765SOL    HW216932   2.127   2.607   2.315 -1.1376 -3.1021 -0.1823
 1766SOL     OW16933   4.453   4.717  15.071 -0.5264 -0.0646  0.2162
 1766SOL    HW116934   4.397   4.703  14.995 -2.3133  0.5707  1.4193
 1766SOL    HW216935   4.415   0.060  15.110  1.7805 -0.1807  2.7028
 1767SOL     OW16936   2.299   2.730   5.434  0.4597 -0.3549 -0.4700
 1767SOL    HW116937   2.214   2.700   5.463  0.2029 -0.7846 -1.6694
 1767SOL    HW216938   2.275   2.758   5.345 -0.4468  0.3348 -0.0029
 1768SOL     OW16939   1.242   1.690   6.972  0.5632  0.0926 -0.1719
 1768SOL    HW116940   1.273   1.718   7.058  0.6234  0.6826 -0.3845
 1768SOL    HW216941   1.148   1.708   6.980  0.2462 -1.0436 -1.3474
 1769SOL     OW16942   3.601   3.677   7.029  0.0773 -0.2282  0.0247
 1769SOL    HW116943   3.687   3.651   6.996  1.2214  1.3094  1.7497
 1769SOL    HW216944   3.572   3.729   6.954 -1.8885 -0.4527  0.6297
 1770SOL     OW16945   3.680   0.757   9.701  0.1240 -0.2784  0.4691
 1770SOL    HW116946   3.645   0.738   9.614 -0.8958 -0.2034  0.8544
 1770SOL    HW216947   3.718   0.844   9.688 -1.2628 -0.0099 -1.7528
 1771SOL     OW16948   0.942   2.003   5.989 -0.0103 -0.0869  0.5458
 1771SOL    HW116949   1.018   1.992   6.046 -0.8136 -0.7238  1.4997
 1771SOL    HW216950   0.978   2.044   5.911 -1.5076  1.7492  0.8223
 1772SOL     OW16951   2.816   3.069   7.945 -0.6198  0.0668 -0.5200
 1772SOL    HW116952   2.895   3.067   7.892 -0.9290  0.9781 -1.0075
 1772SOL    HW216953   2.763   3.139   7.906 -0.6184 -0.2251 -1.0376
 1773SOL     OW16954   1.016   0.825   4.424 -0.7985  0.2883 -0.0256
 1773SOL    HW116955   0.987   0.916   4.416  1.2058  0.7043 -2.5551
 1773SOL    HW216956   1.072   0.830   4.347 -2.3530  0.5808 -1.1475
 1774SOL     OW16957   2.422   2.198  11.866 -0.1192 -0.3394 -0.0851
 1774SOL    HW116958   2.466   2.152  11.794 -0.1887  0.1013 -0.4045
 1774SOL    HW216959   2.408   2.121  11.921 -0.8906 -0.9741 -1.1543
 1775SOL     OW16960   4.712   3.469   2.236  0.3709  0.3741 -0.3036
 1775SOL    HW116961   4.657   3.546   2.252 -0.1913 -0.0563 -0.1679
 1775SOL    HW216962   0.039   3.509   2.176 -0.8074 -1.4405 -2.7322
 1776SOL     OW16963   2.702   0.456   6.208  0.7410 -0.1415  0.2786
 1776SOL    HW116964   2.616   0.415   6.210  0.0111  1.3165 -0.8708
 1776SOL    HW216965   2.754   0.379   6.229  0.7884 -0.0330  0.5549
 1777SOL     OW16966   2.539   4.666   8.990  0.0084  0.4821  0.2067
 1777SOL    HW116967   2.554   4.718   9.068 -1.3263  0.9908  0.1285
 1777SOL    HW216968   2.451   4.699   8.970 -0.1203  0.2577  0.4148
 1778SOL     OW16969   3.054   1.597   1.250  0.0947  0.2205 -0.2825
 1778SOL    HW116970   3.039   1.656   1.176  0.2962 -2.1256 -2.1793
 1778SOL    HW216971   3.090   1.522   1.204  0.5409  0.6652 -0.6684
 1779SOL     OW16972   4.031   2.455   8.104 -0.1659 -0.1482  0.1326
 1779SOL    HW116973   3.968   2.457   8.176  1.5169  0.2676  1.5915
 1779SOL    HW216974   4.113   2.458   8.152 -0.7820  1.1770  1.0796
 1780SOL     OW16975   1.923   4.536  12.988 -0.2619 -0.0982  0.0667
 1780SOL    HW116976   1.983   4.467  12.959 -0.6437 -0.7774  0.8890
 1780SOL    HW216977   1.932   4.527  13.083 -1.1232  0.0537  0.1602
 1781SOL     OW16978   3.580   1.559   2.484  0.1959  0.2159  0.2713
 1781SOL    HW116979   3.519   1.631   2.502  1.1282  0.4051  2.6574
 1781SOL    HW216980   3.628   1.598   2.410  1.1326  1.9438  1.8006
 1782SOL     OW16981   1.467   0.770   6.144 -0.3546  0.5212  0.4052
 1782SOL    HW116982   1.519   0.696   6.113 -0.8930  0.1737  0.3301
 1782SOL    HW216983   1.474   0.762   6.239  3.1618  0.7957  0.1838
 1783SOL     OW16984   2.023   3.477   7.502  0.4469  0.4298  0.3738
 1783SOL    HW116985   2.101   3.479   7.556 -0.9601  1.2731  2.3670
 1783SOL    HW216986   2.045   3.485   7.409  0.1788  1.6001  0.4068
 1784SOL     OW16987   3.461   0.595   0.410 -0.0635  0.5154 -0.1950
 1784SOL    HW116988   3.405   0.659   0.366 -1.5875 -0.6294  0.0852
 1784SOL    HW216989   3.404   0.581   0.486 -0.2020 -0.2475 -0.4432
 1785SOL     OW16990   3.577   3.001  16.406  0.6382  0.2688 -0.2426
 1785SOL    HW116991   3.571   2.934  16.338  0.9509 -2.4678  2.4251
 1785SOL    HW216992   3.568   3.081  16.354  1.2567  0.5944  0.1479
 1786SOL     OW16993   4.143   1.437   1.429 -0.0902 -0.4595 -0.6184
 1786SOL    HW116994   4.162   1.531   1.430  0.7952 -0.6604  1.0553
 1786SOL    HW216995   4.227   1.411   1.391  1.5122  1.2416  1.7544
 1787SOL     OW16996   4.643   0.725   2.763 -0.0490 -0.3935  0.0434
 1787SOL    HW116997   4.594   0.787   2.710  0.8250 -1.3801 -1.9181
 1787SOL    HW216998   4.692   0.670   2.701  2.2244  0.1829  1.2992
 1788SOL     OW16999   3.610   3.372  14.225 -0.5508 -0.3044 -0.1982
 1788SOL    HW117000   3.652   3.313  14.286 -0.0078  0.0320 -0.2471
 1788SOL    HW217001   3.636   3.460  14.251 -1.6806  0.1365 -0.5492
 1789SOL     OW17002   3.240   0.230   8.354 -0.5127 -0.4024 -0.3052
 1789SOL    HW117003   3.229   0.139   8.326 -0.5578  0.2876 -2.5132
 1789SOL    HW217004   3.176   0.218   8.424 -0.1287 -0.8296 -0.0223
 1790SOL     OW17005   3.796   4.621   6.796 -0.1248 -0.3783 -0.3672
 1790SOL    HW117006   3.833   4.705   6.768  0.4248 -0.5185 -0.0626
 1790SOL    HW217007   3.755   4.659   6.873  1.6438 -1.1535  0.9582
 1791SOL     OW17008   2.604   2.561   1.825 -0.2346 -0.6566  0.4608
 1791SOL    HW117009   2.529   2.600   1.781  0.2974 -1.0696 -0.8087
 1791SOL    HW217010   2.656   2.636   1.852  2.1702 -3.1060  2.6344
 1792SOL     OW17011   0.745   0.918   2.203  0.5934  0.1473  0.0887
 1792SOL    HW117012   0.723   0.826   2.219 -1.4031  0.4598 -0.8441
 1792SOL    HW217013   0.707   0.966   2.277 -0.9068 -0.0435 -0.5514
 1793SOL     OW17014   1.779   2.717  17.469 -0.0801 -0.2999  0.1892
 1793SOL    HW117015   1.835   2.723  17.392 -0.3781  2.2887  0.1612
 1793SOL    HW217016   1.779   2.809  17.497 -1.3456 -0.2543  0.0234
 1794SOL     OW17017   3.044   0.721   0.470  0.4534  0.1843 -0.8215
 1794SOL    HW117018   3.125   0.682   0.438  1.1408  1.3892 -0.5318
 1794SOL    HW217019   2.983   0.647   0.465 -3.7966  3.6926 -0.8912
 1795SOL     OW17020   1.345   1.392   3.948 -0.1421 -0.2881 -0.0016
 1795SOL    HW117021   1.434   1.363   3.930 -0.3581 -0.6246 -0.5680
 1795SOL    HW217022   1.332   1.471   3.895  0.6748 -1.1706 -1.5306
 1796SOL     OW17023   2.612   3.726   6.541  0.1365  0.0634  0.0145
 1796SOL    HW117024   2.660   3.665   6.595  1.4299  1.4464  0.4282
 1796SOL    HW217025   2.524   3.702   6.571  0.3636 -0.0842  0.5534
 1797SOL     OW17026   3.213   3.649   7.017  0.0082  0.1559  0.3533
 1797SOL    HW117027   3.228   3.631   6.924 -1.2682  1.2531 -0.0688
 1797SOL    HW217028   3.281   3.712   7.041  1.1270 -1.3697  1.2112
 1798SOL     OW17029   1.800   3.849   9.879  0.1385  0.2535 -0.0610
 1798SOL    HW117030   1.707   3.869   9.868 -0.1313 -0.6123  0.6563
 1798SOL    HW217031   1.836   3.933   9.905  2.4874 -1.1212  1.0801
 1799SOL     OW17032   3.838   1.906   5.354 -0.4472  0.3053 -0.2386
 1799SOL    HW117033   3.834   1.850   5.431  1.8161  1.0061  0.3920
 1799SOL    HW217034   3.926   1.889   5.319 -0.9379 -0.7956 -0.9601
 1800SOL     OW17035   0.905   1.847   0.232  0.3245  0.6728  0.4004
 1800SOL    HW117036   0.928   1.940   0.244 -0.3342  1.3026 -3.2401
 1800SOL    HW217037   0.878   1.856   0.141 -1.8962 -0.5961  0.9268
 1801SOL     OW17038   0.148   3.841   2.164 -0.0937  0.4180 -0.0852
 1801SOL    HW117039   0.158   3.838   2.260  0.2091 -1.3782 -0.1656
 1801SOL    HW217040   0.085   3.910   2.146  2.8715  3.2351  0.3932
 1802SOL     OW17041   3.984   3.843   1.400 -0.2713  0.2044  0.4135
 1802SOL    HW117042   3.898   3.885   1.406  0.1569  0.9622  1.1811
 1802SOL    HW217043   4.040   3.918   1.378  1.0397 -1.2894 -1.3423
 1803SOL     OW17044   2.487   1.955  13.987 -0.3196 -0.7182  0.1739
 1803SOL    HW117045   2.461   1.917  14.071  2.7201 -1.7562  0.6635
 1803SOL    HW217046   2.557   1.894  13.964  0.0750 -0.8758  1.7371
 1804SOL     OW17047   1.142   0.249   3.308  0.3902  0.6882  0.0102
 1804SOL    HW117048   1.084   0.325   3.315 -1.3307 -0.5992 -0.1877
 1804SOL    HW217049   1.073   0.185   3.295  0.3473  0.6968  0.1847
 1805SOL     OW17050   0.093   4.505   5.917 -0.4285  0.1083 -0.5268
 1805SOL    HW117051   0.004   4.474   5.933  0.1429  0.3612  2.9835
 1805SOL    HW217052   0.100   4.591   5.958  0.1265 -0.9401  1.5653
 1806SOL     OW17053   3.213   4.412  16.608 -0.0421 -0.0372  0.2902
 1806SOL    HW117054   3.152   4.351  16.649 -0.3042 -0.4021 -0.6433
 1806SOL    HW217055   3.173   4.498  16.613 -0.4018 -0.1619 -0.5328
 1807SOL     OW17056   2.818   1.379  11.929  0.1890 -0.4671 -0.2764
 1807SOL    HW117057   2.763   1.431  11.988  0.3679 -2.6349  1.7888
 1807SOL    HW217058   2.892   1.342  11.976  0.4705  0.3917 -0.0524
 1808SOL     OW17059   1.959   1.653   2.294  0.3076  0.5324  0.8583
 1808SOL    HW117060   2.039   1.647   2.242 -0.1355  1.9407  0.0352
 1808SOL    HW217061   1.973   1.572   2.345  0.7629 -1.1450 -1.9504
 1809SOL     OW17062   3.701   4.622  15.884 -0.1309 -0.3690  0.1133
 1809SOL    HW117063   3.692   4.536  15.843 -2.0192  0.3663 -1.0178
 1809SOL    HW217064   3.674   4.679  15.812  1.1988 -1.8528 -1.5457
 1810SOL     OW17065   1.907   1.278   4.783 -0.0442 -0.2917 -0.3579
 1810SOL    HW117066   1.908   1.355   4.727  1.3655 -1.6634 -2.1871
 1810SOL    HW217067   1.828   1.228   4.761 -0.5369  0.8465 -1.1826
 1811SOL     OW17068   2.528   1.750   4.452  0.4744 -0.0785  0.9490
 1811SOL    HW117069   2.498   1.706   4.531  0.5049 -2.1849 -0.2186
 1811SOL    HW217070   2.621   1.746   4.475  0.3886 -0.7252  1.1744
 1812SOL     OW17071   0.370   4.164   5.794  0.1148  0.3083  0.0141
 1812SOL    HW117072   0.376   4.120   5.879  0.3637  0.6290  0.1628
 1812SOL    HW217073   0.418   4.242   5.821  1.6119 -0.5227 -0.1960
 1813SOL     OW17074   1.911   0.241   4.498 -0.1688 -0.1292 -0.3679
 1813SOL    HW117075   1.883   0.327   4.530 -0.9518 -0.5625  0.1040
 1813SOL    HW217076   1.930   0.200   4.582 -0.2033 -0.8449 -0.7105
 1814SOL     OW17077   0.976   3.601   2.998  0.3200 -0.6134 -0.2575
 1814SOL    HW117078   0.902   3.545   3.021  0.2759 -0.1817  0.6700
 1814SOL    HW217079   1.017   3.618   3.083  0.0917 -0.9894 -0.0740
 1815SOL     OW17080   0.316   0.730  14.112 -0.1762 -0.3676 -0.9646
 1815SOL    HW117081   0.261   0.733  14.034  0.1872 -2.9534 -1.3179
 1815SOL    HW217082   0.248   0.764  14.170 -0.1274 -0.2756 -0.9615
 1816SOL     OW17083   2.416   2.728   1.726  0.0090 -0.0036  0.0667
 1816SOL    HW117084   2.483   2.791   1.700 -1.2767  1.2745 -0.1736
 1816SOL    HW217085   2.346   2.745   1.663  0.1592 -0.6925 -0.2797
 1817SOL     OW17086   1.079   1.626   7.768  0.0161  0.1251  0.4160
 1817SOL    HW117087   1.172   1.641   7.751 -0.0892 -0.6461 -0.8526
 1817SOL    HW217088   1.085   1.572   7.847 -0.0804  0.8612  0.9245
 1818SOL     OW17089   3.860   3.110  10.989 -0.4340  0.0891 -0.3747
 1818SOL    HW117090   3.954   3.097  10.979 -0.2046  1.1763  0.3797
 1818SOL    HW217091   3.859   3.193  11.036  0.7662 -0.9502  1.4941
 1819SOL     OW17092   3.126   3.805  16.262 -0.4547  0.4419 -0.1835
 1819SOL    HW117093   3.166   3.846  16.185  0.4276  1.7233  0.9575
 1819SOL    HW217094   3.045   3.761  16.235 -0.6995  1.3858 -0.9766
 1820SOL     OW17095   2.021   1.831   1.973 -0.1733 -0.3200  0.2757
 1820SOL    HW117096   2.064   1.885   2.040 -1.1940  0.5125  0.2614
 1820SOL    HW217097   2.062   1.870   1.896 -1.5374 -1.8365 -1.2123
 1821SOL     OW17098   3.754   4.255   0.096  0.2979  0.2998  0.2732
 1821SOL    HW117099   3.841   4.215   0.088 -0.6033 -1.5286 -0.2934
 1821SOL    HW217100   3.767   4.322   0.163 -1.1116  3.3691 -2.5338
 1822SOL     OW17101   1.358   1.807   5.346 -0.2275 -0.6457 -0.3445
 1822SOL    HW117102   1.346   1.897   5.377 -0.6450 -0.7212 -0.2834
 1822SOL    HW217103   1.371   1.836   5.256  0.9996  1.7024  0.5906
 1823SOL     OW17104   1.636   3.852   9.293  0.9184  0.1442 -0.2550
 1823SOL    HW117105   1.633   3.757   9.285 -1.6098  0.0904  1.2235
 1823SOL    HW217106   1.654   3.864   9.386  1.4195 -0.7524 -0.2413
 1824SOL     OW17107   3.280   2.409   2.074 -0.3691 -0.6454 -0.2833
 1824SOL    HW117108   3.290   2.361   2.156  1.0501  1.4711  0.7818
 1824SOL    HW217109   3.270   2.337   2.013  0.5904 -2.0078  1.1746
 1825SOL     OW17110   4.045   2.212   5.988  0.5673 -0.0159 -0.2130
 1825SOL    HW117111   4.129   2.229   6.030 -0.0670 -1.1604  1.5502
 1825SOL    HW217112   3.984   2.253   6.049  0.6134  0.9662 -0.8443
 1826SOL     OW17113   2.142   4.312   6.743  0.9160  0.2330 -0.1394
 1826SOL    HW117114   2.079   4.241   6.750  0.1494  0.9661  0.3646
 1826SOL    HW217115   2.182   4.322   6.830 -0.2897 -1.0573  0.5595
 1827SOL     OW17116   4.282   2.554   0.389  0.3543 -0.4761  0.4481
 1827SOL    HW117117   4.200   2.530   0.432 -1.0560  0.6120 -1.5922
 1827SOL    HW217118   4.341   2.488   0.425  2.6701 -0.1294 -2.6770
 1828SOL     OW17119   1.022   2.509   9.549  0.2466 -0.5278 -0.7831
 1828SOL    HW117120   1.085   2.578   9.568 -0.8535  0.4739 -0.7448
 1828SOL    HW217121   0.960   2.554   9.492  0.9582 -0.3400 -1.4120
 1829SOL     OW17122   0.539   3.746  11.041  0.3220 -0.4205  0.1474
 1829SOL    HW117123   0.598   3.767  11.113  1.2258  0.2353 -0.7806
 1829SOL    HW217124   0.600   3.738  10.968 -1.0786  1.4763 -1.2338
 1830SOL     OW17125   1.692   1.235   0.803  0.0102  0.5758  0.1402
 1830SOL    HW117126   1.784   1.240   0.830 -0.2920 -0.1931  1.3450
 1830SOL    HW217127   1.694   1.147   0.764  1.1328  0.8377 -0.4124
 1831SOL     OW17128   1.718   1.827   9.820  0.1055 -0.0524 -0.7621
 1831SOL    HW117129   1.745   1.741   9.851  1.0742  1.6489  3.2698
 1831SOL    HW217130   1.802   1.865   9.793  0.4012 -0.5540 -0.5560
 1832SOL     OW17131   4.191   1.125   3.287  0.5888  0.1335  0.4050
 1832SOL    HW117132   4.178   1.107   3.194  2.3584 -2.1266  0.6074
 1832SOL    HW217133   4.270   1.175   3.305  2.2742 -2.6603  0.7411
 1833SOL     OW17134   3.246   0.574  14.109 -0.7367 -0.1890  0.1381
 1833SOL    HW117135   3.297   0.533  14.179 -0.4525  0.8738  0.5541
 1833SOL    HW217136   3.203   0.502  14.063  0.3023 -0.7182  0.0039
 1834SOL     OW17137   3.860   1.011   3.465  0.4798  0.3473  0.1353
 1834SOL    HW117138   3.780   1.009   3.518  0.2008 -1.7771 -0.3493
 1834SOL    HW217139   3.881   1.104   3.472 -0.0399  0.4337  0.5369
 1835SOL     OW17140   3.943   2.519   0.006  0.2633 -0.3078  0.0247
 1835SOL    HW117141   3.894   2.439  17.726 -1.0172  0.0620  1.8250
 1835SOL    HW217142   4.013   2.502  17.682  1.6763 -1.3784  1.8871
 1836SOL     OW17143   0.722   0.378   4.667  0.4985  0.1162  0.0915
 1836SOL    HW117144   0.749   0.469   4.681 -2.2816  1.0202 -0.4538
 1836SOL    HW217145   0.659   0.361   4.737 -0.7650 -1.5131 -1.4414
 1837SOL     OW17146   0.590   2.044   7.986 -0.0015  0.3556 -0.4296
 1837SOL    HW117147   0.646   2.036   8.063  0.9540 -0.0314 -1.1664
 1837SOL    HW217148   0.517   1.996   8.023 -0.8546  0.5036 -1.9093
 1838SOL     OW17149   0.824   1.695   4.179  0.4033  0.6355  0.1506
 1838SOL    HW117150   0.744   1.648   4.154  0.2752  0.8386  0.1679
 1838SOL    HW217151   0.790   1.744   4.254  0.0960  0.9855 -0.2126
 1839SOL     OW17152   2.225   4.080   3.010 -0.2949  0.3732 -0.7178
 1839SOL    HW117153   2.271   4.077   3.094  2.7894 -0.5564 -2.4187
 1839SOL    HW217154   2.290   4.123   2.955  0.3998  0.7992  0.4294
 1840SOL     OW17155   1.779   2.808   5.146  0.4994  0.8952  0.0388
 1840SOL    HW117156   1.859   2.843   5.186 -0.2338  1.3661  1.1082
 1840SOL    HW217157   1.740   2.893   5.124 -0.0751  0.4578 -0.6209
 1841SOL     OW17158   4.126   1.215  12.797  0.3960 -0.1337  0.1385
 1841SOL    HW117159   4.068   1.266  12.853 -0.5565  1.1092 -1.9640
 1841SOL    HW217160   4.099   1.125  12.814 -1.6598  0.4433 -0.1110
 1842SOL     OW17161   1.324   1.386   8.875 -0.0402  0.2778  0.3896
 1842SOL    HW117162   1.329   1.439   8.955  1.1524  0.3048  0.2961
 1842SOL    HW217163   1.376   1.436   8.812  1.2923  0.4101  1.5881
 1843SOL     OW17164   0.898   4.034   4.194 -0.2038 -0.5696  0.3158
 1843SOL    HW117165   0.864   4.109   4.243  1.9728  0.4025  0.3654
 1843SOL    HW217166   0.964   4.086   4.148  0.1686  0.5523  2.0989
 1844SOL     OW17167   3.528   0.027   9.444  0.9168  0.3917  0.4257
 1844SOL    HW117168   3.538   4.667   9.441 -3.3958 -0.1019  2.2632
 1844SOL    HW217169   3.611   0.057   9.482  1.4072  0.1947 -0.4713
 1845SOL     OW17170   4.330   2.904   6.885  0.0489 -0.1544  0.1035
 1845SOL    HW117171   4.370   2.952   6.812  0.6315 -1.5004 -0.4528
 1845SOL    HW217172   4.241   2.939   6.880  0.3394  0.8678  1.9699
 1846SOL     OW17173   4.563   2.598  10.980 -0.2342  0.2566  0.1206
 1846SOL    HW117174   4.510   2.522  11.004 -0.5232 -0.0397 -1.4123
 1846SOL    HW217175   4.632   2.587  11.045  0.4695 -0.3338 -0.7180
 1847SOL     OW17176   3.765   1.627   2.013  0.0166 -0.2633 -0.4540
 1847SOL    HW117177   3.777   1.593   1.924 -0.3635 -1.0887 -0.1910
 1847SOL    HW217178   3.684   1.675   1.994 -0.5089 -1.0367 -0.1419
 1848SOL     OW17179   0.107   0.660  17.016 -0.4046 -0.6206 -0.8045
 1848SOL    HW117180   0.172   0.608  17.064 -1.6632 -1.4411 -0.0157
 1848SOL    HW217181   0.068   0.705  17.091 -1.3466 -0.4309 -1.4141
 1849SOL     OW17182   0.893   2.950   4.797  0.1846 -0.0473  0.1571
 1849SOL    HW117183   0.903   2.863   4.837  0.5296 -0.3768 -0.6365
 1849SOL    HW217184   0.982   2.974   4.774  0.1641  0.8038  0.9738
 1850SOL     OW17185   3.146   2.669  10.318  0.1884 -0.1087 -0.1725
 1850SOL    HW117186   3.073   2.691  10.261 -1.4584 -0.5022  1.7559
 1850SOL    HW217187   3.209   2.718  10.266 -0.0619  1.1855  0.7343
 1851SOL     OW17188   0.770   3.718   7.666 -0.3114 -0.0195  0.1762
 1851SOL    HW117189   0.826   3.728   7.743  1.3875 -0.5778 -1.0188
 1851SOL    HW217190   0.703   3.663   7.707 -0.2264 -0.6165 -0.4925
 1852SOL     OW17191   3.610   0.197   8.257 -0.5504  0.1558 -0.6577
 1852SOL    HW117192   3.644   0.276   8.299 -0.5433  0.1721 -0.6948
 1852SOL    HW217193   3.515   0.206   8.263 -0.6156 -1.5618  1.2185
 1853SOL     OW17194   0.993   0.491   3.272  0.2961  0.3290 -0.1063
 1853SOL    HW117195   1.061   0.479   3.205 -0.0694 -2.0861 -0.0387
 1853SOL    HW217196   0.924   0.525   3.215  2.2774  1.8386 -1.6023
 1854SOL     OW17197   1.938   1.278   8.134  0.1537 -0.2331 -0.3715
 1854SOL    HW117198   1.909   1.239   8.216  1.6267  0.5272  0.5146
 1854SOL    HW217199   1.928   1.201   8.078 -1.8632  0.7140 -1.3046
 1855SOL     OW17200   0.360   4.476   7.455 -0.1117 -0.0885 -0.0322
 1855SOL    HW117201   0.289   4.515   7.507  2.2947  3.2307  0.7604
 1855SOL    HW217202   0.429   4.542   7.460 -1.3855  1.3098 -0.9289
 1856SOL     OW17203   0.504   2.458   1.222 -0.2073 -0.2570 -0.0423
 1856SOL    HW117204   0.546   2.496   1.299 -0.1702 -1.1436  0.3738
 1856SOL    HW217205   0.453   2.384   1.254  0.6661 -0.7021  0.3199
 1857SOL     OW17206   3.165   1.071   0.767  0.3568  0.0051 -0.6817
 1857SOL    HW117207   3.090   1.129   0.780  0.6362  0.3157 -0.4701
 1857SOL    HW217208   3.217   1.104   0.840 -0.1022 -0.9649  0.0889
 1858SOL     OW17209   4.264   1.205   5.374 -0.1948 -0.1626  0.6673
 1858SOL    HW117210   4.220   1.249   5.301 -1.3389 -3.1563 -0.4032
 1858SOL    HW217211   4.333   1.269   5.393 -2.6764  2.6609  0.3786
 1859SOL     OW17212   2.568   1.388   5.359  0.7563  0.1561 -0.2131
 1859SOL    HW117213   2.624   1.407   5.284 -0.2105  0.9292 -0.7426
 1859SOL    HW217214   2.502   1.457   5.351  1.4442  0.9191  0.7036
 1860SOL     OW17215   3.907   2.119   5.637  0.2340 -0.0147 -0.3367
 1860SOL    HW117216   3.920   2.045   5.696 -1.1100 -0.4321 -0.5642
 1860SOL    HW217217   3.981   2.105   5.579  0.5888  0.3912  0.0163
 1861SOL     OW17218   1.155   0.521   5.195  0.7017 -0.2733 -0.4022
 1861SOL    HW117219   1.205   0.442   5.215 -1.5798 -1.1170  1.9563
 1861SOL    HW217220   1.204   0.552   5.119 -0.4469 -0.6693 -1.3081
 1862SOL     OW17221   2.763   0.505   2.379 -0.4003 -0.1238 -0.8450
 1862SOL    HW117222   2.775   0.487   2.473 -1.3714  0.6601 -0.5672
 1862SOL    HW217223   2.832   0.452   2.341 -0.1388 -0.7963  0.5517
 1863SOL     OW17224   2.937   4.698   6.284 -0.5413  0.2819  0.0178
 1863SOL    HW117225   3.000   4.626   6.280  0.4240  1.1303  0.0541
 1863SOL    HW217226   2.896   4.695   6.197  0.0664  0.2821 -0.2665
 1864SOL     OW17227   0.668   0.651  16.486 -0.7811  0.0760  0.5919
 1864SOL    HW117228   0.651   0.649  16.581 -0.6648 -0.5963  0.5937
 1864SOL    HW217229   0.692   0.564  16.456  2.8193  1.6672 -1.1164
 1865SOL     OW17230   2.301   1.997   3.926 -0.5504 -0.1730  0.0579
 1865SOL    HW117231   2.227   1.943   3.951 -0.1010 -0.4478  0.8147
 1865SOL    HW217232   2.251   2.077   3.908  1.0052  1.2064  1.7929
 1866SOL     OW17233   3.458   1.057   2.835 -0.3094 -0.6779 -0.4058
 1866SOL    HW117234   3.521   1.128   2.847 -2.1742  0.7113  1.0491
 1866SOL    HW217235   3.473   1.028   2.744  0.4051  0.6337 -0.6993
 1867SOL     OW17236   2.184   4.596  11.692  0.4766 -0.0552  0.0056
 1867SOL    HW117237   2.253   4.540  11.728 -1.3354 -0.3889  2.9860
 1867SOL    HW217238   2.199   4.577  11.600  0.5197  0.5208 -0.1069
 1868SOL     OW17239   3.514   3.346  15.193  0.7126 -0.0951  0.3900
 1868SOL    HW117240   3.526   3.394  15.111 -0.2593  2.0230  1.4989
 1868SOL    HW217241   3.525   3.423  15.249  2.9178 -0.6726  0.7519
 1869SOL     OW17242   3.691   2.487   5.096  0.1471 -0.2533  0.1501
 1869SOL    HW117243   3.721   2.566   5.140 -1.1168  0.6799 -0.6880
 1869SOL    HW217244   3.766   2.430   5.074  0.6908  0.5621 -0.1035
 1870SOL     OW17245   3.777   4.375   7.401 -0.3449 -0.1823 -0.3261
 1870SOL    HW117246   3.726   4.300   7.369  0.1597 -1.5523  2.0008
 1870SOL    HW217247   3.707   4.440   7.404  2.1429  2.3686  2.3119
 1871SOL     OW17248   4.216   4.217  14.491  0.1086  0.6936  0.5208
 1871SOL    HW117249   4.156   4.274  14.443 -1.2214 -0.1337  1.2179
 1871SOL    HW217250   4.290   4.211  14.431  1.0843 -0.9554  1.8805
 1872SOL     OW17251   1.851   4.584   4.447  0.2896 -0.1261  0.1171
 1872SOL    HW117252   1.891   4.628   4.372  1.2343 -0.9662  0.1436
 1872SOL    HW217253   1.934   4.557   4.486 -0.0114 -1.7685 -0.3752
 1873SOL     OW17254   3.138   1.489  12.324  0.0591  0.1673 -0.1374
 1873SOL    HW117255   3.131   1.568  12.271 -0.3325 -0.5584 -1.1770
 1873SOL    HW217256   3.170   1.520  12.408 -1.6679 -0.7221  0.8521
 1874SOL     OW17257   3.779   0.290   7.374  0.0570  0.5931 -0.3047
 1874SOL    HW117258   3.741   0.233   7.441 -0.0886  1.0387 -0.0125
 1874SOL    HW217259   3.790   0.371   7.423  0.1184 -0.0225  0.7061
 1875SOL     OW17260   1.624   1.496   6.578  0.1570 -0.2418 -0.5150
 1875SOL    HW117261   1.688   1.426   6.585  0.7310  0.2044 -1.2991
 1875SOL    HW217262   1.637   1.527   6.668  1.5608  0.7400 -1.0576
 1876SOL     OW17263   2.773   0.624   2.868 -0.5029  0.1189 -0.2570
 1876SOL    HW117264   2.736   0.651   2.952  2.2789  0.4451  0.8486
 1876SOL    HW217265   2.850   0.681   2.860  0.2000 -0.7814  0.1360
 1877SOL     OW17266   4.063   0.475   2.633  0.6219 -0.2536  0.1758
 1877SOL    HW117267   4.121   0.536   2.678 -0.9670  0.3906  1.3755
 1877SOL    HW217268   3.991   0.523   2.673 -0.2074 -0.6697 -0.8139
 1878SOL     OW17269   1.467   1.625   6.133 -0.1142 -0.0936 -0.2094
 1878SOL    HW117270   1.543   1.675   6.105 -0.0885 -0.5702 -1.0026
 1878SOL    HW217271   1.409   1.692   6.169 -0.9983 -2.1204  2.1827
 1879SOL     OW17272   4.690   2.755  13.633  0.1893 -0.0217 -0.7472
 1879SOL    HW117273   4.690   2.768  13.728  0.5380 -0.6007 -0.6652
 1879SOL    HW217274   4.637   2.675  13.637 -1.4505  1.2201  1.9262
 1880SOL     OW17275   2.862   2.148   5.216 -0.5872  0.5052  0.0006
 1880SOL    HW117276   2.802   2.136   5.291 -1.3530  3.0768 -0.1837
 1880SOL    HW217277   2.925   2.077   5.227 -3.0163 -1.6123  0.2792
 1881SOL     OW17278   4.467   2.370  14.017  0.2676 -0.4526 -0.1775
 1881SOL    HW117279   4.375   2.347  14.004  0.8651 -1.2546 -3.0550
 1881SOL    HW217280   4.502   2.310  13.951  0.3306 -1.0351  0.3788
 1882SOL     OW17281   1.733   4.506   2.776 -0.6635 -0.4204  0.7678
 1882SOL    HW117282   1.721   4.470   2.864  1.3654 -0.7657  0.8837
 1882SOL    HW217283   1.744   4.424   2.729  0.3218  1.6857 -2.7442
 1883SOL     OW17284   2.571   2.903  15.281  0.6591  0.9412 -0.2998
 1883SOL    HW117285   2.659   2.908  15.243  0.7507  1.4017 -0.0313
 1883SOL    HW217286   2.575   2.820  15.330  0.2444  1.3574  0.4363
 1884SOL     OW17287   1.230   0.853   8.330  0.3513 -0.3680  0.2416
 1884SOL    HW117288   1.149   0.868   8.282  1.0282  1.5653 -0.3282
 1884SOL    HW217289   1.261   0.944   8.339 -1.3631  0.2381 -0.1168
 1885SOL     OW17290   0.747   3.982  12.769 -0.8879 -0.0919  0.0363
 1885SOL    HW117291   0.758   4.069  12.807  0.5112 -1.1906  2.1653
 1885SOL    HW217292   0.682   3.939  12.825 -0.7399 -2.0299 -1.2938
 1886SOL     OW17293   1.047   1.190   1.273 -0.4116 -0.1134 -0.3643
 1886SOL    HW117294   1.078   1.272   1.311  1.3550  0.5028 -3.0962
 1886SOL    HW217295   1.098   1.121   1.315 -1.0376  0.9397  2.0701
 1887SOL     OW17296   0.421   0.898  11.045  0.8008  0.3136  0.4070
 1887SOL    HW117297   0.503   0.928  11.004  0.3930  1.2465  0.2758
 1887SOL    HW217298   0.443   0.902  11.138 -0.5152 -1.0695  0.7683
 1888SOL     OW17299   1.861   4.155   6.474 -0.5335  0.1210  0.3868
 1888SOL    HW117300   1.872   4.179   6.566 -0.8653  0.5118  0.3276
 1888SOL    HW217301   1.921   4.216   6.430 -0.0874 -1.4168 -1.1426
 1889SOL     OW17302   4.643   2.097   5.064 -0.6035 -0.6153  0.0306
 1889SOL    HW117303   4.617   2.005   5.071 -0.1184 -0.8000 -0.6890
 1889SOL    HW217304   4.558   2.130   5.095  0.7019  0.9669  1.9507
 1890SOL     OW17305   4.208   1.182   0.119 -0.7305  0.6489  0.3068
 1890SOL    HW117306   4.205   1.235   0.199  0.3404 -2.5229  2.4422
 1890SOL    HW217307   4.266   1.221   0.053 -1.2046  0.1102 -0.4286
 1891SOL     OW17308   4.321   4.667   7.321  0.2025 -0.3181 -0.5755
 1891SOL    HW117309   4.366   0.016   7.327  0.4950 -0.3567 -2.2654
 1891SOL    HW217310   4.395   4.607   7.333  1.1529  0.5060 -2.2426
 1892SOL     OW17311   0.362   2.787   7.238 -0.5434  0.3856  0.5920
 1892SOL    HW117312   0.408   2.837   7.171  2.7019 -0.4182  2.2146
 1892SOL    HW217313   0.384   2.700   7.206 -0.9462 -0.2722  2.1064
 1893SOL     OW17314   0.706   3.569   2.443  0.0368 -0.5112 -0.2161
 1893SOL    HW117315   0.652   3.495   2.471 -1.2113 -0.0103 -1.2859
 1893SOL    HW217316   0.767   3.524   2.383 -1.3210 -2.4403 -0.1445
 1894SOL     OW17317   1.921   2.107   0.356  0.0049 -0.7179 -0.6714
 1894SOL    HW117318   1.836   2.092   0.397  0.6828 -1.2029  0.5535
 1894SOL    HW217319   1.929   2.201   0.377 -0.7376 -0.6565 -0.6713
 1895SOL     OW17320   1.870   0.209   8.602  0.0046  0.2707 -1.1641
 1895SOL    HW117321   1.830   0.188   8.686 -0.5764  2.0827 -0.9833
 1895SOL    HW217322   1.800   0.263   8.566 -1.0923 -1.7218 -2.0056
 1896SOL     OW17323   1.383   1.602   4.604  0.4057  0.1511  0.4209
 1896SOL    HW117324   1.301   1.565   4.636  0.0742  0.6804  0.1934
 1896SOL    HW217325   1.399   1.537   4.535  0.6160  0.9513 -0.2886
 1897SOL     OW17326   0.043   1.504   5.607  0.1692  0.3466  0.1423
 1897SOL    HW117327   4.684   1.492   5.621  0.3997 -0.5797  0.8642
 1897SOL    HW217328   0.065   1.452   5.684  0.4151  1.0529  0.5558
 1898SOL     OW17329   3.262   0.855   5.919  0.2110 -0.6302  0.2125
 1898SOL    HW117330   3.343   0.859   5.867  0.2017 -0.1707  0.2293
 1898SOL    HW217331   3.193   0.886   5.861  0.6197 -1.9217 -0.9707
 1899SOL     OW17332   0.069   1.069   6.571  0.4236  0.2681  0.7255
 1899SOL    HW117333   0.081   1.086   6.664  2.3192 -2.4901  0.9595
 1899SOL    HW217334   4.712   1.049   6.592  0.4203 -0.3087  0.1540
 1900SOL     OW17335   0.148   4.728   6.097 -0.6951 -0.3903  0.1485
 1900SOL    HW117336   0.171   0.082   6.122 -0.4602 -0.4463  0.1352
 1900SOL    HW217337   0.185   4.678   6.170  3.2021  1.2996 -0.7163
 1901SOL     OW17338   0.537   3.135  10.942 -0.3774  0.0387  0.1166
 1901SOL    HW117339   0.536   3.223  10.904 -0.6790  0.6616  1.5825
 1901SOL    HW217340   0.452   3.125  10.986  0.8720 -3.4937  1.7611
 1902SOL     OW17341   3.120   2.531  17.197 -0.2170 -0.0710 -0.5626
 1902SOL    HW117342   3.039   2.545  17.148  0.6212  0.4386 -1.8012
 1902SOL    HW217343   3.084   2.517  17.285 -2.0641  1.6452 -1.0283
 1903SOL     OW17344   4.723   4.289  13.978 -0.1244  0.1919  0.1110
 1903SOL    HW117345   4.705   4.212  14.032 -1.4256  0.5315  0.1530
 1903SOL    HW217346   4.687   4.361  14.030 -0.8457 -0.7721  0.9303
 1904SOL     OW17347   2.258   1.480   9.619  0.3118 -0.2593 -0.0846
 1904SOL    HW117348   2.324   1.428   9.574 -1.1084 -3.0251  1.0267
 1904SOL    HW217349   2.205   1.411   9.659 -0.8251  1.0755  0.7160
 1905SOL     OW17350   3.963   2.690   6.478  0.1237  0.2116 -0.5317
 1905SOL    HW117351   3.945   2.596   6.481  0.6437  0.1795  1.5284
 1905SOL    HW217352   3.934   2.698   6.387  0.0436 -0.8080 -0.5940
 1906SOL     OW17353   0.045   0.704   9.130  0.5431 -0.1297 -0.4721
 1906SOL    HW117354   0.111   0.724   9.196  1.1670 -1.8078 -0.5763
 1906SOL    HW217355   0.101   0.642   9.083 -1.3792 -1.6062 -0.8039
 1907SOL     OW17356   0.949   0.039  10.943  0.0739 -0.0016  0.4482
 1907SOL    HW117357   0.901   0.104  10.995 -0.3364 -0.4294  0.6043
 1907SOL    HW217358   0.883   4.735  10.886 -0.9053  1.9648  0.2242
 1908SOL     OW17359   0.853   1.876   6.858 -0.5488 -0.3503 -0.1735
 1908SOL    HW117360   0.858   1.836   6.945 -0.5635 -0.0141 -0.0180
 1908SOL    HW217361   0.936   1.923   6.863 -0.2206 -0.9262 -0.1319
 1909SOL     OW17362   3.534   1.669  14.635  0.1749  0.8845  0.3241
 1909SOL    HW117363   3.511   1.634  14.721 -0.4180  0.9676  0.2056
 1909SOL    HW217364   3.622   1.703  14.651  1.2108 -1.0931 -1.1177
 1910SOL     OW17365   1.949   3.287   3.490 -0.0731 -0.2905 -0.1759
 1910SOL    HW117366   1.961   3.213   3.549 -0.0125 -0.8552 -0.8870
 1910SOL    HW217367   1.908   3.354   3.544  1.2646  1.4151 -1.2616
 1911SOL     OW17368   2.777   2.505   8.312  0.1501 -0.0782 -0.2132
 1911SOL    HW117369   2.734   2.469   8.234  0.6037 -0.2013 -0.4078
 1911SOL    HW217370   2.817   2.587   8.284 -2.6090  0.9320 -1.1846
 1912SOL     OW17371   4.467   1.567  12.957 -0.3604 -0.1206  0.0487
 1912SOL    HW117372   4.425   1.606  12.881  1.5223 -1.9979 -1.9892
 1912SOL    HW217373   4.518   1.494  12.920  0.4643  1.8483 -2.6624
 1913SOL     OW17374   4.213   2.324  13.191 -0.3724 -0.0317  0.1104
 1913SOL    HW117375   4.186   2.354  13.278  2.8073  0.2606  1.0032
 1913SOL    HW217376   4.269   2.396  13.164 -1.2975  0.8587  0.5531
 1914SOL     OW17377   4.361   3.646   1.860 -0.1362  0.2409  0.0079
 1914SOL    HW117378   4.293   3.648   1.793  0.3002 -0.0385 -0.4402
 1914SOL    HW217379   4.432   3.620   1.801 -0.5830  0.1539 -0.4875
 1915SOL     OW17380   2.373   4.414  15.246  0.3941  0.0334 -0.2370
 1915SOL    HW117381   2.417   4.466  15.179 -1.9066  1.6920 -0.4581
 1915SOL    HW217382   2.298   4.463  15.280  1.0545 -0.3127  1.6967
 1916SOL     OW17383   4.212   0.322  14.336 -0.2498 -0.0303 -0.0820
 1916SOL    HW117384   4.186   0.280  14.418  0.3413  0.1602  0.2021
 1916SOL    HW217385   4.172   0.256  14.279 -0.9836 -0.1203  0.5355
 1917SOL     OW17386   1.980   3.753  14.535 -0.1256  0.3721 -0.4175
 1917SOL    HW117387   1.945   3.816  14.598  0.5256  0.1237  0.1908
 1917SOL    HW217388   1.903   3.701  14.513 -0.1365 -0.4565  1.6137
 1918SOL     OW17389   1.799   0.046   7.186  0.0956  1.0455 -0.4734
 1918SOL    HW117390   1.753   4.711   7.232  0.3990 -0.3517 -2.3190
 1918SOL    HW217391   1.840   0.096   7.257  1.6636  2.2367 -2.2172
 1919SOL     OW17392   3.251   0.315   8.954 -0.1407  0.0060 -0.1849
 1919SOL    HW117393   3.262   0.389   9.012  0.0127 -0.0535 -0.1373
 1919SOL    HW217394   3.331   0.266   8.972  0.9959  1.9721 -0.0392
 1920SOL     OW17395   0.855   2.822   4.229 -0.4087 -0.3889 -0.5529
 1920SOL    HW117396   0.940   2.826   4.186 -0.2584  2.7556  0.0774
 1920SOL    HW217397   0.843   2.913   4.257 -0.2945 -0.2367 -1.0015
 1921SOL     OW17398   0.276   0.994   3.222  0.0422 -0.4841  0.4927
 1921SOL    HW117399   0.315   0.914   3.257  1.1670 -0.0362  0.2636
 1921SOL    HW217400   0.344   1.055   3.251 -1.4957  1.7634 -0.6326
 1922SOL     OW17401   1.416   1.017   0.632 -0.0404 -0.1814  0.3572
 1922SOL    HW117402   1.456   0.959   0.697  1.6762 -0.5345 -1.0215
 1922SOL    HW217403   1.485   1.066   0.588  0.2229 -0.0515  0.9151
 1923SOL     OW17404   2.872   4.702   7.806  0.0578 -0.1143 -0.6130
 1923SOL    HW117405   2.794   0.019   7.792 -0.2258  0.1511  1.8571
 1923SOL    HW217406   2.932   0.039   7.787  0.8761 -0.5495  0.2528
 1924SOL     OW17407   1.936   4.503   4.144  0.5443 -0.3177  0.4021
 1924SOL    HW117408   1.965   4.574   4.087 -0.0408  0.3151  0.8873
 1924SOL    HW217409   1.843   4.493   4.123  0.8209 -1.6024 -0.1877
 1925SOL     OW17410   0.753   1.261   2.192 -0.2815 -0.2575 -0.2589
 1925SOL    HW117411   0.794   1.174   2.197 -2.4181 -1.2290  0.6797
 1925SOL    HW217412   0.826   1.315   2.164  0.0890 -0.9043 -0.5530
 1926SOL     OW17413   4.675   2.561  17.599 -0.5859 -0.1541  0.4692
 1926SOL    HW117414   0.005   2.493  17.618  0.5516  0.7154 -0.3342
 1926SOL    HW217415   4.732   2.638  17.596  0.7184 -1.0219  2.8519
 1927SOL     OW17416   2.627   3.714   3.396 -0.0680 -0.5419  0.1791
 1927SOL    HW117417   2.585   3.749   3.318 -1.6009 -0.7054  0.9365
 1927SOL    HW217418   2.705   3.667   3.365  0.3186 -0.6574  1.3217
 1928SOL     OW17419   1.388   4.176   8.062 -0.0073  0.0844 -0.2211
 1928SOL    HW117420   1.443   4.121   8.006 -1.2944 -1.5886  0.1558
 1928SOL    HW217421   1.319   4.124   8.102 -1.0057  0.9134 -0.8768
 1929SOL     OW17422   2.522   0.010   2.873  0.8181 -0.5336  0.0072
 1929SOL    HW117423   2.598   4.688   2.867  0.4636 -1.2083  1.8184
 1929SOL    HW217424   2.550   0.089   2.826 -0.2089 -0.1117  0.0936
 1930SOL     OW17425   3.825   1.485   4.380  0.4929 -0.3171  0.0962
 1930SOL    HW117426   3.844   1.514   4.469 -2.4533  1.1425  0.2530
 1930SOL    HW217427   3.782   1.405   4.409 -0.7215  0.6075  0.8250
 1931SOL     OW17428   3.133   1.738   8.436 -0.2850 -0.1261  0.4078
 1931SOL    HW117429   3.105   1.663   8.383 -1.7493  0.2410  0.6620
 1931SOL    HW217430   3.199   1.778   8.380 -0.4759  2.2988  1.8890
 1932SOL     OW17431   3.039   3.998   1.785 -0.5228  0.2606 -0.1703
 1932SOL    HW117432   3.052   3.982   1.879  3.0008  0.8151 -0.5608
 1932SOL    HW217433   2.989   4.078   1.802  0.2434  1.1435 -2.1143
 1933SOL     OW17434   0.373   4.444   4.752 -0.0122 -0.5357 -0.6555
 1933SOL    HW117435   0.340   4.369   4.702  1.7699 -0.9600 -1.1771
 1933SOL    HW217436   0.461   4.458   4.717  0.9079 -0.2051  1.7753
 1934SOL     OW17437   2.390   4.205   3.534 -0.2140  0.2332 -0.3515
 1934SOL    HW117438   2.398   4.300   3.546  0.7800 -0.0651  1.3196
 1934SOL    HW217439   2.471   4.188   3.487 -0.3326 -0.7884 -0.1889
 1935SOL     OW17440   1.748   0.413  12.094  0.0254 -0.0643 -0.1422
 1935SOL    HW117441   1.796   0.494  12.081 -1.2293  0.8025  0.5973
 1935SOL    HW217442   1.800   0.374  12.165  1.4407  0.6182 -0.8253
 1936SOL     OW17443   2.822   1.670   3.229  0.3406  0.5845  0.3232
 1936SOL    HW117444   2.786   1.697   3.144  0.7897 -1.2688 -0.4597
 1936SOL    HW217445   2.890   1.733   3.253  0.0887  1.4235 -1.1270
 1937SOL     OW17446   0.893   2.031   5.233  0.2175 -0.0119 -0.2978
 1937SOL    HW117447   0.865   2.121   5.212  0.1107 -0.0872 -0.4783
 1937SOL    HW217448   0.988   2.041   5.241  0.4012 -1.5645 -0.5231
 1938SOL     OW17449   4.266   0.329   6.229  0.4331 -0.2042 -0.1069
 1938SOL    HW117450   4.175   0.358   6.241  0.4235  0.5598 -2.1109
 1938SOL    HW217451   4.298   0.399   6.173 -0.4394 -1.0636 -1.6906
 1939SOL     OW17452   1.485   3.870  11.735 -0.5397  0.3887 -0.6784
 1939SOL    HW117453   1.466   3.789  11.782 -2.3095 -0.0225 -2.0995
 1939SOL    HW217454   1.555   3.829  11.684 -0.0757 -2.3385  2.2357
 1940SOL     OW17455   3.139   1.323   3.343  0.2124  0.0065 -0.9064
 1940SOL    HW117456   3.103   1.271   3.415 -0.9891  0.3053 -1.2956
 1940SOL    HW217457   3.102   1.269   3.273  1.8868 -1.8125 -0.3924
 1941SOL     OW17458   1.703   4.072  11.817 -0.1985 -0.1425 -0.4375
 1941SOL    HW117459   1.724   3.980  11.832  0.0811  0.0882  0.5606
 1941SOL    HW217460   1.668   4.069  11.728 -0.8501  2.0926 -0.2541
 1942SOL     OW17461   2.959   3.668   2.454 -0.4648 -0.0763  0.1134
 1942SOL    HW117462   3.038   3.616   2.464 -0.8527 -0.5937  0.4751
 1942SOL    HW217463   2.927   3.630   2.373 -1.0703 -1.1834  0.8658
 1943SOL     OW17464   2.453   0.748   3.169 -0.0594 -0.3194  0.1643
 1943SOL    HW117465   2.516   0.759   3.240 -0.8383 -1.4036  1.0061
 1943SOL    HW217466   2.376   0.700   3.200 -1.0335  0.5124 -0.9467
 1944SOL     OW17467   0.115   1.151   8.497  0.0206  0.7180  0.5580
 1944SOL    HW117468   0.116   1.077   8.436  1.1683  2.5201 -1.6196
 1944SOL    HW217469   0.021   1.169   8.492  0.1563  1.9826  2.2919
 1945SOL     OW17470   3.886   4.646   3.810  0.3052  0.2543  0.5615
 1945SOL    HW117471   3.884   4.710   3.880  0.1569  2.1392 -1.1509
 1945SOL    HW217472   3.971   4.655   3.767 -0.2324 -3.1043 -1.2578
 1946SOL     OW17473   3.778   2.706   8.241  0.5003 -0.4523 -0.0793
 1946SOL    HW117474   3.777   2.613   8.219 -0.7881 -0.6168  0.6934
 1946SOL    HW217475   3.714   2.731   8.175  0.1185  1.0266  0.8564
 1947SOL     OW17476   2.625   2.548   6.477  0.2973 -0.0481  0.0409
 1947SOL    HW117477   2.609   2.514   6.389  0.4046  0.3084 -0.1161
 1947SOL    HW217478   2.688   2.490   6.519 -2.5689 -2.4551  1.0200
 1948SOL     OW17479   2.684   0.962   5.306  0.1551 -0.4321 -0.6877
 1948SOL    HW117480   2.698   0.902   5.232 -2.0429 -0.4483 -1.0758
 1948SOL    HW217481   2.652   1.036   5.254 -2.3300 -0.3357  1.0200
 1949SOL     OW17482   0.880   3.470   2.038  0.5518 -0.0799  0.2914
 1949SOL    HW117483   0.969   3.502   2.027  0.4003  0.6976  1.3402
 1949SOL    HW217484   0.838   3.523   1.971  1.5848  1.0522  0.5555
 1950SOL     OW17485   3.288   3.077  16.055  0.0776 -0.0895  0.5473
 1950SOL    HW117486   3.320   3.022  15.983  0.3063  0.2046  0.4227
 1950SOL    HW217487   3.336   3.159  16.040  0.2133 -0.1734  0.5238
 1951SOL     OW17488   0.450   3.127   9.678  0.0723  0.1776 -0.0255
 1951SOL    HW117489   0.514   3.189   9.642  0.2181 -0.3376 -0.6441
 1951SOL    HW217490   0.508   3.067   9.726 -0.0496 -0.5735 -0.8340
 1952SOL     OW17491   2.480   2.352  12.594  0.2807  0.6240  0.4928
 1952SOL    HW117492   2.521   2.266  12.593 -1.7652 -0.3163 -1.2213
 1952SOL    HW217493   2.523   2.378  12.676  0.0042  0.5529  0.6617
 1953SOL     OW17494   0.060   3.443   1.910 -0.2891 -0.4190 -0.7837
 1953SOL    HW117495   0.071   3.489   1.826  0.7495  1.7879  0.5662
 1953SOL    HW217496   0.147   3.432   1.948 -0.3038 -2.2880 -1.2887
 1954SOL     OW17497   0.019   1.577  10.183  0.1477  0.1833  0.7079
 1954SOL    HW117498   4.709   1.636  10.243  2.0627  1.7248  0.6297
 1954SOL    HW217499   0.085   1.628  10.136 -0.1217  1.0433  1.2508
 1955SOL     OW17500   1.940   3.417  10.691 -0.6187 -0.1858  0.0898
 1955SOL    HW117501   2.023   3.451  10.727 -2.0256  2.9249  0.4408
 1955SOL    HW217502   1.909   3.363  10.764 -0.2823 -0.9972 -0.3708
 1956SOL     OW17503   4.160   3.838   4.352 -0.2808  0.7214 -0.0721
 1956SOL    HW117504   4.070   3.866   4.338 -0.0398  2.6198  2.2426
 1956SOL    HW217505   4.202   3.828   4.266  1.2532 -0.3298  0.7809
 1957SOL     OW17506   2.895   1.969   7.543 -0.5629  0.7560 -0.2759
 1957SOL    HW117507   2.860   1.947   7.629 -0.8981 -2.2244 -1.1686
 1957SOL    HW217508   2.879   1.884   7.502  0.8485  0.5049 -0.2871
 1958SOL     OW17509   0.910   0.530   3.755  0.9139 -0.1993 -0.4284
 1958SOL    HW117510   0.889   0.490   3.670  0.7386 -1.4245  0.1882
 1958SOL    HW217511   0.986   0.587   3.753  1.6175 -1.2045 -1.9943
 1959SOL     OW17512   0.680   0.430   2.065  0.0102 -0.0037  0.3185
 1959SOL    HW117513   0.727   0.347   2.068  0.5398  0.2333 -1.3796
 1959SOL    HW217514   0.661   0.440   1.972 -0.8000  1.1458  0.5980
 1960SOL     OW17515   4.310   4.011  16.481  0.3451  0.5678  0.3697
 1960SOL    HW117516   4.290   4.005  16.387  0.2743 -1.6534  0.5171
 1960SOL    HW217517   4.372   4.083  16.480  0.8007  0.2014  2.6461
 1961SOL     OW17518   1.777   0.139  13.090  0.8915 -0.3631  0.5890
 1961SOL    HW117519   1.683   0.158  13.094  0.6472 -1.1512 -1.3895
 1961SOL    HW217520   1.810   0.205  13.029  2.4040 -1.7866 -0.1412
 1962SOL     OW17521   4.433   4.225   2.778 -0.0564 -0.3274 -0.5058
 1962SOL    HW117522   4.517   4.183   2.794 -1.2153 -2.8766 -1.1104
 1962SOL    HW217523   4.420   4.226   2.683 -0.2168 -1.3403 -0.4864
 1963SOL     OW17524   1.759   1.190  11.168 -0.9579  0.5855  0.3556
 1963SOL    HW117525   1.675   1.214  11.207 -0.8092  0.3724  0.8127
 1963SOL    HW217526   1.807   1.152  11.242  2.0583  1.2522 -1.2537
 1964SOL     OW17527   2.697   1.747   8.828  0.7691  0.5059  0.3802
 1964SOL    HW117528   2.782   1.763   8.786  0.1872  0.4152 -0.8097
 1964SOL    HW217529   2.678   1.832   8.868 -3.0139  0.1585 -0.6754
 1965SOL     OW17530   1.847   0.678   2.543 -0.2734 -0.1945 -0.1958
 1965SOL    HW117531   1.854   0.755   2.599 -1.8948 -0.9536  1.0415
 1965SOL    HW217532   1.793   0.616   2.591  1.6576 -1.5285  0.2600
 1966SOL     OW17533   3.430   0.239  13.305  0.5692 -0.0301 -0.2958
 1966SOL    HW117534   3.365   0.295  13.263 -0.8997 -2.2404 -0.9584
 1966SOL    HW217535   3.491   0.300  13.346  1.7047 -1.7040  0.4993
 1967SOL     OW17536   4.483   2.334   2.862 -0.2581 -0.8047 -0.1071
 1967SOL    HW117537   4.560   2.278   2.871  0.5320  0.2838  0.0209
 1967SOL    HW217538   4.524   2.419   2.843  1.3980 -1.2496  1.5027
 1968SOL     OW17539   3.152   0.348   5.998  0.0459  0.2967  0.0042
 1968SOL    HW117540   3.167   0.431   6.044 -0.4791 -0.8481  2.2632
 1968SOL    HW217541   3.175   0.274   6.054 -0.9900  0.1438  0.2292
 1969SOL     OW17542   2.047   2.296   8.075  0.3597  0.7552 -0.0314
 1969SOL    HW117543   1.974   2.345   8.037 -1.3876 -1.8573 -0.0167
 1969SOL    HW217544   2.006   2.262   8.154 -0.6307  1.6286 -0.1778
 1970SOL     OW17545   3.453   4.621  12.267  0.1876 -0.8488 -0.3270
 1970SOL    HW117546   3.493   4.708  12.262 -1.3893  0.1326  3.4683
 1970SOL    HW217547   3.488   4.601  12.354  0.8633  0.2574 -0.3440
 1971SOL     OW17548   3.624   0.556   3.202 -0.8131 -0.4905  0.0074
 1971SOL    HW117549   3.676   0.589   3.129 -0.7070  1.9384  1.1782
 1971SOL    HW217550   3.697   0.549   3.264  0.2081  0.0021 -1.1467
 1972SOL     OW17551   2.047   1.507   8.719 -0.2872  0.5697  0.2025
 1972SOL    HW117552   2.041   1.539   8.809  1.8935  0.2351  0.4596
 1972SOL    HW217553   2.099   1.577   8.679 -0.6140  0.3849 -0.5431
 1973SOL     OW17554   2.757   0.771  14.335  0.1135  0.9877 -0.0442
 1973SOL    HW117555   2.693   0.761  14.406  1.7746  0.8667  1.4301
 1973SOL    HW217556   2.701   0.767  14.257 -0.6185  0.8300  0.4972
 1974SOL     OW17557   0.024   1.356  15.130  0.4484 -0.2986  0.0429
 1974SOL    HW117558   0.110   1.398  15.129  0.4575 -0.3131  0.5452
 1974SOL    HW217559   0.002   1.339  15.221 -1.1584  0.7174 -0.1610
 1975SOL     OW17560   3.245   2.646   2.938 -0.2198 -0.0272 -0.3560
 1975SOL    HW117561   3.296   2.670   2.862 -2.2341  2.4926 -0.9006
 1975SOL    HW217562   3.173   2.709   2.931 -0.7547 -0.7835 -1.7025
 1976SOL     OW17563   2.838   1.872   7.817  0.5325 -0.0603  0.1667
 1976SOL    HW117564   2.922   1.913   7.838 -1.8398  5.4088 -0.9558
 1976SOL    HW217565   2.867   1.782   7.831  1.9241  0.7802  2.7300
 1977SOL     OW17566   0.597   0.691   5.296  0.0347 -0.6512  0.0631
 1977SOL    HW117567   0.523   0.676   5.355  0.4393 -1.6765  0.3113
 1977SOL    HW217568   0.581   0.626   5.228  0.4019 -1.6634  0.9380
 1978SOL     OW17569   4.361   1.943   0.704 -0.2521 -0.3289 -0.2046
 1978SOL    HW117570   4.280   1.908   0.741 -1.3400  0.9642 -1.4045
 1978SOL    HW217571   4.406   1.859   0.692 -0.9147 -0.8631  1.0544
 1979SOL     OW17572   3.858   0.009   2.586  0.1068 -0.1410 -1.1601
 1979SOL    HW117573   3.852   0.104   2.590 -0.9513 -0.2022 -1.2549
 1979SOL    HW217574   3.913   4.726   2.662  1.1895 -0.0829 -1.9233
 1980SOL     OW17575   4.099   0.978   3.020 -0.3653  0.2469 -0.0443
 1980SOL    HW117576   4.061   0.973   2.931  2.4382  1.1886 -1.2877
 1980SOL    HW217577   4.025   1.010   3.072 -1.5520 -1.3277 -0.7466
 1981SOL     OW17578   2.660   0.727   6.826 -0.3182  0.3789  0.0217
 1981SOL    HW117579   2.670   0.656   6.763  1.3877  1.6846 -1.1879
 1981SOL    HW217580   2.691   0.675   6.900  0.0066 -0.0342 -0.4056
 1982SOL     OW17581   4.162   3.805   4.018 -0.0429  0.0126 -0.1929
 1982SOL    HW117582   4.090   3.750   4.047  2.2259 -2.3347  0.9685
 1982SOL    HW217583   4.159   3.890   4.062  1.4195  0.9527 -1.9165
 1983SOL     OW17584   3.927   3.473  15.149 -0.2568  0.4614 -0.3453
 1983SOL    HW117585   3.862   3.538  15.123  0.0434  0.1766 -1.8454
 1983SOL    HW217586   3.920   3.407  15.080  0.8686 -0.2021  0.1836
 1984SOL     OW17587   2.918   3.488   7.027  0.1322  0.7014 -0.1420
 1984SOL    HW117588   2.901   3.435   7.105 -2.6581  1.8719  0.0555
 1984SOL    HW217589   2.994   3.453   6.982 -1.2414 -1.1471 -1.0286
 1985SOL     OW17590   4.590   3.760   4.193 -0.0763  0.3818 -0.0799
 1985SOL    HW117591   4.666   3.765   4.250 -0.2518  0.9968  0.0979
 1985SOL    HW217592   4.541   3.683   4.223  0.7380  0.6601  1.9253
 1986SOL     OW17593   1.869   1.811   1.336 -0.2578 -0.1057 -0.2034
 1986SOL    HW117594   1.896   1.861   1.259 -1.4496 -1.0830 -1.2394
 1986SOL    HW217595   1.897   1.857   1.416  1.3612 -1.2260 -0.1328
 1987SOL     OW17596   1.277   3.631   3.918  0.4209 -0.4194  0.2120
 1987SOL    HW117597   1.352   3.653   3.973 -1.3955  0.9891  2.1054
 1987SOL    HW217598   1.281   3.704   3.857  1.8300 -0.0911  0.6809
 1988SOL     OW17599   3.623   4.631  16.158 -0.8547  0.1560  0.2800
 1988SOL    HW117600   3.635   4.646  16.064  1.3672  1.7760  0.8014
 1988SOL    HW217601   3.534   4.596  16.158 -0.8282  0.0884  0.2833
 1989SOL     OW17602   1.123   3.365  10.569 -0.5791  0.2313 -0.2551
 1989SOL    HW117603   1.145   3.272  10.579  0.3562  0.3032 -1.6523
 1989SOL    HW217604   1.028   3.355  10.565 -0.5976 -0.1872  1.4304
 1990SOL     OW17605   1.237   3.541   5.171  0.1831  0.3647  0.3769
 1990SOL    HW117606   1.208   3.550   5.262 -0.5155  0.4821  0.1380
 1990SOL    HW217607   1.329   3.566   5.176  0.2787  0.0824  0.0892
 1991SOL     OW17608   3.606   0.300   5.728  0.3710  0.0487 -0.0190
 1991SOL    HW117609   3.684   0.320   5.780 -0.5614 -1.0629  1.8041
 1991SOL    HW217610   3.557   0.258   5.799  1.2367  1.2664  1.3096
 1992SOL     OW17611   0.551   3.856  12.912 -0.0299  0.4172 -0.5141
 1992SOL    HW117612   0.497   3.781  12.938  0.6859  0.5428  1.3214
 1992SOL    HW217613   0.489   3.929  12.917 -0.2106  0.2460 -0.2312
 1993SOL     OW17614   2.290   0.583   4.107  0.2299  0.3747 -0.2997
 1993SOL    HW117615   2.326   0.647   4.046 -1.2892 -0.4126 -2.0260
 1993SOL    HW217616   2.311   0.494   4.080  0.0955  0.5017 -0.8316
 1994SOL     OW17617   2.748   0.756   8.083 -0.6730  0.4871 -0.0193
 1994SOL    HW117618   2.682   0.758   8.153 -0.8296 -3.4509 -0.0020
 1994SOL    HW217619   2.810   0.818   8.121  0.5079 -0.3733 -0.5525
 1995SOL     OW17620   2.334   1.644   3.103  0.2911 -0.1620 -0.6023
 1995SOL    HW117621   2.361   1.722   3.151  2.3151 -0.7799 -0.7562
 1995SOL    HW217622   2.344   1.677   3.013  2.1448 -1.1050 -0.7480
 1996SOL     OW17623   2.449   1.518  10.870  0.4607  0.0882 -0.0830
 1996SOL    HW117624   2.361   1.543  10.898 -0.0595 -0.3865 -1.2966
 1996SOL    HW217625   2.473   1.434  10.909  0.2338 -0.1575 -0.4776
 1997SOL     OW17626   2.632   0.094  10.059  0.2886 -0.0386  0.0136
 1997SOL    HW117627   2.546   0.103  10.099 -1.6633 -3.1947 -3.4729
 1997SOL    HW217628   2.678   0.165  10.103  1.1274 -0.4524 -0.1983
 1998SOL     OW17629   2.467   3.220   6.370  0.4619  0.2144 -0.2021
 1998SOL    HW117630   2.398   3.155   6.357 -0.0421  0.4869  1.0675
 1998SOL    HW217631   2.422   3.297   6.335 -1.8266 -0.2607  1.6419
 1999SOL     OW17632   2.716   0.280  14.415 -0.2347  0.1516 -0.3326
 1999SOL    HW117633   2.652   0.260  14.483 -1.3742  0.1738 -1.4026
 1999SOL    HW217634   2.678   0.354  14.367 -1.5914 -0.2510  0.1194
 2000SOL     OW17635   4.390   4.022   8.286 -0.0533  0.2557  0.0588
 2000SOL    HW117636   4.405   3.946   8.229 -0.8730 -1.5681  2.2625
 2000SOL    HW217637   4.294   4.019   8.291 -0.1336 -0.2428 -1.7294
 2001SOL     OW17638   3.104   4.269  14.030 -0.0441  0.5521  0.6231
 2001SOL    HW117639   3.074   4.229  13.949 -1.6548  1.5574  0.7097
 2001SOL    HW217640   3.141   4.198  14.081  1.1390 -0.6373 -1.9021
 2002SOL     OW17641   4.655   2.684   4.432  0.6289 -0.1473 -0.3853
 2002SOL    HW117642   4.563   2.708   4.437  0.6689 -0.5427  2.4021
 2002SOL    HW217643   4.657   2.626   4.508  0.2496 -0.4201 -0.5852
 2003SOL     OW17644   3.338   1.045   1.229 -0.4245  0.2206 -0.2711
 2003SOL    HW117645   3.391   1.012   1.302 -0.3873  0.7774 -0.0496
 2003SOL    HW217646   3.271   0.977   1.221  0.7161 -0.6331 -2.6714
 2004SOL     OW17647   1.606   1.870   5.565  0.9978  0.6470  0.1195
 2004SOL    HW117648   1.635   1.909   5.647 -1.6909  3.4607 -0.2554
 2004SOL    HW217649   1.534   1.816   5.599  0.2644 -0.1391 -2.6507
 2005SOL     OW17650   3.349   4.123   4.196  0.1724  0.0409 -0.3965
 2005SOL    HW117651   3.393   4.178   4.260 -2.9511  2.2697 -0.1560
 2005SOL    HW217652   3.342   4.173   4.114 -2.6618  0.1206 -0.0915
 2006SOL     OW17653   2.173   1.755   5.606  0.0409 -0.4418 -0.2202
 2006SOL    HW117654   2.247   1.752   5.544 -1.1590 -0.6484 -1.6462
 2006SOL    HW217655   2.105   1.719   5.549 -1.7162  1.5725  0.6103
 2007SOL     OW17656   1.347   2.435   8.666 -0.1536  0.5151  0.2848
 2007SOL    HW117657   1.282   2.428   8.736 -1.9122 -3.4320 -1.7367
 2007SOL    HW217658   1.422   2.467   8.716  1.2140  1.5660 -2.4629
 2008SOL     OW17659   3.950   0.565   5.025 -0.2026  0.3524 -0.0956
 2008SOL    HW117660   3.994   0.642   4.989  0.6311 -0.0713  0.0004
 2008SOL    HW217661   4.013   0.495   5.008  0.6717  0.7680  1.3806
 2009SOL     OW17662   0.082   4.516  12.526 -0.6872 -0.2338  0.2109
 2009SOL    HW117663   0.035   4.590  12.562  0.7890  1.4342 -1.2962
 2009SOL    HW217664   0.161   4.552  12.485 -1.9490 -0.8126 -2.7361
 2010SOL     OW17665   0.788   2.505   3.356  0.3167 -0.1819  0.0600
 2010SOL    HW117666   0.734   2.516   3.278  1.8201 -1.1738 -1.1148
 2010SOL    HW217667   0.859   2.564   3.328 -1.4550  1.3807 -1.1109
 2011SOL     OW17668   1.852   0.533   2.056 -0.4652  0.3699  0.0411
 2011SOL    HW117669   1.789   0.588   2.103 -0.5931 -0.5315  0.9340
 2011SOL    HW217670   1.854   0.457   2.115 -1.7298 -0.7962 -1.4146
 2012SOL     OW17671   3.941   1.349   8.649  0.6605  0.4302  0.2177
 2012SOL    HW117672   3.918   1.345   8.557 -0.0231 -0.7446  0.4346
 2012SOL    HW217673   3.926   1.258   8.677 -0.4852  0.1913 -1.1984
 2013SOL     OW17674   0.756   2.705   9.088  0.1196 -0.8009 -0.3167
 2013SOL    HW117675   0.775   2.758   9.011 -1.0823 -1.9599 -1.4184
 2013SOL    HW217676   0.699   2.765   9.137  1.7949  0.2891  0.2752
 2014SOL     OW17677   4.342   3.412   1.098  0.1845  0.7016  0.3065
 2014SOL    HW117678   4.424   3.419   1.049  0.7159 -1.0277  0.9581
 2014SOL    HW217679   4.331   3.317   1.091  0.2850  0.7569 -0.5294
 2015SOL     OW17680   4.668   4.350   5.116 -0.4654 -0.4974 -0.1372
 2015SOL    HW117681   4.728   4.276   5.121  1.9242  1.5131  0.6181
 2015SOL    HW217682   4.731   4.422   5.127  0.2579 -0.9408 -1.3349
 2016SOL     OW17683   1.001   2.018   1.822 -0.4054 -0.2154 -0.3136
 2016SOL    HW117684   0.967   1.932   1.798 -2.7222  0.1675  1.6346
 2016SOL    HW217685   0.995   2.004   1.916 -1.0008 -1.0916 -0.4869
 2017SOL     OW17686   4.451   2.266  13.467  0.3397  0.0398  0.5840
 2017SOL    HW117687   4.435   2.351  13.426  1.2433  0.8942  1.9995
 2017SOL    HW217688   4.506   2.289  13.542  1.8106 -2.5085  0.3028
 2018SOL     OW17689   0.225   3.610   6.358  0.2024 -0.4316 -0.3288
 2018SOL    HW117690   0.139   3.597   6.319  0.1822  1.9966 -1.0792
 2018SOL    HW217691   0.209   3.688   6.411  0.1065 -0.0535 -0.9213
 2019SOL     OW17692   0.670   4.521   3.371  0.2637 -0.1291 -0.4913
 2019SOL    HW117693   0.619   4.444   3.391  0.2024  0.1287  0.3545
 2019SOL    HW217694   0.742   4.512   3.434 -2.3148  0.9322  2.5622
 2020SOL     OW17695   2.938   0.037   8.215 -0.1134 -0.2079 -0.9369
 2020SOL    HW117696   2.874   0.106   8.235 -0.3949 -0.7559  0.0466
 2020SOL    HW217697   2.880   4.704   8.181 -1.6046 -0.0977  1.3606
 2021SOL     OW17698   1.827   0.080   2.295 -0.2355  0.1873  0.5147
 2021SOL    HW117699   1.877   0.149   2.252 -1.3373 -0.4344 -1.8112
 2021SOL    HW217700   1.893   0.011   2.301  0.4387  0.6034 -1.8476
 2022SOL     OW17701   4.170   0.881   5.403 -0.8054  0.1187  0.3830
 2022SOL    HW117702   4.089   0.918   5.367 -0.5879 -3.0001 -3.2887
 2022SOL    HW217703   4.178   0.803   5.350  0.9849  0.6387 -0.0931
 2023SOL     OW17704   0.494   3.995   3.191  0.0983  0.0188 -0.7160
 2023SOL    HW117705   0.528   4.040   3.269 -1.5780 -0.7750  0.4806
 2023SOL    HW217706   0.564   4.016   3.130 -1.5498 -2.1360 -3.3133
 2024SOL     OW17707   0.022   3.871  14.629  0.0994  0.9430  0.0575
 2024SOL    HW117708   0.093   3.912  14.581 -0.2033  1.5996  0.1706
 2024SOL    HW217709   0.018   3.780  14.601  0.5597  0.7566  0.6084
 2025SOL     OW17710   1.326   1.042   5.679 -0.0869  0.1562  0.5662
 2025SOL    HW117711   1.284   1.054   5.594  0.7670 -1.3617 -0.0638
 2025SOL    HW217712   1.386   1.115   5.693  0.2285  0.0748 -0.3660
 2026SOL     OW17713   4.008   2.365   5.779  0.0161  0.1933 -0.0065
 2026SOL    HW117714   4.029   2.323   5.862  1.0539  0.2485 -0.2386
 2026SOL    HW217715   3.989   2.287   5.726  1.1797  1.8023 -2.8355
 2027SOL     OW17716   3.986   3.912  10.383 -0.4621  0.3162 -0.0952
 2027SOL    HW117717   3.901   3.913  10.338 -0.7722  0.1881  0.4771
 2027SOL    HW217718   3.981   4.000  10.419 -0.1836  0.8807 -1.4486
 2028SOL     OW17719   1.112   0.299   6.429  0.0916 -0.3129 -0.4203
 2028SOL    HW117720   1.044   0.237   6.404 -0.4072 -0.5865  1.6255
 2028SOL    HW217721   1.062   0.364   6.479  0.6506 -1.5588  1.7643
 2029SOL     OW17722   1.590   1.694  11.102  0.0341 -0.2619 -0.1761
 2029SOL    HW117723   1.648   1.645  11.161  0.8682  0.5058 -0.3580
 2029SOL    HW217724   1.552   1.616  11.061 -0.6607  1.5753 -3.0280
 2030SOL     OW17725   0.833   1.741   4.703  0.0271 -0.1466 -0.8780
 2030SOL    HW117726   0.909   1.702   4.746  0.5594 -1.0252 -2.6361
 2030SOL    HW217727   0.868   1.788   4.627  1.2118  0.2402 -0.0916
 2031SOL     OW17728   2.549   2.803   6.043  0.3425  0.0031  0.1692
 2031SOL    HW117729   2.460   2.831   6.024 -0.1574 -2.1101 -0.7031
 2031SOL    HW217730   2.572   2.772   5.955  0.5956 -0.5611  0.4296
 2032SOL     OW17731   0.647   2.835   3.704 -0.3524 -0.0462  0.3446
 2032SOL    HW117732   0.701   2.829   3.783  0.8820 -0.2652 -0.5353
 2032SOL    HW217733   0.605   2.918   3.727 -0.8428  0.0484 -0.9433
 2033SOL     OW17734   2.876   2.095  10.517  0.4337 -0.2776 -0.0362
 2033SOL    HW117735   2.924   2.072  10.437  0.2813  3.5845 -1.2578
 2033SOL    HW217736   2.938   2.067  10.585 -0.0135 -1.1109  0.0248
 2034SOL     OW17737   4.274   1.646  14.067  1.0062 -0.2633  0.2023
 2034SOL    HW117738   4.282   1.567  14.120  2.4974  1.0531  1.9710
 2034SOL    HW217739   4.186   1.676  14.089  0.9449 -0.4897  0.2645
 2035SOL     OW17740   2.790   3.754   6.013 -0.6912 -0.2334  0.2103
 2035SOL    HW117741   2.815   3.687   6.076  1.1994 -0.4134 -0.7356
 2035SOL    HW217742   2.709   3.785   6.053 -0.2371  1.4856 -0.2024
 2036SOL     OW17743   2.098   0.304   9.264  0.2168  0.1673  0.0040
 2036SOL    HW117744   2.120   0.382   9.213  3.6170 -0.1318  0.9814
 2036SOL    HW217745   2.028   0.332   9.322  1.9318  2.1876  1.1074
 2037SOL     OW17746   2.944   3.703   2.728 -0.0776 -0.3952  0.1620
 2037SOL    HW117747   2.910   3.777   2.778 -1.4837 -0.4764 -0.6671
 2037SOL    HW217748   2.915   3.727   2.640 -0.3302 -0.6194  0.1849
 2038SOL     OW17749   2.870   4.208   1.834 -0.1821  0.0942  0.2344
 2038SOL    HW117750   2.943   4.240   1.888  0.7318  0.1518 -1.0448
 2038SOL    HW217751   2.828   4.293   1.817  0.7481  0.5541  0.2485
 2039SOL     OW17752   0.453   3.121   0.594  0.4607 -0.8624 -0.2581
 2039SOL    HW117753   0.374   3.162   0.629 -0.5992 -1.2384 -2.1871
 2039SOL    HW217754   0.516   3.174   0.643 -0.3137  0.9530 -1.2029
 2040SOL     OW17755   3.590   0.221   3.352  0.9163 -0.3428 -0.1153
 2040SOL    HW117756   3.537   0.300   3.355  0.3764 -0.7299  0.7520
 2040SOL    HW217757   3.567   0.190   3.264  1.1322  0.6040 -0.5035
 2041SOL     OW17758   4.685   3.880   8.106 -0.2979 -0.0108  0.6599
 2041SOL    HW117759   0.006   3.811   8.072  1.5116  2.1655 -0.7312
 2041SOL    HW217760   4.664   3.927   8.026  0.8955  2.4953  1.8052
 2042SOL     OW17761   0.903   4.684   3.463 -0.0126 -0.1555 -0.0113
 2042SOL    HW117762   0.862   0.022   3.510 -0.5987 -0.8595  0.5610
 2042SOL    HW217763   0.936   4.731   3.386 -2.2266 -1.1309 -1.5569
 2043SOL     OW17764   3.889   2.043   0.902 -0.1729 -0.0440 -0.0660
 2043SOL    HW117765   3.934   2.043   0.818  1.7046 -2.7524  0.9670
 2043SOL    HW217766   3.826   2.114   0.885 -0.2513 -0.3882 -1.1554
 2044SOL     OW17767   2.086   1.722  10.153 -0.1705  0.5692 -0.3357
 2044SOL    HW117768   2.125   1.654  10.098 -0.8641  0.4511 -0.6845
 2044SOL    HW217769   2.072   1.789  10.086  0.7992 -0.5057 -1.6148
 2045SOL     OW17770   2.181   2.751   3.667 -0.0073 -0.2068 -0.3163
 2045SOL    HW117771   2.232   2.761   3.587 -2.1281  4.9881 -0.9703
 2045SOL    HW217772   2.225   2.674   3.702  1.2438  0.1981 -1.0045
 2046SOL     OW17773   4.712   1.219   2.177 -0.1937 -0.1213 -0.5253
 2046SOL    HW117774   0.031   1.276   2.231  0.2240 -2.1996  1.2828
 2046SOL    HW217775   4.650   1.193   2.245 -0.9711  0.9931 -0.8086
 2047SOL     OW17776   0.693   1.522   2.374 -0.2368 -0.0765  0.0648
 2047SOL    HW117777   0.648   1.448   2.333 -1.8459 -0.6946  2.9220
 2047SOL    HW217778   0.634   1.588   2.339  0.2595  0.0327 -0.5647
 2048SOL     OW17779   1.637   0.274  16.972  0.1378  0.6916  0.2932
 2048SOL    HW117780   1.665   0.187  16.942  4.5794  2.2324  0.0141
 2048SOL    HW217781   1.544   0.261  16.957  0.3053 -0.2938  0.0642
 2049SOL     OW17782   4.101   0.358   7.000  0.2654 -0.2912  0.2609
 2049SOL    HW117783   4.091   0.453   6.988 -1.4339 -0.4643  0.3657
 2049SOL    HW217784   4.127   0.327   6.913 -0.6097 -3.0891  0.9972
 2050SOL     OW17785   3.470   0.865   2.127  0.0964 -0.2682  0.5207
 2050SOL    HW117786   3.469   0.930   2.056  2.4831 -0.6460  0.1343
 2050SOL    HW217787   3.412   0.911   2.189  0.5760  0.8513  0.1493
 2051SOL     OW17788   0.797   0.628   7.729 -0.2389 -0.4018  0.4198
 2051SOL    HW117789   0.752   0.558   7.776  2.4449 -2.0356  0.5665
 2051SOL    HW217790   0.814   0.585   7.645  1.1906  2.5278 -0.8178
 2052SOL     OW17791   0.193   1.701   8.067 -0.3529 -0.1247 -0.5419
 2052SOL    HW117792   0.259   1.640   8.099 -0.6228 -0.3123 -0.3447
 2052SOL    HW217793   0.137   1.649   8.008  0.0583 -0.2969 -0.7819
 2053SOL     OW17794   2.532   3.215  16.679  0.1273 -0.1211 -0.0163
 2053SOL    HW117795   2.465   3.163  16.724 -1.6477  0.9254 -1.4869
 2053SOL    HW217796   2.606   3.177  16.727  1.2212  2.2635  0.1913
 2054SOL     OW17797   0.599   2.618   1.423  0.2282 -1.0856  0.2100
 2054SOL    HW117798   0.511   2.624   1.459 -0.1913  2.0175 -1.2687
 2054SOL    HW217799   0.609   2.709   1.394 -2.1822 -0.8773  0.0085
 2055SOL     OW17800   1.969   1.213   0.800 -0.3300  0.2856 -0.4536
 2055SOL    HW117801   2.013   1.277   0.743  1.2506  0.5363  1.0804
 2055SOL    HW217802   1.941   1.148   0.735  1.3069 -0.6962 -0.1690
 2056SOL     OW17803   4.502   1.956   2.033  0.1143 -0.0170 -0.2564
 2056SOL    HW117804   4.557   2.026   1.996 -0.8265  0.1950 -1.2520
 2056SOL    HW217805   4.440   2.009   2.084  1.3458  2.3473 -1.1906
 2057SOL     OW17806   3.236   2.879   3.267  0.0859 -0.4414  0.1527
 2057SOL    HW117807   3.276   2.917   3.345 -0.1313 -2.5206  1.2737
 2057SOL    HW217808   3.303   2.819   3.235  1.9608  1.4456  0.5333
 2058SOL     OW17809   2.763   4.590   8.852 -0.3051  0.0138  0.2806
 2058SOL    HW117810   2.718   4.570   8.769 -1.0298 -0.1410  0.7143
 2058SOL    HW217811   2.694   4.647   8.885 -0.0445 -0.9273  2.4326
 2059SOL     OW17812   4.301   1.692   7.132 -0.2904 -0.2713 -0.6779
 2059SOL    HW117813   4.240   1.766   7.131 -0.3669 -0.3559 -1.9493
 2059SOL    HW217814   4.241   1.620   7.110  0.3312 -0.9812 -0.0259
 2060SOL     OW17815   1.101   1.992   3.322 -0.5257  0.0633 -0.4306
 2060SOL    HW117816   1.063   1.930   3.260  1.2437 -0.7409 -0.7197
 2060SOL    HW217817   1.180   2.005   3.270 -0.9123  1.3089 -0.6911
 2061SOL     OW17818   2.595   1.665   1.426 -0.1066  0.0869 -0.1794
 2061SOL    HW117819   2.635   1.654   1.340 -1.6515  0.2348 -0.9192
 2061SOL    HW217820   2.505   1.644   1.400 -1.2324  2.1818  2.0800
 2062SOL     OW17821   1.040   2.310   3.123 -0.2561 -0.2881 -0.3598
 2062SOL    HW117822   0.963   2.278   3.170 -0.6390 -1.1032 -1.5322
 2062SOL    HW217823   1.081   2.357   3.195 -1.1078  1.6210 -1.1159
 2063SOL     OW17824   1.305   1.276   7.931  0.3639  0.8756 -0.0315
 2063SOL    HW117825   1.268   1.340   7.992 -0.2497 -0.4044  0.9212
 2063SOL    HW217826   1.335   1.199   7.979 -0.1167 -0.3565 -1.7418
 2064SOL     OW17827   3.055   1.099   7.571 -0.1093  0.1280  0.1934
 2064SOL    HW117828   3.087   1.189   7.557  0.3294 -0.1846 -0.8115
 2064SOL    HW217829   2.975   1.096   7.519  0.4565  0.8117 -0.7364
 2065SOL     OW17830   2.018   1.532   0.180 -0.3821 -0.4613 -0.1428
 2065SOL    HW117831   1.929   1.565   0.177 -0.5499 -0.7289  1.7953
 2065SOL    HW217832   2.059   1.566   0.260  0.8475 -3.0408  0.3223
 2066SOL     OW17833   2.085   0.191   4.761  0.2071  0.4702  0.0716
 2066SOL    HW117834   2.017   0.208   4.826  1.5295  0.8426  1.3617
 2066SOL    HW217835   2.139   0.270   4.760  1.2219 -0.2369 -0.7758
 2067SOL     OW17836   2.911   2.854   8.661 -0.2150 -0.0719  0.4558
 2067SOL    HW117837   2.835   2.797   8.656 -0.7926  0.5880  1.6703
 2067SOL    HW217838   2.946   2.838   8.749 -2.5851 -3.4110  0.7618
 2068SOL     OW17839   3.525   2.928  12.441 -0.1526  0.0945  0.0275
 2068SOL    HW117840   3.550   2.981  12.516 -0.5639 -0.9760  0.9166
 2068SOL    HW217841   3.522   2.841  12.480  0.6092 -0.0969 -0.3408
 2069SOL     OW17842   0.661   2.254  13.997 -0.1971  0.3996  0.1060
 2069SOL    HW117843   0.677   2.334  13.947  2.6877 -0.7412 -0.8220
 2069SOL    HW217844   0.706   2.186  13.948 -3.0746 -0.8428 -0.8354
 2070SOL     OW17845   0.848   2.306  15.624  0.6462  0.4310 -0.1182
 2070SOL    HW117846   0.757   2.309  15.595 -0.0622  0.9239  2.2187
 2070SOL    HW217847   0.851   2.219  15.663  2.1783  1.3935  1.8917
 2071SOL     OW17848   1.158   0.091   5.418 -0.1075 -0.3736  0.3747
 2071SOL    HW117849   1.098   0.152   5.375  1.0524 -1.0351 -2.2070
 2071SOL    HW217850   1.147   0.023   5.351 -0.7485  1.3245 -1.2352
 2072SOL     OW17851   3.370   1.164   7.597 -0.1584 -0.1271 -0.1001
 2072SOL    HW117852   3.390   1.239   7.540 -0.3213 -1.7418 -2.2830
 2072SOL    HW217853   3.300   1.200   7.652  0.0290  1.3729 -0.8391
 2073SOL     OW17854   3.488   4.087   5.611  0.2096  0.4865 -0.0637
 2073SOL    HW117855   3.410   4.142   5.603 -1.3164 -1.8949 -1.3887
 2073SOL    HW217856   3.537   4.130   5.681 -0.2448  0.3242  0.3482
 2074SOL     OW17857   2.618   3.232   7.892 -0.1172 -0.7192 -0.1304
 2074SOL    HW117858   2.591   3.311   7.939 -2.0391 -1.4394 -0.0105
 2074SOL    HW217859   2.630   3.281   7.810 -0.3863  2.6910  1.8784
 2075SOL     OW17860   3.946   2.111   2.119 -0.0836 -0.2875  0.2198
 2075SOL    HW117861   3.970   2.020   2.133 -0.4648 -0.2347  1.2672
 2075SOL    HW217862   3.940   2.114   2.024  1.2647 -2.0881  0.0942
 2076SOL     OW17863   0.608   4.520   0.376  0.7328  0.1396 -0.1157
 2076SOL    HW117864   0.584   4.556   0.291 -1.4612 -1.8076 -0.3183
 2076SOL    HW217865   0.556   4.566   0.442 -0.1889  1.8159 -2.0411
 2077SOL     OW17866   3.687   1.886   9.195 -0.5190 -0.0812  0.4235
 2077SOL    HW117867   3.710   1.930   9.113  0.3263 -0.8203  0.2574
 2077SOL    HW217868   3.597   1.874   9.167  0.3736 -0.7201 -2.2514
 2078SOL     OW17869   2.442   1.434  16.923 -0.0531 -0.2651  0.5609
 2078SOL    HW117870   2.352   1.446  16.953  0.1472 -1.1073  1.5148
 2078SOL    HW217871   2.481   1.505  16.973  0.7083 -0.5238  0.3314
 2079SOL     OW17872   2.043   0.924   5.295  0.5738 -0.0887 -0.3039
 2079SOL    HW117873   1.962   0.909   5.246 -0.6685  0.4135  1.6040
 2079SOL    HW217874   2.018   0.888   5.380 -0.8243  1.5365 -0.0332
 2080SOL     OW17875   4.127   4.598   6.575 -0.0010 -0.2594  0.0023
 2080SOL    HW117876   4.167   4.588   6.489 -2.8951  0.3610 -1.4131
 2080SOL    HW217877   4.188   4.660   6.616 -1.2215 -0.1805  1.6944
 2081SOL     OW17878   2.826   2.805   7.692  0.2273  0.3936 -0.6148
 2081SOL    HW117879   2.805   2.871   7.627  0.6931  0.2505 -0.9090
 2081SOL    HW217880   2.892   2.750   7.650  0.3007 -0.1740  0.2423
 2082SOL     OW17881   1.812   2.111  10.313 -0.5103  0.4643 -0.4302
 2082SOL    HW117882   1.807   2.019  10.285  0.1911  0.2747  0.0695
 2082SOL    HW217883   1.874   2.150  10.252 -0.8582  1.6319 -0.0365
 2083SOL     OW17884   0.173   3.420   1.508  0.4789 -0.6487 -0.7910
 2083SOL    HW117885   0.251   3.403   1.562 -0.4673  3.5114  1.8476
 2083SOL    HW217886   0.127   3.336   1.514 -0.9968  0.2287  0.1764
 2084SOL     OW17887   4.451   1.940   7.592  0.5769 -0.1371  0.3740
 2084SOL    HW117888   4.546   1.944   7.585  0.4088  2.0137 -0.8494
 2084SOL    HW217889   4.418   2.007   7.532  0.5422 -0.3263  0.1805
 2085SOL     OW17890   2.459   0.330   6.179 -0.0298  0.3011  0.3543
 2085SOL    HW117891   2.466   0.311   6.086  0.7849  1.3534  0.1920
 2085SOL    HW217892   2.373   0.298   6.204  0.5866 -0.2723  1.7036
 2086SOL     OW17893   2.460   3.364  13.329  0.0309 -0.3325  0.2615
 2086SOL    HW117894   2.503   3.443  13.296  2.0395 -0.7932  1.7776
 2086SOL    HW217895   2.496   3.295  13.275  1.0513  1.5969 -1.5179
 2087SOL     OW17896   0.385   0.847   0.108  0.9355  0.6281 -0.6289
 2087SOL    HW117897   0.372   0.925   0.054  0.2185  2.4399  2.1305
 2087SOL    HW217898   0.474   0.829   0.078  0.8254 -0.7379 -0.1225
 2088SOL     OW17899   0.401   0.488   0.534  0.5465 -0.1401  0.4206
 2088SOL    HW117900   0.424   0.581   0.528  0.6650 -0.0327  2.5968
 2088SOL    HW217901   0.321   0.495   0.586 -0.5701  0.2577 -1.3165
 2089SOL     OW17902   2.215   1.551   5.946 -0.1466  0.1330 -0.3895
 2089SOL    HW117903   2.195   1.644   5.936 -4.1665 -0.7656 -0.8473
 2089SOL    HW217904   2.153   1.539   6.018 -0.7707 -0.6819 -1.0654
 2090SOL     OW17905   3.622   3.868   0.088 -0.4177  1.0174  0.2466
 2090SOL    HW117906   3.618   3.929   0.162  1.6454  1.8790 -0.3586
 2090SOL    HW217907   3.666   3.929   0.029  0.3791 -1.7731 -2.0162
 2091SOL     OW17908   4.363   3.423  15.188 -0.8843 -0.1692  0.0035
 2091SOL    HW117909   4.401   3.434  15.275 -0.1617 -2.1483 -0.0599
 2091SOL    HW217910   4.345   3.329  15.192 -1.6735 -0.0075  0.3287
 2092SOL     OW17911   4.134   2.892   6.129 -0.2473  0.0703  0.2846
 2092SOL    HW117912   4.190   2.921   6.057 -0.8004  0.9653  0.2055
 2092SOL    HW217913   4.066   2.955   6.104 -1.1332 -1.7203 -1.8903
 2093SOL     OW17914   2.546   2.327   8.579  0.1811  0.0898 -0.2711
 2093SOL    HW117915   2.471   2.276   8.548  1.5866 -2.3961  0.3928
 2093SOL    HW217916   2.526   2.418   8.561 -0.9195 -0.2568 -0.7878
 2094SOL     OW17917   0.057   0.389   6.622 -0.7178  0.5972  0.2977
 2094SOL    HW117918   0.029   0.300   6.640  1.4583 -0.2493 -0.4851
 2094SOL    HW217919   0.030   0.407   6.532  0.1872 -1.7188 -0.4329
 2095SOL     OW17920   0.153   2.104   1.967 -0.2505 -0.0317 -0.1593
 2095SOL    HW117921   0.120   2.020   1.997 -2.0984  0.6125 -0.4057
 2095SOL    HW217922   0.185   2.130   2.054  3.0798  0.4094 -1.5099
 2096SOL     OW17923   1.351   1.072   2.603 -0.3962  0.0470  0.3314
 2096SOL    HW117924   1.340   1.138   2.672 -0.6698 -0.2443  0.5681
 2096SOL    HW217925   1.396   1.116   2.531  0.1826  1.1074  1.3391
 2097SOL     OW17926   3.377   0.432   8.259  1.1277 -0.5167  0.3651
 2097SOL    HW117927   3.442   0.434   8.328 -1.9821  0.9504  3.2723
 2097SOL    HW217928   3.317   0.366   8.295  1.1613 -0.6102  0.2508
 2098SOL     OW17929   3.632   0.698   2.295 -0.2181  0.6581 -0.2683
 2098SOL    HW117930   3.617   0.792   2.282 -0.6136  0.4706 -1.1846
 2098SOL    HW217931   3.689   0.682   2.220 -0.3428 -2.6282  0.3685
 2099SOL     OW17932   0.095   3.643   7.209 -0.0424  0.6096 -0.5852
 2099SOL    HW117933   0.056   3.607   7.288 -0.6376  0.1650 -1.0838
 2099SOL    HW217934   0.104   3.567   7.151  1.1050 -0.4718  1.0266
 2100SOL     OW17935   4.367   1.697   2.047  0.1316  0.0021  0.3094
 2100SOL    HW117936   4.401   1.642   1.977 -1.2193 -0.0196 -0.3377
 2100SOL    HW217937   4.385   1.784   2.012 -0.7793 -0.2057 -0.6731
 2101SOL     OW17938   1.080   1.610  12.418 -0.2467 -0.1235  0.2216
 2101SOL    HW117939   1.119   1.651  12.495 -0.1923  1.3399 -0.5897
 2101SOL    HW217940   0.988   1.626  12.437 -0.3046  0.5418 -0.5725
 2102SOL     OW17941   3.797   1.700   0.189 -0.5008 -0.1472 -0.5605
 2102SOL    HW117942   3.828   1.786   0.163 -0.8734  0.3330  0.5865
 2102SOL    HW217943   3.730   1.676   0.124 -0.1208 -0.0851 -0.9716
 2103SOL     OW17944   0.923   3.278  10.841  0.4034  0.0798  0.2847
 2103SOL    HW117945   0.908   3.299  10.749  0.1298  0.8746  0.5176
 2103SOL    HW217946   0.842   3.318  10.871 -0.0907 -1.9965  1.7450
 2104SOL     OW17947   1.371   3.440  11.376 -0.2027  0.4613  0.0524
 2104SOL    HW117948   1.358   3.460  11.284 -1.1693  1.7011  0.4597
 2104SOL    HW217949   1.285   3.408  11.405 -0.7039  0.6185 -1.2532
 2105SOL     OW17950   3.165   3.649   5.735  0.1082  0.5695  0.4154
 2105SOL    HW117951   3.107   3.715   5.696  1.1774  1.6545  0.6636
 2105SOL    HW217952   3.148   3.663   5.829 -0.6031 -0.0985  0.3854
 2106SOL     OW17953   3.358   4.194   8.438  0.0900 -0.0979  0.0758
 2106SOL    HW117954   3.277   4.170   8.393 -1.3621 -1.6921  3.5220
 2106SOL    HW217955   3.375   4.117   8.492  0.5689  0.4840  0.7485
 2107SOL     OW17956   3.922   1.515   5.454  0.2875 -0.1294  0.2659
 2107SOL    HW117957   3.976   1.548   5.383  1.9724 -1.1146  1.0982
 2107SOL    HW217958   3.872   1.444   5.414 -2.6258  2.8791 -1.4520
 2108SOL     OW17959   4.693   0.803  17.186  0.0047  0.3583  0.2298
 2108SOL    HW117960   4.638   0.753  17.247 -0.0712 -0.1148 -0.2302
 2108SOL    HW217961   4.728   0.866  17.248  0.8319 -1.5063  1.6769
 2109SOL     OW17962   2.237   2.228   3.794  0.3650 -0.0940  0.3394
 2109SOL    HW117963   2.199   2.266   3.874  0.7329 -0.7052  0.8078
 2109SOL    HW217964   2.165   2.242   3.733  0.5311  0.6400  0.3164
 2110SOL     OW17965   3.464   1.355  16.351 -0.0928 -0.3095 -0.4666
 2110SOL    HW117966   3.511   1.280  16.316  0.0165  0.4424 -1.9156
 2110SOL    HW217967   3.488   1.432  16.299  0.4768 -0.4896 -0.4719
 2111SOL     OW17968   1.977   0.466   3.629  0.0477  0.2417  0.0017
 2111SOL    HW117969   1.884   0.475   3.646 -0.4475 -1.3803 -1.8218
 2111SOL    HW217970   2.011   0.531   3.691 -0.9847  1.3904 -0.6298
 2112SOL     OW17971   4.634   1.933   2.352  0.4012 -0.3911 -0.1388
 2112SOL    HW117972   4.552   1.895   2.320  0.9033 -1.3337 -0.3050
 2112SOL    HW217973   4.647   2.002   2.287 -0.2166  1.0024  1.2080
 2113SOL     OW17974   4.506   4.262   3.177 -0.3310 -0.4669  0.2015
 2113SOL    HW117975   4.566   4.278   3.104  0.1442 -1.1125  0.4558
 2113SOL    HW217976   4.547   4.322   3.240 -2.3948  2.3396 -1.1386
 2114SOL     OW17977   2.236   3.020   0.544 -0.1706 -0.6773 -0.5585
 2114SOL    HW117978   2.152   3.019   0.498  0.2896  0.3980 -1.4206
 2114SOL    HW217979   2.293   3.000   0.470 -0.3856 -0.1898 -0.8555
 2115SOL     OW17980   1.573   0.407   0.967 -0.8119 -0.0394 -0.3844
 2115SOL    HW117981   1.619   0.486   0.992 -1.6165  1.1320 -2.6000
 2115SOL    HW217982   1.636   0.357   0.916  0.9075  1.0647  0.6593
 2116SOL     OW17983   2.693   4.597  16.057  0.1476 -0.4352 -0.0311
 2116SOL    HW117984   2.661   4.525  16.003  0.1718 -1.3342  1.1551
 2116SOL    HW217985   2.695   4.560  16.145  1.2672 -1.1876 -0.3700
 2117SOL     OW17986   1.554   1.178  15.358  0.1359  0.1768 -0.4296
 2117SOL    HW117987   1.644   1.156  15.336  0.5671  0.9026  0.6271
 2117SOL    HW217988   1.572   1.257  15.409  0.8693  1.1736 -2.2520
 2118SOL     OW17989   0.471   2.334  13.218  0.0582 -0.2689 -0.6920
 2118SOL    HW117990   0.558   2.372  13.227 -0.2434  0.2543  0.0375
 2118SOL    HW217991   0.439   2.397  13.283 -0.1360 -1.4703  0.3695
 2119SOL     OW17992   4.566   4.270   1.010 -0.5630 -0.7724 -0.3961
 2119SOL    HW117993   4.638   4.257   1.072 -1.1043  1.1871  0.6411
 2119SOL    HW217994   4.566   4.190   0.957  3.4348 -0.4030 -0.9868
 2120SOL     OW17995   1.279   1.588   3.762 -0.1536  0.1088 -0.0375
 2120SOL    HW117996   1.328   1.559   3.685  2.8082  0.1171  1.8534
 2120SOL    HW217997   1.333   1.666   3.779  0.7588 -1.0142  2.1749
 2121SOL     OW17998   4.620   4.329   6.455  0.1112 -0.3204  0.6763
 2121SOL    HW117999   4.647   4.421   6.454 -1.5742  0.1549  0.1939
 2121SOL    HW218000   4.541   4.322   6.508  0.5859  0.6367  1.5203
 2122SOL     OW18001   3.229   3.523   8.248 -1.0175 -0.2544 -0.2428
 2122SOL    HW118002   3.218   3.429   8.237  0.6414 -0.5863  1.0044
 2122SOL    HW218003   3.250   3.547   8.157  0.4986 -1.4559 -0.2198
 2123SOL     OW18004   3.550   0.242   7.186  0.0111  0.0327  0.2587
 2123SOL    HW118005   3.634   0.262   7.228  0.5686 -1.4127 -0.1721
 2123SOL    HW218006   3.535   0.326   7.142  0.4423  0.3041  0.6394
 2124SOL     OW18007   2.048   0.771   5.904  0.0629  0.3766  0.1092
 2124SOL    HW118008   2.042   0.856   5.860  0.0234  1.2814  1.8664
 2124SOL    HW218009   2.052   0.800   5.995  0.1903 -1.7492  0.7842
 2125SOL     OW18010   3.816   1.241   7.839 -0.2510 -0.3364 -0.7035
 2125SOL    HW118011   3.728   1.217   7.869  0.2266  0.5199  1.3804
 2125SOL    HW218012   3.869   1.180   7.889 -0.5613 -0.4925 -0.5678
 2126SOL     OW18013   3.776   0.097  17.623  0.0745 -0.1152  0.5406
 2126SOL    HW118014   3.797   0.090  17.716  2.9860 -1.7038 -0.2292
 2126SOL    HW218015   3.836   0.168  17.598 -2.0825  1.4635 -0.1295
 2127SOL     OW18016   2.540   3.432   0.986 -0.1212 -0.1423  0.1153
 2127SOL    HW118017   2.563   3.474   1.069  2.0923  0.9233 -1.0293
 2127SOL    HW218018   2.600   3.466   0.920  1.3253  0.8224  1.9292
 2128SOL     OW18019   1.190   2.358   5.907 -0.0763  0.2065  0.4292
 2128SOL    HW118020   1.225   2.409   5.980  0.1835  0.3484  0.2043
 2128SOL    HW218021   1.267   2.303   5.895 -0.2824  0.0298 -0.0639
 2129SOL     OW18022   1.048   4.378   7.530 -0.2263 -0.0356  1.0795
 2129SOL    HW118023   1.069   4.453   7.473  1.2345 -1.2294  0.0391
 2129SOL    HW218024   1.126   4.324   7.517 -0.4719  0.0637 -0.8826
 2130SOL     OW18025   4.623   1.359   3.128 -0.3818 -0.0019  0.1399
 2130SOL    HW118026   4.661   1.272   3.122 -0.7474 -0.0644 -1.2698
 2130SOL    HW218027   4.671   1.403   3.199  0.0523 -0.2950  0.0216
 2131SOL     OW18028   1.653   2.852   2.774  0.6594 -0.8057  0.3773
 2131SOL    HW118029   1.688   2.915   2.837  1.2524 -1.5889  0.8335
 2131SOL    HW218030   1.730   2.798   2.760 -0.4628 -3.0661  2.8066
 2132SOL     OW18031   3.273   0.506   6.649 -0.2509  0.1159 -0.2664
 2132SOL    HW118032   3.302   0.597   6.653 -0.1444 -0.0008  1.6940
 2132SOL    HW218033   3.189   0.510   6.604 -0.8075  2.9201  1.0422
 2133SOL     OW18034   2.811   1.253   7.742 -0.5453 -0.6077  0.4001
 2133SOL    HW118035   2.828   1.190   7.673 -2.7711  1.1760 -1.8058
 2133SOL    HW218036   2.809   1.330   7.685  1.0873 -1.6488 -1.0582
 2134SOL     OW18037   2.031   4.719   6.788  0.7013  0.5725  0.2355
 2134SOL    HW118038   2.058   4.642   6.739  0.4936  0.4370  0.3359
 2134SOL    HW218039   2.105   0.041   6.764  1.2757  0.2070  1.1225
 2135SOL     OW18040   2.257   1.444   7.785  0.5430 -0.0533 -0.1442
 2135SOL    HW118041   2.330   1.387   7.809  1.6724  1.2026 -0.6143
 2135SOL    HW218042   2.203   1.434   7.863 -1.2775  0.5047 -1.3380
 2136SOL     OW18043   1.495   3.856   9.882  0.2060 -0.0475 -0.3684
 2136SOL    HW118044   1.478   3.851   9.976  1.7183 -3.0310 -0.2334
 2136SOL    HW218045   1.458   3.939   9.852 -0.6737 -0.1637  0.3926
 2137SOL     OW18046   3.346   1.457   5.370 -0.0355 -0.0408  0.5333
 2137SOL    HW118047   3.305   1.494   5.448 -1.7591  1.3080 -1.0139
 2137SOL    HW218048   3.424   1.419   5.411  0.4021 -0.7559 -0.9605
 2138SOL     OW18049   1.324   4.473   5.585  0.3741 -0.3883  0.2540
 2138SOL    HW118050   1.309   4.552   5.636 -2.3667  0.3259 -1.6528
 2138SOL    HW218051   1.420   4.475   5.577  0.3826  1.9486  1.0955
 2139SOL     OW18052   3.218   0.277  14.991  0.5464 -0.3251 -0.7484
 2139SOL    HW118053   3.240   0.266  14.898  2.0671  1.9072 -0.6519
 2139SOL    HW218054   3.138   0.329  14.988  0.2725 -0.6611  0.8950
 2140SOL     OW18055   1.697   0.460   8.718 -0.3710 -0.5705 -0.0178
 2140SOL    HW118056   1.620   0.405   8.734 -0.4307 -0.1004  1.3415
 2140SOL    HW218057   1.667   0.548   8.742  0.4460 -0.2562 -0.1442
 2141SOL     OW18058   3.439   0.511  13.882 -0.7435  0.2191  0.4656
 2141SOL    HW118059   3.401   0.484  13.965 -2.9011 -0.3930 -0.7140
 2141SOL    HW218060   3.469   0.423  13.857  1.1730  0.8775  0.5198
 2142SOL     OW18061   4.404   1.276  15.441  0.2366 -0.0745 -0.1512
 2142SOL    HW118062   4.335   1.322  15.393 -2.5152 -2.3933  1.5801
 2142SOL    HW218063   4.369   1.278  15.530 -2.9083 -0.3357 -1.3498
 2143SOL     OW18064   3.207   1.686   6.909  0.1652 -0.1126 -0.0833
 2143SOL    HW118065   3.131   1.652   6.957  0.8579 -1.7791 -0.1751
 2143SOL    HW218066   3.197   1.781   6.915 -0.0296 -0.1233 -0.2376
 2144SOL     OW18067   3.037   4.148   8.972  0.4685 -0.1862  0.4506
 2144SOL    HW118068   3.041   4.135   8.877 -0.5870 -0.7877  0.4952
 2144SOL    HW218069   2.947   4.119   8.985  0.7623 -0.6782  1.3515
 2145SOL     OW18070   1.605   0.526   1.297 -0.1512 -0.0617  0.5077
 2145SOL    HW118071   1.569   0.475   1.369 -0.1512  1.5021  1.5886
 2145SOL    HW218072   1.617   0.615   1.328 -0.3609 -1.1101  3.5374
 2146SOL     OW18073   0.467   2.597  13.668  0.2813 -0.7183 -0.3994
 2146SOL    HW118074   0.464   2.501  13.670  1.6547 -0.7413  0.5536
 2146SOL    HW218075   0.476   2.617  13.761  0.5819  2.5075 -1.1336
 2147SOL     OW18076   0.564   0.507   8.302 -0.3162  0.4077 -0.4040
 2147SOL    HW118077   0.584   0.415   8.321 -0.2677 -0.1466 -3.0547
 2147SOL    HW218078   0.474   0.497   8.272 -0.5532  1.0601  0.0920
 2148SOL     OW18079   2.066   1.263  10.175 -0.3673  0.0453 -0.0777
 2148SOL    HW118080   2.077   1.168  10.170  0.7244  0.1636  0.0413
 2148SOL    HW218081   2.047   1.283  10.267 -3.2228  2.0678 -1.0955
 2149SOL     OW18082   3.213   3.871   4.466 -0.0254 -0.3215 -0.1835
 2149SOL    HW118083   3.123   3.889   4.491  0.6922  1.8448  0.8715
 2149SOL    HW218084   3.257   3.941   4.514 -0.8974  0.5600 -0.6967
 2150SOL     OW18085   1.713   0.997  15.788 -0.5207  0.3990  0.4285
 2150SOL    HW118086   1.633   0.999  15.840 -1.5385 -1.6446 -1.0470
 2150SOL    HW218087   1.742   0.906  15.798 -0.9912  0.2038  0.0107
 2151SOL     OW18088   4.049   3.457   8.788  0.0503  0.2760  0.4643
 2151SOL    HW118089   4.014   3.491   8.706  2.4894  1.7973  0.0357
 2151SOL    HW218090   3.994   3.502   8.852 -1.2555 -1.4999  0.5926
 2152SOL     OW18091   3.547   1.408   6.936  0.4096 -0.2633  0.5006
 2152SOL    HW118092   3.641   1.407   6.919  0.5310  3.8374  0.9103
 2152SOL    HW218093   3.511   1.450   6.858  0.4455 -0.8320  0.1756
 2153SOL     OW18094   2.172   1.377   4.829 -0.1349  1.0595 -0.3234
 2153SOL    HW118095   2.130   1.370   4.744  0.5050  0.6268 -0.6051
 2153SOL    HW218096   2.092   1.357   4.876 -0.2132 -3.4310 -2.3878
 2154SOL     OW18097   3.650   3.505   5.054  0.3311 -0.2498 -0.5734
 2154SOL    HW118098   3.668   3.597   5.035 -2.5957  0.1956 -1.1923
 2154SOL    HW218099   3.742   3.480   5.061  0.3664  0.1705  0.4682
 2155SOL     OW18100   0.298   3.412  16.811  0.7462 -0.4719  0.4535
 2155SOL    HW118101   0.374   3.419  16.870  0.8801  0.1268  0.2017
 2155SOL    HW218102   0.252   3.494  16.824  1.0956 -0.2213  0.0930
 2156SOL     OW18103   1.181   4.688   4.808  0.5754 -0.4649  0.2498
 2156SOL    HW118104   1.143   4.606   4.777 -0.3071 -1.3093  3.4755
 2156SOL    HW218105   1.147   4.691   4.898  0.7437 -1.4743  0.3495
 2157SOL     OW18106   3.008   1.643   4.387  0.0443  0.5688  0.4231
 2157SOL    HW118107   3.078   1.681   4.334 -1.5656  0.0743 -2.0264
 2157SOL    HW218108   3.061   1.570   4.419 -0.6264  0.0729  0.4089
 2158SOL     OW18109   1.351   3.710   3.566  0.5138 -0.3469  0.1322
 2158SOL    HW118110   1.396   3.759   3.497  0.2384 -2.0286 -1.2421
 2158SOL    HW218111   1.287   3.658   3.516 -0.1594 -0.2499  0.8943
 2159SOL     OW18112   0.294   2.155  14.807  0.4769  0.3325  0.1469
 2159SOL    HW118113   0.342   2.228  14.769 -0.0072  0.8782  0.5766
 2159SOL    HW218114   0.257   2.199  14.884 -2.3776 -0.4279 -0.7782
 2160SOL     OW18115   4.698   1.530   6.747  0.1247 -0.5471  0.0420
 2160SOL    HW118116   0.041   1.519   6.801 -0.7438 -2.7284  0.8283
 2160SOL    HW218117   4.639   1.543   6.821 -0.0704  0.7233 -0.3376
 2161SOL     OW18118   1.715   3.036   2.987  0.3014 -0.0845 -0.1583
 2161SOL    HW118119   1.740   3.128   2.985  0.3630 -0.0574  1.4905
 2161SOL    HW218120   1.646   3.043   3.053  0.1076  1.8955 -0.5846
 2162SOL     OW18121   3.285   0.734  15.114  0.0946 -0.3425 -0.1146
 2162SOL    HW118122   3.209   0.774  15.071 -0.9815 -1.0136  1.1577
 2162SOL    HW218123   3.319   0.813  15.155 -2.6078  1.2291 -0.8901
 2163SOL     OW18124   0.934   3.087  12.937  0.1646  0.0377  0.4673
 2163SOL    HW118125   0.961   3.178  12.930  0.1293  0.0502  0.4939
 2163SOL    HW218126   0.912   3.087  13.030 -1.0630  0.6715  0.1663
 2164SOL     OW18127   0.921   3.768  17.723 -0.6286  0.2806 -0.4868
 2164SOL    HW118128   0.874   3.704  17.670 -0.8474 -0.2978  0.3958
 2164SOL    HW218129   0.943   3.723   0.065 -0.9928 -2.5853 -1.9683
 2165SOL     OW18130   1.608   4.347  16.461  0.3624 -0.7296  0.4471
 2165SOL    HW118131   1.573   4.417  16.517  0.8546  0.8523 -1.2369
 2165SOL    HW218132   1.651   4.286  16.521  0.8038 -0.1472  0.7237
 2166SOL     OW18133   4.291   0.756   9.955  0.0267  0.3237  0.3069
 2166SOL    HW118134   4.351   0.823   9.922  1.2900 -0.4915  0.9383
 2166SOL    HW218135   4.297   0.758  10.051  1.9693  1.0794  0.1537
 2167SOL     OW18136   0.745   3.644   6.735  0.5304  0.4034 -0.0923
 2167SOL    HW118137   0.751   3.701   6.658  1.5000 -1.4672 -1.4228
 2167SOL    HW218138   0.650   3.628   6.733  0.4531  0.8494  0.1575
 2168SOL     OW18139   0.328   3.482  15.909 -0.0652  0.1326  0.1020
 2168SOL    HW118140   0.335   3.487  15.814  2.1783  2.3438  0.4005
 2168SOL    HW218141   0.279   3.402  15.931  0.0091 -0.2703 -1.1861
 2169SOL     OW18142   1.836   3.113   4.293 -0.2608  0.0159  0.6010
 2169SOL    HW118143   1.889   3.170   4.348  0.1423  0.7030 -0.4994
 2169SOL    HW218144   1.890   3.097   4.215 -0.2947  0.5263  0.4761
 2170SOL     OW18145   0.248   1.622   2.097  0.0546  0.3528  0.0477
 2170SOL    HW118146   0.324   1.587   2.051  0.0356 -0.6425  0.7806
 2170SOL    HW218147   0.188   1.548   2.086 -0.2594  0.5482  0.4657
 2171SOL     OW18148   1.387   4.444  15.782  0.4943 -0.3026  0.2598
 2171SOL    HW118149   1.427   4.395  15.854  1.0780  0.2007  0.2845
 2171SOL    HW218150   1.314   4.491  15.822  0.9515  0.8912 -0.2857
 2172SOL     OW18151   1.392   2.452   0.715 -0.0816 -0.1701 -0.4425
 2172SOL    HW118152   1.388   2.379   0.653  0.1613 -2.0176  1.7288
 2172SOL    HW218153   1.300   2.454   0.743  0.3843  1.4574  0.9717
 2173SOL     OW18154   3.700   3.742   4.096  0.6020 -0.4059  0.0084
 2173SOL    HW118155   3.613   3.701   4.089  0.4935 -0.1382 -0.2244
 2173SOL    HW218156   3.693   3.793   4.177 -0.5862 -1.1458  0.3705
 2174SOL     OW18157   0.682   4.672   0.756  0.3617  0.4756 -0.2017
 2174SOL    HW118158   0.709   4.597   0.808  0.1435  1.4640  1.3550
 2174SOL    HW218159   0.601   4.693   0.803  0.0269 -0.7041 -0.2554
 2175SOL     OW18160   0.436   3.890   4.987 -0.0178  0.0109 -0.1132
 2175SOL    HW118161   0.468   3.938   5.063 -1.7186 -1.4297  1.4927
 2175SOL    HW218162   0.372   3.956   4.961  2.3121  1.9659 -0.9789
 2176SOL     OW18163   3.279   0.575   0.625  0.4221  0.2205 -0.2236
 2176SOL    HW118164   3.279   0.609   0.715 -1.6123  0.8930 -0.4850
 2176SOL    HW218165   3.206   0.514   0.625  0.7070 -0.1238 -0.6628
 2177SOL     OW18166   1.263   2.843   9.564 -0.0754  0.3571  0.7349
 2177SOL    HW118167   1.226   2.828   9.478  0.2395  0.4055  0.5903
 2177SOL    HW218168   1.187   2.877   9.610 -2.4414 -1.2081 -2.0523
 2178SOL     OW18169   4.113   3.962  12.068 -0.5470  1.1189  0.1050
 2178SOL    HW118170   4.064   4.032  12.024 -0.6560  0.9932  0.0273
 2178SOL    HW218171   4.162   4.014  12.132 -0.6173  2.2909 -0.7714
 2179SOL     OW18172   1.118   4.223   3.483  0.0746  0.2263 -0.2576
 2179SOL    HW118173   1.066   4.211   3.563 -0.5887 -3.0608 -1.1906
 2179SOL    HW218174   1.053   4.200   3.417 -1.2214  1.0325  0.7349
 2180SOL     OW18175   1.457   1.760  16.777  0.1525 -0.3861  0.1199
 2180SOL    HW118176   1.432   1.813  16.852  1.3439 -0.2765  0.4267
 2180SOL    HW218177   1.446   1.672  16.813 -1.0290  0.8294  2.7351
 2181SOL     OW18178   3.172   1.635   0.354 -0.3498  0.1304  0.1286
 2181SOL    HW118179   3.195   1.585   0.275 -0.1679 -0.5769  0.6325
 2181SOL    HW218180   3.141   1.715   0.312  0.6062  0.1589 -0.5251
 2182SOL     OW18181   1.149   0.706  16.489 -0.3779 -0.1414  0.0637
 2182SOL    HW118182   1.083   0.714  16.558 -0.3676 -3.5953  0.4535
 2182SOL    HW218183   1.127   0.786  16.441 -1.5405  0.2103  1.1972
 2183SOL     OW18184   4.411   0.640  17.068  0.6497  0.5136 -0.5325
 2183SOL    HW118185   4.449   0.576  17.129  2.7875 -0.3812 -2.8163
 2183SOL    HW218186   4.481   0.645  17.003  0.4926  0.3468 -0.7152
 2184SOL     OW18187   0.950   1.540  17.441  0.1398 -0.1079 -0.8994
 2184SOL    HW118188   0.997   1.573  17.364  3.1125 -0.6713  0.6878
 2184SOL    HW218189   0.880   1.604  17.454 -1.5141 -2.6287  2.4312
 2185SOL     OW18190   0.674   1.410   0.468  0.3461  0.0697  0.1855
 2185SOL    HW118191   0.625   1.487   0.496 -0.7217 -0.7388  0.5390
 2185SOL    HW218192   0.762   1.447   0.463  0.6031 -0.7009 -1.0725
 2186SOL     OW18193   4.390   0.726  15.957  0.0782 -0.5527  0.3550
 2186SOL    HW118194   4.404   0.817  15.986  1.7751 -0.7371  0.1043
 2186SOL    HW218195   4.367   0.738  15.865  3.6410 -1.1684 -0.6373
 2187SOL     OW18196   0.929   4.501   7.751 -0.1622 -0.2046 -0.1682
 2187SOL    HW118197   0.968   4.470   7.669  1.2785  0.2702  0.3386
 2187SOL    HW218198   0.838   4.477   7.729 -0.7088  3.3469 -1.8505
 2188SOL     OW18199   2.346   4.112  16.079  0.5083 -0.5481  0.1816
 2188SOL    HW118200   2.275   4.076  16.026  0.3535  0.4091 -0.2817
 2188SOL    HW218201   2.388   4.167  16.012 -3.1191  2.2317  0.1499
 2189SOL     OW18202   4.360   2.503   8.829  0.2843  0.1067 -0.3731
 2189SOL    HW118203   4.314   2.481   8.910 -1.7421  1.4940 -1.1341
 2189SOL    HW218204   4.299   2.491   8.756  0.5738  0.8644 -0.7425
 2190SOL     OW18205   1.480   3.468   5.523 -0.0989  0.2075 -0.3306
 2190SOL    HW118206   1.415   3.441   5.588 -1.7162  1.2202 -1.5221
 2190SOL    HW218207   1.543   3.396   5.526  0.8292  1.0322 -0.3577
 2191SOL     OW18208   0.284   3.789   2.746  0.2732  0.1616 -0.3995
 2191SOL    HW118209   0.321   3.865   2.701 -0.5348  1.0913  0.4927
 2191SOL    HW218210   0.225   3.829   2.811  1.6663  2.6780 -0.7160
 2192SOL     OW18211   3.497   0.042  11.172  0.7273 -0.3887 -0.0077
 2192SOL    HW118212   3.587   0.054  11.203  0.6830 -2.0372  0.7558
 2192SOL    HW218213   3.447   0.054  11.252 -0.0330 -1.8700 -0.2624
 2193SOL     OW18214   3.387   3.429   7.419  0.1462  0.4229  0.3789
 2193SOL    HW118215   3.482   3.420   7.422  0.0468 -1.4809 -2.5601
 2193SOL    HW218216   3.369   3.432   7.325  1.9666 -0.4104 -0.0009
 2194SOL     OW18217   3.657   2.143   0.249 -0.4022  0.2109  0.6189
 2194SOL    HW118218   3.599   2.156   0.174  0.4025  1.7369  0.2637
 2194SOL    HW218219   3.612   2.074   0.298  0.6412 -1.3488 -0.6381
 2195SOL     OW18220   1.763   3.511   5.677  0.3196  0.1998  0.6232
 2195SOL    HW118221   1.692   3.484   5.735 -0.1700  0.2351  0.0409
 2195SOL    HW218222   1.838   3.468   5.717  1.2674 -0.3618 -1.7944
 2196SOL     OW18223   0.115   1.776  11.566  0.1161 -0.1310  0.9979
 2196SOL    HW118224   0.199   1.764  11.611  0.7088  1.5690  0.3500
 2196SOL    HW218225   0.101   1.684  11.541  0.2131  0.2321 -0.3957
 2197SOL     OW18226   0.684   3.958   3.662  0.1109  0.0188 -0.1998
 2197SOL    HW118227   0.719   3.897   3.727 -0.8999 -1.0960 -0.6889
 2197SOL    HW218228   0.638   3.886   3.619 -0.9973  0.6240 -0.0321
 2198SOL     OW18229   0.476   4.557   3.586 -0.0341 -0.1879 -0.3520
 2198SOL    HW118230   0.474   4.466   3.557  1.3855  0.1240 -1.4552
 2198SOL    HW218231   0.456   4.601   3.504 -0.4936 -0.5113 -0.4111
 2199SOL     OW18232   1.597   4.649  12.957 -0.0880  0.2463  0.3485
 2199SOL    HW118233   1.511   4.660  12.917 -0.3793 -1.7140  0.4719
 2199SOL    HW218234   1.580   4.608  13.041 -2.1739  0.9664  0.2874
 2200SOL     OW18235   2.783   0.830   9.354  1.0995 -0.1355 -0.6669
 2200SOL    HW118236   2.720   0.762   9.379  0.6388  0.4176 -0.3248
 2200SOL    HW218237   2.842   0.821   9.429 -0.5387 -0.9789  0.5050
 2201SOL     OW18238   3.627   3.408  14.828  0.1786  0.3397 -0.0137
 2201SOL    HW118239   3.564   3.455  14.882 -0.5784 -1.4866  0.6956
 2201SOL    HW218240   3.578   3.387  14.748 -0.4382 -0.7008  0.6442
 2202SOL     OW18241   3.285   1.111   5.783 -0.0176 -0.0945 -0.3368
 2202SOL    HW118242   3.220   1.145   5.722 -0.8295  0.6551  0.9570
 2202SOL    HW218243   3.269   1.165   5.861  0.3337  1.2392 -1.1972
 2203SOL     OW18244   4.422   2.835   8.392  0.2129 -0.0465  0.6307
 2203SOL    HW118245   4.434   2.746   8.360  2.0184 -0.1103  1.5086
 2203SOL    HW218246   4.476   2.843   8.470  0.8892 -1.5114  0.2959
 2204SOL     OW18247   1.889   1.568   3.401  0.4388  0.0581 -0.7110
 2204SOL    HW118248   1.955   1.634   3.383  1.5123  0.0325  3.0674
 2204SOL    HW218249   1.822   1.605   3.459  1.0952  0.1654 -0.0200
 2205SOL     OW18250   3.623   4.070   9.443  0.3290  0.4429 -1.0646
 2205SOL    HW118251   3.612   4.155   9.485  3.1300  0.3531 -0.1371
 2205SOL    HW218252   3.550   4.066   9.382 -0.5512  0.1570 -0.0003
 2206SOL     OW18253   2.669   0.864  13.312 -0.4495 -0.5971 -0.0401
 2206SOL    HW118254   2.684   0.906  13.396  0.5432  0.6731 -0.8492
 2206SOL    HW218255   2.704   0.923  13.245  1.8002 -0.2326  1.4572
 2207SOL     OW18256   0.425   3.962   4.157 -0.4872 -0.5735 -0.1611
 2207SOL    HW118257   0.397   3.882   4.113  1.0667 -0.9691 -0.4472
 2207SOL    HW218258   0.509   3.971   4.111  1.3137  1.8294  3.6258
 2208SOL     OW18259   2.142   3.795  16.717 -0.2974 -0.5745  0.4535
 2208SOL    HW118260   2.237   3.799  16.734  0.0519 -1.2350 -1.3142
 2208SOL    HW218261   2.106   3.813  16.804 -0.7892  1.9360 -0.2869
 2209SOL     OW18262   0.236   4.217  15.379  0.2504 -0.2453  0.0635
 2209SOL    HW118263   0.166   4.156  15.400 -0.5426  0.9370  0.8673
 2209SOL    HW218264   0.202   4.247  15.294  0.7308 -0.3270 -0.1526
 2210SOL     OW18265   0.795   2.872   5.171 -0.2634 -0.1637 -0.5607
 2210SOL    HW118266   0.825   2.960   5.148 -3.1838  0.8526 -0.4400
 2210SOL    HW218267   0.838   2.819   5.104  2.6119 -0.3338  1.4282
 2211SOL     OW18268   2.505   0.963   6.505  0.1824 -0.3696  0.2421
 2211SOL    HW118269   2.561   0.990   6.433  0.9562  0.4403  1.1478
 2211SOL    HW218270   2.424   0.969   6.454  0.2731 -1.1264  0.0094
 2212SOL     OW18271   1.297   4.592   3.284  0.4144 -0.2550 -0.1039
 2212SOL    HW118272   1.363   4.626   3.223  1.3215 -2.8258 -0.5528
 2212SOL    HW218273   1.324   4.646   3.357 -1.4093  0.5793 -0.0502
 2213SOL     OW18274   0.661   2.999   9.826 -0.2454 -0.2769 -0.1127
 2213SOL    HW118275   0.737   2.999   9.884  0.8482 -0.0019 -1.5502
 2213SOL    HW218276   0.605   2.930   9.861  1.5762 -1.9184 -0.4447
 2214SOL     OW18277   2.460   3.141   3.694  0.3729  0.3242 -0.5039
 2214SOL    HW118278   2.520   3.148   3.769  0.6479 -2.3150 -0.4828
 2214SOL    HW218279   2.444   3.047   3.686 -1.1618  0.5412  0.1405
 2215SOL     OW18280   2.668   0.676   6.411  0.5282  0.7691 -0.3874
 2215SOL    HW118281   2.711   0.637   6.336 -0.4297 -1.8380  0.4228
 2215SOL    HW218282   2.710   0.761   6.418 -2.8130  2.4102  0.0044
 2216SOL     OW18283   4.596   0.408   7.212  0.0028 -0.1311  0.0067
 2216SOL    HW118284   4.553   0.484   7.175  1.0242 -0.9717 -2.9162
 2216SOL    HW218285   4.629   0.455   7.289 -0.6120 -0.5326  0.5215
 2217SOL     OW18286   3.159   3.858   7.724  0.0394 -0.1003 -0.6226
 2217SOL    HW118287   3.109   3.925   7.677  0.6342 -0.4275 -1.7203
 2217SOL    HW218288   3.244   3.874   7.683 -0.5867  0.9787 -1.4972
 2218SOL     OW18289   2.580   1.178   8.447  0.2791  0.0013  0.5761
 2218SOL    HW118290   2.591   1.084   8.462 -1.0128 -0.3832 -0.7929
 2218SOL    HW218291   2.514   1.192   8.515  0.0414 -0.4400  0.4410
 2219SOL     OW18292   2.671   2.705   5.796 -0.3863  0.1576  0.8484
 2219SOL    HW118293   2.631   2.618   5.798  0.9695 -0.4662  0.5224
 2219SOL    HW218294   2.738   2.694   5.730  0.3461 -0.1477  1.6417
 2220SOL     OW18295   2.693   3.621   2.851  0.0871 -0.0203  0.7422
 2220SOL    HW118296   2.667   3.541   2.805 -0.4585  1.1969 -1.0532
 2220SOL    HW218297   2.741   3.673   2.786 -0.8580 -0.4472 -0.2930
 2221SOL     OW18298   2.762   1.520   4.327 -0.4447  0.5719 -0.7264
 2221SOL    HW118299   2.836   1.580   4.326 -0.1537  0.2112 -0.9677
 2221SOL    HW218300   2.778   1.468   4.406 -1.7167  0.0670 -0.8032
 2222SOL     OW18301   4.016   3.301   7.435  0.2333  0.0525  0.5875
 2222SOL    HW118302   3.951   3.232   7.422 -0.5364  0.4340  2.3574
 2222SOL    HW218303   4.091   3.276   7.382  0.8976  4.6906 -0.6427
 2223SOL     OW18304   1.445   2.688   4.021 -0.2436 -0.2913 -0.0819
 2223SOL    HW118305   1.515   2.623   4.032 -2.2569 -2.1921  1.4925
 2223SOL    HW218306   1.466   2.725   3.936 -2.0611  2.5867  0.7481
 2224SOL     OW18307   1.740   3.628   7.009 -0.2859 -0.0997  0.1091
 2224SOL    HW118308   1.735   3.718   7.040  0.3949  0.1658 -0.5493
 2224SOL    HW218309   1.648   3.606   7.024  0.3661 -2.1940  1.0981
 2225SOL     OW18310   3.839   2.443   6.427  0.0750 -0.1401 -0.4395
 2225SOL    HW118311   3.749   2.410   6.435  0.0842 -0.4542 -1.7605
 2225SOL    HW218312   3.826   2.495   6.348  0.0957  0.1618 -0.2471
 2226SOL     OW18313   4.695   1.079  16.287 -0.1239  0.1766  0.0153
 2226SOL    HW118314   4.626   1.142  16.307 -0.6238 -1.3746  3.1884
 2226SOL    HW218315   0.035   1.137  16.272 -0.5873  0.8166  0.1729
 2227SOL     OW18316   1.435   0.148   5.434 -0.2171 -0.6198 -0.1960
 2227SOL    HW118317   1.341   0.144   5.448 -0.2683 -1.0398 -0.6562
 2227SOL    HW218318   1.465   0.163   5.524  1.2234  2.2604 -1.1719
 2228SOL     OW18319   3.522   1.731   1.135 -0.0754 -0.0511 -0.1938
 2228SOL    HW118320   3.467   1.654   1.119  2.4047 -1.8709 -0.0398
 2228SOL    HW218321   3.487   1.782   1.062  1.2500  0.1146 -0.7122
 2229SOL     OW18322   2.035   3.163   2.964  0.0821 -0.1699  0.0942
 2229SOL    HW118323   2.010   3.189   3.053  0.1103  0.7769 -0.1733
 2229SOL    HW218324   2.001   3.074   2.955 -0.3366  0.1777 -1.7211
 2230SOL     OW18325   3.603   2.691  10.839  0.2460  0.5815 -0.6000
 2230SOL    HW118326   3.572   2.613  10.885  0.5594 -0.5731 -2.3339
 2230SOL    HW218327   3.610   2.764  10.902  1.0936  0.0333 -0.0586
 2231SOL     OW18328   3.338   2.525   0.187 -0.3683 -0.1237  0.1420
 2231SOL    HW118329   3.390   2.582   0.243  0.1781 -2.8920  2.4631
 2231SOL    HW218330   3.409   2.475   0.146  0.2751  2.1304 -1.5045
 2232SOL     OW18331   0.451   4.199   5.205  0.2548 -0.5542  0.1364
 2232SOL    HW118332   0.396   4.233   5.276 -0.6046  0.9506 -1.2199
 2232SOL    HW218333   0.407   4.243   5.132 -1.4331 -0.4783  1.1990
 2233SOL     OW18334   2.796   1.448   5.622  0.4908 -0.2912  0.7340
 2233SOL    HW118335   2.767   1.357   5.616  1.2588 -0.4724 -0.2176
 2233SOL    HW218336   2.865   1.438   5.688  0.9194  1.1878  0.5113
 2234SOL     OW18337   1.683   2.295  11.083 -0.3882  0.8143 -0.3183
 2234SOL    HW118338   1.699   2.361  11.151  1.5645 -1.1242  1.0941
 2234SOL    HW218339   1.725   2.215  11.114  2.3648  2.5711  0.4845
 2235SOL     OW18340   4.715   0.841   1.792  0.2213 -0.0717 -0.0438
 2235SOL    HW118341   4.683   0.785   1.862 -1.2228 -0.2507 -0.8438
 2235SOL    HW218342   0.041   0.895   1.841  2.8884 -2.6949 -0.4594
 2236SOL     OW18343   3.110   0.640   8.105  0.0012  0.3911 -0.3080
 2236SOL    HW118344   3.088   0.548   8.120 -3.9284  1.4806  0.5950
 2236SOL    HW218345   3.019   0.670   8.108 -0.4799 -0.8413 -2.0282
 2237SOL     OW18346   4.356   3.630   6.103 -0.0817 -0.9785  0.1843
 2237SOL    HW118347   4.400   3.642   6.018 -1.3266  2.0271 -0.0609
 2237SOL    HW218348   4.403   3.564   6.153  0.6230 -1.1834 -0.7375
 2238SOL     OW18349   3.430   0.307   0.893  0.5481 -0.1514  0.6765
 2238SOL    HW118350   3.498   0.261   0.942  0.5785  1.0615  1.7933
 2238SOL    HW218351   3.492   0.359   0.841  0.3446  0.1049  0.6919
 2239SOL     OW18352   1.839   1.333   3.634  0.2436 -0.0583 -0.0884
 2239SOL    HW118353   1.932   1.353   3.628  0.4406 -0.1238  2.7924
 2239SOL    HW218354   1.811   1.362   3.547  1.2997  3.4439  0.7159
 2240SOL     OW18355   4.577   3.830  10.236 -0.2638  0.4048  0.0883
 2240SOL    HW118356   4.635   3.819  10.311 -1.5053 -0.8109  0.8847
 2240SOL    HW218357   4.636   3.788  10.174 -0.9501 -0.0997 -0.2172
 2241SOL     OW18358   2.917   1.372   3.660  0.0384  0.0799  0.0289
 2241SOL    HW118359   2.994   1.318   3.678  1.5385  1.6306 -1.6569
 2241SOL    HW218360   2.843   1.313   3.671 -0.7240  0.8808 -0.8751
 2242SOL     OW18361   2.973   1.097  14.207 -0.5231 -0.3950 -0.2352
 2242SOL    HW118362   3.038   1.031  14.181  0.5903 -0.0133  1.6051
 2242SOL    HW218363   3.007   1.119  14.293  1.5929 -0.3559 -1.0548
 2243SOL     OW18364   4.110   3.625   1.684  0.3256 -0.1318  0.0838
 2243SOL    HW118365   4.117   3.600   1.592 -0.6898 -2.2014  0.5620
 2243SOL    HW218366   4.020   3.604   1.710  0.1350 -0.1487 -0.5692
 2244SOL     OW18367   1.409   2.407   2.224  0.3954 -0.1245 -0.3126
 2244SOL    HW118368   1.340   2.394   2.289  0.7755  3.7644  0.8206
 2244SOL    HW218369   1.454   2.476   2.272 -1.2014 -0.2829  1.4123
 2245SOL     OW18370   3.211   4.643   8.344 -0.4409  0.1331 -1.0950
 2245SOL    HW118371   3.263   4.619   8.268  0.6841  2.8783 -1.1947
 2245SOL    HW218372   3.123   4.663   8.313 -1.0762 -0.2311  0.4585
 2246SOL     OW18373   3.783   1.124   2.113 -0.7669 -0.0175  0.2615
 2246SOL    HW118374   3.715   1.078   2.161 -0.3798  1.4693  2.2194
 2246SOL    HW218375   3.729   1.202   2.101  2.0200  1.6704 -1.6089
 2247SOL     OW18376   0.608   3.170   8.553  0.1263 -0.1843  0.7752
 2247SOL    HW118377   0.518   3.195   8.531  0.7718  1.5487  0.1507
 2247SOL    HW218378   0.599   3.160   8.648  0.4168  1.1344  0.9353
 2248SOL     OW18379   0.849   2.034   7.846  0.1369 -0.5060  0.2688
 2248SOL    HW118380   0.896   1.969   7.897 -0.6879  1.3584  3.3750
 2248SOL    HW218381   0.766   2.051   7.891  0.1624 -0.2290  0.2114
 2249SOL     OW18382   2.858   4.361  15.842  0.1633  0.3577 -0.3490
 2249SOL    HW118383   2.828   4.404  15.762  1.3382  3.3799  0.8343
 2249SOL    HW218384   2.779   4.360  15.895  1.1115 -0.8371  1.0460
 2250SOL     OW18385   4.291   1.113  16.270  0.4234 -0.1018  0.1223
 2250SOL    HW118386   4.267   1.140  16.359  3.8239  2.3969  0.2863
 2250SOL    HW218387   4.232   1.037  16.270 -1.5506  1.4331 -1.4924
 2251SOL     OW18388   1.973   1.329   5.038  0.2879  0.1652  0.1784
 2251SOL    HW118389   1.926   1.289   4.965 -0.8761  2.3321 -0.2707
 2251SOL    HW218390   2.008   1.248   5.075 -1.0212 -0.0702  0.8968
 2252SOL     OW18391   2.394   0.679  13.799 -0.0745 -0.2500 -0.0553
 2252SOL    HW118392   2.431   0.757  13.756 -4.6745  2.0651  0.1683
 2252SOL    HW218393   2.394   0.711  13.889 -0.9822  0.6316 -0.3678
 2253SOL     OW18394   0.004   3.202   4.468  0.6378  0.0297  0.0517
 2253SOL    HW118395   0.021   3.237   4.555 -0.1015 -0.0598  0.2256
 2253SOL    HW218396   0.006   3.109   4.487  1.8392 -0.4125 -2.1671
 2254SOL     OW18397   2.558   3.024   3.405 -0.8291 -0.4855 -0.1012
 2254SOL    HW118398   2.560   3.119   3.415  1.3376 -0.4450 -0.9629
 2254SOL    HW218399   2.645   3.001   3.374 -1.0495 -0.9998 -0.3364
 2255SOL     OW18400   4.304   0.830  12.449 -0.4274  0.3512  0.0039
 2255SOL    HW118401   4.374   0.809  12.510 -1.2537  0.0829  0.8550
 2255SOL    HW218402   4.268   0.741  12.451  1.9956 -0.5848  0.9752
 2256SOL     OW18403   3.210   0.564  14.878  0.3061 -0.3176 -0.7203
 2256SOL    HW118404   3.260   0.593  14.955  0.8342 -1.8915 -0.4836
 2256SOL    HW218405   3.122   0.577  14.913  1.6945  1.7021  2.1100
 2257SOL     OW18406   3.482   1.679   1.572  0.8558 -0.2855 -0.0502
 2257SOL    HW118407   3.389   1.678   1.549  0.8245 -0.9899  0.1192
 2257SOL    HW218408   3.507   1.587   1.565 -1.5230 -0.8622 -0.9816
 2258SOL     OW18409   0.277   0.862   8.074 -0.1552  0.3080  0.3273
 2258SOL    HW118410   0.251   0.796   8.010  0.5637 -0.5769  0.9413
 2258SOL    HW218411   0.373   0.862   8.066 -0.3228 -0.0242 -1.6816
 2259SOL     OW18412   0.979   3.221   8.424  0.0435 -0.3668  0.4814
 2259SOL    HW118413   0.900   3.249   8.378  0.6817  2.0434  0.8854
 2259SOL    HW218414   0.944   3.223   8.513  2.8423  2.7286  1.5410
 2260SOL     OW18415   3.137   0.265  14.708  0.5217 -0.1906  0.0333
 2260SOL    HW118416   3.071   0.261  14.639  0.9551  0.2329 -0.3985
 2260SOL    HW218417   3.165   0.356  14.720 -1.2442  0.0040  2.7104
 2261SOL     OW18418   3.572   0.516   7.940  0.0174  0.0675  0.0216
 2261SOL    HW118419   3.632   0.447   7.909 -1.0600  0.1150 -2.1867
 2261SOL    HW218420   3.625   0.594   7.925 -0.2848  0.3305  0.3548
 2262SOL     OW18421   2.244   2.589  14.905 -0.4719  0.4151  0.3619
 2262SOL    HW118422   2.253   2.501  14.868 -2.6142  0.0069  0.8364
 2262SOL    HW218423   2.156   2.587  14.942 -0.2447 -0.6196  0.8373
 2263SOL     OW18424   3.665   0.907   1.815 -0.3751 -0.4560  0.1185
 2263SOL    HW118425   3.740   0.939   1.865 -0.9219  1.4737 -0.3006
 2263SOL    HW218426   3.674   0.813   1.800 -0.7197 -0.4132 -0.3420
 2264SOL     OW18427   3.997   2.579  16.737  0.0136  0.2867 -0.5133
 2264SOL    HW118428   4.086   2.609  16.714 -0.4794  2.4364  0.3783
 2264SOL    HW218429   3.975   2.663  16.776  0.6406  0.7041 -1.0586
 2265SOL     OW18430   2.909   3.014  10.939  0.1878 -0.5602  0.2336
 2265SOL    HW118431   2.974   2.954  10.977  0.3636  0.0143  0.8380
 2265SOL    HW218432   2.906   3.073  11.014  2.0486 -2.5043  1.8300
 2266SOL     OW18433   0.580   3.493  15.690  0.6793  0.7659  0.2027
 2266SOL    HW118434   0.485   3.489  15.681  0.6584 -0.0924  0.7840
 2266SOL    HW218435   0.587   3.400  15.710 -1.7242  0.1298 -1.9114
 2267SOL     OW18436   3.440   0.385   4.321  0.5251 -0.0440 -0.4029
 2267SOL    HW118437   3.501   0.346   4.384  1.9342  1.2998 -0.9466
 2267SOL    HW218438   3.469   0.354   4.236 -0.4645 -1.9072 -0.0635
 2268SOL     OW18439   2.367   3.724   2.691 -0.0617 -0.0473  0.0630
 2268SOL    HW118440   2.351   3.754   2.602  4.5031  0.9187 -0.4547
 2268SOL    HW218441   2.341   3.634   2.675  1.8470 -0.6838  0.4958
 2269SOL     OW18442   3.802   2.142   1.239 -0.3168  0.0885 -0.3639
 2269SOL    HW118443   3.853   2.062   1.233  0.9926  0.8957  0.0668
 2269SOL    HW218444   3.817   2.183   1.154  0.0878 -2.2973 -1.4493
 2270SOL     OW18445   4.545   0.081   5.299 -0.4884 -0.2651 -0.6318
 2270SOL    HW118446   4.475   0.063   5.236 -0.5334 -0.8677 -0.4069
 2270SOL    HW218447   4.604   0.026   5.248  1.5186  3.4615 -2.3020
 2271SOL     OW18448   4.252   3.298  11.675  0.2196  0.4039 -0.0762
 2271SOL    HW118449   4.189   3.352  11.721  0.4003  2.7855 -2.6129
 2271SOL    HW218450   4.211   3.251  11.602  4.1458 -2.5256 -0.4413
 2272SOL     OW18451   1.948   1.398  16.977  0.4623  0.3719 -0.4848
 2272SOL    HW118452   1.948   1.431  16.888  2.0387  1.4803 -0.0738
 2272SOL    HW218453   2.040   1.396  17.006  0.1315 -2.0608  0.3914
 2273SOL     OW18454   3.424   4.341   0.331 -0.5495  0.2736 -0.5508
 2273SOL    HW118455   3.494   4.277   0.342  0.5271  1.4686 -0.5077
 2273SOL    HW218456   3.391   4.342   0.421 -0.6024  1.7308 -0.6001
 2274SOL     OW18457   0.367   1.032   5.009  0.3227 -0.8992  0.1567
 2274SOL    HW118458   0.324   0.963   5.059 -1.9329 -0.0623 -0.6306
 2274SOL    HW218459   0.306   1.028   4.936  0.4264  1.1818 -0.0450
 2275SOL     OW18460   4.150   0.759  14.129  0.0858 -0.1882 -0.0673
 2275SOL    HW118461   4.091   0.685  14.113  0.5409 -0.1235 -2.0852
 2275SOL    HW218462   4.188   0.782  14.044 -1.1129  0.6848 -0.3499
 2276SOL     OW18463   2.977   1.297   5.117  0.0506 -0.8669  0.3748
 2276SOL    HW118464   3.046   1.278   5.180  0.3905  0.3639  0.3683
 2276SOL    HW218465   2.933   1.213   5.107 -1.6274  0.0805 -0.3546
 2277SOL     OW18466   1.023   3.042   3.178  0.5575 -0.3955 -0.5327
 2277SOL    HW118467   1.069   3.025   3.095  3.2682  4.5193 -0.0303
 2277SOL    HW218468   1.062   2.986   3.245 -1.1869  0.0683  0.8501
 2278SOL     OW18469   2.496   0.435   9.549  0.3027 -0.0377  0.3190
 2278SOL    HW118470   2.546   0.432   9.631 -0.4294  2.2633  0.8421
 2278SOL    HW218471   2.439   0.359   9.553  0.8836 -0.6293 -2.3118
 2279SOL     OW18472   1.083   1.007   2.655 -0.1199  0.3816  0.6730
 2279SOL    HW118473   1.174   1.032   2.637 -0.2954  0.7452  0.2947
 2279SOL    HW218474   1.060   0.947   2.583  1.9137 -0.5415  0.7690
 2280SOL     OW18475   0.354   3.163   8.413  0.4713 -0.0251 -0.0030
 2280SOL    HW118476   0.405   3.152   8.332 -0.6423  0.8512 -0.8238
 2280SOL    HW218477   0.308   3.241   8.381  1.2150 -0.1463 -1.3774
 2281SOL     OW18478   4.188   2.903   0.796  0.0874  0.9731  0.3943
 2281SOL    HW118479   4.271   2.891   0.843  0.9939  2.2822 -0.8738
 2281SOL    HW218480   4.129   2.932   0.866 -0.4945 -3.0062  1.5307
 2282SOL     OW18481   3.960   1.253   2.527  0.0576 -0.1253  0.0267
 2282SOL    HW118482   4.019   1.325   2.507  0.1506  0.4678  2.3793
 2282SOL    HW218483   3.976   1.198   2.450  1.0306  1.0463 -0.6058
 2283SOL     OW18484   0.686   3.876   2.146  0.1459  0.1835  0.1314
 2283SOL    HW118485   0.668   3.835   2.062  0.9865 -0.3469  0.2161
 2283SOL    HW218486   0.746   3.942   2.111 -0.2785  0.8549  0.6557
 2284SOL     OW18487   2.097   3.481   5.669 -0.4071 -0.0679  0.1313
 2284SOL    HW118488   2.137   3.434   5.596 -0.2959  1.3528 -0.7172
 2284SOL    HW218489   2.046   3.411   5.710  0.6253 -1.1181 -0.3768
 2285SOL     OW18490   0.261   3.888  14.800 -0.6919  0.2400 -0.2594
 2285SOL    HW118491   0.289   3.841  14.878  0.2772  0.7920 -0.2809
 2285SOL    HW218492   0.206   3.825  14.752 -0.7220  0.6089 -0.7036
 2286SOL     OW18493   1.235   3.889  11.197 -0.2991  0.2301 -0.7493
 2286SOL    HW118494   1.158   3.858  11.244 -0.0444 -0.9241 -1.0749
 2286SOL    HW218495   1.205   3.928  11.115 -0.6195  0.8053 -0.3483
 2287SOL     OW18496   1.116   3.099   8.203  0.6714  0.2422 -0.3297
 2287SOL    HW118497   1.168   3.168   8.161  2.0426 -1.7971 -2.0164
 2287SOL    HW218498   1.070   3.152   8.268 -1.1349 -2.5290  0.6620
 2288SOL     OW18499   3.777   3.903   2.313 -0.1467  0.2936  0.0048
 2288SOL    HW118500   3.754   3.941   2.398 -3.9176  1.1300 -1.3885
 2288SOL    HW218501   3.850   3.963   2.299  0.3076 -0.0974  0.6776
 2289SOL     OW18502   2.828   1.804  17.073  0.3923 -0.4873 -0.3522
 2289SOL    HW118503   2.774   1.833  17.147  2.1723  0.9684  0.3643
 2289SOL    HW218504   2.911   1.801  17.121  0.8675  2.0360 -0.9772
 2290SOL     OW18505   2.130   0.546   9.128 -0.0941  0.1245 -0.1876
 2290SOL    HW118506   2.041   0.580   9.136  0.2700  1.2521 -0.8414
 2290SOL    HW218507   2.176   0.613   9.179  1.7060 -1.8294  0.7499
 2291SOL     OW18508   1.224   4.706   8.377  0.1661 -0.3441  0.3561
 2291SOL    HW118509   1.255   4.713   8.287  1.9185  1.3177  1.0650
 2291SOL    HW218510   1.209   0.062   8.403 -0.8572 -0.7639  1.2343
 2292SOL     OW18511   1.575   1.597   3.122 -0.1516 -0.0758  0.4966
 2292SOL    HW118512   1.669   1.576   3.121 -0.6938 -2.4767 -0.6581
 2292SOL    HW218513   1.566   1.653   3.045  1.2524 -1.7141 -0.8670
 2293SOL     OW18514   1.950   0.802   6.436 -0.4855 -0.1399 -0.3862
 2293SOL    HW118515   1.925   0.818   6.527  0.4284  1.0265 -0.3451
 2293SOL    HW218516   1.967   0.892   6.408  1.3541 -0.6383 -0.8484
 2294SOL     OW18517   2.404   2.459   0.211 -0.1096 -0.3914 -0.0329
 2294SOL    HW118518   2.446   2.494   0.133 -2.4372  2.2800 -0.0743
 2294SOL    HW218519   2.470   2.474   0.278 -1.6536 -1.1924  1.6832
 2295SOL     OW18520   3.847   4.158   7.593 -0.5515  0.2361 -0.4007
 2295SOL    HW118521   3.859   4.211   7.514  2.6736 -2.5018 -1.7700
 2295SOL    HW218522   3.861   4.220   7.664 -0.2137 -0.8494  0.4824
 2296SOL     OW18523   0.267   2.590   4.110 -0.1306  0.2223 -0.3575
 2296SOL    HW118524   0.288   2.667   4.057 -3.0809  0.0271 -1.8493
 2296SOL    HW218525   0.357   2.568   4.132  0.3206  0.4282 -1.9932
 2297SOL     OW18526   4.181   2.215   4.751 -0.2230 -0.0674  0.2566
 2297SOL    HW118527   4.091   2.182   4.752 -0.8025  1.4749 -0.8359
 2297SOL    HW218528   4.181   2.284   4.685  0.1421 -1.0450 -0.7606
 2298SOL     OW18529   0.607   1.365  17.682  0.1054 -0.2294  0.4695
 2298SOL    HW118530   0.623   1.274  17.708 -0.4094 -0.2877  0.5716
 2298SOL    HW218531   0.603   1.348  17.587  0.4354  0.7292  0.2881
 2299SOL     OW18532   3.703   1.754   7.956  0.2713  0.0274  0.3524
 2299SOL    HW118533   3.665   1.682   8.007 -0.1238 -0.2537 -0.3396
 2299SOL    HW218534   3.748   1.808   8.022  0.7883  0.1744 -0.1251
 2300SOL     OW18535   1.370   1.846   4.834  0.1306  0.0607  0.5860
 2300SOL    HW118536   1.360   1.782   4.764 -0.8646 -0.9492  1.6434
 2300SOL    HW218537   1.466   1.853   4.836  0.0206  1.4787  0.8294
 2301SOL     OW18538   0.711   1.300   1.893 -0.0620 -0.2418 -0.7785
 2301SOL    HW118539   0.775   1.361   1.855  0.0083 -1.1563 -2.0960
 2301SOL    HW218540   0.764   1.234   1.938  0.5217  1.4610  1.0790
 2302SOL     OW18541   1.789   2.325   7.491 -0.1631  0.9962  0.1304
 2302SOL    HW118542   1.874   2.340   7.531  0.1863  2.5192 -1.2047
 2302SOL    HW218543   1.736   2.390   7.537 -2.3113  0.2285 -1.2578
 2303SOL     OW18544   2.824   2.690   9.534  0.6566  0.4077  0.1404
 2303SOL    HW118545   2.827   2.642   9.451  1.9916 -0.1340  0.5065
 2303SOL    HW218546   2.909   2.672   9.575  0.1467  0.7607  1.3496
 2304SOL     OW18547   1.388   0.243   6.773  0.2670  0.3114 -0.1650
 2304SOL    HW118548   1.460   0.203   6.822  0.0667 -2.6510 -2.3369
 2304SOL    HW218549   1.440   0.270   6.698 -2.3404  1.3269 -1.6127
 2305SOL     OW18550   3.307   1.157   0.983  0.7673  0.5481  0.5240
 2305SOL    HW118551   3.324   1.098   1.056  1.7932 -1.5326 -1.4246
 2305SOL    HW218552   3.255   1.226   1.025  0.1443  0.1458  0.4111
 2306SOL     OW18553   2.069   0.737   1.464 -0.4488 -0.3055  0.7112
 2306SOL    HW118554   2.154   0.693   1.471  2.1119  4.5921  0.1412
 2306SOL    HW218555   2.084   0.830   1.480  1.2667 -0.4073 -0.2768
 2307SOL     OW18556   3.046   3.950   7.366  0.5572  0.0584 -0.0409
 2307SOL    HW118557   3.069   3.860   7.388 -2.1745 -0.9649 -1.3582
 2307SOL    HW218558   3.014   3.930   7.278 -0.8709 -2.7249  1.1109
 2308SOL     OW18559   0.015   2.424   3.146  0.0010  0.4790 -0.2172
 2308SOL    HW118560   4.663   2.390   3.168 -0.6293  0.7313 -2.3658
 2308SOL    HW218561   0.077   2.378   3.202 -2.3459 -0.0033  1.9905
 2309SOL     OW18562   0.406   0.697   3.633 -0.1814 -0.3300  0.1123
 2309SOL    HW118563   0.410   0.630   3.702  2.4648 -0.7412 -0.4393
 2309SOL    HW218564   0.459   0.767   3.671 -0.2665 -0.7719  1.0572
 2310SOL     OW18565   2.147   1.192  15.039  0.0888  0.3873 -0.1905
 2310SOL    HW118566   2.112   1.165  14.954  0.5339  2.2946 -0.9798
 2310SOL    HW218567   2.061   1.189  15.081  1.5384  3.7356  2.9094
 2311SOL     OW18568   1.027   1.054   8.880 -0.0502 -0.1177  0.0945
 2311SOL    HW118569   1.015   1.130   8.938  1.4190  1.7450 -2.0835
 2311SOL    HW218570   1.116   1.051   8.845  0.0419 -1.3765  0.4333
 2312SOL     OW18571   0.192   2.125   4.738  0.3733 -0.4288 -0.4768
 2312SOL    HW118572   0.251   2.078   4.797  1.7103  0.1880 -1.3042
 2312SOL    HW218573   0.247   2.174   4.677 -1.9357  1.0178 -1.3699
 2313SOL     OW18574   0.078   1.148   3.124  0.5983 -0.7474  0.1702
 2313SOL    HW118575   0.075   1.112   3.036 -0.0077  0.2160 -0.2082
 2313SOL    HW218576   0.131   1.081   3.167 -1.5502 -2.2455  0.4972
 2314SOL     OW18577   1.956   1.915   6.189  0.0264  0.4939 -0.3983
 2314SOL    HW118578   2.011   1.952   6.120  0.9265 -1.3951 -0.6896
 2314SOL    HW218579   2.017   1.919   6.263 -0.0637  3.9967 -0.5045
 2315SOL     OW18580   1.815   3.000   9.549  0.0838 -0.3631  0.2228
 2315SOL    HW118581   1.847   3.047   9.626 -2.2476  2.0997 -0.3080
 2315SOL    HW218582   1.753   2.937   9.587  0.6975 -0.6926  0.6836
 2316SOL     OW18583   3.751   3.028   4.868  0.5590 -0.0861 -0.1161
 2316SOL    HW118584   3.791   3.027   4.955 -1.2699 -0.1423  0.7212
 2316SOL    HW218585   3.683   2.961   4.876  0.2333  0.3002  0.4405
 2317SOL     OW18586   4.662   2.949   1.601  0.0604  0.0676 -0.3559
 2317SOL    HW118587   4.618   2.867   1.579 -1.3339  1.5613 -3.1788
 2317SOL    HW218588   4.617   2.960   1.684  2.7347 -0.4146  1.1509
 2318SOL     OW18589   0.984   2.270  10.484 -0.2144  0.0025  0.0831
 2318SOL    HW118590   0.905   2.294  10.531 -1.6976 -0.9032 -1.9350
 2318SOL    HW218591   1.048   2.340  10.499 -1.5299  1.2585 -0.1847
 2319SOL     OW18592   0.834   1.743   2.569  0.4542 -0.1591  0.3574
 2319SOL    HW118593   0.827   1.659   2.616  4.8923 -0.8223 -0.2037
 2319SOL    HW218594   0.748   1.780   2.586  0.3411 -0.5399  0.6271
 2320SOL     OW18595   1.644   3.719   1.624 -0.0400  0.0667  0.0955
 2320SOL    HW118596   1.554   3.703   1.652  0.2258 -3.3845 -0.9994
 2320SOL    HW218597   1.610   3.749   1.539 -0.0407  0.8109  0.3594
 2321SOL     OW18598   4.670   2.217   7.810  0.1536 -0.2228  0.4115
 2321SOL    HW118599   4.698   2.128   7.832  0.0693 -0.1231  0.9339
 2321SOL    HW218600   4.576   2.208   7.793 -0.0676  1.1810  0.9091
 2322SOL     OW18601   1.308   2.716   0.908 -0.0244 -0.1995 -0.6340
 2322SOL    HW118602   1.350   2.693   0.991  1.3233 -4.2386 -2.4171
 2322SOL    HW218603   1.220   2.680   0.906  1.0536 -2.7431 -2.0094
 2323SOL     OW18604   2.006   4.411  17.702  0.1113 -0.4786 -0.3282
 2323SOL    HW118605   1.977   4.320  17.713  0.9318 -0.6467  0.4169
 2323SOL    HW218606   1.918   4.444  17.683 -0.1388 -2.1824 -2.1735
 2324SOL     OW18607   1.754   1.716   2.553  0.0636 -0.2467 -0.4466
 2324SOL    HW118608   1.805   1.789   2.587 -2.0552  2.1950 -2.4871
 2324SOL    HW218609   1.675   1.768   2.538 -1.7329 -3.1899 -1.0076
 2325SOL     OW18610   4.250   3.238   4.078 -0.2143  0.1267 -0.4816
 2325SOL    HW118611   4.225   3.151   4.047  0.7469 -0.8479  1.4867
 2325SOL    HW218612   4.321   3.223   4.140 -0.4137 -2.4413 -0.8901
 2326SOL     OW18613   1.912   4.580   5.582 -0.7555  0.0051  0.0371
 2326SOL    HW118614   1.940   4.557   5.494 -0.0378  1.3234 -0.0830
 2326SOL    HW218615   1.979   4.540   5.638 -0.6882 -2.6405 -1.9716
 2327SOL     OW18616   3.449   2.257   7.223  0.1273  0.7462  0.5615
 2327SOL    HW118617   3.495   2.190   7.173 -0.5539 -0.9110  2.1661
 2327SOL    HW218618   3.360   2.252   7.187  0.1348  3.1255  0.1914
 2328SOL     OW18619   0.463   3.633   9.408 -0.5593 -0.5316 -0.0849
 2328SOL    HW118620   0.514   3.663   9.332 -1.6803  0.5174 -0.4257
 2328SOL    HW218621   0.528   3.635   9.477  0.2904  1.9094 -0.9722
 2329SOL     OW18622   2.636   2.749   9.208  0.7431  0.2412 -0.2748
 2329SOL    HW118623   2.559   2.779   9.257  2.7421  2.6324  1.3718
 2329SOL    HW218624   2.688   2.821   9.176  0.5860 -0.4451 -2.0629
 2330SOL     OW18625   1.277   0.471   1.344  0.2658  0.0501 -0.0977
 2330SOL    HW118626   1.265   0.475   1.249  0.3890  2.4847 -0.0213
 2330SOL    HW218627   1.364   0.434   1.349  0.2152 -0.0773 -0.1668
 2331SOL     OW18628   3.373   3.140  17.238 -0.2324  0.2439 -0.2180
 2331SOL    HW118629   3.363   3.214  17.178  1.1019  0.1798 -0.5203
 2331SOL    HW218630   3.394   3.185  17.320 -1.5728  1.0359 -0.3128
 2332SOL     OW18631   3.147   4.287   2.502  0.3825  0.1172  0.5495
 2332SOL    HW118632   3.115   4.197   2.504 -3.6071  1.5500  2.3951
 2332SOL    HW218633   3.065   4.337   2.507 -0.0094 -0.3016 -1.5001
 2333SOL     OW18634   1.013   2.454  13.108  0.1767  0.0090  0.2252
 2333SOL    HW118635   1.037   2.523  13.169  1.2647 -2.1405  2.2155
 2333SOL    HW218636   1.097   2.436  13.066 -0.8513 -2.3638 -0.8214
 2334SOL     OW18637   2.737   1.389   8.579 -1.0419 -0.3534 -0.8353
 2334SOL    HW118638   2.693   1.309   8.549 -1.4870 -0.1907 -0.6133
 2334SOL    HW218639   2.700   1.404   8.666 -2.0067  1.2781 -1.5258
 2335SOL     OW18640   1.944   0.604  12.038 -0.0413  0.2855  0.1143
 2335SOL    HW118641   2.008   0.585  12.106  1.9959  2.8292 -1.1195
 2335SOL    HW218642   2.004   0.604  11.964  1.1406  2.1636  1.0731
 2336SOL     OW18643   3.587   2.738  10.584  0.7445 -0.0190 -0.0874
 2336SOL    HW118644   3.647   2.812  10.590  0.9852 -0.3915  2.0532
 2336SOL    HW218645   3.565   2.714  10.674 -0.4779  1.3011 -0.0472
 2337SOL     OW18646   0.375   1.006   2.945  0.3704  0.5697  0.3436
 2337SOL    HW118647   0.310   1.013   3.016 -0.9260 -2.1080 -0.5824
 2337SOL    HW218648   0.359   0.917   2.913  1.5193  0.5667 -0.1998
 2338SOL     OW18649   1.324   0.740   5.913  0.7020 -0.6788  0.3852
 2338SOL    HW118650   1.285   0.668   5.962 -1.4085 -0.3941 -0.8513
 2338SOL    HW218651   1.368   0.781   5.987  0.0871  0.5713  0.0679
 2339SOL     OW18652   2.244   3.285   4.069  0.3641  0.1810 -0.0515
 2339SOL    HW118653   2.184   3.359   4.060 -1.1093 -0.9085  0.8205
 2339SOL    HW218654   2.327   3.323   4.041  0.1052  0.8916  0.1427
 2340SOL     OW18655   0.767   0.969   2.994  0.2610 -0.2125 -0.0443
 2340SOL    HW118656   0.862   0.964   2.996  0.3512  1.4457  0.0982
 2340SOL    HW218657   0.745   1.036   3.059  1.5681  0.9282 -0.7978
 2341SOL     OW18658   1.404   1.088   7.578  0.0939 -0.2447 -0.0718
 2341SOL    HW118659   1.437   1.059   7.493 -1.6379 -2.9406  0.1554
 2341SOL    HW218660   1.449   1.041   7.649 -1.6744 -0.4638  0.9132
 2342SOL     OW18661   0.884   0.729   6.276 -0.2097 -0.0269  0.2993
 2342SOL    HW118662   0.877   0.698   6.186  1.8143  0.7297 -0.1068
 2342SOL    HW218663   0.842   0.814   6.272 -1.9830 -0.8560  1.2001
 2343SOL     OW18664   3.929   2.177   1.848  0.6530 -0.0022 -0.1001
 2343SOL    HW118665   3.970   2.241   1.790  1.1664 -0.1118  0.1423
 2343SOL    HW218666   3.856   2.232   1.877  0.0114 -1.0324  0.2552
 2344SOL     OW18667   1.013   1.952   2.641 -0.2738  0.1305 -0.5280
 2344SOL    HW118668   1.087   1.923   2.694  0.2755  0.3287 -1.1841
 2344SOL    HW218669   0.975   1.868   2.618 -0.7647 -0.1661  1.3284
 2345SOL     OW18670   2.961   4.062   6.332 -0.0942  0.0166  0.0717
 2345SOL    HW118671   2.880   4.109   6.312  0.7530  1.0764 -0.8827
 2345SOL    HW218672   2.940   4.022   6.416  2.0172 -0.4318  0.3744
 2346SOL     OW18673   0.418   0.883   8.970 -0.5134  0.4909  0.3517
 2346SOL    HW118674   0.390   0.820   8.904 -0.3411  0.2889  0.4751
 2346SOL    HW218675   0.476   0.940   8.920  0.3700 -2.8091 -2.3264
 2347SOL     OW18676   3.707   1.188   2.572  0.2894 -0.4993  0.1336
 2347SOL    HW118677   3.657   1.224   2.498 -1.0063 -0.0203  1.2418
 2347SOL    HW218678   3.795   1.219   2.553 -0.5907  2.1736  0.3721
 2348SOL     OW18679   2.808   0.588   5.990 -1.0155  0.4044  0.0409
 2348SOL    HW118680   2.818   0.501   5.951 -0.2542  0.9309 -0.9193
 2348SOL    HW218681   2.776   0.558   6.076 -1.0151 -1.6452 -0.6639
 2349SOL     OW18682   0.221   1.024   4.760 -0.6138 -0.0316  0.1019
 2349SOL    HW118683   0.272   1.050   4.683  2.2828 -1.1716  1.6328
 2349SOL    HW218684   0.133   1.003   4.728 -1.8899  0.8371  3.1136
 2350SOL     OW18685   0.680   0.152   7.566 -0.0599 -0.1849  0.1177
 2350SOL    HW118686   0.704   0.136   7.657 -0.8404 -0.1482  0.3341
 2350SOL    HW218687   0.755   0.203   7.537  0.3180 -1.0905 -0.5147
 2351SOL     OW18688   1.938   0.872   3.186 -0.1096 -0.1130 -0.2246
 2351SOL    HW118689   1.959   0.824   3.106  1.2004  0.6359 -0.3378
 2351SOL    HW218690   1.903   0.802   3.241 -1.8667 -0.4143 -1.7206
 2352SOL     OW18691   2.406   1.342   4.589  0.0599  0.0492  0.7681
 2352SOL    HW118692   2.481   1.325   4.647 -1.1978 -3.2845  1.4443
 2352SOL    HW218693   2.351   1.264   4.595 -1.1547  1.0152  2.3080
 2353SOL     OW18694   4.194   1.176   1.911  0.6502 -0.0142 -0.0748
 2353SOL    HW118695   4.175   1.210   1.823  0.1879 -0.6193 -0.2118
 2353SOL    HW218696   4.245   1.102   1.879  3.0598  0.1807  3.4052
 2354SOL     OW18697   0.098   0.728  14.286 -0.4621  0.6830  0.2628
 2354SOL    HW118698   0.052   0.644  14.282 -1.0403  0.9413  1.4035
 2354SOL    HW218699   0.133   0.721  14.375 -1.0312  0.3408  0.4621
 2355SOL     OW18700   1.535   2.189  13.565 -0.5618  0.5656 -0.0002
 2355SOL    HW118701   1.482   2.136  13.624  1.0959 -1.0925 -0.0121
 2355SOL    HW218702   1.556   2.126  13.496  2.6631  1.2803  0.3190
 2356SOL     OW18703   0.640   4.160  15.074 -0.6763  0.1281  0.1919
 2356SOL    HW118704   0.546   4.172  15.091 -0.4947 -0.4795  1.6540
 2356SOL    HW218705   0.648   4.181  14.981 -0.0590 -2.1313 -0.2744
 2357SOL     OW18706   3.443   1.879   2.947  0.9858  0.1058  0.1018
 2357SOL    HW118707   3.352   1.848   2.947  1.0884 -0.2153 -1.9324
 2357SOL    HW218708   3.434   1.933   3.025 -0.2410  1.0886 -0.7167
 2358SOL     OW18709   2.616   0.208  12.249  0.6625  0.0718  0.3765
 2358SOL    HW118710   2.558   0.283  12.236  1.0820  0.2412 -0.4945
 2358SOL    HW218711   2.587   0.159  12.326  0.4671  0.1491  0.3511
 2359SOL     OW18712   3.866   2.393   2.065 -0.1153 -0.3152 -0.0233
 2359SOL    HW118713   3.804   2.363   1.999  0.0438  0.0776 -0.3420
 2359SOL    HW218714   3.886   2.308   2.105  0.5347  0.7204  1.8832
 2360SOL     OW18715   2.655   3.652   8.902 -0.0176 -0.5065 -0.1205
 2360SOL    HW118716   2.583   3.713   8.886  0.8101 -0.6375 -4.5096
 2360SOL    HW218717   2.632   3.595   8.975 -1.6790  2.4013  1.6106
 2361SOL     OW18718   3.555   1.782  11.750 -0.0560  0.0738 -0.1301
 2361SOL    HW118719   3.587   1.851  11.807 -1.1013 -0.2163  0.8169
 2361SOL    HW218720   3.486   1.744  11.806 -0.7971  0.5586 -0.7130
 2362SOL     OW18721   1.097   0.258  14.880 -0.1280  0.6733  0.1228
 2362SOL    HW118722   1.077   0.340  14.836 -0.6470  0.8104  0.6119
 2362SOL    HW218723   1.051   0.269  14.963  0.2728  0.0177  0.4355
 2363SOL     OW18724   2.290   3.119  10.160 -0.1571 -0.0511  0.0665
 2363SOL    HW118725   2.198   3.119  10.135 -0.8181  0.2774  2.4521
 2363SOL    HW218726   2.329   3.194  10.115  1.9011 -1.5892 -0.6991
 2364SOL     OW18727   0.585   4.424   8.251 -0.6380  0.0300  0.4693
 2364SOL    HW118728   0.505   4.385   8.217 -1.0997  2.4403 -1.2140
 2364SOL    HW218729   0.645   4.402   8.179 -1.9791  0.4236 -0.7570
 2365SOL     OW18730   3.338   0.052   5.064 -0.1594  0.1650 -0.3041
 2365SOL    HW118731   3.247   0.067   5.035 -0.3321  1.9542  1.1250
 2365SOL    HW218732   3.358   4.696   5.044 -0.8238  0.5591 -2.8634
 2366SOL     OW18733   1.635   2.490   4.045  0.1806 -0.6071  0.0034
 2366SOL    HW118734   1.637   2.403   4.005  0.9304 -0.3325 -0.5649
 2366SOL    HW218735   1.576   2.474   4.118  1.0430 -0.8785  0.6417
 2367SOL     OW18736   1.826   2.270   5.482 -0.6237 -0.5238  0.0782
 2367SOL    HW118737   1.920   2.290   5.485 -0.4281 -1.3219 -0.7455
 2367SOL    HW218738   1.829   2.177   5.503  0.1506 -0.9276 -1.8371
 2368SOL     OW18739   1.518   2.689   0.734  0.1212  0.1275 -0.3366
 2368SOL    HW118740   1.501   2.595   0.723  0.2504  0.1703 -0.8718
 2368SOL    HW218741   1.443   2.710   0.791 -0.5354 -3.1936  0.0661
 2369SOL     OW18742   0.929   3.903   7.265 -0.2786 -0.1153 -0.5495
 2369SOL    HW118743   0.874   3.841   7.314  0.6322  0.0703  0.7138
 2369SOL    HW218744   0.853   3.940   7.219 -0.5172  0.8470  0.6115
 2370SOL     OW18745   4.048   3.364   3.881 -0.2591 -0.5058  0.6696
 2370SOL    HW118746   4.095   3.286   3.908 -0.4579 -1.3384 -1.3758
 2370SOL    HW218747   4.101   3.387   3.805 -0.9785 -0.8335  0.0689
 2371SOL     OW18748   3.319   2.985   5.338 -0.4577 -0.1131 -0.2400
 2371SOL    HW118749   3.335   2.918   5.272 -2.9439  0.0773 -1.0795
 2371SOL    HW218750   3.259   3.050   5.300 -0.2422  1.0888  1.4893
 2372SOL     OW18751   0.996   0.568   6.469  0.8174 -0.2828  0.1106
 2372SOL    HW118752   0.907   0.546   6.496  0.7759 -1.6766 -1.1644
 2372SOL    HW218753   0.973   0.615   6.388  3.4723  1.0060  0.1026
 2373SOL     OW18754   3.233   1.209   7.300 -0.3525 -0.1790 -0.0301
 2373SOL    HW118755   3.259   1.254   7.381 -0.1921 -2.4705  1.1887
 2373SOL    HW218756   3.156   1.262   7.278 -1.8367 -2.5277 -0.4315
 2374SOL     OW18757   4.474   1.315  14.322 -0.3915  0.0627  0.3758
 2374SOL    HW118758   4.446   1.228  14.352  1.3563 -0.9265 -0.8108
 2374SOL    HW218759   4.570   1.319  14.330 -0.5533  2.4247  1.1032
 2375SOL     OW18760   0.773   1.799  11.735 -0.5139  0.0019 -0.5069
 2375SOL    HW118761   0.801   1.719  11.779 -1.3134  0.0330  0.0675
 2375SOL    HW218762   0.859   1.842  11.733 -0.9787  0.9819  0.7838
 2376SOL     OW18763   0.812   2.101   1.058 -0.5577 -0.3963 -0.2873
 2376SOL    HW118764   0.891   2.154   1.067  0.3838 -1.6785 -0.9584
 2376SOL    HW218765   0.745   2.165   1.037 -1.6203 -1.6029 -0.5987
 2377SOL     OW18766   0.349   1.790  15.324  0.7106  0.3980 -0.7715
 2377SOL    HW118767   0.365   1.736  15.401 -3.9574 -1.2756 -1.0024
 2377SOL    HW218768   0.264   1.827  15.348  0.8279  0.3174 -0.2365
 2378SOL     OW18769   2.157   2.174   7.793 -0.1297 -0.9619  0.2387
 2378SOL    HW118770   2.157   2.137   7.881 -0.9324  0.6178  0.8818
 2378SOL    HW218771   2.163   2.094   7.740 -0.2957 -0.1603 -0.9715
 2379SOL     OW18772   2.239   2.152  13.110  0.5606  0.7274 -0.2748
 2379SOL    HW118773   2.260   2.059  13.105  0.4538  0.6147  1.2481
 2379SOL    HW218774   2.202   2.170  13.197  0.5053  0.3300 -0.2174
 2380SOL     OW18775   4.690   2.502   4.638 -0.0570 -0.4598 -0.0523
 2380SOL    HW118776   0.048   2.484   4.649 -0.3541 -1.6991  0.4102
 2380SOL    HW218777   4.644   2.432   4.683  1.8644 -2.3855 -1.1178
 2381SOL     OW18778   3.864   3.510   6.622  0.2646 -0.1173 -0.1748
 2381SOL    HW118779   3.886   3.436   6.566 -1.0423  0.4604 -1.4648
 2381SOL    HW218780   3.815   3.564   6.560 -0.4803  1.8561  2.1238
 2382SOL     OW18781   0.382   2.538   7.827 -0.9860  1.4127 -0.1025
 2382SOL    HW118782   0.447   2.567   7.891 -0.2323  0.4363 -0.4322
 2382SOL    HW218783   0.297   2.541   7.873 -0.5085  0.4408  0.8609
 2383SOL     OW18784   1.036   1.924   6.247 -0.0511 -0.2056 -0.0567
 2383SOL    HW118785   1.017   1.993   6.310  0.6149 -1.0490  1.0698
 2383SOL    HW218786   0.956   1.873   6.260 -0.4606  0.0723 -1.4178
 2384SOL     OW18787   2.634   3.830   3.034 -0.1182 -0.4390  0.2208
 2384SOL    HW118788   2.641   3.753   2.977  1.9485 -1.4889  1.8822
 2384SOL    HW218789   2.595   3.798   3.115  1.4717  1.8567  1.8845
 2385SOL     OW18790   3.431   0.454   3.380  0.3330 -0.1799 -0.8446
 2385SOL    HW118791   3.480   0.515   3.325  1.3662 -2.1125 -2.0912
 2385SOL    HW218792   3.355   0.504   3.409 -0.3848 -1.5842 -0.2826
 2386SOL     OW18793   1.924   4.105   5.794  0.0742 -0.1226  0.2487
 2386SOL    HW118794   1.982   4.085   5.721 -1.6241  0.7074 -1.2982
 2386SOL    HW218795   1.954   4.054   5.870 -1.6242  1.1624  1.7957
 2387SOL     OW18796   3.108   4.301   1.599 -0.1285 -0.2086  0.0166
 2387SOL    HW118797   3.196   4.297   1.637 -0.0038 -0.1590 -0.2689
 2387SOL    HW218798   3.076   4.363   1.665 -0.1644  1.3018 -1.4085
 2388SOL     OW18799   3.539   3.479   6.662 -0.0181 -0.0808  0.5489
 2388SOL    HW118800   3.542   3.400   6.609 -0.3557 -0.1998  0.7056
 2388SOL    HW218801   3.624   3.478   6.705 -1.4755  0.0947  3.4277
 2389SOL     OW18802   1.912   1.724   7.403 -0.0951 -0.0375  0.3160
 2389SOL    HW118803   1.834   1.757   7.358  0.8959 -0.2354 -1.5306
 2389SOL    HW218804   1.881   1.719   7.493  1.7182 -0.6206  0.9134
 2390SOL     OW18805   4.014   1.591   1.877  0.2333  0.3957  0.3368
 2390SOL    HW118806   4.109   1.594   1.866  0.1438 -1.1375 -0.9258
 2390SOL    HW218807   3.999   1.499   1.902  0.5999  1.2323  3.6070
 2391SOL     OW18808   4.325   2.117  15.685  0.5178 -0.4786  0.1829
 2391SOL    HW118809   4.273   2.139  15.762  0.3430 -0.5465  0.0833
 2391SOL    HW218810   4.297   2.027  15.669 -0.9780 -0.0313  0.2862
 2392SOL     OW18811   4.141   1.953  12.466  0.2979 -0.0177 -0.6307
 2392SOL    HW118812   4.170   2.039  12.498  1.7301 -0.9818  0.6770
 2392SOL    HW218813   4.146   1.958  12.371 -2.4285 -0.8236 -0.8010
 2393SOL     OW18814   3.968   4.286   1.262  0.3528  0.3767 -0.1542
 2393SOL    HW118815   3.881   4.293   1.301  0.4495 -2.3439  0.5477
 2393SOL    HW218816   4.025   4.278   1.339 -1.0275  0.9686  0.9319
 2394SOL     OW18817   3.881   0.928   4.483 -0.0509 -0.2086  0.2434
 2394SOL    HW118818   3.857   0.840   4.454  1.4077 -0.5331  0.0056
 2394SOL    HW218819   3.958   0.904   4.536 -0.5066 -0.8689  0.6077
 2395SOL     OW18820   0.194   3.721   5.788  0.3064 -0.3797  0.0712
 2395SOL    HW118821   0.198   3.660   5.715 -0.5896 -2.1576  1.5043
 2395SOL    HW218822   0.138   3.797   5.767  0.0082 -0.5292  0.3190
 2396SOL     OW18823   4.162   2.915  10.315  0.2494  0.3637 -0.1161
 2396SOL    HW118824   4.210   2.923  10.397  0.5142  2.0506 -0.4431
 2396SOL    HW218825   4.216   2.979  10.268  0.1021  1.5683  1.3933
 2397SOL     OW18826   1.034   0.163   2.303  0.3113  0.5732 -0.0289
 2397SOL    HW118827   1.108   0.214   2.337  0.5865  0.5921 -0.6624
 2397SOL    HW218828   1.069   0.081   2.268  0.1302  0.7297 -0.5693
 2398SOL     OW18829   3.562   2.857   8.946 -0.3945  0.2845 -0.1816
 2398SOL    HW118830   3.657   2.851   8.939 -0.3391  1.7527 -0.8131
 2398SOL    HW218831   3.537   2.780   8.895  0.2216  0.4123 -0.6816
 2399SOL     OW18832   3.541   0.013  17.160 -0.0696 -0.3097 -0.0878
 2399SOL    HW118833   3.531   0.005  17.065  3.6770  0.2903 -0.5021
 2399SOL    HW218834   3.471   4.695  17.198  0.5383  0.2858  1.8418
 2400SOL     OW18835   2.703   4.304  10.716 -0.6718 -0.7022  0.0131
 2400SOL    HW118836   2.716   4.348  10.632  1.9111 -1.4159  0.0422
 2400SOL    HW218837   2.751   4.222  10.701 -0.3126 -0.8717  1.9795
 2401SOL     OW18838   1.834   0.253   3.085  0.1407 -0.0465 -0.2485
 2401SOL    HW118839   1.918   0.206   3.086  0.2225  0.0969 -0.3397
 2401SOL    HW218840   1.779   0.208   3.149 -1.6798  1.4808 -0.7509
 2402SOL     OW18841   3.847   3.412  16.189 -0.0424 -0.5516  0.6564
 2402SOL    HW118842   3.925   3.461  16.163 -0.5622 -0.4922 -0.8308
 2402SOL    HW218843   3.875   3.395  16.278  0.8292 -0.3401  0.4215
 2403SOL     OW18844   0.032   2.211  10.367  0.3987  0.1494 -0.5794
 2403SOL    HW118845   4.729   2.184  10.451  0.7570  0.3401 -0.3543
 2403SOL    HW218846   4.717   2.171  10.296 -0.4281  0.8874 -0.4051
 2404SOL     OW18847   3.306   3.656   8.001  0.1779  0.2242 -0.2073
 2404SOL    HW118848   3.232   3.712   8.021  1.2436  2.0256 -1.3338
 2404SOL    HW218849   3.365   3.726   7.972 -0.0514  0.8227  0.7839
 2405SOL     OW18850   1.508   1.265  11.270  0.3721 -0.4184 -0.7610
 2405SOL    HW118851   1.499   1.354  11.304 -0.2717 -1.7334  2.4475
 2405SOL    HW218852   1.416   1.242  11.256 -0.3075  2.4866 -1.1741
 2406SOL     OW18853   1.608   4.215   9.256 -0.0709 -0.0236 -0.9312
 2406SOL    HW118854   1.579   4.297   9.296 -0.0373  0.5619 -2.1213
 2406SOL    HW218855   1.530   4.197   9.203  0.4256  1.2262 -2.0818
 2407SOL     OW18856   2.220   4.563   6.249  0.0191  0.0048 -0.3450
 2407SOL    HW118857   2.192   4.532   6.335  1.2297  1.6886  0.6384
 2407SOL    HW218858   2.315   4.566   6.259  0.0704 -1.3767 -0.3531
 2408SOL     OW18859   1.241   0.748   8.742 -0.0880  0.4729  0.0156
 2408SOL    HW118860   1.175   0.808   8.708  1.6703  2.4410  0.0626
 2408SOL    HW218861   1.257   0.796   8.823  2.9516 -0.6655  0.0973
 2409SOL     OW18862   3.455   2.521   1.691  0.1578 -0.6346  0.2746
 2409SOL    HW118863   3.507   2.460   1.639  0.9264  0.4748 -0.2673
 2409SOL    HW218864   3.375   2.473   1.713 -0.2099 -0.0178  0.2841
 2410SOL     OW18865   0.095   4.207  14.698 -1.0600 -0.7622  0.1053
 2410SOL    HW118866   0.041   4.203  14.777 -1.5437  2.9142 -0.0447
 2410SOL    HW218867   0.029   4.204  14.629 -0.0428 -0.2092 -0.8974
 2411SOL     OW18868   0.341   0.736   2.509 -0.2132  0.3348  0.9282
 2411SOL    HW118869   0.256   0.698   2.528 -0.2518  1.2164  2.4849
 2411SOL    HW218870   0.387   0.739   2.593 -0.4383 -2.3104  1.1676
 2412SOL     OW18871   0.736   0.617  15.231 -0.6451 -0.0396 -0.2378
 2412SOL    HW118872   0.799   0.559  15.273 -0.4957 -0.3135 -0.8372
 2412SOL    HW218873   0.669   0.558  15.195  1.1336 -1.2943 -1.4452
 2413SOL     OW18874   2.039   0.082  16.789 -0.0592  0.3309 -0.3792
 2413SOL    HW118875   2.080   0.008  16.835  0.6845 -0.5403 -2.4643
 2413SOL    HW218876   2.113   0.139  16.809  1.0429 -0.5990 -1.8281
 2414SOL     OW18877   0.584   1.064   8.869 -0.1576  0.7872 -0.1009
 2414SOL    HW118878   0.513   1.116   8.831  1.1609  1.9451 -1.0073
 2414SOL    HW218879   0.655   1.129   8.861  0.6124 -0.0961 -0.4064
 2415SOL     OW18880   3.686   1.820   8.661  0.2892  0.2205 -0.6669
 2415SOL    HW118881   3.593   1.818   8.685  0.2157  0.7960 -0.8859
 2415SOL    HW218882   3.729   1.741   8.691 -0.0009  0.4584  0.3615
 2416SOL     OW18883   1.771   1.889   3.321 -0.1524 -0.0594 -0.6137
 2416SOL    HW118884   1.812   1.949   3.383 -1.8374 -0.1227  0.5420
 2416SOL    HW218885   1.687   1.875   3.364  0.8487 -2.8515  0.4067
 2417SOL     OW18886   2.613   3.837  13.146  0.7196  0.3533 -0.9238
 2417SOL    HW118887   2.596   3.903  13.079  0.6543 -1.5061 -2.7417
 2417SOL    HW218888   2.682   3.877  13.199  2.9849 -4.2059 -0.4011
 2418SOL     OW18889   4.040   3.630  12.459  1.1148  0.4420 -0.4181
 2418SOL    HW118890   4.108   3.672  12.512  1.3668 -0.1788 -0.2585
 2418SOL    HW218891   4.053   3.671  12.373  0.3836  0.2109 -0.6354
 2419SOL     OW18892   4.652   1.098   3.660 -0.1320 -0.1181  0.1317
 2419SOL    HW118893   4.692   1.015   3.634 -1.4272 -0.1332 -1.8055
 2419SOL    HW218894   4.561   1.075   3.642 -0.1410 -0.2707  0.3774
 2420SOL     OW18895   2.116   1.136   5.146 -0.1564  0.4358 -0.5340
 2420SOL    HW118896   2.081   1.064   5.200 -1.2110  1.1886 -0.2077
 2420SOL    HW218897   2.192   1.084   5.120 -0.0496 -1.0499  2.7360
 2421SOL     OW18898   0.205   1.116  16.876 -0.3104 -0.1042  0.1147
 2421SOL    HW118899   0.177   1.034  16.835  0.1842 -0.6929  0.9605
 2421SOL    HW218900   0.149   1.118  16.953  0.3352  0.8659  0.5495
 2422SOL     OW18901   1.325   1.017  10.632  0.6044 -0.0406  0.2087
 2422SOL    HW118902   1.387   0.984  10.567  0.2108 -0.6665  0.1510
 2422SOL    HW218903   1.339   0.953  10.701 -2.0975 -0.1564  0.6682
 2423SOL     OW18904   3.571   0.527   1.862 -0.2120  0.0378 -0.5405
 2423SOL    HW118905   3.525   0.443   1.857  0.5224 -0.5053  1.9295
 2423SOL    HW218906   3.590   0.539   1.769 -0.6027 -3.1016 -1.0207
 2424SOL     OW18907   4.045   1.662   3.538  0.9274 -0.6720  0.2753
 2424SOL    HW118908   4.047   1.742   3.591 -2.2505 -1.8288  2.1625
 2424SOL    HW218909   3.955   1.633   3.556  0.7503 -0.8136 -0.8691
 2425SOL     OW18910   1.571   2.084   8.105  0.1384 -0.2122 -0.3179
 2425SOL    HW118911   1.533   2.165   8.139  1.2304  0.3741 -0.5122
 2425SOL    HW218912   1.497   2.023   8.104  0.0050 -0.0763  1.0953
 2426SOL     OW18913   1.563   1.662   8.000 -0.3691 -0.1133  0.3972
 2426SOL    HW118914   1.645   1.616   8.013  0.9370  1.9533 -0.5680
 2426SOL    HW218915   1.590   1.749   7.971  0.3573 -0.9256 -1.3274
 2427SOL     OW18916   0.763   1.473   3.582  0.2861  0.6564  0.2647
 2427SOL    HW118917   0.751   1.568   3.580  2.4758  0.8828 -2.3292
 2427SOL    HW218918   0.853   1.475   3.615  0.3569  1.6886  0.0166
 2428SOL     OW18919   1.937   0.832   2.323 -0.2153  0.7560 -0.2010
 2428SOL    HW118920   1.877   0.790   2.384 -1.6385  3.3139  0.1954
 2428SOL    HW218921   1.978   0.900   2.376  0.4381 -0.2855  0.6175
 2429SOL     OW18922   2.822   2.424  10.982 -0.0605  0.0751  0.3606
 2429SOL    HW118923   2.885   2.488  10.949  0.2914 -1.1582 -1.3658
 2429SOL    HW218924   2.824   2.368  10.904  1.0313 -0.6954  0.9445
 2430SOL     OW18925   1.792   3.313   7.482 -0.6383 -1.0235 -0.5097
 2430SOL    HW118926   1.875   3.350   7.511 -1.2892  0.3711 -0.4372
 2430SOL    HW218927   1.738   3.392   7.481 -1.2993 -1.4836 -1.2766
 2431SOL     OW18928   1.747   0.371   2.427  0.0993 -0.9293  1.1242
 2431SOL    HW118929   1.704   0.397   2.509  1.1868  1.9274  0.7994
 2431SOL    HW218930   1.674   0.341   2.373  0.2813  0.3145  0.1901
 2432SOL     OW18931   2.609   0.511   7.987 -0.2676  0.2674  0.1654
 2432SOL    HW118932   2.671   0.577   8.018 -2.6259  1.6792  1.9061
 2432SOL    HW218933   2.540   0.576   7.968 -2.0761 -1.8976 -0.6783
 2433SOL     OW18934   0.010   4.058   8.743 -0.2354  0.4112  0.3312
 2433SOL    HW118935   4.717   4.149   8.731  0.4514  0.6661  0.6739
 2433SOL    HW218936   4.704   4.024   8.823 -1.0687  0.5156 -0.0514
 2434SOL     OW18937   4.125   4.198   2.555 -0.1112 -0.6107 -0.0520
 2434SOL    HW118938   4.093   4.199   2.645  1.4526  1.0837  0.4819
 2434SOL    HW218939   4.168   4.282   2.538 -1.7322  0.0981 -0.6666
 2435SOL     OW18940   4.679   0.180   5.913 -0.1480 -0.1302  0.2273
 2435SOL    HW118941   4.726   0.152   5.834 -2.1083  0.1300 -1.0268
 2435SOL    HW218942   4.632   0.097   5.920 -0.3105 -0.4806 -4.4646
 2436SOL     OW18943   1.296   4.278   7.463 -0.1354 -0.0462 -0.4805
 2436SOL    HW118944   1.365   4.305   7.403  1.3595  0.8785  1.6276
 2436SOL    HW218945   1.351   4.220   7.517  0.0141  1.8747  1.4123
 2437SOL     OW18946   4.335   1.707   5.114  0.2901 -0.0565 -0.6675
 2437SOL    HW118947   4.415   1.656   5.105  1.1355  0.7396  2.3122
 2437SOL    HW218948   4.324   1.749   5.029  0.5372 -2.0386 -1.6786
 2438SOL     OW18949   0.068   2.288   9.934  0.3044 -0.4156 -0.0518
 2438SOL    HW118950   0.008   2.361   9.948  2.1429  1.0170  0.3786
 2438SOL    HW218951   0.023   2.223   9.987 -1.7671  0.4198 -0.8085
 2439SOL     OW18952   4.431   0.836   8.750 -0.2076 -0.3271  0.5507
 2439SOL    HW118953   4.408   0.920   8.710 -0.9051 -0.3082  0.9943
 2439SOL    HW218954   4.405   0.855   8.840  1.6004 -1.4542  1.3250
 2440SOL     OW18955   2.467   1.675  13.603 -0.5421  0.2479  0.8084
 2440SOL    HW118956   2.529   1.655  13.673 -1.1579 -2.4907  0.5703
 2440SOL    HW218957   2.421   1.746  13.648  0.6140  1.1855  0.5006
 2441SOL     OW18958   4.003   3.431   5.534  0.1853 -0.3446 -0.0003
 2441SOL    HW118959   3.967   3.412   5.621 -2.4806 -1.1241 -1.2605
 2441SOL    HW218960   3.944   3.499   5.504  0.9598 -1.4716 -4.0960
 2442SOL     OW18961   3.027   3.443  10.773  0.0872  0.0304  0.3277
 2442SOL    HW118962   3.084   3.369  10.794 -2.1990 -2.3069 -1.6996
 2442SOL    HW218963   2.943   3.399  10.760  0.0412  0.6856 -1.6407
 2443SOL     OW18964   1.110   2.215   8.447  0.4748 -0.0353 -0.3370
 2443SOL    HW118965   1.017   2.230   8.430  1.1342  3.0310 -1.1967
 2443SOL    HW218966   1.114   2.136   8.501 -0.0216  0.4108  0.3589
 2444SOL     OW18967   2.144   2.332   7.033  0.5721  0.5742 -0.0139
 2444SOL    HW118968   2.110   2.254   6.989 -2.1174  1.8691 -0.2346
 2444SOL    HW218969   2.226   2.301   7.072 -0.8404 -0.9191  1.7529
 2445SOL     OW18970   1.371   2.533   9.454 -0.1189  0.6266  0.4216
 2445SOL    HW118971   1.377   2.440   9.476 -1.0081  0.7955  1.4049
 2445SOL    HW218972   1.299   2.554   9.513 -0.8503 -1.1320  0.1793
 2446SOL     OW18973   3.716   0.035   2.861 -0.7415 -0.2280 -0.0680
 2446SOL    HW118974   3.623   0.040   2.882 -0.6396 -0.5605  0.4687
 2446SOL    HW218975   3.710   0.020   2.767  0.5489  1.6426 -0.4414
 2447SOL     OW18976   2.169   3.543   0.768 -0.1308  0.3254 -0.5132
 2447SOL    HW118977   2.186   3.458   0.727 -0.1575  0.8102 -1.5309
 2447SOL    HW218978   2.183   3.527   0.861 -1.6457  0.1416 -0.3227
 2448SOL     OW18979   3.930   1.834   6.506 -0.6315 -0.3065  0.0563
 2448SOL    HW118980   3.999   1.779   6.468  0.1555 -1.3875  3.0807
 2448SOL    HW218981   3.951   1.920   6.470 -2.0005 -0.2251 -0.5425
 2449SOL     OW18982   3.933   4.397   3.083 -0.1056 -0.1590 -0.1222
 2449SOL    HW118983   3.851   4.446   3.085 -1.3397 -2.2194 -0.4095
 2449SOL    HW218984   3.992   4.472   3.072 -0.3892  0.3334  1.7358
 2450SOL     OW18985   2.259   0.350   3.128  0.0017  0.9569 -0.3698
 2450SOL    HW118986   2.254   0.275   3.068  1.1875  0.9240 -0.4275
 2450SOL    HW218987   2.226   0.307   3.206  1.0670  0.1487 -0.3589
 2451SOL     OW18988   1.129   3.869   7.632 -0.3246  0.3162 -0.5222
 2451SOL    HW118989   1.104   3.947   7.681  0.9169  0.0775  0.4710
 2451SOL    HW218990   1.116   3.798   7.694  1.6185  0.6761  0.2754
 2452SOL     OW18991   0.709   3.257   0.753 -0.3333 -0.6079 -0.3744
 2452SOL    HW118992   0.769   3.188   0.724  1.6558  0.2680  1.6379
 2452SOL    HW218993   0.754   3.271   0.836 -2.9851 -0.6252  1.0596
 2453SOL     OW18994   4.069   2.219   5.047  0.8283  0.0905 -0.0931
 2453SOL    HW118995   4.103   2.231   4.959 -0.9177 -0.2969 -0.8131
 2453SOL    HW218996   4.135   2.269   5.097  0.0978  0.4770  0.4789
 2454SOL     OW18997   0.774   0.915  13.165 -0.0145 -0.2723  0.5359
 2454SOL    HW118998   0.682   0.916  13.138  0.4870 -0.4025 -1.1383
 2454SOL    HW218999   0.761   0.911  13.260  1.6551  0.4642  0.7920
 2455SOL     OW19000   4.329   0.930   4.904  0.8651  0.1467 -0.5859
 2455SOL    HW119001   4.369   0.981   4.834 -1.3982 -0.8409 -2.5945
 2455SOL    HW219002   4.347   0.991   4.976  0.1484  0.8647 -1.0170
 2456SOL     OW19003   1.818   0.708  12.729 -0.0105  0.1000  0.8911
 2456SOL    HW119004   1.794   0.755  12.650 -0.7340  0.3349  1.2444
 2456SOL    HW219005   1.886   0.767  12.761  1.3184 -0.2012 -1.4495
 2457SOL     OW19006   0.466   0.052   5.954  0.7304  0.2039  0.4727
 2457SOL    HW119007   0.468   0.051   6.049  0.2145 -0.6306  0.4720
 2457SOL    HW219008   0.551   0.018   5.925  0.3442 -1.4131  1.2158
 2458SOL     OW19009   0.546   2.806   6.319  0.1915 -0.2100  0.0698
 2458SOL    HW119010   0.569   2.782   6.409 -2.3023 -1.7245  0.3039
 2458SOL    HW219011   0.561   2.728   6.266  0.2100  1.6682 -2.7027
 2459SOL     OW19012   2.620   2.018   5.592  0.2318 -0.6546  0.3397
 2459SOL    HW119013   2.621   2.108   5.558 -3.4019 -0.2145  1.4610
 2459SOL    HW219014   2.535   1.989   5.560  0.0940  1.1624 -0.9334
 2460SOL     OW19015   4.606   2.177   6.369  0.3141 -0.3016 -0.8009
 2460SOL    HW119016   4.528   2.130   6.398  1.6601 -1.8727  0.2704
 2460SOL    HW219017   4.626   2.237   6.441  0.3081 -1.5789  0.2746
 2461SOL     OW19018   4.186   0.144   5.017 -0.2479  0.0921  0.4686
 2461SOL    HW119019   4.201   0.222   4.963 -3.5654  1.3153  1.2894
 2461SOL    HW219020   4.272   0.111   5.042 -0.7640 -0.1717  1.8946
 2462SOL     OW19021   1.132   3.088   7.225 -0.1479  0.1485 -0.3611
 2462SOL    HW119022   1.082   3.122   7.151  0.2632 -0.3232 -0.8586
 2462SOL    HW219023   1.169   3.015   7.175  2.4646  0.9043  0.4636
 2463SOL     OW19024   2.054   3.262   9.565  0.4158 -0.4982  0.7265
 2463SOL    HW119025   2.110   3.230   9.635 -0.9147 -0.5468  1.7625
 2463SOL    HW219026   1.991   3.326   9.596  2.1193  2.1593 -1.2236
 2464SOL     OW19027   3.731   0.426  17.064 -0.9129  0.3260 -0.1368
 2464SOL    HW119028   3.748   0.372  16.987  2.1465 -1.9074  2.0560
 2464SOL    HW219029   3.776   0.507  17.043 -0.1138 -0.9960 -3.4810
 2465SOL     OW19030   4.053   4.676  13.562 -0.2863  0.6564  0.5896
 2465SOL    HW119031   4.090   4.670  13.473  0.4068  2.1042  0.7763
 2465SOL    HW219032   4.025   0.032  13.554 -1.1937  0.2380 -1.0001
 2466SOL     OW19033   2.553   2.358   5.044 -0.3475  0.1631 -0.5691
 2466SOL    HW119034   2.538   2.294   4.974  1.3849  0.9138 -1.5923
 2466SOL    HW219035   2.489   2.425   5.023 -1.2706 -0.6496 -0.3762
 2467SOL     OW19036   1.974   2.944   5.249 -0.5281  0.3649  0.4135
 2467SOL    HW119037   1.971   3.013   5.183  2.4403  0.1071  0.0314
 2467SOL    HW219038   2.038   2.979   5.312  0.9632  1.2492 -1.5817
 2468SOL     OW19039   0.874   0.446   5.519  0.5249  0.8397 -0.0838
 2468SOL    HW119040   0.780   0.457   5.532  0.3621 -0.1738 -0.4508
 2468SOL    HW219041   0.901   0.534   5.547 -1.2446  0.7671  1.8561
 2469SOL     OW19042   1.049   3.256   4.078 -0.2716  0.3489 -0.1077
 2469SOL    HW119043   1.137   3.217   4.080  0.7015  2.6137  1.3267
 2469SOL    HW219044   1.069   3.343   4.042 -0.5760  0.4780  0.0334
 2470SOL     OW19045   2.509   0.470   2.833  0.1784 -0.0146 -0.0541
 2470SOL    HW119046   2.429   0.522   2.837  0.6145  0.5269  1.6268
 2470SOL    HW219047   2.574   0.540   2.844  0.3304  0.0892 -1.6081
 2471SOL     OW19048   1.529   1.416   6.314 -0.3838  0.0481  0.5799
 2471SOL    HW119049   1.563   1.410   6.404 -1.2941 -1.4174  0.8078
 2471SOL    HW219050   1.509   1.509   6.304 -0.8597  0.2584  3.3459
 2472SOL     OW19051   4.465   2.509   5.515 -0.7082 -0.3866  0.2905
 2472SOL    HW119052   4.394   2.446   5.507 -0.1294 -0.9423 -0.4791
 2472SOL    HW219053   4.543   2.453   5.508  0.7338  1.4405  1.4660
 2473SOL     OW19054   3.661   0.378   6.869  0.3711  0.1886  0.4832
 2473SOL    HW119055   3.751   0.364   6.842 -0.0445  0.4793 -1.0222
 2473SOL    HW219056   3.616   0.308   6.821  1.1512  0.5799 -0.8051
 2474SOL     OW19057   1.878   1.492   1.475 -0.3142 -0.1383 -0.4369
 2474SOL    HW119058   1.957   1.544   1.491 -1.7255  2.0079 -0.4161
 2474SOL    HW219059   1.873   1.438   1.554  2.6239 -1.4840 -1.1390
 2475SOL     OW19060   0.442   1.008   7.549 -0.0343 -0.4905 -0.3715
 2475SOL    HW119061   0.358   1.009   7.503 -0.5657 -1.5628  0.5883
 2475SOL    HW219062   0.470   0.919   7.530 -1.1371 -0.4539 -2.2785
 2476SOL     OW19063   3.322   4.442   6.521  0.0457  0.0622  0.0978
 2476SOL    HW119064   3.375   4.378   6.567 -2.7970 -0.9173  2.0335
 2476SOL    HW219065   3.252   4.384   6.490 -0.8388  1.1005  0.1443
 2477SOL     OW19066   2.113   3.855  16.976  0.3762 -0.0571  0.2094
 2477SOL    HW119067   2.040   3.866  17.037  0.9169  0.8781  0.6793
 2477SOL    HW219068   2.172   3.927  16.994 -0.0744  0.4142 -0.2177
 2478SOL     OW19069   0.309   1.209   6.550  0.1762 -0.1350 -0.0091
 2478SOL    HW119070   0.328   1.153   6.625 -2.7334 -1.4148 -0.2118
 2478SOL    HW219071   0.233   1.158   6.520 -1.0593  0.9099  1.2905
 2479SOL     OW19072   3.605   3.675   1.830 -0.6472 -0.3885 -0.0891
 2479SOL    HW119073   3.526   3.628   1.805 -0.7236 -1.5377  2.3276
 2479SOL    HW219074   3.577   3.707   1.915 -0.6504 -0.5359 -0.0347
 2480SOL     OW19075   0.112   0.981   8.252  0.3780  0.6180  0.1766
 2480SOL    HW119076   0.087   1.032   8.176  0.6963 -1.2228 -1.1609
 2480SOL    HW219077   0.175   0.935   8.196 -1.3789 -1.2438 -0.2529
 2481SOL     OW19078   4.436   1.914   6.044 -0.4639  0.0328  0.2911
 2481SOL    HW119079   4.370   1.925   6.113 -1.5629  1.7806 -1.0252
 2481SOL    HW219080   4.395   1.937   5.961  1.3487  1.2310 -0.2770
 2482SOL     OW19081   1.977   2.123  10.817  0.2220  0.3061  0.3302
 2482SOL    HW119082   1.934   2.049  10.860  0.7976  0.3821  1.0276
 2482SOL    HW219083   1.963   2.082  10.732  1.3390  0.1371  0.2276
 2483SOL     OW19084   0.839   0.502   8.277 -0.0188 -0.1365 -0.0811
 2483SOL    HW119085   0.865   0.520   8.368 -1.9016  0.5490  0.3148
 2483SOL    HW219086   0.746   0.522   8.286 -0.2413 -2.4413  2.8888
 2484SOL     OW19087   0.223   1.213  16.229  0.4083  0.2840  0.3183
 2484SOL    HW119088   0.243   1.199  16.137  2.9778 -0.0403  0.9229
 2484SOL    HW219089   0.215   1.307  16.244  2.3999  0.6470 -0.8575
 2485SOL     OW19090   1.582   4.259   7.393  0.4560  0.0942 -0.0595
 2485SOL    HW119091   1.654   4.253   7.456 -1.0449 -1.5234  1.4994
 2485SOL    HW219092   1.610   4.187   7.337 -0.1367  0.6869 -1.1184
 2486SOL     OW19093   1.137   2.718   6.823  0.3273  0.0882  0.4655
 2486SOL    HW119094   1.058   2.665   6.833 -0.1830  1.0082  1.3528
 2486SOL    HW219095   1.156   2.730   6.916 -1.0581 -0.4682  0.8126
 2487SOL     OW19096   1.126   3.379  13.419 -0.2198 -0.4489 -0.0784
 2487SOL    HW119097   1.180   3.449  13.382  2.3130 -2.3152 -0.0020
 2487SOL    HW219098   1.057   3.433  13.457  0.4860 -0.0922  0.6930
 2488SOL     OW19099   2.053   1.934   9.111  0.2749  0.4332  0.1107
 2488SOL    HW119100   2.142   1.942   9.146  0.6321 -1.4322 -0.3849
 2488SOL    HW219101   2.027   1.859   9.164  2.8451 -1.1280 -0.8021
 2489SOL     OW19102   2.654   3.328   5.485  0.1583 -0.0451  0.0033
 2489SOL    HW119103   2.701   3.300   5.406  0.5953  2.5063 -0.6559
 2489SOL    HW219104   2.642   3.244   5.528 -0.2528  0.8080  1.5451
 2490SOL     OW19105   2.303   0.167   5.707 -0.0927 -0.7551 -0.1366
 2490SOL    HW119106   2.366   0.117   5.759 -0.7316  0.3199  1.6770
 2490SOL    HW219107   2.223   0.153   5.757 -0.1293  1.0478  0.2965
 2491SOL     OW19108   2.553   2.260   7.425  0.3860  1.0424  0.2171
 2491SOL    HW119109   2.517   2.217   7.503  0.5012  0.3563 -0.1061
 2491SOL    HW219110   2.509   2.218   7.351  0.1696 -1.1949  1.6061
 2492SOL     OW19111   1.312   4.361   2.330 -0.6395  0.0386  0.2457
 2492SOL    HW119112   1.386   4.389   2.384  0.2955  1.6877 -1.9050
 2492SOL    HW219113   1.336   4.271   2.306  1.0534  0.2944  0.9809
 2493SOL     OW19114   4.050   3.189   8.912 -0.0395 -0.1464 -0.1085
 2493SOL    HW119115   3.963   3.208   8.877  0.0975  1.3947  0.3978
 2493SOL    HW219116   4.095   3.267   8.877 -0.8148 -0.4195 -1.7143
 2494SOL     OW19117   1.601   3.041   5.271 -0.0061  0.4176  0.2815
 2494SOL    HW119118   1.532   3.105   5.286  1.9116  2.2939  1.0409
 2494SOL    HW219119   1.607   3.003   5.359  1.9472  1.1568  0.4666
 2495SOL     OW19120   1.160   4.522   0.227 -0.3115  0.5329  0.6289
 2495SOL    HW119121   1.152   4.447   0.286  0.4600  0.3455  0.4985
 2495SOL    HW219122   1.070   4.555   0.235 -0.5789 -0.3092  1.0952
 2496SOL     OW19123   1.410   3.668   6.473 -0.2752  0.2703  0.2882
 2496SOL    HW119124   1.341   3.668   6.407 -0.0192  0.6858  0.0154
 2496SOL    HW219125   1.445   3.756   6.455  1.4418 -0.4494  0.0876
 2497SOL     OW19126   0.176   3.662   3.698 -0.3520  0.1307 -0.3664
 2497SOL    HW119127   0.175   3.578   3.651  0.1817  0.4359 -0.9353
 2497SOL    HW219128   0.084   3.684   3.712 -0.4705  0.1760 -1.1724
 2498SOL     OW19129   4.549   3.061   8.926 -0.3673 -0.6485 -0.0116
 2498SOL    HW119130   4.470   3.053   8.873  0.0926 -0.3453 -0.7447
 2498SOL    HW219131   4.508   3.067   9.013 -1.5639  0.4355 -0.6384
 2499SOL     OW19132   3.877   3.322   5.745 -0.2324  0.0452 -0.3037
 2499SOL    HW119133   3.847   3.353   5.830  0.4058 -1.8549  0.6132
 2499SOL    HW219134   3.810   3.253   5.742  0.4103 -0.6826  2.2728
 2500SOL     OW19135   4.344   3.546   5.538 -0.0242  0.0380  1.1837
 2500SOL    HW119136   4.281   3.527   5.468  1.7570 -0.7227 -0.2368
 2500SOL    HW219137   4.429   3.555   5.496 -1.2470 -0.6396 -1.4859
 2501SOL     OW19138   1.618   0.527  16.445  0.5365  0.5295 -0.2204
 2501SOL    HW119139   1.637   0.581  16.369 -0.5791  1.6468  0.2954
 2501SOL    HW219140   1.655   0.442  16.420 -0.3615  0.6663 -1.9948
 2502SOL     OW19141   3.315   4.177   9.679 -0.2359 -0.0602  0.2853
 2502SOL    HW119142   3.253   4.248   9.694 -0.5247  0.1581 -1.9491
 2502SOL    HW219143   3.392   4.223   9.645  0.3855 -1.3018 -0.0034
 2503SOL     OW19144   1.524   2.716   1.585  0.4621  0.3981 -0.3314
 2503SOL    HW119145   1.455   2.761   1.634  0.9810 -1.8904  2.4892
 2503SOL    HW219146   1.579   2.672   1.650 -0.5804 -0.4027  0.0120
 2504SOL     OW19147   2.290   3.070   2.179 -0.0358 -0.2246  0.0055
 2504SOL    HW119148   2.297   3.005   2.108 -1.2414  0.7520 -1.0182
 2504SOL    HW219149   2.204   3.050   2.217 -1.2244 -0.5955 -2.8202
 2505SOL     OW19150   4.625   3.185   4.184  0.4586  0.5011 -0.1283
 2505SOL    HW119151   4.671   3.190   4.267  0.4826 -0.4145 -0.0885
 2505SOL    HW219152   4.675   3.253   4.138 -0.6254  1.0785 -0.4371
 2506SOL     OW19153   2.400   0.720   7.666  0.1633 -0.2106 -0.0084
 2506SOL    HW119154   2.450   0.800   7.684  1.0059 -0.7655  0.1114
 2506SOL    HW219155   2.309   0.741   7.688 -0.0754 -0.8846 -0.3781
 2507SOL     OW19156   3.131   2.993   7.815 -0.1199  0.3738  0.2319
 2507SOL    HW119157   3.073   3.028   7.748  0.6232 -0.2893 -0.7546
 2507SOL    HW219158   3.214   3.021   7.776  0.4090 -1.5290  0.0200
 2508SOL     OW19159   1.122   3.241   9.619  0.3821  0.1387 -0.3852
 2508SOL    HW119160   1.053   3.292   9.661  0.1444 -0.0727 -0.5130
 2508SOL    HW219161   1.102   3.270   9.530 -0.0714 -1.3608 -0.7698
 2509SOL     OW19162   3.858   1.583   8.478 -0.2207  0.9122  0.4943
 2509SOL    HW119163   3.839   1.609   8.568 -2.2514  1.1990 -0.0080
 2509SOL    HW219164   3.793   1.636   8.431  2.9095  3.0066 -1.4575
 2510SOL     OW19165   2.775   4.029   7.967 -0.0775  0.3271 -0.4282
 2510SOL    HW119166   2.809   3.956   8.019  2.0965 -0.0628 -2.4171
 2510SOL    HW219167   2.853   4.084   7.961  0.6531 -0.6536  0.1221
 2511SOL     OW19168   2.574   2.757  15.509  0.5927  0.2606  0.1746
 2511SOL    HW119169   2.586   2.663  15.526  1.0049  0.1071 -0.9504
 2511SOL    HW219170   2.618   2.796  15.585  2.5013  1.6585 -1.6577
 2512SOL     OW19171   4.094   4.229  12.801  0.2625  0.2678 -0.3246
 2512SOL    HW119172   4.129   4.294  12.862  0.9036 -1.0456  0.6739
 2512SOL    HW219173   4.163   4.244  12.736 -0.1224  0.4939 -0.6842
 2513SOL     OW19174   4.250   2.365  16.064  0.1150 -0.1972  0.4144
 2513SOL    HW119175   4.272   2.427  15.995 -0.3616 -0.3793  0.0983
 2513SOL    HW219176   4.188   2.418  16.115 -0.7434 -0.0196 -0.8109
 2514SOL     OW19177   3.286   1.019   2.249  0.9147 -0.2489  0.2031
 2514SOL    HW119178   3.333   1.100   2.228 -0.6780  0.6668  0.2460
 2514SOL    HW219179   3.199   1.047   2.276  1.0294  1.3706 -1.1435
 2515SOL     OW19180   0.804   2.589   2.703  0.5481 -0.6033  0.2705
 2515SOL    HW119181   0.863   2.599   2.778  1.0190  1.0793 -0.3105
 2515SOL    HW219182   0.869   2.577   2.635  2.8165 -0.4383  2.4055
 2516SOL     OW19183   2.729   3.101   2.296  0.8390 -0.7221 -0.4303
 2516SOL    HW119184   2.777   3.175   2.259  1.9006 -0.5246  1.3391
 2516SOL    HW219185   2.637   3.126   2.294  0.7810 -0.6497  2.6475
 2517SOL     OW19186   2.350   2.740   7.946  0.3353 -0.1275 -0.0040
 2517SOL    HW119187   2.391   2.793   7.878 -0.6604 -0.5740 -0.9296
 2517SOL    HW219188   2.288   2.683   7.900  0.6560 -0.4699 -0.0154
 2518SOL     OW19189   1.320   1.331   1.959 -0.0218  0.1106  0.8574
 2518SOL    HW119190   1.415   1.344   1.958 -0.0230  0.2002  3.1274
 2518SOL    HW219191   1.308   1.364   1.869  2.8357 -0.2301  0.3555
 2519SOL     OW19192   3.821   2.465   3.636 -0.2046  0.0477  0.0971
 2519SOL    HW119193   3.905   2.508   3.620 -0.1264  0.5915  1.9580
 2519SOL    HW219194   3.803   2.487   3.727  0.4324 -0.1860  0.2845
 2520SOL     OW19195   4.106   2.569  15.293 -0.0672 -0.0984 -0.0320
 2520SOL    HW119196   4.186   2.525  15.266  1.9938  1.8121  3.0129
 2520SOL    HW219197   4.139   2.658  15.282 -0.3132  0.1367  1.1462
 2521SOL     OW19198   3.181   3.459  15.874  0.0595  0.1305 -0.3015
 2521SOL    HW119199   3.259   3.455  15.929 -0.7931  0.1961  0.8965
 2521SOL    HW219200   3.201   3.397  15.803 -2.7362 -0.6599 -0.4039
 2522SOL     OW19201   0.692   2.977  10.797 -0.3929 -0.0704 -0.4346
 2522SOL    HW119202   0.697   3.055  10.743 -1.6756  1.1014  1.1431
 2522SOL    HW219203   0.627   3.011  10.859 -1.0076 -0.4242 -0.8887
 2523SOL     OW19204   1.686   4.711   4.655 -0.4029 -0.0735  0.6080
 2523SOL    HW119205   1.733   4.699   4.572  0.7340  0.9849  1.0914
 2523SOL    HW219206   1.677   0.071   4.651  1.7374  0.1983  1.8569
 2524SOL     OW19207   3.292   0.033  14.822 -0.1895 -0.3615 -0.1109
 2524SOL    HW119208   3.210   0.014  14.777  0.7767 -0.2001 -1.9179
 2524SOL    HW219209   3.310   4.678  14.848  0.2896  0.2333  1.6137
 2525SOL     OW19210   2.739   0.171   5.331  0.3477  0.0518  0.3431
 2525SOL    HW119211   2.656   0.130   5.354  0.5290  1.1554  2.9237
 2525SOL    HW219212   2.735   0.229   5.407  1.8110 -0.0488  0.4916
 2526SOL     OW19213   2.755   3.398   4.963 -0.3811 -0.2222  0.7375
 2526SOL    HW119214   2.676   3.399   4.910  0.1489 -0.5197 -0.0654
 2526SOL    HW219215   2.820   3.420   4.896 -0.8159 -1.1922 -0.0018
 2527SOL     OW19216   1.693   1.125   1.816 -0.5311  0.4891  0.3677
 2527SOL    HW119217   1.646   1.043   1.801 -1.1116  1.0680 -0.9858
 2527SOL    HW219218   1.686   1.168   1.731  0.6429  0.3571  0.2075
 2528SOL     OW19219   1.878   2.954   2.498 -0.5331 -0.3234 -0.3443
 2528SOL    HW119220   1.818   2.879   2.502 -0.4059 -0.5569 -3.0205
 2528SOL    HW219221   1.818   3.021   2.532 -2.4641 -1.1161 -2.1850
 2529SOL     OW19222   0.300   1.242   3.911 -0.1002 -0.5406 -0.2162
 2529SOL    HW119223   0.224   1.300   3.904  0.5530  0.4617  0.9828
 2529SOL    HW219224   0.258   1.157   3.900 -0.6325 -0.3737  0.5278
 2530SOL     OW19225   1.415   3.994   4.374 -0.0491 -0.4830 -0.4979
 2530SOL    HW119226   1.492   4.042   4.405 -1.4844 -0.2368  2.6212
 2530SOL    HW219227   1.342   4.048   4.405  0.2358 -0.0599 -0.5665
 2531SOL     OW19228   0.326   1.252   5.706  0.1008 -0.4190 -0.4788
 2531SOL    HW119229   0.379   1.173   5.719  0.4958 -0.6811 -3.7247
 2531SOL    HW219230   0.391   1.319   5.724 -2.3988  1.8669 -0.0933
 2532SOL     OW19231   0.020   2.231   8.384  1.0941  0.3717 -0.0627
 2532SOL    HW119232   4.664   2.256   8.398  0.9768  0.5123 -1.1090
 2532SOL    HW219233   0.016   2.174   8.307  1.2375 -1.2084  1.0813
 2533SOL     OW19234   4.280   4.176   3.015 -0.5479 -0.2135  0.0045
 2533SOL    HW119235   4.346   4.213   3.074 -0.8833  0.0376  0.2218
 2533SOL    HW219236   4.325   4.191   2.931  0.8873 -1.7540  0.5040
 2534SOL     OW19237   1.334   2.272  13.369  0.6062 -0.7023  0.5490
 2534SOL    HW119238   1.394   2.253  13.441  2.6499  1.0541 -0.7172
 2534SOL    HW219239   1.308   2.183  13.345 -2.5284  0.6325 -0.9887
 2535SOL     OW19240   2.649   3.515   6.927  0.8210  0.5787 -0.1703
 2535SOL    HW119241   2.709   3.561   6.986  0.4791 -0.0536  0.6728
 2535SOL    HW219242   2.703   3.450   6.883  1.2249 -0.3888  1.7649
 2536SOL     OW19243   3.762   3.234   3.083 -0.4038  0.5299 -0.0149
 2536SOL    HW119244   3.852   3.237   3.050 -0.1905  3.0352  0.8403
 2536SOL    HW219245   3.719   3.178   3.018 -0.2957  0.1915  0.2077
 2537SOL     OW19246   0.363   4.536  16.706 -0.8305  0.3106 -0.0846
 2537SOL    HW119247   0.299   4.568  16.643 -0.4599  0.0515 -0.5930
 2537SOL    HW219248   0.311   4.524  16.786 -0.2757 -0.4052  0.1711
 2538SOL     OW19249   1.950   3.778   5.076  0.6251  0.6600 -0.2290
 2538SOL    HW119250   2.043   3.777   5.055 -0.1562  0.0660 -3.6496
 2538SOL    HW219251   1.915   3.823   4.999  0.3258  0.5973 -0.1332
 2539SOL     OW19252   2.290   2.360   7.642 -0.3524 -0.0364 -0.0815
 2539SOL    HW119253   2.238   2.285   7.670  0.5981  0.1840  2.2676
 2539SOL    HW219254   2.257   2.358   7.552 -0.5047  0.1685 -0.0305
 2540SOL     OW19255   1.963   0.771   4.248  0.8718 -0.2058  0.5581
 2540SOL    HW119256   2.040   0.714   4.249  1.0523  0.0419  1.0691
 2540SOL    HW219257   2.000   0.851   4.211 -2.7803  1.3851  0.3184
 2541SOL     OW19258   0.616   1.976   1.641  0.3538  0.1519  0.0151
 2541SOL    HW119259   0.691   1.984   1.582 -0.1680  1.6824 -0.4300
 2541SOL    HW219260   0.588   2.067   1.654  1.1355  0.1443  1.7418
 2542SOL     OW19261   4.106   1.977   1.683 -0.0807  0.1127  0.2505
 2542SOL    HW119262   4.090   1.986   1.777 -1.3799  0.6113 -0.0241
 2542SOL    HW219263   4.037   1.917   1.658 -0.0328  0.9938 -1.9954
 2543SOL     OW19264   1.554   2.355   3.698 -0.4023  0.4934  0.2506
 2543SOL    HW119265   1.610   2.338   3.773 -1.1261  1.8774  1.0945
 2543SOL    HW219266   1.464   2.357   3.730  0.0528 -0.2171  1.5538
 2544SOL     OW19267   1.586   0.319   7.136  0.0138 -0.4075 -0.2316
 2544SOL    HW119268   1.636   0.337   7.215  0.1552  2.0076 -0.8829
 2544SOL    HW219269   1.500   0.293   7.170 -1.6077  1.4922 -2.8192
 2545SOL     OW19270   2.908   2.393  14.620 -0.0882 -0.0822 -0.0593
 2545SOL    HW119271   2.846   2.365  14.687 -0.6550 -0.0705 -0.5857
 2545SOL    HW219272   2.906   2.487  14.642 -0.0350  0.3926 -2.1106
 2546SOL     OW19273   1.411   4.088   7.606 -0.1356  0.5968  0.1673
 2546SOL    HW119274   1.482   4.083   7.542  0.3502 -0.3972  0.7888
 2546SOL    HW219275   1.451   4.070   7.691  0.9121 -3.1507 -1.1228
 2547SOL     OW19276   1.345   2.372   1.567 -0.1198  0.1253  0.4089
 2547SOL    HW119277   1.423   2.321   1.548 -0.4131  0.5266 -2.0059
 2547SOL    HW219278   1.302   2.317   1.632 -2.2653  1.0983 -0.1757
 2548SOL     OW19279   4.181   2.889   5.371  0.1496  0.2510 -0.3778
 2548SOL    HW119280   4.209   2.872   5.281  0.7972 -0.7349 -0.0025
 2548SOL    HW219281   4.251   2.843   5.418  1.2538  1.1864 -1.0991
 2549SOL     OW19282   3.945   2.964   3.284 -0.1138  0.2295  0.1985
 2549SOL    HW119283   3.968   2.871   3.284 -0.3706  0.1657 -1.7579
 2549SOL    HW219284   4.020   2.991   3.231  0.9717 -1.8264  0.6740
 2550SOL     OW19285   1.907   2.427   1.279  0.2100  0.4881  0.2407
 2550SOL    HW119286   1.812   2.417   1.272  0.3522 -0.7128  0.0265
 2550SOL    HW219287   1.935   2.370   1.208  3.0046  1.2137  0.7570
 2551SOL     OW19288   0.377   4.420  10.698  0.2714  0.5355 -0.1140
 2551SOL    HW119289   0.351   4.335  10.733 -1.6383  1.1887  0.0514
 2551SOL    HW219290   0.296   4.469  10.711 -1.0553 -1.5196 -0.6806
 2552SOL     OW19291   0.314   3.214   4.888 -0.1587  1.1445 -0.3997
 2552SOL    HW119292   0.236   3.161   4.873 -0.1517  1.0355 -0.0368
 2552SOL    HW219293   0.354   3.196   4.803  1.8064 -0.4345  0.8558
 2553SOL     OW19294   0.039   2.309  17.737 -0.2773 -0.3765 -0.0706
 2553SOL    HW119295   4.699   2.261   0.030 -0.9785  1.4629  1.0794
 2553SOL    HW219296   0.097   2.269   0.062  0.0153 -1.7933 -1.2094
 2554SOL     OW19297   4.110   3.730  12.203 -0.6987  0.1893  0.1356
 2554SOL    HW119298   4.115   3.819  12.171 -0.2167 -0.6456 -2.0867
 2554SOL    HW219299   4.105   3.684  12.119 -1.9264 -1.3358  1.0400
 2555SOL     OW19300   0.404   0.356  14.619  0.5104 -0.2957  0.5375
 2555SOL    HW119301   0.392   0.295  14.691 -0.6833  0.2525  0.8023
 2555SOL    HW219302   0.360   0.429  14.663  0.6285 -0.1695  0.4489
 2556SOL     OW19303   1.603   1.396   1.881  0.3475 -0.0030 -0.3020
 2556SOL    HW119304   1.633   1.309   1.855  0.3048 -1.0857  3.2801
 2556SOL    HW219305   1.672   1.432   1.937  0.2095 -1.7667  1.0127
 2557SOL     OW19306   2.530   1.948   4.059  0.9423 -0.0565  0.2444
 2557SOL    HW119307   2.451   1.965   4.007  0.1807  1.6088  1.9605
 2557SOL    HW219308   2.595   2.005   4.020  1.9272  0.2393  2.3016
 2558SOL     OW19309   2.913   0.580   5.115  0.6182  0.0167 -0.1143
 2558SOL    HW119310   2.858   0.628   5.052 -0.4918  0.5005  1.2097
 2558SOL    HW219311   2.957   0.647   5.167 -0.3968  0.2580  0.4385
 2559SOL     OW19312   0.793   1.076   6.695 -0.5520  0.0203 -0.5037
 2559SOL    HW119313   0.791   1.054   6.789 -1.9432  0.1055 -0.5179
 2559SOL    HW219314   0.742   1.157   6.693 -0.0888  0.3584  0.7887
 2560SOL     OW19315   2.439   2.239  14.883 -0.5986  0.3339 -0.2224
 2560SOL    HW119316   2.437   2.157  14.835 -0.1107 -0.8672  1.7908
 2560SOL    HW219317   2.385   2.291  14.824 -2.0662 -2.2965 -1.1873
 2561SOL     OW19318   0.784   4.555   6.056  0.6647  0.4327 -0.1472
 2561SOL    HW119319   0.737   4.626   6.013  0.8318  0.8594  0.3724
 2561SOL    HW219320   0.873   4.590   6.060  0.5307  0.7095  0.3894
 2562SOL     OW19321   1.242   1.972   5.627  0.3255  0.4127  0.1731
 2562SOL    HW119322   1.205   1.926   5.702 -0.8206 -0.0487 -0.6851
 2562SOL    HW219323   1.176   1.962   5.559  0.3949  0.9603  0.0242
 2563SOL     OW19324   3.760   3.122   1.907 -0.3309  0.0275 -0.5883
 2563SOL    HW119325   3.794   3.032   1.900  0.0298  0.1614 -0.5785
 2563SOL    HW219326   3.811   3.170   1.842  2.2449 -0.4244  1.1057
 2564SOL     OW19327   1.377   3.727   2.815  0.3927  0.0095 -0.0703
 2564SOL    HW119328   1.298   3.714   2.762  0.0886 -0.5050  0.5086
 2564SOL    HW219329   1.411   3.799   2.762  1.4819 -1.1839 -0.9884
 2565SOL     OW19330   1.231   1.681  12.656  0.0941 -0.4563 -0.0747
 2565SOL    HW119331   1.294   1.696  12.726  0.3555  0.0366 -0.4146
 2565SOL    HW219332   1.171   1.633  12.713  0.3790  2.6962  2.8428
 2566SOL     OW19333   3.625   0.410   8.694 -0.0633  0.2290 -0.2100
 2566SOL    HW119334   3.616   0.438   8.786  1.5025 -0.0431  0.0328
 2566SOL    HW219335   3.605   0.317   8.699  1.4423 -0.0832  0.0679
 2567SOL     OW19336   2.049   0.612   3.989  0.1312 -0.5775  0.4431
 2567SOL    HW119337   2.133   0.609   4.035  0.2535 -1.2241  0.1772
 2567SOL    HW219338   2.076   0.661   3.911 -2.0551  0.5290  0.3825
 2568SOL     OW19339   0.238   0.578   6.483 -0.1713  0.3760  0.2876
 2568SOL    HW119340   0.175   0.510   6.506  0.8445 -1.3300 -1.9628
 2568SOL    HW219341   0.183   0.655   6.499 -1.0477 -0.1944  0.0326
 2569SOL     OW19342   0.275   3.889   6.775 -0.2001 -0.1548 -0.3024
 2569SOL    HW119343   0.288   3.921   6.864 -0.6148  0.3748 -0.4354
 2569SOL    HW219344   0.330   3.811   6.777  0.2223  0.1711  0.5660
 2570SOL     OW19345   0.513   4.598   0.126  0.1164 -0.2082 -0.0841
 2570SOL    HW119346   0.555   4.646   0.054  0.2759 -1.1460 -0.6051
 2570SOL    HW219347   0.467   4.669   0.171  0.6413  0.6164 -0.8242
 2571SOL     OW19348   0.724   0.320   6.222 -0.0584 -0.5642 -0.5246
 2571SOL    HW119349   0.761   0.261   6.287  1.3252  0.3857 -0.4511
 2571SOL    HW219350   0.643   0.273   6.204 -1.0895  1.3240 -0.7924
 2572SOL     OW19351   2.937   0.415  14.956  0.2321  0.2639  0.3842
 2572SOL    HW119352   2.892   0.498  14.971 -1.5165 -0.9977  2.0755
 2572SOL    HW219353   2.928   0.408  14.861 -2.8311  1.3873  0.6099
 2573SOL     OW19354   2.994   3.829   3.672 -0.2043  0.1619 -0.2992
 2573SOL    HW119355   3.039   3.884   3.735 -0.6472  0.6751 -0.4327
 2573SOL    HW219356   3.036   3.745   3.693 -1.2117  0.5186  3.1101
 2574SOL     OW19357   3.033   4.656   5.596 -0.4464 -0.2889  0.5819
 2574SOL    HW119358   3.057   4.660   5.504  0.6356 -2.1009  0.8099
 2574SOL    HW219359   3.088   4.729   5.624  2.3081 -1.6813 -1.2085
 2575SOL     OW19360   3.101   0.401   1.966 -0.2983  0.3350  0.1858
 2575SOL    HW119361   3.091   0.415   2.060  1.1242 -0.1838  0.4116
 2575SOL    HW219362   3.169   0.333   1.965  0.1602  0.8043 -0.8518
 2576SOL     OW19363   3.718   4.184   2.992  0.0872  0.1780 -0.3393
 2576SOL    HW119364   3.809   4.190   3.022  0.1459  1.2536 -0.7573
 2576SOL    HW219365   3.726   4.155   2.901  0.4541 -1.4405  0.1937
 2577SOL     OW19366   0.798   1.029   6.091  0.2521  0.3736 -0.4862
 2577SOL    HW119367   0.776   0.936   6.082  0.5755  0.2178  0.3453
 2577SOL    HW219368   0.777   1.072   6.009 -3.9196  0.2017  0.4968
 2578SOL     OW19369   3.163   4.536   6.759  0.2298 -0.0619 -0.2087
 2578SOL    HW119370   3.201   4.451   6.783 -0.2014 -0.2311 -0.1236
 2578SOL    HW219371   3.069   4.538   6.779  0.0631 -2.6209 -0.7326
 2579SOL     OW19372   3.895   3.236   1.711 -0.7262  0.4198  0.2356
 2579SOL    HW119373   3.990   3.247   1.707 -1.0428  3.2059  0.6605
 2579SOL    HW219374   3.863   3.325   1.722  1.2765  0.9119  2.0838
 2580SOL     OW19375   2.166   2.735   6.208 -0.6899 -0.1937 -0.3465
 2580SOL    HW119376   2.125   2.648   6.210  0.6420 -0.8414 -1.1290
 2580SOL    HW219377   2.159   2.753   6.302  2.7116 -0.2153 -0.0883
 2581SOL     OW19378   0.982   1.438  13.059 -0.2111  0.6223  0.2325
 2581SOL    HW119379   0.923   1.510  13.081  2.0710  2.2733  0.9260
 2581SOL    HW219380   1.074   1.465  13.067  0.5863 -1.6119 -1.4416
 2582SOL     OW19381   4.410   4.404   7.811  0.0097 -0.5252  0.3378
 2582SOL    HW119382   4.375   4.418   7.723 -1.1014  0.9980  1.0208
 2582SOL    HW219383   4.357   4.470   7.857 -1.4475 -1.0532 -0.5765
 2583SOL     OW19384   3.328   4.528  11.470 -0.0166 -0.0410 -0.5372
 2583SOL    HW119385   3.271   4.599  11.442  0.4855 -0.3013 -2.1806
 2583SOL    HW219386   3.264   4.462  11.445 -0.2075  0.6574 -1.8560
 2584SOL     OW19387   2.652   4.317   7.529 -0.0464  0.1528  0.1884
 2584SOL    HW119388   2.642   4.282   7.617 -0.1205 -1.6508 -0.5256
 2584SOL    HW219389   2.699   4.240   7.495  1.2792  1.7599 -1.6618
 2585SOL     OW19390   0.336   3.200   1.820 -0.1279 -0.8821 -0.0851
 2585SOL    HW119391   0.257   3.152   1.844 -0.3666 -0.0569  0.7872
 2585SOL    HW219392   0.366   3.249   1.896  0.4111 -2.1173  0.5116
 2586SOL     OW19393   1.224   1.046   7.226 -0.3962  0.1347 -0.9287
 2586SOL    HW119394   1.317   1.027   7.235 -0.6045 -0.1249  0.7497
 2586SOL    HW219395   1.219   1.134   7.262  1.0249 -0.4930  0.8299
 2587SOL     OW19396   4.710   3.457   7.428  0.4480 -0.0016 -0.2480
 2587SOL    HW119397   4.642   3.445   7.495  0.7584 -2.1660 -0.3287
 2587SOL    HW219398   4.650   3.427   7.360 -0.9375  0.8930  0.5750
 2588SOL     OW19399   0.279   2.822  13.228  0.1990  0.4612 -0.0790
 2588SOL    HW119400   0.185   2.837  13.214  0.1675  0.7892  0.4956
 2588SOL    HW219401   0.285   2.743  13.174  2.0219 -1.1471  2.5075
 2589SOL     OW19402   4.462   1.451   6.606 -0.0391 -0.0231 -0.9695
 2589SOL    HW119403   4.417   1.388   6.662  0.9532  0.4805  0.3871
 2589SOL    HW219404   4.549   1.465   6.643 -1.8685  4.4590  1.5786
 2590SOL     OW19405   1.565   4.144   3.886  0.1376  0.1436  0.8846
 2590SOL    HW119406   1.581   4.057   3.924 -0.7251 -1.3407 -2.1148
 2590SOL    HW219407   1.648   4.155   3.840 -0.0518  3.2765  1.3088
 2591SOL     OW19408   2.405   3.008   8.388 -0.0945  0.1191 -0.0432
 2591SOL    HW119409   2.456   3.008   8.307 -0.6406 -2.2327 -0.3888
 2591SOL    HW219410   2.463   2.991   8.463 -1.9046 -1.3427  1.0397
 2592SOL     OW19411   3.981   0.753  16.797 -0.2653 -0.1875 -0.1045
 2592SOL    HW119412   4.017   0.681  16.747  0.8366 -1.4662  2.5095
 2592SOL    HW219413   3.912   0.778  16.736 -0.2029 -1.4635 -0.6813
 2593SOL     OW19414   2.163   4.351   2.536 -0.1417  0.3751 -0.1908
 2593SOL    HW119415   2.225   4.420   2.511  0.6720  0.0173  0.8230
 2593SOL    HW219416   2.104   4.358   2.461  1.1179 -0.9377 -1.3124
 2594SOL     OW19417   3.557   3.825  15.216 -0.2902 -0.1845  0.4495
 2594SOL    HW119418   3.524   3.878  15.142 -0.0510  2.4617  2.2356
 2594SOL    HW219419   3.648   3.834  15.188 -0.6513 -2.3476 -1.4372
 2595SOL     OW19420   3.817   4.001  11.666  0.1973  0.2251  0.0345
 2595SOL    HW119421   3.852   4.017  11.578 -1.8254  2.4224 -0.3800
 2595SOL    HW219422   3.895   3.961  11.704  1.1386  2.0128 -0.0184
 2596SOL     OW19423   2.974   4.213   7.958  0.0928 -0.3659  0.4637
 2596SOL    HW119424   2.950   4.295   7.914 -1.8171 -1.5304 -0.6678
 2596SOL    HW219425   3.061   4.230   7.993 -0.0254  0.2702  0.4579
 2597SOL     OW19426   0.517   3.513   1.819 -0.6543  0.4329 -0.2677
 2597SOL    HW119427   0.507   3.498   1.913 -1.3628  1.7986 -0.1286
 2597SOL    HW219428   0.574   3.588   1.827  2.1976 -1.7166 -0.4957
 2598SOL     OW19429   2.713   3.059   7.247 -0.3405  0.2148 -0.5557
 2598SOL    HW119430   2.712   3.014   7.163  2.7257 -0.5781 -0.1694
 2598SOL    HW219431   2.621   3.086   7.248 -0.5001 -0.3491  1.3771
 2599SOL     OW19432   2.525   2.499   3.736  0.3272  0.1535 -0.5285
 2599SOL    HW119433   2.440   2.518   3.776  0.2690 -2.2928  0.4731
 2599SOL    HW219434   2.528   2.404   3.743 -2.0803 -0.0464 -2.2028
 2600SOL     OW19435   2.320   2.808  10.424 -0.3562 -0.1575  0.0295
 2600SOL    HW119436   2.278   2.859  10.493  0.5023  0.1519  0.3152
 2600SOL    HW219437   2.235   2.784  10.386  0.2896  0.2212 -1.6736
 2601SOL     OW19438   0.619   1.185   5.538 -0.0854 -0.5722 -0.3879
 2601SOL    HW119439   0.703   1.230   5.532 -1.8517  2.8965  0.5447
 2601SOL    HW219440   0.582   1.212   5.454 -3.0640  1.4958  1.5634
 2602SOL     OW19441   4.525   2.028  14.965  0.3782 -0.2785 -0.2225
 2602SOL    HW119442   4.539   2.042  14.872 -1.8852  1.5204 -0.2889
 2602SOL    HW219443   4.617   2.038  14.988  1.0153 -1.5312 -2.2457
 2603SOL     OW19444   4.011   0.459   6.386  0.0500  0.4398 -0.4395
 2603SOL    HW119445   3.923   0.425   6.400  0.4551 -0.6060 -0.4176
 2603SOL    HW219446   3.992   0.550   6.411 -0.1448  0.3625 -0.3157
 2604SOL     OW19447   0.925   3.333   5.804 -0.1134  0.0269  0.1320
 2604SOL    HW119448   0.862   3.393   5.764 -0.9873 -2.1478 -1.7853
 2604SOL    HW219449   0.979   3.383   5.865  1.8467 -1.9776  0.0402
 2605SOL     OW19450   3.319   2.396   7.957  0.7844  0.2968 -0.7186
 2605SOL    HW119451   3.325   2.492   7.952  1.3273  0.2616 -0.8142
 2605SOL    HW219452   3.237   2.377   8.002  0.4810  1.3743 -0.8060
 2606SOL     OW19453   1.386   3.183  16.416  0.3220  0.8705 -0.0078
 2606SOL    HW119454   1.418   3.128  16.344 -0.9211 -2.1207  1.7196
 2606SOL    HW219455   1.437   3.148  16.488  1.2406  0.4612 -0.8575
 2607SOL     OW19456   0.307   0.311   8.547 -0.6599  0.7938 -0.1971
 2607SOL    HW119457   0.270   0.398   8.533  0.6974  1.4982  0.6612
 2607SOL    HW219458   0.309   0.275   8.459 -0.1063  1.7630 -0.5785
 2608SOL     OW19459   2.269   2.235   2.842 -0.2307 -0.1895  0.3503
 2608SOL    HW119460   2.245   2.260   2.931 -0.5300 -0.7374  0.4232
 2608SOL    HW219461   2.350   2.188   2.861 -0.1135 -0.8223 -1.6676
 2609SOL     OW19462   2.306   0.630   9.599 -0.0934 -0.0544  0.3901
 2609SOL    HW119463   2.334   0.653   9.687  0.8296  1.5852 -0.3135
 2609SOL    HW219464   2.363   0.553   9.595 -0.2550 -0.1693  0.2743
 2610SOL     OW19465   0.686   3.463   9.726 -0.3643  0.6290 -0.1623
 2610SOL    HW119466   0.751   3.422   9.782 -0.5498  0.5747  0.0147
 2610SOL    HW219467   0.676   3.397   9.658  0.1077  0.3548  0.0308
 2611SOL     OW19468   0.321   0.300  12.926 -0.3075 -0.4159  0.3624
 2611SOL    HW119469   0.366   0.384  12.916  0.3076 -0.7086  0.6697
 2611SOL    HW219470   0.343   0.278  13.017 -1.0803  2.9797  1.3684
 2612SOL     OW19471   3.843   3.997   0.438  0.2957 -0.1121  0.1703
 2612SOL    HW119472   3.916   3.972   0.382  0.9689 -2.0525  1.9286
 2612SOL    HW219473   3.859   4.091   0.452 -1.1162  0.4259 -1.7022
 2613SOL     OW19474   2.137   2.482   8.407  0.2066  0.2525  0.3574
 2613SOL    HW119475   2.181   2.547   8.351 -1.0169  0.2491 -0.6124
 2613SOL    HW219476   2.191   2.406   8.386 -0.7549  0.1686 -1.8292
 2614SOL     OW19477   0.503   2.505   3.788  0.0923 -0.3526 -0.6093
 2614SOL    HW119478   0.560   2.428   3.789 -3.0291 -2.6240  0.9510
 2614SOL    HW219479   0.505   2.535   3.878 -2.5175  3.1981 -1.7599
 2615SOL     OW19480   4.718   0.006  14.250  0.5385 -0.7186 -0.0380
 2615SOL    HW119481   0.009   0.013  14.158  1.3598 -1.0888  0.1619
 2615SOL    HW219482   4.731   4.647  14.263  1.5460 -0.6460 -0.5147
 2616SOL     OW19483   2.708   1.743   9.292 -0.1390  0.2185 -0.3553
 2616SOL    HW119484   2.662   1.822   9.322 -1.2996 -0.4792 -0.2870
 2616SOL    HW219485   2.764   1.725   9.368 -1.2066 -1.2774  0.0805
 2617SOL     OW19486   1.947   3.901   4.413 -0.2333 -0.0317  0.0974
 2617SOL    HW119487   2.035   3.930   4.388  0.3281 -0.9332  1.0068
 2617SOL    HW219488   1.973   3.860   4.496  1.6234  0.4075 -0.2729
 2618SOL     OW19489   2.522   1.836   3.354  0.0609  0.0949  0.2812
 2618SOL    HW119490   2.605   1.852   3.310  0.8093 -1.4953  1.1574
 2618SOL    HW219491   2.465   1.884   3.293  1.9913  0.7801 -0.9803
 2619SOL     OW19492   0.486   4.245  11.436 -0.3683  0.2222  0.1263
 2619SOL    HW119493   0.452   4.293  11.360 -0.9508 -2.4068 -1.2652
 2619SOL    HW219494   0.469   4.157  11.402  0.8336 -0.3734  1.0385
 2620SOL     OW19495   0.072   1.252   5.777  0.0790  0.5379 -0.3663
 2620SOL    HW119496   0.059   1.158   5.761  2.2779  0.2015 -0.2435
 2620SOL    HW219497   0.167   1.259   5.776 -0.0046  2.0203  2.0400
 2621SOL     OW19498   1.304   4.633  17.564  0.1528  0.3740 -0.3717
 2621SOL    HW119499   1.255   4.711  17.539 -2.2235 -0.6691  0.9826
 2621SOL    HW219500   1.326   4.632  17.657  0.4463  1.8709 -0.4330
 2622SOL     OW19501   2.386   2.301   8.304 -0.5813 -0.6010  0.3877
 2622SOL    HW119502   2.423   2.242   8.238 -1.8237 -0.4352 -0.4586
 2622SOL    HW219503   2.439   2.379   8.289 -1.0157  0.2045  3.0845
 2623SOL     OW19504   0.591   3.874  14.924 -0.2594 -0.4272  0.6005
 2623SOL    HW119505   0.680   3.906  14.911 -0.6084  0.1628 -0.3392
 2623SOL    HW219506   0.625   3.788  14.947  0.7519  0.1290  1.2255
 2624SOL     OW19507   3.712   0.623   3.851  0.2828  0.1340 -0.0001
 2624SOL    HW119508   3.663   0.598   3.773  0.9957  0.5978 -0.6003
 2624SOL    HW219509   3.669   0.697   3.894  0.7639 -1.1600  2.7156
 2625SOL     OW19510   1.515   0.855   3.759  0.4572  0.1089 -0.5394
 2625SOL    HW119511   1.467   0.797   3.817  1.5121  0.4788  0.6844
 2625SOL    HW219512   1.560   0.785   3.713  0.1244  0.4410 -1.3906
 2626SOL     OW19513   2.538   3.304   5.866  0.3055  0.2831  0.0892
 2626SOL    HW119514   2.466   3.365   5.886 -0.5715 -0.5155 -0.6686
 2626SOL    HW219515   2.491   3.229   5.830  0.0884 -0.1600  1.2706
 2627SOL     OW19516   4.230   4.038   4.140 -0.0605 -0.0582 -0.0070
 2627SOL    HW119517   4.324   4.038   4.161  0.0834  2.2670 -0.7328
 2627SOL    HW219518   4.226   4.124   4.098  1.7509 -0.6547 -1.4290
 2628SOL     OW19519   0.572   3.207  10.646 -0.4540 -0.4064  0.3396
 2628SOL    HW119520   0.636   3.188  10.578 -0.6875 -0.6048  0.1767
 2628SOL    HW219521   0.540   3.294  10.622  1.0080 -0.2322 -0.9560
 2629SOL     OW19522   1.843   2.646   2.840  0.2818  0.0577  0.1223
 2629SOL    HW119523   1.788   2.571   2.818 -0.7329  1.4317 -2.0397
 2629SOL    HW219524   1.918   2.598   2.875  0.5451 -0.9975 -1.8883
 2630SOL     OW19525   1.662   1.427   0.302  0.6010 -0.0413 -0.0744
 2630SOL    HW119526   1.588   1.487   0.314  0.6192  0.7096 -3.8933
 2630SOL    HW219527   1.702   1.484   0.236  0.2011 -0.1159 -0.3793
 2631SOL     OW19528   3.909   0.944   5.315  0.4672 -0.0297 -0.4716
 2631SOL    HW119529   3.863   0.862   5.296 -0.8176  0.5174  0.2531
 2631SOL    HW219530   3.855   1.007   5.265 -0.8770  0.0341  1.0618
 2632SOL     OW19531   0.699   2.281   6.670 -0.1184 -0.0924  0.0063
 2632SOL    HW119532   0.723   2.200   6.714  0.4500  0.5583  0.8980
 2632SOL    HW219533   0.606   2.276   6.648 -0.0320 -0.6872 -0.2228
 2633SOL     OW19534   1.585   0.346   2.221 -0.1222 -0.2951 -0.0604
 2633SOL    HW119535   1.491   0.332   2.224 -0.4605  1.5565 -2.9131
 2633SOL    HW219536   1.604   0.300   2.139 -0.7111 -2.6572  1.1187
 2634SOL     OW19537   1.329   1.202   6.084 -0.3302 -0.5220  0.7882
 2634SOL    HW119538   1.235   1.192   6.073 -0.2469 -1.1262  0.6457
 2634SOL    HW219539   1.349   1.289   6.050  0.4525 -1.0311 -0.0657
 2635SOL     OW19540   1.085   2.828  17.052  0.6742 -0.4948 -0.1272
 2635SOL    HW119541   1.103   2.741  17.090  1.3447 -0.8887 -1.3637
 2635SOL    HW219542   1.128   2.817  16.967  2.5576  2.0626  0.4942
 2636SOL     OW19543   2.116   2.042   6.013  0.6964  0.2002  0.1001
 2636SOL    HW119544   2.175   1.970   5.992  1.0702  0.1266  1.4228
 2636SOL    HW219545   2.080   2.062   5.926 -1.6626  1.2188  1.3026
 2637SOL     OW19546   4.283   2.052  13.165  0.3303  0.0282  0.0935
 2637SOL    HW119547   4.252   2.061  13.075 -2.1644  0.2898  0.9674
 2637SOL    HW219548   4.245   2.132  13.202  1.9969  0.2252  1.3378
 2638SOL     OW19549   4.028   3.714   3.771  0.4712  0.0795 -0.1389
 2638SOL    HW119550   3.946   3.751   3.804  0.1337  0.3011 -1.2329
 2638SOL    HW219551   4.090   3.748   3.836  1.1227 -2.0803  0.3662
 2639SOL     OW19552   0.156   2.181   7.579  0.4448  0.3196 -0.1937
 2639SOL    HW119553   0.191   2.187   7.668  0.6204  0.1450 -0.2488
 2639SOL    HW219554   0.196   2.261   7.546  1.0111  0.8459  1.7777
 2640SOL     OW19555   3.944   1.216  16.994 -0.1671 -0.2828 -0.0191
 2640SOL    HW119556   3.885   1.284  16.961  2.3500  1.7013 -0.4047
 2640SOL    HW219557   3.974   1.251  17.078  1.0307  0.1427 -0.6240
 2641SOL     OW19558   1.603   2.881   4.784  0.3767  0.1879  0.4232
 2641SOL    HW119559   1.675   2.931   4.744 -0.1300  0.3748 -0.2527
 2641SOL    HW219560   1.587   2.925   4.867  0.5958 -0.9127  1.0505
 2642SOL     OW19561   3.780   1.266   6.640  0.2165 -0.4362 -0.2470
 2642SOL    HW119562   3.864   1.259   6.594  0.1739 -0.8217 -0.2629
 2642SOL    HW219563   3.719   1.264   6.567 -0.2954  0.6216  0.1520
 2643SOL     OW19564   4.438   3.567   4.295  0.2205  0.0313  0.1350
 2643SOL    HW119565   4.461   3.496   4.355 -0.2405 -0.0712  0.1914
 2643SOL    HW219566   4.351   3.545   4.263  1.0953 -5.0682  1.3751
 2644SOL     OW19567   4.641   3.068   7.638  0.3179  0.3965  0.5480
 2644SOL    HW119568   4.622   3.109   7.554 -1.1403  0.9734  1.1559
 2644SOL    HW219569   4.557   3.024   7.651 -0.7356  2.0148 -0.7777
 2645SOL     OW19570   3.668   2.118   6.527 -0.3898  0.2154  0.1150
 2645SOL    HW119571   3.729   2.116   6.601 -1.2263 -0.5059  0.7772
 2645SOL    HW219572   3.710   2.077   6.451  0.7518  1.1575  0.2281
 2646SOL     OW19573   3.075   0.114   5.006 -0.1253 -0.2151 -0.0630
 2646SOL    HW119574   3.018   0.084   4.935 -0.8284  0.3798  0.2450
 2646SOL    HW219575   3.003   0.129   5.068 -0.0470  0.3001 -0.0969
 2647SOL     OW19576   2.385   0.419   7.679  0.4375 -0.3705 -0.0024
 2647SOL    HW119577   2.375   0.392   7.587  0.1271 -2.2369  0.5835
 2647SOL    HW219578   2.314   0.483   7.687 -0.5802 -1.3224 -1.2586
 2648SOL     OW19579   2.791   4.262  10.043 -0.0022  0.3647  0.3573
 2648SOL    HW119580   2.736   4.340  10.048 -0.6886  0.0243 -1.6654
 2648SOL    HW219581   2.810   4.232  10.132 -1.4584 -0.2400  0.4622
 2649SOL     OW19582   3.451   2.401  17.599  0.4259  0.4662 -0.1912
 2649SOL    HW119583   3.394   2.477  17.613 -2.4396 -1.5113 -1.0594
 2649SOL    HW219584   3.493   2.423  17.516 -1.2459 -0.2444 -1.2300
 2650SOL     OW19585   0.803   3.711   8.270 -0.1239 -0.1450 -0.6540
 2650SOL    HW119586   0.893   3.698   8.240  0.2141  0.7497 -0.0413
 2650SOL    HW219587   0.811   3.702   8.365 -4.3635  1.0590 -0.2073
 2651SOL     OW19588   4.148   3.880   6.463 -0.3753  0.2177 -0.1376
 2651SOL    HW119589   4.053   3.892   6.467 -0.3444  0.6031 -0.6685
 2651SOL    HW219590   4.158   3.850   6.553  0.1956 -0.9023 -0.5815
 2652SOL     OW19591   0.060   0.475  15.487  0.1766  0.3314  0.9266
 2652SOL    HW119592   0.135   0.444  15.538  0.0456 -1.0450  0.2620
 2652SOL    HW219593   0.095   0.553  15.444  1.2085 -0.4137  0.4230
 2653SOL     OW19594   0.448   2.447   7.374  0.0946  0.7377 -0.1904
 2653SOL    HW119595   0.491   2.510   7.316  1.0094 -1.6326 -2.0745
 2653SOL    HW219596   0.491   2.470   7.457 -0.4643  0.6598  0.1212
 2654SOL     OW19597   1.637   1.952   9.343  0.0596  0.3093 -0.2091
 2654SOL    HW119598   1.541   1.958   9.344  0.2512  3.1729  1.0380
 2654SOL    HW219599   1.650   1.881   9.406  0.1308  0.4524 -0.0621
 2655SOL     OW19600   2.004   2.714   4.562 -0.1715 -0.2479  0.2068
 2655SOL    HW119601   2.006   2.801   4.523  2.0609 -0.3659  0.0265
 2655SOL    HW219602   2.078   2.716   4.623 -0.2685  0.3199  0.3016
 2656SOL     OW19603   4.173   3.471   4.204 -0.2098 -0.3046 -0.3007
 2656SOL    HW119604   4.193   3.401   4.141 -0.4313 -1.3030  0.7476
 2656SOL    HW219605   4.095   3.519   4.178  0.4590  0.6835 -0.4922
 2657SOL     OW19606   2.854   2.233   5.512 -0.3543 -0.0456 -0.2420
 2657SOL    HW119607   2.950   2.240   5.506 -0.3319  2.7468  3.0309
 2657SOL    HW219608   2.828   2.325   5.521 -1.0597 -0.0756 -1.9802
 2658SOL     OW19609   3.923   1.816   1.500  0.1231  0.6325 -0.1633
 2658SOL    HW119610   3.831   1.842   1.492  0.2162  1.1922  0.5167
 2658SOL    HW219611   3.967   1.807   1.415  2.5311 -1.2443  1.3010
 2659SOL     OW19612   3.777   1.981   4.935  0.3835 -0.0988 -0.4305
 2659SOL    HW119613   3.698   1.974   4.882 -0.7995 -0.0156  1.3092
 2659SOL    HW219614   3.763   2.053   4.996 -1.9246  1.0491 -2.3074
 2660SOL     OW19615   2.115   1.809   5.871  0.6068 -1.0727  0.0384
 2660SOL    HW119616   2.019   1.814   5.869  0.6014 -1.3992 -0.7811
 2660SOL    HW219617   2.118   1.779   5.780 -1.7947 -0.3993 -0.2694
 2661SOL     OW19618   3.141   0.349   3.747 -0.5420 -0.0980 -0.1833
 2661SOL    HW119619   3.074   0.312   3.689 -0.0002 -0.0424 -0.8570
 2661SOL    HW219620   3.132   0.302   3.829 -0.6056 -0.4306 -0.3801
 2662SOL     OW19621   3.185   1.073   6.911 -0.1876  0.5514  0.3985
 2662SOL    HW119622   3.280   1.082   6.909  0.0317 -1.3759  2.3807
 2662SOL    HW219623   3.153   1.159   6.883  1.6750  0.7741 -1.0606
 2663SOL     OW19624   0.126   0.638   3.918  0.1145  0.0861 -0.6000
 2663SOL    HW119625   0.053   0.699   3.929 -0.8868 -1.2359  0.1381
 2663SOL    HW219626   0.158   0.619   4.006  1.1967  2.4851 -0.4642
 2664SOL     OW19627   0.344   0.304   4.677 -0.4919 -0.5238  0.2359
 2664SOL    HW119628   0.316   0.391   4.648 -2.5288 -1.2167  0.1235
 2664SOL    HW219629   0.409   0.325   4.744 -0.0985 -0.0834 -0.2787
 2665SOL     OW19630   1.108   4.505   3.085  0.4270  0.1509 -0.0764
 2665SOL    HW119631   1.145   4.547   3.163  0.4737  2.2110 -1.1849
 2665SOL    HW219632   1.179   4.526   3.024 -0.3081 -1.3317 -1.4335
 2666SOL     OW19633   2.206   4.688  14.999 -0.0337  0.3504  0.2310
 2666SOL    HW119634   2.123   4.733  14.982 -0.5411 -0.8643 -0.5463
 2666SOL    HW219635   2.188   4.647  15.084 -1.0037  1.1324  0.4022
 2667SOL     OW19636   1.679   4.399   2.289 -0.8042  0.4853 -0.2943
 2667SOL    HW119637   1.684   4.322   2.233 -0.6894  0.2198  0.0800
 2667SOL    HW219638   1.702   4.473   2.232 -1.1199  0.4274 -0.5007
 2668SOL     OW19639   4.408   0.747   7.339  0.0020 -0.1528 -0.5003
 2668SOL    HW119640   4.410   0.787   7.252 -1.2559 -2.1810 -1.4519
 2668SOL    HW219641   4.387   0.828   7.386 -0.8355 -0.8430  0.3114
 2669SOL     OW19642   2.032   1.059   2.785 -0.3994  0.0432  0.1463
 2669SOL    HW119643   1.997   1.117   2.853  0.2770  0.3087  0.2615
 2669SOL    HW219644   2.048   1.130   2.723  0.2678 -0.6805 -0.4992
 2670SOL     OW19645   4.602   1.751   6.576 -0.8010  0.2527  0.4887
 2670SOL    HW119646   4.557   1.806   6.640 -0.8523 -1.5370  1.9882
 2670SOL    HW219647   4.609   1.665   6.618  2.0190  0.3249  0.2139
 2671SOL     OW19648   4.666   3.601   6.492  0.4632  0.0097  0.6184
 2671SOL    HW119649   4.601   3.652   6.443  2.2455  2.5401  0.8729
 2671SOL    HW219650   4.686   3.532   6.430 -2.1629 -0.2636  0.1013
 2672SOL     OW19651   3.694   0.184   4.974  0.0483  0.2151  0.2501
 2672SOL    HW119652   3.774   0.132   4.981 -0.4454 -0.3099  1.8345
 2672SOL    HW219653   3.664   0.191   5.065 -2.3042 -1.9361 -0.3325
 2673SOL     OW19654   4.437   0.096  14.480 -0.1389  0.5393  0.0923
 2673SOL    HW119655   4.345   0.118  14.497 -0.5181 -0.4647 -0.6434
 2673SOL    HW219656   4.426   0.033  14.408  1.5506  0.3015  0.0409
 2674SOL     OW19657   2.438   2.636  11.915 -0.2992 -0.0578 -0.1789
 2674SOL    HW119658   2.380   2.562  11.896  0.1294 -0.2375 -0.7434
 2674SOL    HW219659   2.384   2.701  11.871 -0.0934  1.8506  2.3510
 2675SOL     OW19660   3.461   3.422   7.051 -0.4145 -0.3286  0.1216
 2675SOL    HW119661   3.507   3.505   7.064  0.9279 -1.1328  0.5393
 2675SOL    HW219662   3.379   3.453   7.089 -1.0769 -1.6326 -0.2463
 2676SOL     OW19663   0.652   0.606   9.399  0.4718 -0.6444  0.3420
 2676SOL    HW119664   0.622   0.610   9.490  0.7408  1.7649  0.3092
 2676SOL    HW219665   0.574   0.565   9.362 -0.7596  0.9283  1.1869
 2677SOL     OW19666   1.761   1.360   2.178 -0.4804  0.1176 -0.2247
 2677SOL    HW119667   1.750   1.277   2.132  0.9749  1.5734 -3.2470
 2677SOL    HW219668   1.855   1.353   2.196 -0.4498  1.7430  0.2798
 2678SOL     OW19669   2.409   2.949   6.595  0.2675 -0.4140  0.0087
 2678SOL    HW119670   2.403   2.915   6.684  0.0870 -0.7432 -0.1274
 2678SOL    HW219671   2.400   3.042   6.616 -0.4122 -0.8426  1.5863
 2679SOL     OW19672   0.489   3.251   4.692  0.0141  0.0290 -0.4244
 2679SOL    HW119673   0.488   3.346   4.702  0.4973  0.0564 -0.6378
 2679SOL    HW219674   0.567   3.225   4.741  0.0600 -2.4114 -1.8121
 2680SOL     OW19675   2.240   2.685   8.750 -0.4957 -0.3282 -0.4720
 2680SOL    HW119676   2.184   2.735   8.690 -0.4309 -1.0205 -1.1151
 2680SOL    HW219677   2.238   2.600   8.707 -0.8054 -0.7416  0.3695
 2681SOL     OW19678   1.322   3.092   2.829 -0.2518  0.2490  0.0851
 2681SOL    HW119679   1.392   3.124   2.772 -0.5612  1.6485  0.4881
 2681SOL    HW219680   1.245   3.102   2.773  0.2855 -0.5403 -0.8034
 2682SOL     OW19681   3.172   1.551   2.010 -0.2169 -0.1715  0.2573
 2682SOL    HW119682   3.149   1.624   1.952  0.4581  1.4963  2.0928
 2682SOL    HW219683   3.247   1.511   1.966  0.3522  2.5332 -1.2441
 2683SOL     OW19684   2.843   3.109  14.087 -0.0362 -0.0480  0.4629
 2683SOL    HW119685   2.839   3.018  14.057  0.6442  0.4945 -1.2777
 2683SOL    HW219686   2.774   3.105  14.153 -1.9631 -0.2567 -1.5689
 2684SOL     OW19687   1.866   2.638   5.931 -0.2724 -0.0742 -0.3123
 2684SOL    HW119688   1.825   2.614   6.014 -2.5793 -1.0657 -1.7184
 2684SOL    HW219689   1.852   2.557   5.883 -0.6464 -1.1195  1.5714
 2685SOL     OW19690   1.217   2.061   1.504  0.4238  0.3592  0.3923
 2685SOL    HW119691   1.183   2.115   1.576 -2.8154 -0.1983 -0.6991
 2685SOL    HW219692   1.311   2.073   1.517  0.5601 -0.6383  0.3569
 2686SOL     OW19693   3.411   1.580   0.515 -0.2189 -0.3785  0.5449
 2686SOL    HW119694   3.430   1.493   0.479  2.9237  0.6697 -0.3614
 2686SOL    HW219695   3.352   1.617   0.449  1.7803  0.6541 -0.6677
 2687SOL     OW19696   4.501   2.405  17.434  0.4966 -0.5971 -0.2398
 2687SOL    HW119697   4.518   2.354  17.355  1.9879  0.5400 -0.6579
 2687SOL    HW219698   4.569   2.471  17.448  1.5823 -1.6043 -0.7167
 2688SOL     OW19699   3.707   3.780   3.178 -0.3370 -0.0406 -0.3007
 2688SOL    HW119700   3.751   3.864   3.190  0.5284 -0.6718  1.0484
 2688SOL    HW219701   3.782   3.719   3.182 -1.3199 -1.3094 -1.0786
 2689SOL     OW19702   2.399   1.957   5.209  0.2930 -0.4758  0.0091
 2689SOL    HW119703   2.339   1.977   5.137  0.9648  0.7284 -0.2286
 2689SOL    HW219704   2.473   2.005   5.171  0.0394  0.3731  0.6108
 2690SOL     OW19705   0.799   3.580   3.573 -0.6849  0.2388  0.5721
 2690SOL    HW119706   0.825   3.641   3.504 -1.5746  0.6136  0.5677
 2690SOL    HW219707   0.711   3.568   3.538  0.3566 -0.4666 -1.7477
 2691SOL     OW19708   0.418   3.352   2.070  0.1198 -0.3678  0.0569
 2691SOL    HW119709   0.436   3.266   2.107 -0.9050 -1.0462 -1.0324
 2691SOL    HW219710   0.375   3.392   2.146 -0.7562 -1.9223  0.3865
 2692SOL     OW19711   0.100   4.463   2.440 -0.5953 -0.3345  0.0162
 2692SOL    HW119712   0.134   4.517   2.368  0.2528  0.3842  0.9680
 2692SOL    HW219713   0.174   4.462   2.500  0.4231 -2.0230 -1.2514
 2693SOL     OW19714   2.210   2.403   8.653 -0.2485 -0.0184  0.3356
 2693SOL    HW119715   2.189   2.447   8.571 -1.1984 -0.4158  0.3638
 2693SOL    HW219716   2.140   2.338   8.645 -0.3056  0.0546  0.2445
 2694SOL     OW19717   3.397   1.687  11.978  0.5269 -0.1161  0.7571
 2694SOL    HW119718   3.345   1.721  12.051  0.5241 -1.4349  1.3560
 2694SOL    HW219719   3.486   1.715  11.998 -0.0814  2.3981 -0.0420
 2695SOL     OW19720   2.374   2.271   8.856 -0.1173 -0.0141  0.2012
 2695SOL    HW119721   2.324   2.324   8.794 -1.9801 -2.9273 -0.7844
 2695SOL    HW219722   2.363   2.181   8.826  0.9105  0.0986 -0.5305
 2696SOL     OW19723   2.510   3.432   9.793  0.7500  0.2593 -0.4527
 2696SOL    HW119724   2.568   3.358   9.809 -1.1906 -1.2969 -0.6291
 2696SOL    HW219725   2.513   3.428   9.697 -0.3038 -1.0845 -0.4259
 2697SOL     OW19726   1.114   0.729   5.388 -0.2961  0.7825  0.0244
 2697SOL    HW119727   1.155   0.685   5.314 -0.7524 -0.3992  0.4756
 2697SOL    HW219728   1.025   0.741   5.357 -1.1827  1.4618  2.8102
 2698SOL     OW19729   0.353   2.802  11.963 -0.1982 -0.0820  0.7845
 2698SOL    HW119730   0.285   2.802  11.895 -1.4085  1.4325  1.9841
 2698SOL    HW219731   0.384   2.892  11.965 -1.2220  0.3019 -0.1677
 2699SOL     OW19732   2.152   3.057   6.745  0.0351  0.0871 -0.1031
 2699SOL    HW119733   2.239   3.094   6.739  0.8328 -1.7893 -0.1250
 2699SOL    HW219734   2.107   3.133   6.708  1.2187  0.6878 -0.3056
 2700SOL     OW19735   2.959   3.746   1.807 -0.0993 -0.3602 -0.1678
 2700SOL    HW119736   3.037   3.702   1.773  1.0496  1.7527 -0.2286
 2700SOL    HW219737   2.992   3.833   1.783  0.4142  0.0086  1.9186
 2701SOL     OW19738   2.050   1.427   0.680 -0.1347 -0.2404  0.1841
 2701SOL    HW119739   1.980   1.429   0.615  0.5403  0.1828 -0.5294
 2701SOL    HW219740   2.130   1.450   0.633 -1.0177 -0.9947 -1.7055
 2702SOL     OW19741   3.847   0.584   2.786  0.3582  0.5123  0.1195
 2702SOL    HW119742   3.842   0.652   2.719 -0.5086  0.6637  0.3353
 2702SOL    HW219743   3.839   0.642   2.862 -3.1895  1.5261 -1.0321
 2703SOL     OW19744   3.527   3.588  15.351  0.7156 -0.1042  0.0183
 2703SOL    HW119745   3.507   3.623  15.437  2.1187 -0.4867  0.5068
 2703SOL    HW219746   3.525   3.674  15.310  0.4291  1.3893  3.1625
 2704SOL     OW19747   0.546   4.396   4.099 -0.5098  0.0838 -0.1012
 2704SOL    HW119748   0.507   4.325   4.150 -0.7853 -1.3287 -2.2993
 2704SOL    HW219749   0.635   4.360   4.090 -1.3715 -1.9981 -0.2634
 2705SOL     OW19750   2.131   0.883   8.610  0.3174 -0.2636 -0.2553
 2705SOL    HW119751   2.159   0.803   8.656 -0.1997  2.5463  4.9420
 2705SOL    HW219752   2.124   0.856   8.518 -0.0994  1.0043 -0.5861
 2706SOL     OW19753   1.908   3.265  15.390 -0.4322 -0.2407  0.4075
 2706SOL    HW119754   2.001   3.242  15.386 -0.6833 -1.0929 -0.4919
 2706SOL    HW219755   1.898   3.276  15.485 -3.5008  0.6126 -0.0105
 2707SOL     OW19756   2.554   3.949   6.379  0.5793  0.5266 -0.1992
 2707SOL    HW119757   2.558   3.871   6.434  0.5975 -0.6969 -1.9241
 2707SOL    HW219758   2.458   3.950   6.377  0.6099  0.1886 -2.2510
 2708SOL     OW19759   1.602   3.157   5.775 -0.6625  0.0715 -0.1066
 2708SOL    HW119760   1.610   3.209   5.695  0.8624 -0.6734 -0.4315
 2708SOL    HW219761   1.624   3.068   5.749  2.1242 -0.1652  2.9135
 2709SOL     OW19762   4.420   1.029   3.472 -0.2844  0.1826  0.1142
 2709SOL    HW119763   4.440   1.100   3.411 -2.4189  1.5524  0.9956
 2709SOL    HW219764   4.386   0.961   3.414  1.8217 -0.9945  0.2546
 2710SOL     OW19765   2.929   3.320   3.002  0.0191  0.0491  0.0236
 2710SOL    HW119766   2.840   3.287   2.987 -0.1188  0.8551 -0.9428
 2710SOL    HW219767   2.930   3.409   2.966 -0.5584  0.6310  1.4775
 2711SOL     OW19768   0.554   1.422  16.046 -0.3419  0.4215 -0.2739
 2711SOL    HW119769   0.590   1.480  16.113 -1.5884  0.1284  0.6439
 2711SOL    HW219770   0.475   1.466  16.016 -0.1856  1.7782  1.3108
 2712SOL     OW19771   1.604   3.294   3.844 -0.2903  0.3736  0.0717
 2712SOL    HW119772   1.622   3.300   3.750 -2.9757  1.9669 -0.3245
 2712SOL    HW219773   1.641   3.207   3.856 -1.0218  0.1514  0.7442
 2713SOL     OW19774   0.574   0.511  17.095 -0.3454  0.1137 -0.1052
 2713SOL    HW119775   0.655   0.479  17.134 -0.1830  0.8123  0.1280
 2713SOL    HW219776   0.600   0.600  17.071 -1.3418  0.5003  0.2411
 2714SOL     OW19777   0.427   1.564   9.993 -0.3972 -0.1298 -0.1305
 2714SOL    HW119778   0.457   1.593  10.079 -1.5358 -1.1801  0.6298
 2714SOL    HW219779   0.505   1.525   9.954 -0.6563 -0.5304 -0.2540
 2715SOL     OW19780   0.092   3.549  11.017 -0.1224 -0.0513 -0.5332
 2715SOL    HW119781   0.056   3.511  11.097  0.4625 -0.8817 -0.6667
 2715SOL    HW219782   0.186   3.531  11.019  0.0320  0.5908 -1.4995
 2716SOL     OW19783   0.349   2.888   0.143 -0.0043 -0.1404 -0.3885
 2716SOL    HW119784   0.351   2.799   0.107 -1.4698  0.1533 -1.2055
 2716SOL    HW219785   0.423   2.880   0.204 -1.3101 -1.7850  0.9970
 2717SOL     OW19786   0.924   2.612  13.572  0.4611 -0.3481  0.3735
 2717SOL    HW119787   0.862   2.559  13.622 -0.0932 -0.9614 -0.9780
 2717SOL    HW219788   0.902   2.698  13.609 -2.2820  0.6008 -3.5468
 2718SOL     OW19789   3.957   1.110   6.097  0.5864 -0.0803  0.1873
 2718SOL    HW119790   4.005   1.088   6.017 -0.4721 -0.0289 -0.4712
 2718SOL    HW219791   4.018   1.081   6.164  0.4191 -1.3478 -0.2060
 2719SOL     OW19792   4.700   2.492   5.278 -0.3571  0.1289 -0.1490
 2719SOL    HW119793   4.691   2.587   5.278 -0.7767  0.0898 -0.2868
 2719SOL    HW219794   4.657   2.484   5.192  3.1218  0.7721 -1.9337
 2720SOL     OW19795   2.568   3.662   7.621 -0.0548 -0.2635  0.0416
 2720SOL    HW119796   2.522   3.741   7.650 -2.4926 -1.4357 -0.6567
 2720SOL    HW219797   2.604   3.691   7.538  0.0720  2.5083  1.0697
 2721SOL     OW19798   0.438   4.081   2.113 -0.2518  0.5975  0.3043
 2721SOL    HW119799   0.532   4.068   2.100 -0.4506  1.6501 -2.1525
 2721SOL    HW219800   0.416   4.099   2.022  0.0769  0.4196  0.1903
 2722SOL     OW19801   0.551   0.701   2.003  0.4530  0.6940  0.9352
 2722SOL    HW119802   0.542   0.630   2.067  0.2580  0.6837  0.8944
 2722SOL    HW219803   0.643   0.707   1.975  0.2080  0.4604  0.0912
 2723SOL     OW19804   4.241   1.125  16.551 -0.0735  0.0073  0.1824
 2723SOL    HW119805   4.311   1.104  16.613  0.1299  1.6711  0.5052
 2723SOL    HW219806   4.161   1.107  16.602  0.7764 -1.7393  0.9263
 2724SOL     OW19807   0.846   1.118  12.518  0.4981 -0.5274 -0.0575
 2724SOL    HW119808   0.798   1.104  12.436 -2.7374 -0.3513  1.8039
 2724SOL    HW219809   0.880   1.029  12.531  1.1363 -0.3042 -0.2131
 2725SOL     OW19810   2.783   1.237  16.064  0.1568 -0.3526 -0.1204
 2725SOL    HW119811   2.853   1.302  16.052 -0.0094 -0.2172 -0.3479
 2725SOL    HW219812   2.835   1.165  16.101 -1.1510 -1.2822 -0.1003
 2726SOL     OW19813   2.325   2.455   6.242 -0.1060 -0.0415 -0.2601
 2726SOL    HW119814   2.359   2.382   6.189  0.8822 -0.5293  1.0497
 2726SOL    HW219815   2.231   2.445   6.229  0.2799 -2.9791 -0.9220
 2727SOL     OW19816   2.776   3.958   6.638 -0.5226 -0.2782 -0.0557
 2727SOL    HW119817   2.797   3.902   6.712 -1.7668  0.0483  0.5472
 2727SOL    HW219818   2.719   3.893   6.595 -1.5921  1.3591 -1.1330
 2728SOL     OW19819   2.287   3.967   9.348  0.2535  0.6483  0.1907
 2728SOL    HW119820   2.349   4.040   9.351 -0.6060  1.3263  1.6072
 2728SOL    HW219821   2.288   3.931   9.437 -0.7539  0.7103  0.2214
 2729SOL     OW19822   1.107   1.525  14.385 -0.0052 -0.2180  0.3854
 2729SOL    HW119823   1.158   1.570  14.453 -1.0983  2.1849 -0.3914
 2729SOL    HW219824   1.028   1.505  14.435  0.8276 -1.9620  0.9886
 2730SOL     OW19825   4.666   3.722  11.639  0.5916  0.3585 -1.0547
 2730SOL    HW119826   4.694   3.810  11.667 -1.8297  0.7424  0.0993
 2730SOL    HW219827   4.577   3.750  11.617  0.3232 -0.0389 -0.4705
 2731SOL     OW19828   2.464   4.183  10.704 -0.6493  0.0030  0.0064
 2731SOL    HW119829   2.433   4.258  10.654  0.5659  0.6530  0.2209
 2731SOL    HW219830   2.550   4.220  10.726  0.7951 -2.1644 -2.0525
 2732SOL     OW19831   2.158   4.122  13.868  0.3950  0.3221 -0.0072
 2732SOL    HW119832   2.213   4.200  13.872  0.9528 -0.1404  1.2331
 2732SOL    HW219833   2.162   4.082  13.955  0.8142  0.3535 -0.0127
 2733SOL     OW19834   4.442   0.544   2.424  0.0968 -0.5941  0.2077
 2733SOL    HW119835   4.353   0.575   2.411  0.6323  1.0284  0.3812
 2733SOL    HW219836   4.497   0.620   2.406  3.3365 -2.7053  1.1337
 2734SOL     OW19837   3.706   2.005  10.995 -0.4241 -0.2530  0.7461
 2734SOL    HW119838   3.749   1.923  11.022 -1.5845 -0.7766  1.0122
 2734SOL    HW219839   3.686   2.053  11.075 -1.2147 -0.2051  0.5135
 2735SOL     OW19840   0.470   0.983  13.811 -0.0883  0.2204  0.2144
 2735SOL    HW119841   0.497   0.906  13.761 -0.1475  1.4039 -1.6173
 2735SOL    HW219842   0.379   0.987  13.780  0.8964  1.9474 -2.3826
 2736SOL     OW19843   4.535   0.708  17.377 -0.3193 -0.6356  0.4180
 2736SOL    HW119844   4.443   0.710  17.351 -0.0826 -0.0528 -0.3670
 2736SOL    HW219845   4.536   0.702  17.473 -1.4203  0.6284  0.4992
 2737SOL     OW19846   4.543   2.200  15.270  0.3322 -0.2581 -0.0511
 2737SOL    HW119847   4.538   2.105  15.274 -0.4945 -0.1620  1.1993
 2737SOL    HW219848   4.534   2.226  15.362 -1.2104  2.4066 -0.9444
 2738SOL     OW19849   4.077   0.319  13.985 -0.0633  0.7106  0.1761
 2738SOL    HW119850   4.054   0.257  14.054 -0.4412 -2.1789 -2.5671
 2738SOL    HW219851   4.166   0.291  13.964  0.5533  2.3603  0.5511
 2739SOL     OW19852   0.600   2.053   4.347  0.2009 -0.0082 -0.7374
 2739SOL    HW119853   0.507   2.034   4.356  0.1303  0.2555 -0.9106
 2739SOL    HW219854   0.620   2.056   4.440  1.5937 -0.4956 -1.0120
 2740SOL     OW19855   2.705   1.520   9.767 -0.6119 -0.8100  0.2192
 2740SOL    HW119856   2.637   1.569   9.814  0.2609 -0.2570  0.9059
 2740SOL    HW219857   2.745   1.459   9.829  0.8374 -0.0380  0.0288
 2741SOL     OW19858   2.764   0.301  10.183 -0.1728 -0.2090 -0.3600
 2741SOL    HW119859   2.848   0.254  10.185  0.2470  0.6796  3.9177
 2741SOL    HW219860   2.765   0.326  10.276 -0.2439 -0.6278 -0.2454
 2742SOL     OW19861   3.012   2.983   9.403 -0.1340  0.0226  0.4397
 2742SOL    HW119862   2.952   2.967   9.476 -2.2012 -1.6569 -1.6137
 2742SOL    HW219863   3.077   2.913   9.413  0.5088  0.5978  0.3162
 2743SOL     OW19864   1.296   3.502   3.046  0.3825  0.4928 -0.4582
 2743SOL    HW119865   1.228   3.494   2.979 -0.3335  1.6705  0.1081
 2743SOL    HW219866   1.358   3.560   3.004  0.6330  1.1674  0.8256
 2744SOL     OW19867   1.995   4.361   6.208  0.5711 -0.1198 -0.2652
 2744SOL    HW119868   2.028   4.389   6.293 -0.4734  0.8414 -0.1864
 2744SOL    HW219869   2.011   4.439   6.155  2.5314  0.4625  1.1782
 2745SOL     OW19870   0.211   0.826   5.094  0.1577  0.7805 -0.3921
 2745SOL    HW119871   0.138   0.824   5.156 -0.1164  2.1975 -0.6764
 2745SOL    HW219872   0.184   0.762   5.029 -3.0810  0.5850  1.1405
 2746SOL     OW19873   3.623   4.539   6.576 -0.3456  0.7258  0.1136
 2746SOL    HW119874   3.667   4.466   6.532 -1.7189 -0.5078  0.7934
 2746SOL    HW219875   3.697   4.554   6.635 -1.0489  2.5245  0.5366
 2747SOL     OW19876   2.884   4.460   2.269  0.3722 -0.4550 -0.6044
 2747SOL    HW119877   2.978   4.476   2.274  0.1434  0.4724  0.8971
 2747SOL    HW219878   2.877   4.368   2.296 -2.0295 -0.7423 -2.1754
 2748SOL     OW19879   1.998   2.181   8.651  0.5161  0.1792 -0.3341
 2748SOL    HW119880   2.020   2.140   8.735  1.0619 -1.1500 -1.1171
 2748SOL    HW219881   1.903   2.180   8.654  0.5401 -1.4847 -0.1498
 2749SOL     OW19882   2.091   1.620  10.764  0.6399 -0.2050  0.9467
 2749SOL    HW119883   2.101   1.715  10.753 -0.5993 -0.0048  1.5735
 2749SOL    HW219884   2.015   1.605  10.821 -0.6946  0.1895 -0.7322
 2750SOL     OW19885   3.635   4.443   4.563 -0.2440  0.3444 -0.0716
 2750SOL    HW119886   3.600   4.437   4.652  3.3336 -1.0396  1.2510
 2750SOL    HW219887   3.647   4.538   4.557  0.2943  0.4053  1.8163
 2751SOL     OW19888   3.604   4.413   5.338 -0.1005  0.6914 -0.0582
 2751SOL    HW119889   3.680   4.371   5.379 -0.9486 -0.7535  0.0542
 2751SOL    HW219890   3.646   4.492   5.306 -1.7783  0.5998 -2.4855
 2752SOL     OW19891   0.439   0.734   8.417  0.0144 -0.3839  0.0564
 2752SOL    HW119892   0.361   0.679   8.423  0.2145 -0.3711  3.1615
 2752SOL    HW219893   0.474   0.709   8.332  0.8676  0.5237  0.1438
 2753SOL     OW19894   2.737   0.477   2.635  0.2329 -0.1290  0.2680
 2753SOL    HW119895   2.762   0.508   2.722 -0.0563 -0.6407  0.5393
 2753SOL    HW219896   2.651   0.518   2.625 -0.1616 -0.6603  1.3896
 2754SOL     OW19897   2.225   2.814   6.461  0.1136 -0.1225  0.3873
 2754SOL    HW119898   2.298   2.865   6.496  2.3954 -1.7227 -2.1314
 2754SOL    HW219899   2.270   2.730   6.451 -0.8753 -0.6373  0.2466
 2755SOL     OW19900   2.608   3.769   3.669 -0.3402 -0.2167 -0.4414
 2755SOL    HW119901   2.513   3.758   3.658 -0.3935  0.3509 -0.5690
 2755SOL    HW219902   2.628   3.737   3.581 -1.1883 -1.9899  0.0112
 2756SOL     OW19903   3.042   1.716   0.577 -0.2566 -0.4283 -0.4461
 2756SOL    HW119904   3.101   1.685   0.509 -0.4872  0.7905 -1.2014
 2756SOL    HW219905   3.025   1.806   0.548 -0.6618 -0.5163 -0.4860
 2757SOL     OW19906   1.047   0.601   2.126 -0.4836 -0.8651  0.0012
 2757SOL    HW119907   1.081   0.691   2.130  1.2929 -1.5579  0.2850
 2757SOL    HW219908   0.953   0.619   2.112 -0.1622  1.0334  0.1957
 2758SOL     OW19909   1.084   0.387  15.240 -0.2940 -0.2201  0.0031
 2758SOL    HW119910   1.137   0.449  15.190  1.1816 -1.1033  0.4603
 2758SOL    HW219911   1.004   0.387  15.187 -2.0076  2.1460  2.5734
 2759SOL     OW19912   3.810   1.063   4.232 -0.4235  0.9756 -0.7788
 2759SOL    HW119913   3.850   1.008   4.300 -0.5058 -0.5767 -1.9904
 2759SOL    HW219914   3.729   1.019   4.207  0.6150 -1.6293  0.4070
 2760SOL     OW19915   0.922   3.016   5.634 -0.1454 -0.1116  0.3471
 2760SOL    HW119916   0.919   3.000   5.728 -0.1820 -1.1233  0.1727
 2760SOL    HW219917   0.867   2.941   5.613 -0.2794  0.1150 -0.1048
 2761SOL     OW19918   2.823   1.796   4.511  0.0937  0.3028 -0.1720
 2761SOL    HW119919   2.886   1.738   4.468  0.6369 -0.4294  1.6313
 2761SOL    HW219920   2.820   1.873   4.454  0.0666  0.4139 -0.0177
 2762SOL     OW19921   0.702   4.103   3.404  0.0528  0.2311  0.2958
 2762SOL    HW119922   0.727   4.047   3.478 -1.2296 -0.6937  0.0425
 2762SOL    HW219923   0.784   4.129   3.363  0.8480 -3.1350 -0.2321
 2763SOL     OW19924   0.890   0.590   8.529 -0.6441  0.2366 -0.2670
 2763SOL    HW119925   0.811   0.554   8.570 -1.0190 -0.4982 -1.6255
 2763SOL    HW219926   0.910   0.668   8.580 -1.4996  0.5143 -0.3483
 2764SOL     OW19927   2.221   3.062  12.831 -0.0849 -0.7287  0.0060
 2764SOL    HW119928   2.295   3.091  12.777 -0.6506  1.5795  0.4515
 2764SOL    HW219929   2.240   3.105  12.915  0.2331 -2.0333  0.6099
 2765SOL     OW19930   0.387   2.330   4.650 -0.5051  0.0796  0.0774
 2765SOL    HW119931   0.351   2.390   4.586 -0.0714 -0.2090 -0.4389
 2765SOL    HW219932   0.369   2.376   4.732  1.0596  0.5383  0.1605
 2766SOL     OW19933   1.102   3.751   8.466 -0.2111 -0.2993  0.3906
 2766SOL    HW119934   1.020   3.704   8.483 -0.3093  0.5186  2.2064
 2766SOL    HW219935   1.061   3.838   8.469 -0.9674 -0.6450  0.0186
 2767SOL     OW19936   2.124   2.999  12.583 -0.5350 -0.4796  0.0280
 2767SOL    HW119937   2.130   3.021  12.676 -1.2920 -0.4986  0.0809
 2767SOL    HW219938   2.196   2.936  12.577  0.3151  0.5727 -0.6927
 2768SOL     OW19939   3.290   3.954   3.443  0.0834 -0.4498 -0.0419
 2768SOL    HW119940   3.306   3.893   3.370 -2.6575 -1.1349 -0.0843
 2768SOL    HW219941   3.378   3.980   3.468  0.5121 -0.0538 -1.9606
 2769SOL     OW19942   0.997   4.202   5.026  0.5747 -0.5907 -0.7113
 2769SOL    HW119943   0.972   4.204   5.118 -1.2048  0.9552 -1.2351
 2769SOL    HW219944   1.031   4.113   5.016 -0.2695 -1.0197  0.2834
 2770SOL     OW19945   0.495   0.436   5.247  0.0326 -0.3785  0.7729
 2770SOL    HW119946   0.473   0.344   5.239  1.1593 -0.8262  2.9453
 2770SOL    HW219947   0.411   0.482   5.241 -0.9859 -2.1511  1.4844
 2771SOL     OW19948   1.607   0.851   8.480 -0.6809  0.2795  0.8084
 2771SOL    HW119949   1.594   0.819   8.391  0.7617 -3.0080  1.7684
 2771SOL    HW219950   1.702   0.849   8.493 -0.3568  0.1288 -1.5192
 2772SOL     OW19951   4.427   0.891  11.829 -0.5457 -0.0099 -0.0557
 2772SOL    HW119952   4.357   0.954  11.846 -2.1968 -2.3092  1.7754
 2772SOL    HW219953   4.419   0.822  11.895 -3.1768 -0.4158 -0.7832
 2773SOL     OW19954   3.701   1.356  10.497 -0.4268  0.0642 -0.3080
 2773SOL    HW119955   3.744   1.276  10.527 -0.4602 -0.0064 -0.4449
 2773SOL    HW219956   3.651   1.379  10.575  0.4387 -0.6288  0.4448
 2774SOL     OW19957   1.088   0.454   0.978 -0.0149 -0.0944  0.2293
 2774SOL    HW119958   1.116   0.494   0.896 -1.6590  0.1176 -0.2337
 2774SOL    HW219959   1.166   0.402   0.997 -0.9928 -1.7033 -0.2005
 2775SOL     OW19960   3.268   1.718   5.921  0.3101  0.1430  0.2739
 2775SOL    HW119961   3.341   1.719   5.860 -0.2441 -1.4553 -0.4075
 2775SOL    HW219962   3.305   1.764   5.996  1.7327 -2.4304  1.1250
 2776SOL     OW19963   2.872   1.642   5.406  0.2254  0.1285 -0.1885
 2776SOL    HW119964   2.882   1.737   5.411 -0.4416  0.0478  2.6277
 2776SOL    HW219965   2.853   1.612   5.494  0.6867 -1.3589 -0.5960
 2777SOL     OW19966   4.224   4.712   2.531  0.2810 -0.0697 -0.1062
 2777SOL    HW119967   4.316   4.688   2.528  0.8155  1.9058 -0.0339
 2777SOL    HW219968   4.235   0.030   2.610  2.2374 -1.7952  0.7574
 2778SOL     OW19969   1.084   0.804   7.231  0.3424 -0.2764 -0.0442
 2778SOL    HW119970   1.115   0.892   7.249  0.7861 -0.7457  1.5010
 2778SOL    HW219971   1.127   0.769   7.309  0.6674  2.0589  0.8073
 2779SOL     OW19972   2.934   0.291   5.168  0.3601 -0.0583  0.4820
 2779SOL    HW119973   2.881   0.370   5.155  1.8307  1.2793  2.6021
 2779SOL    HW219974   2.882   0.238   5.228 -0.0382 -1.4406 -1.0676
 2780SOL     OW19975   1.876   3.499   4.004  0.2175 -0.5004  0.1967
 2780SOL    HW119976   1.873   3.408   3.976  0.0577 -0.1657 -0.9067
 2780SOL    HW219977   1.971   3.507   3.998  0.3186 -2.4639 -0.7127
 2781SOL     OW19978   0.955   1.398   9.080  0.6540  0.0232 -0.4238
 2781SOL    HW119979   0.875   1.344   9.086  0.1431  0.8021 -0.2948
 2781SOL    HW219980   1.008   1.347   9.141 -0.6262  0.1506  0.8024
 2782SOL     OW19981   4.578   2.555   2.543 -0.2179 -0.1004  0.7059
 2782SOL    HW119982   4.532   2.491   2.598 -0.7398  0.9074  1.4392
 2782SOL    HW219983   4.667   2.550   2.578 -0.6929 -1.4568  1.7428
 2783SOL     OW19984   2.733   0.862   7.172  0.0894  0.1054  0.4949
 2783SOL    HW119985   2.660   0.851   7.233 -0.9263 -2.6943 -1.1710
 2783SOL    HW219986   2.710   0.800   7.102  1.1680  0.1438  0.0950
 2784SOL     OW19987   1.283   2.570   7.965  0.2333 -0.5890 -0.1183
 2784SOL    HW119988   1.227   2.532   8.033 -0.1758  0.3667  0.0904
 2784SOL    HW219989   1.321   2.492   7.926 -0.1526  0.5074 -2.6892
 2785SOL     OW19990   1.416   4.678   3.985 -0.2023  0.0319 -0.1597
 2785SOL    HW119991   1.365   4.622   3.926 -0.3748  1.5533 -1.4456
 2785SOL    HW219992   1.503   4.645   3.963  0.3017  1.5076 -0.4203
 2786SOL     OW19993   2.249   2.025  10.210 -0.5589 -0.6244 -0.3683
 2786SOL    HW119994   2.191   2.101  10.208 -1.5861 -1.4096 -0.2573
 2786SOL    HW219995   2.184   1.968  10.169  0.2084 -2.0844  0.4521
 2787SOL     OW19996   0.755   2.319  15.268  0.0166 -0.0472  0.2754
 2787SOL    HW119997   0.788   2.250  15.210 -1.1979 -1.7470  1.6048
 2787SOL    HW219998   0.695   2.367  15.212  1.4265  1.8028  0.3714
 2788SOL     OW19999   2.589   4.334   4.270  0.1972  0.2843  0.3346
 2788SOL    HW120000   2.605   4.331   4.175  1.8188  3.3429  0.5104
 2788SOL    HW220001   2.678   4.350   4.302 -0.0296 -0.0710  1.1432
 2789SOL     OW20002   2.800   1.757  13.328 -0.4597  0.5088  0.2568
 2789SOL    HW120003   2.818   1.663  13.333 -1.8919  0.2238 -0.1710
 2789SOL    HW220004   2.804   1.779  13.235 -4.4114  0.6898  0.1676
 2790SOL     OW20005   1.903   1.996   3.096 -0.0750  0.1314 -0.0823
 2790SOL    HW120006   1.837   1.968   3.159  0.9928 -2.3802 -0.1131
 2790SOL    HW220007   1.885   2.087   3.073  0.3741  0.1403 -0.4003
 2791SOL     OW20008   3.726   1.854   3.024  0.3008 -0.1264  0.3577
 2791SOL    HW120009   3.700   1.944   3.039  1.7750  0.2400  0.7315
 2791SOL    HW220010   3.713   1.850   2.929  1.3799  2.6881  0.0929
 2792SOL     OW20011   0.427   3.028   6.439 -0.3097 -0.6785 -0.0287
 2792SOL    HW120012   0.482   2.960   6.400 -1.1421 -0.0927 -2.2378
 2792SOL    HW220013   0.465   3.113   6.414  1.4716 -1.7643 -0.9921
 2793SOL     OW20014   3.975   1.266   7.352 -0.7421  0.5378 -0.4427
 2793SOL    HW120015   3.916   1.191   7.347  0.3462 -0.2851 -0.6307
 2793SOL    HW220016   3.948   1.302   7.268  1.1904  0.8262 -0.9240
 2794SOL     OW20017   1.489   1.074   5.254  0.0813  0.2991 -0.1325
 2794SOL    HW120018   1.423   1.030   5.307 -1.1282  1.0130 -1.0449
 2794SOL    HW220019   1.467   1.154   5.302  3.3857  1.4419 -0.4889
 2795SOL     OW20020   1.590   1.908   8.501  0.4337 -0.1771  0.3592
 2795SOL    HW120021   1.510   1.892   8.551  0.1810  1.2910  0.4031
 2795SOL    HW220022   1.599   2.001   8.519  2.4562 -0.0648 -1.2450
 2796SOL     OW20023   0.345   4.162  13.424 -0.2902 -0.4029 -0.2453
 2796SOL    HW120024   0.377   4.244  13.387 -1.1681 -1.0351 -2.3907
 2796SOL    HW220025   0.252   4.176  13.404 -0.4511 -0.6272  0.3418
 2797SOL     OW20026   4.090   4.412   4.796  0.2636 -0.1196  0.2172
 2797SOL    HW120027   4.101   4.411   4.891  0.9091 -1.8514  0.1247
 2797SOL    HW220028   4.004   4.371   4.788  0.4636 -0.0095 -2.5472
 2798SOL     OW20029   2.105   4.578   6.002  0.6616 -0.0554  0.1567
 2798SOL    HW120030   2.152   4.562   5.920 -2.7099  0.8097 -1.9820
 2798SOL    HW220031   2.182   4.578   6.058  1.1331 -0.4180 -0.4966
 2799SOL     OW20032   2.899   0.534   5.644 -0.2024  0.1153  0.0664
 2799SOL    HW120033   2.862   0.564   5.561  2.6412 -0.0377 -1.2497
 2799SOL    HW220034   2.871   0.612   5.693  0.7773  0.1804  0.5198
 2800SOL     OW20035   1.530   3.457   2.878  0.4790 -0.6061  0.0200
 2800SOL    HW120036   1.437   3.451   2.857  0.1908  0.3229  1.0134
 2800SOL    HW220037   1.569   3.480   2.793  0.0338  1.2808  0.3252
 2801SOL     OW20038   2.731   2.734  17.371 -0.2548  0.6109 -0.3555
 2801SOL    HW120039   2.747   2.656  17.317 -0.0836  2.0781 -2.3988
 2801SOL    HW220040   2.787   2.799  17.330 -0.0406  0.4155 -0.3748
 2802SOL     OW20041   0.888   0.442   4.297  0.2317 -0.4166 -0.0022
 2802SOL    HW120042   0.933   0.370   4.253 -1.5713 -1.4763 -0.1152
 2802SOL    HW220043   0.926   0.436   4.384  0.9609  0.1189 -0.2790
 2803SOL     OW20044   3.426   4.432   8.596 -0.5317 -0.0243  0.5392
 2803SOL    HW120045   3.403   4.350   8.554  0.8322 -0.3766  0.4744
 2803SOL    HW220046   3.349   4.485   8.574  0.2870  0.2999 -1.5055
 2804SOL     OW20047   2.199   2.212  11.647 -0.3044  0.1927 -0.2084
 2804SOL    HW120048   2.181   2.282  11.583 -1.3933 -0.7718 -0.9700
 2804SOL    HW220049   2.243   2.264  11.714 -0.3253 -1.6796  1.2235
 2805SOL     OW20050   1.198   1.935   7.390  0.3906 -0.2901  0.2271
 2805SOL    HW120051   1.112   1.966   7.362  0.1673  0.4914  1.7799
 2805SOL    HW220052   1.191   1.965   7.481  1.0302  0.3177  0.0768
 2806SOL     OW20053   3.801   4.434   4.099 -0.5099  0.2909 -0.0615
 2806SOL    HW120054   3.839   4.518   4.126 -0.2747  0.5716 -1.2399
 2806SOL    HW220055   3.855   4.371   4.145 -0.7903 -0.5912 -0.9350
 2807SOL     OW20056   0.666   2.095  14.728 -0.1312 -0.4595  0.6828
 2807SOL    HW120057   0.613   2.016  14.720 -1.2912  0.2281  1.6791
 2807SOL    HW220058   0.624   2.144  14.658 -2.3059 -0.6417  1.8737
 2808SOL     OW20059   0.676   0.092   0.281  0.1040 -0.1109 -0.5515
 2808SOL    HW120060   0.657   0.185   0.294  3.1322  0.0499  2.6823
 2808SOL    HW220061   0.686   0.062   0.371 -0.4959 -1.0183 -0.7826
 2809SOL     OW20062   0.149   0.057   3.206  0.6600 -0.0829  0.0442
 2809SOL    HW120063   0.097   0.127   3.244  0.6986 -0.6762  1.1819
 2809SOL    HW220064   0.138   0.066   3.111 -1.7611  0.1842  0.3600
 2810SOL     OW20065   0.512   2.016   9.993  0.0848 -0.0482  0.6132
 2810SOL    HW120066   0.560   1.951  10.044 -1.5652 -0.2246  1.9299
 2810SOL    HW220067   0.521   2.096  10.045 -2.3396  1.8254 -1.8640
 2811SOL     OW20068   0.877   1.172   7.478 -0.3779  0.2493 -0.5140
 2811SOL    HW120069   0.896   1.098   7.419 -1.7683 -0.1219 -0.5008
 2811SOL    HW220070   0.937   1.139   7.545 -0.4946  0.9662 -0.0605
 2812SOL     OW20071   2.476   3.493  12.732  0.0626 -0.1870  0.2201
 2812SOL    HW120072   2.494   3.586  12.744 -0.0075 -0.2499  0.7998
 2812SOL    HW220073   2.440   3.502  12.644  0.9306  0.8562 -0.0300
 2813SOL     OW20074   2.443   1.072   2.618 -0.2048  0.1186  0.6130
 2813SOL    HW120075   2.464   1.156   2.578  0.1126  1.1750  2.9868
 2813SOL    HW220076   2.460   1.098   2.708  0.3958  1.8177 -0.0053
 2814SOL     OW20077   1.239   0.867   7.986  0.4538 -0.4829 -0.2596
 2814SOL    HW120078   1.193   0.946   8.016  0.3157 -1.3408  1.8072
 2814SOL    HW220079   1.179   0.794   7.999 -1.1379  0.8856  0.1039
 2815SOL     OW20080   0.007   1.487  11.782 -0.0062  0.3563  0.0732
 2815SOL    HW120081   4.686   1.554  11.743 -1.5541 -1.1982 -0.3860
 2815SOL    HW220082   0.045   1.454  11.700 -1.2344  0.9632 -0.7469
 2816SOL     OW20083   0.650   3.780   5.836 -0.5570 -0.2918 -0.0168
 2816SOL    HW120084   0.596   3.775   5.757 -0.4826 -1.0933 -0.0165
 2816SOL    HW220085   0.677   3.872   5.832 -1.0939 -0.0656  1.5246
 2817SOL     OW20086   2.662   3.405   2.695  0.6896 -0.4022 -0.1308
 2817SOL    HW120087   2.600   3.336   2.721 -2.4809  2.5542  0.1129
 2817SOL    HW220088   2.722   3.348   2.647  1.8518 -0.3570  1.2749
 2818SOL     OW20089   0.866   1.846   5.617 -0.2487  0.4381  0.2915
 2818SOL    HW120090   0.817   1.806   5.689 -2.4537 -1.3506 -2.2277
 2818SOL    HW220091   0.899   1.763   5.582 -2.2067  0.6864 -2.0862
 2819SOL     OW20092   0.188   4.556  11.226 -0.1648  0.5013  0.1109
 2819SOL    HW120093   0.113   4.499  11.212  0.4826 -0.1505 -0.6886
 2819SOL    HW220094   0.264   4.508  11.193 -1.0527 -0.3626 -0.6729
 2820SOL     OW20095   0.386   4.083   6.575  0.1157  0.0774 -0.8869
 2820SOL    HW120096   0.328   4.019   6.616 -0.8438 -0.9244 -3.8094
 2820SOL    HW220097   0.359   4.082   6.483  0.8592  1.7929 -1.1295
 2821SOL     OW20098   0.144   0.187   0.222 -0.1517 -0.4988  0.0712
 2821SOL    HW120099   0.059   0.146   0.212 -0.3370 -0.3212  0.9671
 2821SOL    HW220100   0.129   0.260   0.281  0.3143 -0.8700  0.6463
 2822SOL     OW20101   3.439   3.656  16.997  0.0991 -0.2600 -1.0673
 2822SOL    HW120102   3.492   3.730  17.025  1.2012 -1.2330 -0.5822
 2822SOL    HW220103   3.377   3.635  17.067  0.8717 -0.7015 -0.5124
 2823SOL     OW20104   3.489   0.616   2.748 -0.2640 -0.0598 -0.5034
 2823SOL    HW120105   3.528   0.542   2.702  2.5443  0.3475  1.2591
 2823SOL    HW220106   3.441   0.567   2.815  3.1757  0.0298  2.0136
 2824SOL     OW20107   4.126   2.435  17.544  0.0208 -0.1911  0.0490
 2824SOL    HW120108   4.101   2.505  17.483  0.4230 -0.6478 -0.6422
 2824SOL    HW220109   4.164   2.375  17.480  0.3513 -1.4201  1.4013
 2825SOL     OW20110   1.818   3.058  15.930 -0.1181 -0.3470  0.0319
 2825SOL    HW120111   1.829   2.963  15.939 -2.3016 -0.1990  4.5426
 2825SOL    HW220112   1.799   3.063  15.837 -1.0081 -1.1643  0.1638
 2826SOL     OW20113   2.569   2.621   3.280  0.2554 -0.3447  0.0147
 2826SOL    HW120114   2.510   2.566   3.332 -0.6735 -0.8033 -1.5236
 2826SOL    HW220115   2.513   2.645   3.206  0.8335 -0.3127 -0.4081
 2827SOL     OW20116   1.695   0.262   1.177  0.1498 -0.9051 -0.0467
 2827SOL    HW120117   1.660   0.278   1.090 -1.6294  2.6604  1.3285
 2827SOL    HW220118   1.693   0.352   1.210 -0.6451 -0.1115 -2.2900
 2828SOL     OW20119   1.939   1.363   9.377  0.2411 -0.0318 -0.6507
 2828SOL    HW120120   2.012   1.329   9.326 -1.0866 -4.3770  0.3895
 2828SOL    HW220121   1.901   1.411   9.303 -1.1191 -0.0611  0.0339
 2829SOL     OW20122   2.873   1.786   1.359  0.0493  0.9257  0.2852
 2829SOL    HW120123   2.797   1.841   1.376 -0.1230  0.3059  1.5243
 2829SOL    HW220124   2.942   1.848   1.338  0.5880 -0.5274 -2.2502
 2830SOL     OW20125   0.920   3.824   9.139  0.2665 -0.1839  0.2520
 2830SOL    HW120126   0.984   3.754   9.148  0.6101  0.1257  0.2300
 2830SOL    HW220127   0.973   3.904   9.140 -0.5824  0.3746  0.6424
 2831SOL     OW20128   2.584   1.703   9.943 -0.5021  0.1401  0.4548
 2831SOL    HW120129   2.674   1.711   9.976 -0.0014 -1.3374 -0.5519
 2831SOL    HW220130   2.547   1.689  10.030 -1.7898  1.3987  0.1007
 2832SOL     OW20131   2.206   1.112   8.149  0.0078  0.4671 -0.2983
 2832SOL    HW120132   2.268   1.176   8.185 -0.6102  0.1030  1.3958
 2832SOL    HW220133   2.239   1.095   8.061 -0.3868 -0.2004 -0.3137
 2833SOL     OW20134   3.033   0.368   8.102 -0.3831 -0.2076  0.3411
 2833SOL    HW120135   3.036   0.340   8.010 -4.3620  0.7240 -0.0799
 2833SOL    HW220136   3.090   0.309   8.152  0.7937  1.5838  1.1005
 2834SOL     OW20137   4.657   4.585   9.268  0.2147 -0.0658 -0.1058
 2834SOL    HW120138   4.614   4.576   9.353 -1.0470  0.0510 -0.7380
 2834SOL    HW220139   4.703   4.667   9.291 -2.0800  1.5322 -1.2728
 2835SOL     OW20140   2.395   1.959   5.909  0.3728  0.0867 -0.0991
 2835SOL    HW120141   2.438   1.942   5.993  1.7045  1.2742 -0.5281
 2835SOL    HW220142   2.413   1.878   5.862 -0.0254  0.8314 -1.5174
 2836SOL     OW20143   2.894   2.190  12.773 -0.7180  0.0862  0.5227
 2836SOL    HW120144   2.880   2.114  12.829  0.3437  0.6486  1.5658
 2836SOL    HW220145   2.945   2.247  12.830 -2.5932  2.6244 -0.3495
 2837SOL     OW20146   3.761   0.949   5.565 -0.0414  0.3607  0.0503
 2837SOL    HW120147   3.717   0.916   5.487  1.2703 -1.4416  0.0775
 2837SOL    HW220148   3.847   0.976   5.531 -0.8152  0.8322 -1.5086
 2838SOL     OW20149   1.362   1.333   2.757  0.1918  0.5303  0.0310
 2838SOL    HW120150   1.393   1.287   2.835 -2.4690  0.3996  1.0092
 2838SOL    HW220151   1.428   1.402   2.755 -1.5004  2.2557  2.7051
 2839SOL     OW20152   0.114   1.020   0.550 -0.4763 -0.0869  0.6096
 2839SOL    HW120153   0.097   0.951   0.614  0.6851 -0.0678  0.9250
 2839SOL    HW220154   0.174   0.980   0.487 -2.2936 -3.2213  0.8579
 2840SOL     OW20155   0.551   1.494   2.038 -0.2478  0.1872  0.5437
 2840SOL    HW120156   0.587   1.559   2.097 -1.9572  1.0732  0.6205
 2840SOL    HW220157   0.631   1.466   1.994  0.1041  1.8536  0.1407
 2841SOL     OW20158   3.285   4.504   2.988 -0.8876 -0.0674 -0.5270
 2841SOL    HW120159   3.204   4.453   2.986 -0.4371 -0.7698 -0.6576
 2841SOL    HW220160   3.325   4.488   2.903 -1.1637  0.7931 -0.8198
 2842SOL     OW20161   2.562   3.505   4.217  0.0159  0.2448 -0.1628
 2842SOL    HW120162   2.515   3.456   4.149  2.9937  0.3051 -2.3059
 2842SOL    HW220163   2.512   3.585   4.231  1.1197  1.1822 -1.5100
 2843SOL     OW20164   0.841   4.571   4.537  0.0839 -0.6597  0.1421
 2843SOL    HW120165   0.859   4.663   4.555  3.5744 -1.5130  1.0920
 2843SOL    HW220166   0.795   4.575   4.453 -0.3382 -1.6199  0.3241
 2844SOL     OW20167   2.483   3.963   3.883 -0.5885 -0.3459 -0.2435
 2844SOL    HW120168   2.524   3.906   3.819 -2.7324  0.6948 -2.5308
 2844SOL    HW220169   2.549   4.005   3.938 -1.3263 -0.7849  0.9875
 2845SOL     OW20170   4.565   3.661   8.206  0.1261  0.0200 -0.0426
 2845SOL    HW120171   4.606   3.737   8.166  1.2935 -0.5061  0.1547
 2845SOL    HW220172   4.541   3.705   8.288 -0.1024 -1.3024  0.6033
 2846SOL     OW20173   0.348   3.646  12.956 -0.4948 -0.3287  0.2560
 2846SOL    HW120174   0.325   3.644  12.863  2.0496  0.3362 -0.3978
 2846SOL    HW220175   0.262   3.650  12.998 -1.4860 -1.2258 -1.6675
 2847SOL     OW20176   1.752   0.995   4.253 -0.1525  0.1597 -0.2054
 2847SOL    HW120177   1.764   0.905   4.280 -0.4339 -0.3583 -1.8189
 2847SOL    HW220178   1.681   0.980   4.189 -0.8185 -1.4763  0.9296
 2848SOL     OW20179   2.197   2.305   3.152  0.5713  0.4427  0.0607
 2848SOL    HW120180   2.180   2.293   3.245 -1.6609 -2.4351 -0.7463
 2848SOL    HW220181   2.281   2.260   3.147  0.8865  1.1267 -0.8624
 2849SOL     OW20182   4.298   2.061   2.176  0.0316  0.8751 -0.1794
 2849SOL    HW120183   4.293   2.151   2.142 -0.0671  1.5131  1.5160
 2849SOL    HW220184   4.266   2.069   2.266 -1.9802  0.5217 -0.8640
 2850SOL     OW20185   0.532   4.440   3.096 -0.1003 -0.0497 -0.4142
 2850SOL    HW120186   0.608   4.429   3.152  0.2407 -1.4907 -1.1577
 2850SOL    HW220187   0.470   4.383   3.141  0.8790 -0.2553  0.6411
 2851SOL     OW20188   2.456   2.580   8.495 -0.0206  0.6972  0.5151
 2851SOL    HW120189   2.392   2.610   8.431  2.9924  2.6206 -1.5929
 2851SOL    HW220190   2.459   2.652   8.558  0.5626  1.3711 -0.2916
 2852SOL     OW20191   0.626   4.539   8.480  0.0447  0.1157 -0.1603
 2852SOL    HW120192   0.590   4.506   8.398  0.8650  1.3094 -1.0104
 2852SOL    HW220193   0.715   4.570   8.461  0.5971 -0.1246  2.0521
 2853SOL     OW20194   1.021   1.717   3.090 -0.0523  0.1570  1.0912
 2853SOL    HW120195   0.978   1.655   3.149 -0.0174 -0.5480  0.3693
 2853SOL    HW220196   1.102   1.669   3.073  0.4814  1.5671 -0.3803
 2854SOL     OW20197   3.522   4.488   4.830 -0.1177 -0.2045  0.3828
 2854SOL    HW120198   3.591   4.537   4.876  0.6695 -0.6941 -0.2847
 2854SOL    HW220199   3.444   4.506   4.883  0.3258  0.5569  0.7817
 2855SOL     OW20200   4.068   2.503   0.968  0.0388  0.1130  0.3690
 2855SOL    HW120201   4.050   2.597   0.970  2.7545  0.6241  0.0991
 2855SOL    HW220202   3.986   2.465   0.998  0.1565  0.7334  1.4442
 2856SOL     OW20203   4.481   4.182   4.530  0.3017  0.0829 -0.1796
 2856SOL    HW120204   4.435   4.173   4.614 -2.7789  0.6080 -1.7858
 2856SOL    HW220205   4.503   4.090   4.516  1.2170  0.6329 -2.3112
 2857SOL     OW20206   1.859   3.474   9.613 -0.5168 -0.0940  0.5703
 2857SOL    HW120207   1.812   3.455   9.532  1.5002 -3.5110  0.1676
 2857SOL    HW220208   1.916   3.547   9.590  0.3223 -1.2331 -0.9161
 2858SOL     OW20209   2.972   0.013   3.860 -0.3330  0.0496  0.2402
 2858SOL    HW120210   2.949   4.660   3.886  0.8856 -1.4590 -3.7528
 2858SOL    HW220211   2.934   0.012   3.772 -0.0375 -0.4938  0.1220
 2859SOL     OW20212   1.494   2.352   3.285 -0.1302 -0.3339 -0.4163
 2859SOL    HW120213   1.494   2.404   3.205  0.3288 -1.9596 -1.4803
 2859SOL    HW220214   1.400   2.351   3.303 -0.4658 -0.1248 -2.1622
 2860SOL     OW20215   1.017   2.477   5.271  0.0142  0.7936 -0.4378
 2860SOL    HW120216   1.057   2.472   5.358 -2.1195 -1.1087  0.4463
 2860SOL    HW220217   1.071   2.541   5.226  1.4358 -1.5894 -2.1111
 2861SOL     OW20218   3.732   1.392   5.859  0.1316 -0.0730 -0.1877
 2861SOL    HW120219   3.802   1.439   5.814 -0.1014 -0.2374 -0.7215
 2861SOL    HW220220   3.722   1.316   5.801  0.5851  0.9920 -1.6568
 2862SOL     OW20221   3.995   4.245   3.755  0.6994 -0.0713 -0.5378
 2862SOL    HW120222   4.002   4.183   3.683 -1.3783 -0.6467 -0.2339
 2862SOL    HW220223   4.061   4.308   3.726  0.3326  1.1048  1.1658
 2863SOL     OW20224   1.188   0.171   8.891 -0.3330  0.0279  0.3196
 2863SOL    HW120225   1.151   0.094   8.934  1.1509  0.0464  1.6503
 2863SOL    HW220226   1.234   0.138   8.813  1.3400  2.8776  0.1265
 2864SOL     OW20227   3.381   2.408   7.526  0.1155  0.5348 -0.0972
 2864SOL    HW120228   3.304   2.406   7.582 -0.7459  3.5260 -1.2145
 2864SOL    HW220229   3.374   2.331   7.469  0.7684 -0.3873  1.0544
 2865SOL     OW20230   3.490   1.948   4.388 -0.1322 -0.1715  0.0013
 2865SOL    HW120231   3.483   2.042   4.370 -2.9243 -0.7768 -2.0886
 2865SOL    HW220232   3.429   1.945   4.462 -0.0934 -0.1990  0.0327
 2866SOL     OW20233   1.645   1.791   4.820  0.3202 -0.0084  0.0771
 2866SOL    HW120234   1.692   1.763   4.741  0.8440 -1.7376  0.9922
 2866SOL    HW220235   1.717   1.811   4.881 -0.1470  1.4536  0.1396
 2867SOL     OW20236   1.338   0.368   4.311  0.6514  0.0947 -0.0085
 2867SOL    HW120237   1.431   0.370   4.335  0.8795  0.7497 -0.9739
 2867SOL    HW220238   1.317   0.276   4.294  1.3233  0.1447 -1.1325
 2868SOL     OW20239   0.004   0.993   1.566 -0.3453  0.0060 -0.1783
 2868SOL    HW120240   4.658   0.985   1.516 -0.3156 -0.7426 -0.1122
 2868SOL    HW220241   4.720   0.941   1.645 -2.3825  1.1629  0.0698
 2869SOL     OW20242   3.326   1.449   3.200  0.2117 -0.6445 -0.4490
 2869SOL    HW120243   3.292   1.425   3.114 -0.9629  0.8067 -0.3878
 2869SOL    HW220244   3.268   1.408   3.264 -0.9113  4.0355  1.5055
 2870SOL     OW20245   2.353   1.223   9.166  0.6705 -0.3106  0.3883
 2870SOL    HW120246   2.356   1.127   9.171  1.5941 -0.2726  0.4414
 2870SOL    HW220247   2.385   1.239   9.254  1.4696  1.0143 -0.1521
 2871SOL     OW20248   1.990   2.361   4.227  0.1713  0.1919 -1.1735
 2871SOL    HW120249   1.964   2.301   4.297  0.2262  0.4771 -0.9121
 2871SOL    HW220250   1.946   2.439   4.260  0.2071 -1.0647  1.8405
 2872SOL     OW20251   1.908   0.464   5.458 -0.0826  0.0309  0.0771
 2872SOL    HW120252   1.846   0.487   5.528  0.3054 -1.7864  1.0170
 2872SOL    HW220253   1.879   0.377   5.432  1.4466 -0.3583 -0.3782
 2873SOL     OW20254   2.243   2.697   8.302 -0.3374 -0.7968 -0.0702
 2873SOL    HW120255   2.205   2.785   8.299  0.0764 -0.5935  0.6310
 2873SOL    HW220256   2.324   2.718   8.255 -0.2764  2.8396  1.6419
 2874SOL     OW20257   2.879   3.936   2.522 -0.5646 -0.3341  0.2714
 2874SOL    HW120258   2.828   3.917   2.601 -4.0755 -1.2194 -2.2387
 2874SOL    HW220259   2.877   3.861   2.462  1.8087  0.3948 -0.7307
 2875SOL     OW20260   4.418   1.229   5.742 -0.3847 -0.1623 -0.9319
 2875SOL    HW120261   4.362   1.154   5.727  1.1701 -1.6791  0.8267
 2875SOL    HW220262   4.457   1.207   5.827 -2.8843  1.5598  0.6886
 2876SOL     OW20263   0.523   4.710   7.429  0.1070 -0.3704 -0.4043
 2876SOL    HW120264   0.503   0.049   7.372 -2.2318 -2.9369 -2.9373
 2876SOL    HW220265   0.555   0.010   7.512 -1.7550 -0.1935  0.2227
 2877SOL     OW20266   4.544   3.343   1.873 -0.2055  0.0724 -0.4109
 2877SOL    HW120267   4.624   3.385   1.905 -1.0515  1.6618 -0.4083
 2877SOL    HW220268   4.557   3.331   1.779 -0.4495 -0.6587 -0.3579
 2878SOL     OW20269   2.491   3.898  13.429  0.7215  0.0807  0.2766
 2878SOL    HW120270   2.492   3.804  13.411  0.1326  0.0230  0.5411
 2878SOL    HW220271   2.456   3.937  13.349 -0.2196 -1.6996 -0.1867
 2879SOL     OW20272   4.706   4.146   6.223 -0.1166 -0.0382 -0.2077
 2879SOL    HW120273   0.056   4.103   6.218  0.9065  1.7939  1.2923
 2879SOL    HW220274   4.681   4.146   6.131 -0.2083 -0.1978 -0.1823
 2880SOL     OW20275   1.675   2.943   1.508  0.7873 -0.6897  0.2455
 2880SOL    HW120276   1.614   3.002   1.464 -0.9395 -3.0516 -0.4968
 2880SOL    HW220277   1.617   2.878   1.548  1.1879 -0.8862  0.5037
 2881SOL     OW20278   4.205   2.432  14.592 -0.2158  0.1167  0.6073
 2881SOL    HW120279   4.255   2.445  14.511  1.0446  1.9381  1.6875
 2881SOL    HW220280   4.194   2.337  14.595  1.7667 -0.1720 -0.9058
 2882SOL     OW20281   3.451   0.179   9.019 -0.0504 -0.0139  0.2694
 2882SOL    HW120282   3.450   0.114   9.089  0.8354  0.1413  0.4244
 2882SOL    HW220283   3.485   0.253   9.068 -1.4938  0.5980  0.3318
 2883SOL     OW20284   3.851   2.355   1.445  0.3383 -0.0979  0.4878
 2883SOL    HW120285   3.865   2.436   1.397 -0.5523  0.3982  1.0552
 2883SOL    HW220286   3.834   2.287   1.380  1.4931 -1.4337  1.5838
 2884SOL     OW20287   1.138   4.578   5.273 -0.2578  0.0905  0.2403
 2884SOL    HW120288   1.063   4.538   5.317  1.2720 -2.0879  0.8411
 2884SOL    HW220289   1.208   4.516   5.288  0.1474  0.2093 -1.1499
 2885SOL     OW20290   2.352   3.636   8.927  0.5178 -0.2345 -0.1597
 2885SOL    HW120291   2.366   3.627   8.833 -0.0482 -0.7122 -0.1986
 2885SOL    HW220292   2.289   3.568   8.953  1.4296 -0.6795  0.8949
 2886SOL     OW20293   2.678   1.222   5.574  0.7157  0.0084  0.5894
 2886SOL    HW120294   2.622   1.254   5.503 -0.0780  1.0900  1.7227
 2886SOL    HW220295   2.622   1.155   5.612 -0.4788  0.3726 -0.5588
 2887SOL     OW20296   4.628   0.907   8.352 -0.3132  0.2743 -0.4447
 2887SOL    HW120297   4.715   0.941   8.330  0.1421 -1.1872 -0.8959
 2887SOL    HW220298   4.648   0.819   8.385  1.7404  0.0656 -2.2035
 2888SOL     OW20299   2.994   1.353   8.509  0.1916 -0.0809  0.4503
 2888SOL    HW120300   2.968   1.381   8.421 -0.3798  1.7614  1.2218
 2888SOL    HW220301   2.921   1.383   8.562  0.0474  0.6056 -0.1387
 2889SOL     OW20302   3.160   3.553   8.610  0.3876  0.3446  0.2265
 2889SOL    HW120303   3.101   3.480   8.590  0.8685  1.0528 -3.8294
 2889SOL    HW220304   3.098   3.622   8.632 -1.1836 -0.6433 -1.0642
 2890SOL     OW20305   3.695   4.113   7.351 -0.0369 -0.3049  0.0598
 2890SOL    HW120306   3.635   4.112   7.276  2.2319  1.0289 -1.7788
 2890SOL    HW220307   3.768   4.071   7.306 -1.9766 -1.4400 -2.1022
 2891SOL     OW20308   0.098   4.276   6.788 -0.6543  0.0999 -0.3677
 2891SOL    HW120309   0.124   4.257   6.698 -0.4862 -0.2789 -0.2387
 2891SOL    HW220310   0.185   4.303   6.818 -0.5311 -1.1599  0.3950
 2892SOL     OW20311   4.615   1.761   8.326  0.5322  0.1759  0.1374
 2892SOL    HW120312   4.545   1.775   8.390  1.5767  1.0411  1.0661
 2892SOL    HW220313   4.564   1.745   8.246  1.1622 -1.3385  0.0397
 2893SOL     OW20314   4.630   3.157   5.790  0.0717 -0.1176 -0.3756
 2893SOL    HW120315   4.551   3.119   5.751 -0.5448 -0.6442  1.3977
 2893SOL    HW220316   4.649   3.099   5.864 -1.4941 -0.4576 -0.2392
 2894SOL     OW20317   1.761   3.872  15.198  0.2222  0.2113 -0.8601
 2894SOL    HW120318   1.825   3.891  15.129  0.4296  3.7367  0.3519
 2894SOL    HW220319   1.685   3.895  15.143 -0.2850  0.7491  0.0711
 2895SOL     OW20320   0.644   3.913  16.832 -0.1485  0.0082 -0.6265
 2895SOL    HW120321   0.556   3.912  16.795  0.3779 -0.2780 -1.8801
 2895SOL    HW220322   0.633   3.875  16.919 -2.7788 -1.1081 -1.4729
 2896SOL     OW20323   4.434   0.945  16.666  0.2346 -0.3386 -0.4652
 2896SOL    HW120324   4.515   0.901  16.639 -0.1643 -1.9807  1.0399
 2896SOL    HW220325   4.371   0.873  16.659  0.8226 -0.8730 -0.2401
 2897SOL     OW20326   0.068   3.544   2.948 -0.0779 -0.3413  0.2381
 2897SOL    HW120327   0.091   3.482   2.879 -1.1506 -0.3194 -0.1345
 2897SOL    HW220328   0.128   3.522   3.020  0.3686  2.3737  0.7044
 2898SOL     OW20329   4.427   3.155   3.749 -0.2052  0.3594  0.4372
 2898SOL    HW120330   4.358   3.112   3.799  0.7155 -2.6170 -0.8885
 2898SOL    HW220331   4.419   3.249   3.769 -0.9529 -0.2034  2.8178
 2899SOL     OW20332   3.140   0.759   2.341  0.4480 -0.2217 -0.6195
 2899SOL    HW120333   3.224   0.737   2.381  0.4223 -0.7314 -0.8469
 2899SOL    HW220334   3.118   0.846   2.373 -2.3144 -0.3629 -2.1781
 2900SOL     OW20335   0.727   2.532  12.526 -0.9156 -0.2058  0.2852
 2900SOL    HW120336   0.651   2.477  12.542 -2.0468  1.2375 -0.0668
 2900SOL    HW220337   0.746   2.558  12.616  0.4129 -2.9641  0.7738
 2901SOL     OW20338   2.727   3.005   7.522  0.1791 -0.1147 -0.1611
 2901SOL    HW120339   2.639   2.974   7.543 -0.5811  1.8324 -0.5085
 2901SOL    HW220340   2.718   3.013   7.427 -2.5266 -0.1837  0.0906
 2902SOL     OW20341   0.765   4.478   2.056 -0.5860  0.6568  0.1355
 2902SOL    HW120342   0.713   4.440   1.985  0.1294 -0.0156 -0.0175
 2902SOL    HW220343   0.716   4.440   2.129  1.2118 -0.6503  0.6519
 2903SOL     OW20344   1.802   2.273   2.995 -0.1485  0.2099 -0.2629
 2903SOL    HW120345   1.757   2.196   2.963 -1.8941  0.2242  2.1620
 2903SOL    HW220346   1.820   2.313   2.910  0.9185  0.1961 -0.0546
 2904SOL     OW20347   0.122   3.003   7.409  0.1027  0.0101  0.2375
 2904SOL    HW120348   0.207   3.047   7.401 -0.8521  1.6264 -1.1329
 2904SOL    HW220349   0.060   3.059   7.362  2.4029 -0.5937 -3.5669
 2905SOL     OW20350   0.500   4.316  15.365  0.2455  0.4671 -0.4037
 2905SOL    HW120351   0.459   4.403  15.369  1.2668  0.9640 -0.7174
 2905SOL    HW220352   0.421   4.263  15.352  0.0172  0.0544  2.5460
 2906SOL     OW20353   0.092   1.298  17.145  0.0660  0.4686 -0.2830
 2906SOL    HW120354   0.060   1.214  17.112 -0.2813  0.6142 -0.3167
 2906SOL    HW220355   0.014   1.348  17.122 -0.9096 -1.9441 -2.1434
 2907SOL     OW20356   2.586   2.312   2.945 -0.3514  0.4728 -0.1516
 2907SOL    HW120357   2.588   2.358   2.862 -0.7438  0.5510 -0.1185
 2907SOL    HW220358   2.665   2.344   2.989 -0.5242  0.1841  0.3811
 2908SOL     OW20359   2.635   0.211   2.722 -0.0870  0.3427  0.0773
 2908SOL    HW120360   2.666   0.298   2.697 -1.0459  0.1406 -1.8075
 2908SOL    HW220361   2.558   0.212   2.665 -0.9449 -0.6365  1.2315
 2909SOL     OW20362   3.778   1.714   4.881 -0.5371 -0.0398  0.3274
 2909SOL    HW120363   3.867   1.683   4.898 -0.2145  1.0272  0.5983
 2909SOL    HW220364   3.779   1.805   4.913  0.1325 -0.7538  2.3312
 2910SOL     OW20365   0.524   1.426   1.716 -0.1647  0.3023 -0.1392
 2910SOL    HW120366   0.517   1.502   1.773  0.4269 -0.2655  0.6902
 2910SOL    HW220367   0.567   1.366   1.777 -2.0859 -0.7138  0.2339
 2911SOL     OW20368   1.712   3.289   6.305  0.0102 -0.0484  0.1312
 2911SOL    HW120369   1.803   3.299   6.333  0.4443 -1.3713 -0.8042
 2911SOL    HW220370   1.664   3.359   6.348 -0.2212  0.0099 -0.2269
 2912SOL     OW20371   2.794   4.173   4.581 -0.3290 -0.0754  0.1536
 2912SOL    HW120372   2.759   4.172   4.670 -2.7691 -3.9199 -0.8615
 2912SOL    HW220373   2.766   4.258   4.548  0.5039  0.3846  0.6195
 2913SOL     OW20374   0.382   3.354   9.386  0.4102  0.2037  0.5029
 2913SOL    HW120375   0.375   3.437   9.433  1.1478  1.4586 -1.5923
 2913SOL    HW220376   0.292   3.341   9.355  0.5162  1.4913 -0.3571
 2914SOL     OW20377   0.067   3.194   5.377 -0.1916  0.4110 -0.3567
 2914SOL    HW120378   0.157   3.200   5.344 -0.0449 -1.5556 -0.3445
 2914SOL    HW220379   0.084   3.181   5.470  1.2636 -0.5097 -0.7562
 2915SOL     OW20380   0.144   2.700  17.247  0.0361 -0.1680 -0.3156
 2915SOL    HW120381   0.163   2.794  17.246 -1.4386  0.1451  0.5409
 2915SOL    HW220382   0.228   2.664  17.220 -0.5802 -0.0045 -2.4248
 2916SOL     OW20383   0.949   3.129   9.227  0.3941 -0.9390  0.1980
 2916SOL    HW120384   1.005   3.107   9.152  0.0832 -1.4121  0.1003
 2916SOL    HW220385   0.911   3.216   9.216  1.4178 -0.5180  0.0443
 2917SOL     OW20386   3.831   1.399  15.294 -0.2120  0.0879 -0.5337
 2917SOL    HW120387   3.874   1.465  15.349 -0.7896 -0.3686  0.4559
 2917SOL    HW220388   3.905   1.381  15.236  0.6495 -0.6767  0.7903
 2918SOL     OW20389   0.182   4.343  15.147  0.0498  0.3027  0.0555
 2918SOL    HW120390   0.097   4.310  15.117  0.6138  0.2133 -1.4556
 2918SOL    HW220391   0.176   4.438  15.132  0.4772  0.2614 -0.3614
 2919SOL     OW20392   4.138   2.726   1.917 -0.3114 -0.0724 -0.5658
 2919SOL    HW120393   4.138   2.742   1.823  0.2637  0.7356 -0.4290
 2919SOL    HW220394   4.114   2.813   1.950  3.5013  0.1552  1.5817
 2920SOL     OW20395   4.383   1.208   2.619 -0.0062  0.2132 -0.1792
 2920SOL    HW120396   4.449   1.236   2.556  0.9030 -2.8695 -0.5907
 2920SOL    HW220397   4.399   1.268   2.693  1.2079 -0.2051 -0.0929
 2921SOL     OW20398   3.444   3.187   4.385  0.1732 -0.3367 -0.1757
 2921SOL    HW120399   3.496   3.245   4.329 -0.2036  0.2459  0.0882
 2921SOL    HW220400   3.356   3.207   4.352 -0.7538  0.0518  2.5373
 2922SOL     OW20401   3.323   2.513   2.699 -0.2267 -0.0781  0.3660
 2922SOL    HW120402   3.357   2.444   2.756 -0.2853  0.4155  0.9915
 2922SOL    HW220403   3.387   2.510   2.628 -0.8997  0.4468 -0.2604
 2923SOL     OW20404   0.759   0.259   8.594 -0.2539 -0.9947 -0.2191
 2923SOL    HW120405   0.728   0.349   8.600  1.0153 -0.5765  0.0843
 2923SOL    HW220406   0.796   0.245   8.681  0.1954 -1.8565 -0.5550
 2924SOL     OW20407   1.293   2.688  11.280  0.1977 -0.4277 -0.2901
 2924SOL    HW120408   1.211   2.669  11.326  0.1341  0.0470 -0.2066
 2924SOL    HW220409   1.351   2.664  11.352 -0.4545 -0.8234  0.1087
 2925SOL     OW20410   2.184   2.760   3.010  0.0632 -0.7593 -0.4312
 2925SOL    HW120411   2.123   2.720   2.949 -1.8996  0.8327  0.4695
 2925SOL    HW220412   2.124   2.784   3.081  1.7182 -0.4232  0.8533
 2926SOL     OW20413   1.007   0.527  14.996 -0.0779  0.0386  0.0586
 2926SOL    HW120414   0.928   0.482  15.026 -0.5888  1.8001  1.3719
 2926SOL    HW220415   0.989   0.573  14.914  0.6496  0.5129  0.1614
 2927SOL     OW20416   1.689   0.950   7.488 -0.0457 -0.4657  0.4124
 2927SOL    HW120417   1.675   0.859   7.463  1.3669 -0.4600 -0.4180
 2927SOL    HW220418   1.713   0.992   7.405  0.2173  0.1259  0.7872
 2928SOL     OW20419   4.440   0.496  10.220 -0.0228 -0.7473 -0.0380
 2928SOL    HW120420   4.364   0.438  10.216 -0.5547 -0.1700  1.7076
 2928SOL    HW220421   4.472   0.478  10.308  0.5816 -2.3132 -0.5772
 2929SOL     OW20422   2.148   3.074   3.890  0.1951  0.4323 -0.0998
 2929SOL    HW120423   2.165   3.122   3.971 -2.0220 -1.0251  1.2260
 2929SOL    HW220424   2.225   3.017   3.902 -0.0365  0.1835  0.2122
 2930SOL     OW20425   2.855   3.474   5.750 -0.1151  0.6085  0.0778
 2930SOL    HW120426   2.941   3.431   5.757 -2.0716 -3.0143  1.4872
 2930SOL    HW220427   2.811   3.426   5.819 -0.7580 -0.5506 -1.1505
 2931SOL     OW20428   0.529   0.694   2.742  0.2062  0.6599 -0.1683
 2931SOL    HW120429   0.584   0.684   2.819  0.7551  0.7303 -0.5555
 2931SOL    HW220430   0.449   0.649   2.770  0.5421 -0.4868 -1.0438
 2932SOL     OW20431   2.017   3.019   6.369 -0.0477  0.7245  0.1919
 2932SOL    HW120432   2.025   2.995   6.276 -0.3216 -1.6088  0.7679
 2932SOL    HW220433   2.007   2.935   6.414  1.2833 -0.1272 -1.0751
 2933SOL     OW20434   4.207   3.285   6.947  0.3706 -0.1321  0.2055
 2933SOL    HW120435   4.280   3.233   6.979  0.7632  1.2538  1.5710
 2933SOL    HW220436   4.140   3.224   6.915  0.6246 -0.0927 -0.4077
 2934SOL     OW20437   0.247   3.657   1.776 -0.1176  0.4541 -0.2464
 2934SOL    HW120438   0.267   3.694   1.862  1.7151  2.7637 -1.6651
 2934SOL    HW220439   0.323   3.600   1.761 -1.1993 -0.9619 -0.4186
 2935SOL     OW20440   0.417   0.238   0.629 -0.2635  0.0167  0.2380
 2935SOL    HW120441   0.423   0.261   0.722  0.3399  0.4039  0.0973
 2935SOL    HW220442   0.406   0.318   0.578  1.2396 -0.9766 -1.6151
 2936SOL     OW20443   4.393   0.586   0.385  0.1179 -0.4219  0.3931
 2936SOL    HW120444   4.380   0.525   0.457 -1.6709  1.2296  1.4641
 2936SOL    HW220445   4.463   0.541   0.336 -2.0738 -1.1943 -2.0216
 2937SOL     OW20446   2.298   4.314   7.692 -0.0163  0.3881  0.3460
 2937SOL    HW120447   2.340   4.329   7.776 -1.6011  0.8032  1.0547
 2937SOL    HW220448   2.251   4.397   7.688  1.0052  1.0139  1.4483
 2938SOL     OW20449   2.136   2.709   5.818 -0.5043  0.6324 -0.2426
 2938SOL    HW120450   2.128   2.619   5.847 -0.7585  0.0261 -2.1955
 2938SOL    HW220451   2.050   2.746   5.840 -0.8830  0.2538 -1.0849
 2939SOL     OW20452   0.821   2.935   5.978  0.4267 -0.2102  0.0304
 2939SOL    HW120453   0.861   2.850   5.958  0.9307  0.1972 -0.6971
 2939SOL    HW220454   0.891   2.998   5.960 -0.9953  1.5264  0.5979
 2940SOL     OW20455   1.519   2.705   8.589  0.1871  0.4966 -0.2281
 2940SOL    HW120456   1.578   2.728   8.517 -1.2975  0.4894 -1.4542
 2940SOL    HW220457   1.432   2.733   8.561 -0.7250 -0.5289  1.5868
 2941SOL     OW20458   3.193   0.665   4.380  0.5680  0.0195 -0.1149
 2941SOL    HW120459   3.208   0.641   4.471  1.2810  2.3873  0.4049
 2941SOL    HW220460   3.243   0.746   4.365  0.9113 -0.4285 -1.3733
 2942SOL     OW20461   1.960   0.217   8.020  0.3267 -0.0236 -0.0593
 2942SOL    HW120462   2.046   0.242   8.055  1.0632 -0.9222 -1.2446
 2942SOL    HW220463   1.987   0.221   7.928  2.0195 -1.8797  0.3524
 2943SOL     OW20464   3.140   0.600   2.704 -0.5600 -0.5308  0.0391
 2943SOL    HW120465   3.048   0.580   2.691 -0.5241 -1.9666  1.9636
 2943SOL    HW220466   3.131   0.617   2.798 -0.7772  0.5640 -0.1812
 2944SOL     OW20467   0.024   3.225   7.215  0.4729  0.6845  0.3338
 2944SOL    HW120468   0.074   3.154   7.177 -0.9703  1.0438 -2.1874
 2944SOL    HW220469   0.046   3.304   7.165 -3.3868  0.7428 -1.2657
 2945SOL     OW20470   3.667   4.382   2.817  0.0007 -0.0752 -0.2048
 2945SOL    HW120471   3.592   4.434   2.788  0.8945 -0.1927 -2.6911
 2945SOL    HW220472   3.632   4.326   2.887 -1.6681  0.0621 -0.9277
 2946SOL     OW20473   4.652   0.633   1.952 -0.2957 -0.1651  0.3704
 2946SOL    HW120474   4.651   0.557   1.894  0.9180 -1.5762  2.1676
 2946SOL    HW220475   4.686   0.588   2.029 -1.0548 -0.8435  0.3111
 2947SOL     OW20476   2.339   0.581   1.211 -0.3509  0.2330 -0.5173
 2947SOL    HW120477   2.300   0.667   1.193 -2.2523 -0.7772 -1.0873
 2947SOL    HW220478   2.425   0.594   1.170 -1.1031  0.1478 -2.0983
 2948SOL     OW20479   3.629   2.968   6.743 -0.1774 -0.5250  0.6303
 2948SOL    HW120480   3.657   3.030   6.676 -1.8625  0.8181  1.1418
 2948SOL    HW220481   3.541   2.941   6.716  0.2106 -0.0062 -1.1416
 2949SOL     OW20482   0.053   4.417   5.509 -0.5361  0.4951  0.0524
 2949SOL    HW120483   0.106   4.423   5.588 -0.4513 -0.8411  0.1081
 2949SOL    HW220484   4.730   4.349   5.543  1.8300 -0.9709  1.1867
 2950SOL     OW20485   0.807   2.391   1.810 -0.4957  0.4729 -0.4740
 2950SOL    HW120486   0.893   2.377   1.770 -0.4072  0.9282 -0.4423
 2950SOL    HW220487   0.747   2.412   1.738 -1.7290 -0.7261  0.1985
 2951SOL     OW20488   0.858   0.182  12.218 -0.1531 -0.0460  0.1964
 2951SOL    HW120489   0.823   0.094  12.207  0.4872 -0.4160  1.1499
 2951SOL    HW220490   0.897   0.173  12.305 -1.2577  3.5399  1.0828
 2952SOL     OW20491   2.901   0.055   1.106 -0.5771  0.0311 -0.0753
 2952SOL    HW120492   2.952   4.710   1.122  0.1825  0.2118 -1.5531
 2952SOL    HW220493   2.812   0.023   1.112 -0.1473 -1.1167  0.1679
 2953SOL     OW20494   0.301   2.728   4.766 -0.4633  0.4783 -0.4869
 2953SOL    HW120495   0.373   2.790   4.783 -0.4279  0.1738  0.4602
 2953SOL    HW220496   0.341   2.644   4.786  0.0902  1.0693  0.8665
 2954SOL     OW20497   3.903   4.385   7.823  0.0923 -0.1802  0.3809
 2954SOL    HW120498   3.980   4.383   7.767  0.3051 -1.3262  0.7121
 2954SOL    HW220499   3.947   4.381   7.908  0.5976 -0.0103  0.1258
 2955SOL     OW20500   3.905   0.574   1.541 -0.4464 -0.1882  0.2011
 2955SOL    HW120501   3.810   0.571   1.558 -0.6235  1.9028 -0.4139
 2955SOL    HW220502   3.910   0.667   1.519  2.7991 -0.5854 -0.5941
 2956SOL     OW20503   2.107   1.012   5.796  0.0201 -0.6988 -0.1330
 2956SOL    HW120504   2.093   1.104   5.818 -1.6957 -0.6890 -1.3165
 2956SOL    HW220505   2.053   0.999   5.718  1.3116  2.6416 -1.5830
 2957SOL     OW20506   3.211   3.579   4.282  0.3907  0.3502  0.3462
 2957SOL    HW120507   3.136   3.638   4.291 -0.4661 -1.0313  2.1601
 2957SOL    HW220508   3.255   3.613   4.204  0.1882  0.5381  0.3123
 2958SOL     OW20509   4.520   0.059   2.115  0.0572 -0.3733  0.1266
 2958SOL    HW120510   4.550   0.007   2.189  0.8625  0.1611  0.1756
 2958SOL    HW220511   4.446   0.106   2.153 -0.4995  1.4819 -3.2182
 2959SOL     OW20512   0.635   0.251   3.409  0.0263  0.0125  0.0032
 2959SOL    HW120513   0.635   0.175   3.466 -0.3166  1.0589  1.4076
 2959SOL    HW220514   0.548   0.285   3.432 -0.7329 -2.0698  0.1449
 2960SOL     OW20515   2.754   3.465   3.304  0.1589 -0.6588  0.4645
 2960SOL    HW120516   2.734   3.382   3.347  0.6327 -0.0204  1.8963
 2960SOL    HW220517   2.848   3.458   3.292  0.1113 -0.9313  0.2364
 2961SOL     OW20518   2.596   1.687   2.512  0.0196  0.2158 -0.3896
 2961SOL    HW120519   2.633   1.633   2.582  1.5206  0.0861 -1.2860
 2961SOL    HW220520   2.647   1.768   2.515 -0.4417  0.5107 -0.5193
 2962SOL     OW20521   4.007   2.239  15.562  0.1442  0.2774  0.0984
 2962SOL    HW120522   3.926   2.188  15.565  0.7738 -0.6863  0.8701
 2962SOL    HW220523   4.071   2.168  15.567  0.0846  0.2435  0.3793
 2963SOL     OW20524   4.547   2.938   1.845  0.0884  0.1835 -0.0020
 2963SOL    HW120525   4.539   2.849   1.881  0.6118  0.3583  0.5428
 2963SOL    HW220526   4.520   2.989   1.921  0.7442 -1.3796  1.2900
 2964SOL     OW20527   3.663   0.580  16.814  0.6583 -0.4291  0.5570
 2964SOL    HW120528   3.647   0.490  16.840  0.3603  0.1762  2.4386
 2964SOL    HW220529   3.723   0.565  16.740  0.3493 -1.8823  0.6092
 2965SOL     OW20530   3.842   4.395   6.968  0.4898 -0.3158  0.0945
 2965SOL    HW120531   3.874   4.384   7.058  0.8281 -0.1404 -0.0088
 2965SOL    HW220532   3.881   4.477   6.940  1.1458 -0.9207 -0.7430
 2966SOL     OW20533   0.101   4.147   4.886  0.8086 -0.2031 -0.1922
 2966SOL    HW120534   0.150   4.120   4.808  1.5443  0.7643 -0.0619
 2966SOL    HW220535   0.021   4.182   4.847  0.0548 -0.5109  1.0599
 2967SOL     OW20536   0.650   2.498   3.105  0.0397  0.2128 -0.1414
 2967SOL    HW120537   0.622   2.407   3.093  0.4457  0.0539  0.1156
 2967SOL    HW220538   0.612   2.531   3.023 -0.7596  1.3649  0.6889
 2968SOL     OW20539   1.845   3.880   6.524 -0.3818  0.3516  0.0793
 2968SOL    HW120540   1.842   3.849   6.434 -1.1175 -0.1863  0.2912
 2968SOL    HW220541   1.864   3.974   6.518  2.4477 -0.2282 -0.2500
 2969SOL     OW20542   2.225   3.117   9.743 -0.3221  0.1583  0.8062
 2969SOL    HW120543   2.315   3.124   9.774 -0.4370  1.2600  0.8706
 2969SOL    HW220544   2.224   3.021   9.741  3.4095  0.1463  0.0180
 2970SOL     OW20545   1.354   2.542   6.659 -0.0480  0.3970 -0.5619
 2970SOL    HW120546   1.381   2.460   6.698 -0.9374  0.2177 -0.3122
 2970SOL    HW220547   1.306   2.597   6.722  1.6377  0.2453  0.8481
 2971SOL     OW20548   4.653   0.414   1.763  0.3939 -0.1254 -0.2472
 2971SOL    HW120549   4.596   0.360   1.708  1.0105 -0.7665 -0.2629
 2971SOL    HW220550   4.659   0.360   1.841 -1.3562 -0.6229 -0.4611
 2972SOL     OW20551   2.864   3.406  14.922 -0.1490  0.0529 -0.8076
 2972SOL    HW120552   2.798   3.424  14.989  0.5609  1.9192 -0.5843
 2972SOL    HW220553   2.918   3.351  14.978  0.0609  1.4052  0.3102
 2973SOL     OW20554   3.570   4.087   4.585 -0.0897  0.1129 -0.0885
 2973SOL    HW120555   3.581   4.108   4.678  0.8441 -1.3772  0.1306
 2973SOL    HW220556   3.662   4.062   4.583  0.0977  0.5627  2.6520
 2974SOL     OW20557   1.357   2.701  11.815 -0.0724  0.2287 -0.0497
 2974SOL    HW120558   1.278   2.664  11.853  0.9377 -1.5764  0.3230
 2974SOL    HW220559   1.427   2.669  11.872  0.1935 -0.4439 -0.7434
 2975SOL     OW20560   1.801   3.491   3.610 -0.0025  0.8644 -0.3513
 2975SOL    HW120561   1.756   3.550   3.670  0.6567 -1.0679  2.0704
 2975SOL    HW220562   1.890   3.508   3.639 -1.0168  1.6432  2.3172
 2976SOL     OW20563   3.340   2.121   3.274  0.2383 -0.3406 -0.5594
 2976SOL    HW120564   3.349   2.057   3.344  1.4622 -0.6448 -0.9859
 2976SOL    HW220565   3.420   2.171   3.288  0.0246 -0.5676  1.3969
 2977SOL     OW20566   4.541   3.099  14.485  0.2568  0.3256 -0.2234
 2977SOL    HW120567   4.498   3.178  14.453  2.3910  0.4936 -2.7217
 2977SOL    HW220568   4.587   3.122  14.566 -0.0346  1.3855 -0.3611
 2978SOL     OW20569   2.234   3.316  12.217 -0.2216 -0.5748 -0.3317
 2978SOL    HW120570   2.327   3.322  12.242 -0.1224 -1.0761 -0.5666
 2978SOL    HW220571   2.230   3.336  12.123 -0.3911 -1.9663 -0.6287
 2979SOL     OW20572   1.377   4.516   1.888  0.3028 -0.0470 -0.0947
 2979SOL    HW120573   1.390   4.591   1.945  1.2744  1.0505 -1.7715
 2979SOL    HW220574   1.310   4.467   1.936 -0.5096  0.5477 -0.6224
 2980SOL     OW20575   0.431   0.695   9.559 -0.1251 -0.6270 -0.6528
 2980SOL    HW120576   0.396   0.645   9.485 -2.3778  0.2697 -0.2041
 2980SOL    HW220577   0.361   0.675   9.621  0.7403 -3.2640 -0.5137
 2981SOL     OW20578   2.738   2.280   2.663  0.0159 -0.2592 -0.3747
 2981SOL    HW120579   2.715   2.308   2.575 -0.8901 -2.3611 -0.8176
 2981SOL    HW220580   2.724   2.361   2.712 -1.4415 -1.5656  1.3692
 2982SOL     OW20581   2.156   4.671   8.211  0.0279 -0.1931 -0.2469
 2982SOL    HW120582   2.183   4.672   8.119 -0.3435  0.8047 -0.3357
 2982SOL    HW220583   2.080   4.728   8.219  1.1364  0.8955  2.4561
 2983SOL     OW20584   3.960   4.391   7.205  0.1929 -0.0066 -0.2713
 2983SOL    HW120585   3.909   4.374   7.284 -0.3507  2.6361 -0.0519
 2983SOL    HW220586   4.038   4.340   7.225 -0.6240 -1.4203 -0.6825
 2984SOL     OW20587   3.209   3.677   2.759  0.6624  0.3731 -0.1094
 2984SOL    HW120588   3.235   3.640   2.675  1.8344  0.9263  0.0141
 2984SOL    HW220589   3.114   3.672   2.747  0.4774  1.5845  0.8794
 2985SOL     OW20590   3.116   4.190   4.368 -0.0018  0.3175 -0.3326
 2985SOL    HW120591   3.188   4.225   4.316 -1.2240  0.5271 -1.8688
 2985SOL    HW220592   3.166   4.136   4.430 -1.9097  0.7979  1.6329
 2986SOL     OW20593   2.670   3.526   5.220  0.1787 -0.4861 -0.2719
 2986SOL    HW120594   2.742   3.509   5.159  0.2877  2.3787 -0.9233
 2986SOL    HW220595   2.711   3.581   5.288 -2.6388  0.3921  0.7055
 2987SOL     OW20596   4.669   2.805   8.866  0.2860 -0.5779 -0.3241
 2987SOL    HW120597   4.631   2.886   8.899  2.0805  0.4986 -0.9456
 2987SOL    HW220598   4.685   2.819   8.773 -2.5167 -0.1423 -0.7253
 2988SOL     OW20599   4.698   0.471  13.489  0.0816 -0.5562  0.0838
 2988SOL    HW120600   4.672   0.474  13.582  0.7176  0.4048  0.2338
 2988SOL    HW220601   4.722   0.564  13.484  1.5075 -1.0352 -1.7248
 2989SOL     OW20602   0.893   0.354   6.008 -0.6882  0.5660  0.2071
 2989SOL    HW120603   0.926   0.264   6.005  0.0460  0.8278  0.4041
 2989SOL    HW220604   0.808   0.349   6.052 -0.3153  0.6820  0.9416
 2990SOL     OW20605   1.843   0.157   0.391 -0.4569 -0.5714 -0.2301
 2990SOL    HW120606   1.898   0.235   0.385 -0.1128 -0.8142 -0.2728
 2990SOL    HW220607   1.786   0.191   0.460  0.5697  1.3045 -0.3067
 2991SOL     OW20608   0.870   3.635   5.151 -0.2676 -0.3401 -0.0056
 2991SOL    HW120609   0.895   3.559   5.203  4.1301  1.8297  1.0548
 2991SOL    HW220610   0.868   3.702   5.220  4.3603  0.2280 -0.4239
 2992SOL     OW20611   4.556   1.826   8.638 -0.1228 -0.4340 -0.1378
 2992SOL    HW120612   4.513   1.850   8.720  0.8309  0.0809  0.2150
 2992SOL    HW220613   4.613   1.898   8.611  0.1888 -0.6099  0.0508
 2993SOL     OW20614   4.581   4.124   7.489 -0.3268  0.2070 -0.2920
 2993SOL    HW120615   4.586   4.070   7.567  1.1421  0.7470 -0.0217
 2993SOL    HW220616   4.526   4.198   7.515  2.0681  1.0223  2.3426
 2994SOL     OW20617   4.306   0.977   6.515  0.0310  0.4689  0.1758
 2994SOL    HW120618   4.221   0.933   6.507  1.7647 -2.9989  0.9364
 2994SOL    HW220619   4.360   0.902   6.490 -0.0794  0.3108  0.4115
 2995SOL     OW20620   2.109   4.114   6.247 -0.2450 -0.3373  0.3755
 2995SOL    HW120621   2.052   4.048   6.210 -1.3331  0.5730  0.4342
 2995SOL    HW220622   2.055   4.188   6.221 -1.2585 -1.7130 -1.4024
 2996SOL     OW20623   1.279   3.302   2.275 -0.4949 -0.5056 -0.1047
 2996SOL    HW120624   1.200   3.287   2.328  1.3431 -1.3493  2.3893
 2996SOL    HW220625   1.267   3.225   2.221  1.6368 -2.8118  2.7195
 2997SOL     OW20626   3.284   0.820   6.364  1.0296 -0.0162  0.0045
 2997SOL    HW120627   3.378   0.835   6.372  1.0422 -1.1159  2.1244
 2997SOL    HW220628   3.260   0.889   6.303 -0.1559 -0.9097 -0.5224
 2998SOL     OW20629   4.314   2.537  11.879  0.1759 -0.1242 -0.3889
 2998SOL    HW120630   4.246   2.575  11.824 -0.1047  0.2642  0.2382
 2998SOL    HW220631   4.301   2.580  11.963  0.2738 -1.7740  0.4698
 2999SOL     OW20632   4.029   4.074  16.564  0.1215  0.0818 -0.2608
 2999SOL    HW120633   4.029   4.018  16.642  0.6222 -0.4161 -0.6264
 2999SOL    HW220634   4.117   4.055  16.532  0.9661  2.2852  0.7286
 3000SOL     OW20635   1.651   4.414   4.424  0.0300 -0.3959  0.0116
 3000SOL    HW120636   1.576   4.459   4.384 -1.3702 -1.4057  1.5194
 3000SOL    HW220637   1.718   4.481   4.419  0.1353 -0.4877  0.2143
 3001SOL     OW20638   3.228   1.324  17.700 -0.3256 -0.4972 -0.0032
 3001SOL    HW120639   3.195   1.234  17.700 -0.3278 -0.5084  1.7914
 3001SOL    HW220640   3.285   1.308  17.625  1.9900  0.5496  1.5372
 3002SOL     OW20641   1.187   1.930  10.148 -0.5199 -0.1370  0.1035
 3002SOL    HW120642   1.271   1.901  10.185 -0.9730 -3.0052 -1.1345
 3002SOL    HW220643   1.173   2.008  10.202  1.4251 -0.8514  1.6537
 3003SOL     OW20644   0.852   1.666  13.167 -0.4186 -0.2627 -0.2889
 3003SOL    HW120645   0.902   1.728  13.113  0.4400 -1.8978 -1.4116
 3003SOL    HW220646   0.816   1.726  13.232 -0.7654  0.2224 -0.9256
 3004SOL     OW20647   3.330   3.674   1.897 -0.4237  0.2446  0.5795
 3004SOL    HW120648   3.326   3.582   1.922  3.3582  0.3805  1.6797
 3004SOL    HW220649   3.289   3.721   1.970 -0.3405  2.2257 -0.6334
 3005SOL     OW20650   4.650   0.743   7.044 -0.3526  0.0408  0.1718
 3005SOL    HW120651   4.675   0.834   7.029  1.6687 -0.5170  0.1787
 3005SOL    HW220652   4.735   0.707   7.068  0.3504  1.8374  0.4093
 3006SOL     OW20653   4.595   0.416   2.869  1.0061  0.0500  0.2572
 3006SOL    HW120654   4.599   0.503   2.830 -0.0524 -0.5518 -1.1919
 3006SOL    HW220655   4.568   0.436   2.959  0.0015 -3.8519  0.8645
 3007SOL     OW20656   3.119   4.546   0.997  0.1681 -0.1961  0.3363
 3007SOL    HW120657   3.178   4.473   0.976  1.0533 -0.2299  2.8542
 3007SOL    HW220658   3.181   4.600   1.046  1.8856 -2.2353  0.4230
 3008SOL     OW20659   3.400   2.793   6.976 -0.4494  0.0598  0.2004
 3008SOL    HW120660   3.371   2.819   6.889  0.5799  2.0280  0.4419
 3008SOL    HW220661   3.489   2.764   6.954 -0.6669 -0.3366 -0.1499
 3009SOL     OW20662   3.544   3.812   8.071 -0.3119  0.2128  0.7930
 3009SOL    HW120663   3.481   3.880   8.047 -0.6386 -0.2470  0.3605
 3009SOL    HW220664   3.567   3.831   8.162  0.0443  0.8613  0.5762
 3010SOL     OW20665   3.460   0.895   7.939  0.1036 -0.4370 -0.0516
 3010SOL    HW120666   3.401   0.843   7.884  1.1307 -1.3301 -0.2987
 3010SOL    HW220667   3.436   0.860   8.024 -0.9790  1.5277  0.4444
 3011SOL     OW20668   3.808   0.139   4.013  0.5440 -0.1594 -0.4915
 3011SOL    HW120669   3.887   0.190   3.997  0.5900 -0.7959 -2.3082
 3011SOL    HW220670   3.752   0.186   3.951  0.8950 -0.0318 -0.7075
 3012SOL     OW20671   2.303   1.280   7.139 -0.3890 -0.3925 -0.0241
 3012SOL    HW120672   2.265   1.324   7.063  1.3971 -1.1862 -1.3681
 3012SOL    HW220673   2.296   1.353   7.200 -0.5828 -1.3772  1.1524
 3013SOL     OW20674   0.412   0.164  15.161  0.1634  0.2174  0.2355
 3013SOL    HW120675   0.364   0.111  15.226  0.6165  0.8835  1.1129
 3013SOL    HW220676   0.363   0.149  15.081  1.3772  1.8074 -0.7883
 3014SOL     OW20677   4.357   3.036  10.473  0.4030  0.3689  0.1027
 3014SOL    HW120678   4.418   3.080  10.413  0.1456  0.9064  0.2375
 3014SOL    HW220679   4.406   3.041  10.555  1.6167 -2.2227 -0.4562
 3015SOL     OW20680   3.840   1.574   8.753  0.1539  0.4415 -0.2256
 3015SOL    HW120681   3.797   1.516   8.815  1.0124  1.5892  1.4216
 3015SOL    HW220682   3.900   1.507   8.719 -0.3555 -0.8901  1.5188
 3016SOL     OW20683   3.322   3.545   5.271  0.1491 -0.3521 -0.5031
 3016SOL    HW120684   3.392   3.611   5.269 -0.2132  0.1043  1.3465
 3016SOL    HW220685   3.375   3.465   5.275 -0.9878 -1.0972 -0.4535
 3017SOL     OW20686   3.322   0.721   2.530 -0.5843  0.0813 -0.5656
 3017SOL    HW120687   3.270   0.707   2.609 -0.4974 -2.1411 -0.8939
 3017SOL    HW220688   3.407   0.695   2.566 -0.3628 -1.4153 -2.1358
 3018SOL     OW20689   2.702   2.703   8.582  0.5608 -0.1699  0.1113
 3018SOL    HW120690   2.700   2.627   8.640  0.1224 -2.5620 -3.0133
 3018SOL    HW220691   2.671   2.663   8.501 -0.6934 -0.4353  0.7220
 3019SOL     OW20692   4.583   4.605   9.578  0.4054  0.0718 -0.0509
 3019SOL    HW120693   4.506   4.612   9.634 -0.5523  3.2943 -1.7561
 3019SOL    HW220694   4.600   4.511   9.587 -0.1626  0.1508  1.8057
 3020SOL     OW20695   0.748   3.503   2.805 -0.0344 -0.2940 -0.1381
 3020SOL    HW120696   0.803   3.579   2.786 -2.8251  1.3385 -1.8010
 3020SOL    HW220697   0.709   3.543   2.884  0.4356 -0.8867  0.3897
 3021SOL     OW20698   2.808   2.040   3.711 -0.2783  0.5410 -0.3075
 3021SOL    HW120699   2.773   1.995   3.787  0.6717  0.6683  0.1988
 3021SOL    HW220700   2.897   2.047   3.746 -0.4477 -2.3123  0.6440
 3022SOL     OW20701   3.814   2.899   6.966 -0.3938 -0.5277  0.2168
 3022SOL    HW120702   3.748   2.936   6.907  0.3868 -0.6400 -0.7290
 3022SOL    HW220703   3.894   2.939   6.932 -1.7255  2.7323  0.9899
 3023SOL     OW20704   1.414   1.686   5.679  0.1091 -0.6090 -0.1844
 3023SOL    HW120705   1.380   1.707   5.766 -0.8022 -0.0795 -0.6716
 3023SOL    HW220706   1.496   1.639   5.697  0.3205 -0.1918 -0.0656
 3024SOL     OW20707   1.029   3.931   3.846  0.1438 -0.0383  0.2362
 3024SOL    HW120708   1.119   3.907   3.823  0.3562  0.5713  0.4227
 3024SOL    HW220709   1.045   3.915   3.939 -0.0981 -2.1230 -0.0838
 3025SOL     OW20710   4.529   3.420   4.794  0.3832 -0.2140 -0.0220
 3025SOL    HW120711   4.521   3.416   4.699  1.5557  2.5693 -0.2517
 3025SOL    HW220712   4.527   3.515   4.805  0.7300 -0.1740 -0.3019
 3026SOL     OW20713   3.793   2.265  17.389 -0.2533 -0.1147  0.4083
 3026SOL    HW120714   3.824   2.349  17.355 -0.6288 -0.5078 -0.9045
 3026SOL    HW220715   3.727   2.251  17.321  1.8731  0.0874 -1.6885
 3027SOL     OW20716   3.302   2.574   3.691 -0.1060  0.6633 -0.0138
 3027SOL    HW120717   3.236   2.642   3.678 -0.1733  0.8699  1.3967
 3027SOL    HW220718   3.322   2.552   3.600 -5.6450 -0.4851 -0.9836
 3028SOL     OW20719   1.273   1.640   6.485  0.1980 -0.0024  0.6636
 3028SOL    HW120720   1.266   1.689   6.566  2.6221  0.8544  0.3408
 3028SOL    HW220721   1.290   1.551   6.514  1.9660 -0.4531 -1.7382
 3029SOL     OW20722   3.128   2.944   4.908 -0.2329  0.0129  0.7350
 3029SOL    HW120723   3.058   3.003   4.878  0.1685 -0.6530 -1.5077
 3029SOL    HW220724   3.203   3.003   4.900 -0.8463  0.4889 -1.5819
 3030SOL     OW20725   3.487   2.151  14.926 -0.1115  0.3470  0.0739
 3030SOL    HW120726   3.473   2.057  14.916  1.8238  0.3989 -3.0302
 3030SOL    HW220727   3.581   2.168  14.927  0.0453 -0.6139  2.1532
 3031SOL     OW20728   0.309   4.255   3.132  0.3370  0.1402  0.2928
 3031SOL    HW120729   0.227   4.247   3.083 -0.1490  0.2273  1.0846
 3031SOL    HW220730   0.292   4.205   3.212  1.6495  0.7138  0.9286
 3032SOL     OW20731   4.027   0.779   5.959  0.2819 -0.5403 -0.3914
 3032SOL    HW120732   4.101   0.720   5.947  0.6342  0.2493 -2.1100
 3032SOL    HW220733   3.991   0.739   6.038 -3.1092  2.3182 -0.4642
 3033SOL     OW20734   1.449   1.798   3.831  0.3201  0.0449  0.4606
 3033SOL    HW120735   1.427   1.885   3.866  1.8774  0.8237 -0.4886
 3033SOL    HW220736   1.543   1.817   3.834  0.7330 -2.0168  0.3431
 3034SOL     OW20737   0.664   4.103   2.757  0.0463 -0.0220 -0.0053
 3034SOL    HW120738   0.578   4.099   2.801  1.1924  0.2295  2.2836
 3034SOL    HW220739   0.649   4.026   2.702 -2.6411  0.3980  0.1199
 3035SOL     OW20740   0.994   1.790   2.359  0.1897 -0.1069  0.1789
 3035SOL    HW120741   0.943   1.761   2.284 -0.1380 -0.9591  0.7260
 3035SOL    HW220742   0.928   1.787   2.428  0.6725 -1.7936  0.5898
 3036SOL     OW20743   0.892   2.511  17.292 -0.1019 -0.0611 -0.2095
 3036SOL    HW120744   0.925   2.499  17.202 -0.6839  2.2520 -0.7319
 3036SOL    HW220745   0.860   2.601  17.289  0.9391  0.3071 -0.7221
 3037SOL     OW20746   2.186   3.289  11.936  0.0832 -0.2987 -0.8090
 3037SOL    HW120747   2.252   3.316  11.872  1.3891  1.9059  1.4655
 3037SOL    HW220748   2.112   3.257  11.885  0.5017  0.5179 -1.9090
 3038SOL     OW20749   2.470   4.062   8.976 -0.1619 -0.3308 -0.4299
 3038SOL    HW120750   2.453   4.011   8.897  0.8780  2.9089 -2.7441
 3038SOL    HW220751   2.380   4.083   9.001  0.5220  2.1291 -0.0371
 3039SOL     OW20752   3.080   0.586   4.747  0.1107 -0.3278  0.7355
 3039SOL    HW120753   3.120   0.520   4.804  2.6440  0.1364 -0.5074
 3039SOL    HW220754   3.147   0.654   4.748  0.2205 -0.3625 -2.6009
 3040SOL     OW20755   1.039   1.535   6.751 -0.1446  0.7669 -0.2227
 3040SOL    HW120756   1.055   1.453   6.704  2.3626  1.4725 -0.5877
 3040SOL    HW220757   1.111   1.534   6.814 -1.3054  0.3335  1.1261
 3041SOL     OW20758   0.316   4.308   4.987 -0.0165 -0.0129  0.0008
 3041SOL    HW120759   0.347   4.361   4.913  0.8661  0.4637  0.7232
 3041SOL    HW220760   0.246   4.257   4.946  0.4199 -0.4114 -0.2487
 3042SOL     OW20761   0.156   0.417   3.624 -0.1622 -0.6075  0.5448
 3042SOL    HW120762   0.236   0.441   3.578 -1.2368 -0.1714 -1.1118
 3042SOL    HW220763   0.113   0.502   3.617 -0.5177 -0.8135  0.2067
 3043SOL     OW20764   0.032   3.494   4.467  0.1721 -0.3361 -0.0721
 3043SOL    HW120765   0.106   3.445   4.504  2.2926  1.6551 -1.7129
 3043SOL    HW220766   4.693   3.434   4.480 -0.8165  0.5658 -1.4907
 3044SOL     OW20767   2.804   3.173   8.463 -0.0887 -0.2965  0.2914
 3044SOL    HW120768   2.858   3.145   8.389  1.5052  2.6597  0.3261
 3044SOL    HW220769   2.745   3.098   8.469 -0.9435  0.1408 -2.4208
 3045SOL     OW20770   3.363   1.337   0.398  0.5716 -0.6237  0.2146
 3045SOL    HW120771   3.271   1.352   0.417  0.2648 -1.4717 -0.5947
 3045SOL    HW220772   3.368   1.305   0.308  1.2691  1.5616 -0.5126
 3046SOL     OW20773   0.797   2.622   6.261  0.1809  0.6646  0.2951
 3046SOL    HW120774   0.887   2.597   6.281 -0.6180 -1.2257  1.4956
 3046SOL    HW220775   0.783   2.583   6.174  0.2068  0.8608  0.2031
 3047SOL     OW20776   0.177   1.074   1.266  0.0059 -0.7370 -0.1571
 3047SOL    HW120777   0.184   0.990   1.310 -1.0728  0.6827  2.7385
 3047SOL    HW220778   0.110   1.119   1.317  0.0266 -0.7158 -0.1484
 3048SOL     OW20779   2.292   1.085   3.714  0.4800 -0.1541 -0.8116
 3048SOL    HW120780   2.325   0.995   3.717 -0.8598 -0.5160  3.5310
 3048SOL    HW220781   2.338   1.112   3.794 -0.9452 -1.0582  0.3293
 3049SOL     OW20782   4.361   1.828   2.327 -0.2847 -0.0739  0.3570
 3049SOL    HW120783   4.305   1.905   2.338  1.4966  0.8723  2.9681
 3049SOL    HW220784   4.347   1.806   2.235  1.3948 -2.1184  0.6093
 3050SOL     OW20785   4.482   1.755   7.910  0.4057  0.2783  0.6159
 3050SOL    HW120786   4.465   1.738   8.002  0.5140  0.7382  0.7187
 3050SOL    HW220787   4.407   1.706   7.877 -0.1352  2.2114 -1.0201
 3051SOL     OW20788   2.359   1.607   1.306 -0.0773 -0.1252  0.4011
 3051SOL    HW120789   2.289   1.667   1.281  1.4915  1.0131 -1.3168
 3051SOL    HW220790   2.360   1.547   1.231  0.0289  1.8330 -1.1597
 3052SOL     OW20791   0.700   3.549   3.089 -0.0108 -0.2094  0.2875
 3052SOL    HW120792   0.658   3.627   3.124 -1.3467  0.4775 -2.7946
 3052SOL    HW220793   0.663   3.475   3.138  1.2038  0.1891  1.8017
 3053SOL     OW20794   4.695   4.675  15.176 -0.2712  0.3150 -0.0868
 3053SOL    HW120795   4.692   0.032  15.201 -1.0381  0.8532 -2.1343
 3053SOL    HW220796   4.617   4.671  15.120 -1.6052  0.2348  1.7861
 3054SOL     OW20797   1.396   3.469   8.390 -0.5368  0.2429 -0.1805
 3054SOL    HW120798   1.328   3.490   8.453 -2.7603  0.0858 -2.5136
 3054SOL    HW220799   1.471   3.448   8.445 -0.6917  0.3723  0.0817
 3055SOL     OW20800   3.307   0.359  17.556 -0.0811 -0.2927 -0.1383
 3055SOL    HW120801   3.248   0.285  17.574  2.1831 -2.0462  0.0190
 3055SOL    HW220802   3.390   0.319  17.530  0.5134  1.5651 -1.0235
 3056SOL     OW20803   2.983   3.654  13.345 -0.6357 -0.4900  0.1300
 3056SOL    HW120804   2.894   3.632  13.373 -1.2053  1.3820 -0.1792
 3056SOL    HW220805   2.968   3.749  13.352 -1.0953 -0.5336 -0.2937
 3057SOL     OW20806   0.749   0.195   5.581  0.6401  0.6873  0.2329
 3057SOL    HW120807   0.823   0.256   5.573  0.6020  0.8056  0.8233
 3057SOL    HW220808   0.678   0.257   5.563 -0.3555 -0.0993  1.5110
 3058SOL     OW20809   3.451   4.724   7.230 -0.5740  0.3931  0.0462
 3058SOL    HW120810   3.487   0.077   7.233 -0.6882  0.3686  2.0547
 3058SOL    HW220811   3.391   4.734   7.304  1.0633  2.1386  1.1491
 3059SOL     OW20812   2.473   2.034   1.967 -1.1300  0.2693  0.1158
 3059SOL    HW120813   2.537   2.101   1.944 -1.1027  0.3282  0.3684
 3059SOL    HW220814   2.394   2.071   1.929 -0.6243  1.2021 -0.0364
 3060SOL     OW20815   1.944   1.983   1.149 -0.4931 -0.2315  0.5473
 3060SOL    HW120816   2.001   2.023   1.083  0.1079 -2.3383 -0.2189
 3060SOL    HW220817   1.865   2.037   1.153 -0.8217 -0.4949 -2.2339
 3061SOL     OW20818   3.929   2.649   3.885 -0.4852 -0.1434 -0.2869
 3061SOL    HW120819   3.919   2.713   3.814  0.0926 -0.4653 -0.6528
 3061SOL    HW220820   3.919   2.710   3.959 -0.5649 -0.3994 -0.0854
 3062SOL     OW20821   4.203   0.353   3.180  0.6721 -0.3234  0.6800
 3062SOL    HW120822   4.240   0.296   3.247  0.9399 -1.0237 -0.0720
 3062SOL    HW220823   4.262   0.428   3.191  1.9596 -1.4108  1.0751
 3063SOL     OW20824   3.171   3.964   3.070 -0.4536 -0.0416 -0.3054
 3063SOL    HW120825   3.192   4.042   3.121  0.2744  0.9493 -2.1375
 3063SOL    HW220826   3.079   3.947   3.091 -0.6214  0.6428 -0.4944
 3064SOL     OW20827   0.991   1.127   4.466 -0.3226 -0.5088 -0.1513
 3064SOL    HW120828   0.999   1.222   4.459 -0.0576 -0.4653  0.8396
 3064SOL    HW220829   0.981   1.118   4.561 -1.5793 -1.5875 -0.3762
 3065SOL     OW20830   3.206   1.310  11.166 -0.1351 -0.3349  0.2816
 3065SOL    HW120831   3.258   1.384  11.198  0.3020  0.2921 -1.9015
 3065SOL    HW220832   3.255   1.291  11.086  0.0939 -1.3786  0.6602
 3066SOL     OW20833   1.784   0.373   8.339  0.4396  0.2031 -0.0244
 3066SOL    HW120834   1.706   0.319   8.347  1.7331 -1.5721  0.6697
 3066SOL    HW220835   1.776   0.390   8.245 -0.8926 -1.2584 -0.1625
 3067SOL     OW20836   3.771   0.624   2.066 -0.5143  0.1102  1.0667
 3067SOL    HW120837   3.832   0.590   2.000 -0.1746  2.2675  0.2902
 3067SOL    HW220838   3.686   0.600   2.028 -0.1106  1.2108 -0.5143
 3068SOL     OW20839   2.411   3.624   8.672  0.1136  0.0007 -0.0716
 3068SOL    HW120840   2.504   3.641   8.658  0.2493  0.3613  1.2947
 3068SOL    HW220841   2.385   3.603   8.582  1.8900 -2.9795  0.1393
 3069SOL     OW20842   1.712   3.061  17.732  0.0186  0.7774  0.3684
 3069SOL    HW120843   1.701   3.017  17.647  1.7256  1.3298 -0.1210
 3069SOL    HW220844   1.768   3.000   0.041 -1.0322  1.0446  1.9261
 3070SOL     OW20845   0.506   4.301   3.433  0.2088  0.0236  0.3652
 3070SOL    HW120846   0.420   4.259   3.435  1.0106 -1.7251 -1.8403
 3070SOL    HW220847   0.557   4.221   3.426 -2.5272 -1.8017  1.1575
 3071SOL     OW20848   3.257   3.416   7.682  0.0619  1.0977  0.1142
 3071SOL    HW120849   3.277   3.412   7.589  0.5907  1.3641  0.2114
 3071SOL    HW220850   3.325   3.362   7.721  0.8204 -0.7386 -3.8096
 3072SOL     OW20851   4.218   4.669  13.312 -0.3003 -0.6829 -0.6387
 3072SOL    HW120852   4.205   4.664  13.218 -0.7808  0.3604 -0.6221
 3072SOL    HW220853   4.314   4.669  13.313 -0.2919 -1.3263 -1.6572
 3073SOL     OW20854   4.689   3.970  13.229 -0.2769  0.6947  0.1683
 3073SOL    HW120855   0.034   3.983  13.178 -0.7483 -0.5733 -0.9008
 3073SOL    HW220856   4.618   4.013  13.181 -0.6871  0.2496  0.3790
 3074SOL     OW20857   3.521   3.055  17.554  0.6935  0.2954 -0.0964
 3074SOL    HW120858   3.529   2.966  17.519 -0.7985  0.9038 -2.0008
 3074SOL    HW220859   3.504   3.032  17.645  0.8452 -1.0658 -0.4173
 3075SOL     OW20860   4.276   2.688   4.738  0.8084  0.0229  0.1888
 3075SOL    HW120861   4.236   2.772   4.759  0.0226 -0.3090  0.0153
 3075SOL    HW220862   4.230   2.632   4.801  0.8247  0.3440  0.4843
 3076SOL     OW20863   4.370   0.156   5.842  0.3623 -0.1536 -0.0646
 3076SOL    HW120864   4.430   0.106   5.897  1.4660  0.7627 -0.4290
 3076SOL    HW220865   4.288   0.115   5.867 -0.2705  0.6607 -0.7793
 3077SOL     OW20866   0.503   3.761   5.603 -0.3064  0.4142 -0.1686
 3077SOL    HW120867   0.415   3.727   5.620 -0.9065  1.4072 -1.2972
 3077SOL    HW220868   0.476   3.851   5.587 -1.0569  0.3927  0.9564
 3078SOL     OW20869   4.118   1.259  12.141  0.0511 -0.5536  0.7493
 3078SOL    HW120870   4.059   1.325  12.177 -0.2498 -0.0860 -0.6074
 3078SOL    HW220871   4.206   1.293  12.157  0.7820 -0.5541 -3.1485
 3079SOL     OW20872   3.455   4.391   7.910  0.4146  0.3436  0.8048
 3079SOL    HW120873   3.385   4.445   7.948  0.8506  1.3944  0.1429
 3079SOL    HW220874   3.406   4.360   7.833  1.5268 -2.9873  1.4811
 3080SOL     OW20875   0.379   1.961   4.501  0.1690 -0.4206 -0.3629
 3080SOL    HW120876   0.397   1.983   4.592  1.9455  2.5161 -1.4411
 3080SOL    HW220877   0.373   1.867   4.518 -0.1814 -0.3075  0.1452
 3081SOL     OW20878   0.608   1.910   3.229 -0.0569 -0.2285 -0.0198
 3081SOL    HW120879   0.547   1.847   3.189  0.1267  0.6362 -1.6540
 3081SOL    HW220880   0.591   1.884   3.320 -0.9088 -1.6003 -0.5611
 3082SOL     OW20881   2.382   1.041   6.941 -0.1431  0.1693 -0.6989
 3082SOL    HW120882   2.384   1.124   6.988  0.5593  0.7030 -1.6927
 3082SOL    HW220883   2.454   1.053   6.879 -0.4740  1.3057 -0.8658
 3083SOL     OW20884   3.850   1.092   3.846 -0.0185 -0.0156 -0.5334
 3083SOL    HW120885   3.898   1.082   3.928  1.0361 -2.3995 -1.4460
 3083SOL    HW220886   3.924   1.105   3.788  0.4400 -1.0223 -0.1661
 3084SOL     OW20887   2.834   3.516   1.395  0.3300  0.1320  0.6910
 3084SOL    HW120888   2.852   3.461   1.471 -0.1679 -0.0932  0.6490
 3084SOL    HW220889   2.913   3.482   1.353 -0.1165 -2.1288  1.6624
 3085SOL     OW20890   1.783   2.199  12.388 -0.5235 -0.1207 -0.0398
 3085SOL    HW120891   1.738   2.158  12.313 -1.2122 -2.9007  1.9062
 3085SOL    HW220892   1.741   2.285  12.378 -1.6646 -0.8332 -1.4338
 3086SOL     OW20893   3.254   1.605  12.753 -0.3624  0.4876  0.0432
 3086SOL    HW120894   3.242   1.517  12.718 -0.9643  1.3331 -1.8694
 3086SOL    HW220895   3.263   1.659  12.674 -0.9007  0.1903 -0.2208
 3087SOL     OW20896   3.679   1.988   1.825 -0.3413 -0.2956 -0.6936
 3087SOL    HW120897   3.748   2.051   1.804 -0.6019 -0.3319 -1.6593
 3087SOL    HW220898   3.727   1.905   1.826 -1.7209 -1.0857  0.1673
 3088SOL     OW20899   2.182   4.575  16.882  0.7957 -0.0695 -0.3761
 3088SOL    HW120900   2.176   4.480  16.871  1.2781  0.1676 -2.6517
 3088SOL    HW220901   2.268   4.575  16.923 -0.3919 -2.7068  2.0845
 3089SOL     OW20902   1.032   3.095   6.270 -0.3660  0.1813  0.0972
 3089SOL    HW120903   0.999   3.129   6.353  0.4503  0.4230  0.3198
 3089SOL    HW220904   1.030   3.000   6.280 -1.9362  0.0685 -1.2927
 3090SOL     OW20905   1.746   1.965   8.744 -0.5147  0.0019 -0.5501
 3090SOL    HW120906   1.708   2.052   8.732 -0.4753  0.3869  2.0876
 3090SOL    HW220907   1.811   1.967   8.674  0.3611 -0.1365  0.2549
 3091SOL     OW20908   2.361   1.212   4.957  0.0494 -0.3952  0.0135
 3091SOL    HW120909   2.402   1.299   4.957  0.4048 -0.5448 -2.1890
 3091SOL    HW220910   2.286   1.241   4.906  1.1510  2.8544  0.2637
 3092SOL     OW20911   1.360   1.692   7.794  0.1129 -0.1089  0.2037
 3092SOL    HW120912   1.407   1.769   7.762  2.2373 -1.1452  0.8427
 3092SOL    HW220913   1.424   1.625   7.816  0.9181  0.8810  0.8863
 3093SOL     OW20914   0.013   3.623  14.565 -0.1470  0.2943 -0.2752
 3093SOL    HW120915   4.696   3.552  14.601 -0.9445  2.2855  2.4566
 3093SOL    HW220916   0.100   3.584  14.555 -0.4175 -0.2610 -0.5005
 3094SOL     OW20917   2.309   2.254   6.064 -0.2987 -0.1532 -0.1851
 3094SOL    HW120918   2.347   2.224   5.981  1.4462 -1.8479  1.2020
 3094SOL    HW220919   2.221   2.217   6.058 -0.9389  1.5812 -1.4949
 3095SOL     OW20920   1.856   0.270  16.697 -0.5848 -0.2780 -0.4690
 3095SOL    HW120921   1.913   0.345  16.715 -0.3930 -0.8262  1.1977
 3095SOL    HW220922   1.888   0.209  16.764 -1.5604 -0.3062 -0.0309
 3096SOL     OW20923   1.672   3.161   8.942  0.1162  0.2926 -0.5321
 3096SOL    HW120924   1.716   3.092   8.893  0.7788  0.5696 -0.3218
 3096SOL    HW220925   1.692   3.130   9.030  1.4520  0.2364 -0.8590
 3097SOL     OW20926   3.761   2.821  17.605  0.3407  0.1968  0.1993
 3097SOL    HW120927   3.829   2.844  17.669 -0.8996  0.1383  1.5238
 3097SOL    HW220928   3.803   2.829  17.520  1.1164  2.6378  0.8098
 3098SOL     OW20929   2.143   3.389   8.151  0.4550  0.2742 -0.3227
 3098SOL    HW120930   2.193   3.325   8.100  0.8450 -2.0728  3.0054
 3098SOL    HW220931   2.059   3.345   8.138  1.1487 -1.9860  3.0468
 3099SOL     OW20932   4.218   3.153   1.034 -0.1945  0.4918  0.6644
 3099SOL    HW120933   4.296   3.107   1.002 -0.4449  0.5979 -0.0987
 3099SOL    HW220934   4.203   3.092   1.106 -2.5849  0.2553 -0.0281
 3100SOL     OW20935   0.858   0.308  15.076 -0.1617 -0.2895  0.3662
 3100SOL    HW120936   0.783   0.287  15.021  0.6403  0.3591 -0.9986
 3100SOL    HW220937   0.871   0.226  15.123  0.1166 -0.3790  0.1367
 3101SOL     OW20938   1.532   2.646   6.000 -0.1951 -0.3230  0.1473
 3101SOL    HW120939   1.498   2.733   5.980 -2.1035 -1.0259  0.2918
 3101SOL    HW220940   1.568   2.618   5.916 -2.7155  0.1744 -1.1035
 3102SOL     OW20941   0.602   0.514   6.067  0.0179  0.3732 -0.3454
 3102SOL    HW120942   0.681   0.464   6.086 -1.9620 -2.3973  0.5999
 3102SOL    HW220943   0.546   0.499   6.144 -0.4997  1.0979 -0.5802
 3103SOL     OW20944   1.509   2.639   2.860  0.1247  0.0587  0.5687
 3103SOL    HW120945   1.484   2.621   2.769 -1.0680  1.6359  0.5746
 3103SOL    HW220946   1.568   2.713   2.843  0.1935  0.0097  0.5964
 3104SOL     OW20947   1.387   1.635   4.135 -0.5437 -0.7417 -1.0431
 3104SOL    HW120948   1.447   1.694   4.090  0.5810 -0.1148  1.2970
 3104SOL    HW220949   1.364   1.568   4.070 -0.7246 -1.5947 -0.0880
 3105SOL     OW20950   3.472   0.332   4.049 -0.4541  0.3339  0.0472
 3105SOL    HW120951   3.463   0.238   4.062 -0.4019 -0.0493 -2.6650
 3105SOL    HW220952   3.407   0.350   3.982 -2.2434  1.9132  2.2062
 3106SOL     OW20953   1.546   3.611   3.153  0.1236  0.5940  0.0645
 3106SOL    HW120954   1.601   3.603   3.231  1.1884 -1.1139 -0.8430
 3106SOL    HW220955   1.521   3.518   3.152  0.0306  0.6064  2.2367
 3107SOL     OW20956   1.450   1.132   4.437  0.1910 -0.1786  0.5023
 3107SOL    HW120957   1.412   1.064   4.382  0.7332  0.0806 -0.1977
 3107SOL    HW220958   1.484   1.074   4.504 -1.8455 -1.9374  0.0200
 3108SOL     OW20959   0.381   1.620  13.704 -0.4525  0.5570  0.6165
 3108SOL    HW120960   0.399   1.555  13.772 -1.1074 -0.5613 -0.2603
 3108SOL    HW220961   0.362   1.571  13.624 -0.7191  0.3095  0.8330
 3109SOL     OW20962   3.492   0.759  13.762  0.3795 -0.1519  0.7336
 3109SOL    HW120963   3.583   0.731  13.753 -0.0571 -2.0116  2.0785
 3109SOL    HW220964   3.457   0.684  13.810  0.1690  0.0273  0.8612
 3110SOL     OW20965   3.838   2.402   8.604 -0.5062 -0.4765  0.0521
 3110SOL    HW120966   3.756   2.419   8.557 -1.4111 -1.4554  1.2847
 3110SOL    HW220967   3.816   2.450   8.684 -1.7470 -0.9717  0.0009
 3111SOL     OW20968   0.455   1.114  16.340  0.1266 -0.1947  0.4846
 3111SOL    HW120969   0.382   1.170  16.311 -0.5427 -0.8398  0.9269
 3111SOL    HW220970   0.524   1.176  16.361  0.2745 -0.1385 -0.1481
 3112SOL     OW20971   3.739   0.498  11.814  0.2915  0.0645  0.0836
 3112SOL    HW120972   3.778   0.580  11.844  1.5322  0.6672 -3.1539
 3112SOL    HW220973   3.814   0.462  11.766  0.0893 -1.1912  0.7215
 3113SOL     OW20974   1.705   3.298   6.730 -0.4983  0.0281  0.1997
 3113SOL    HW120975   1.650   3.315   6.653  1.8223  2.4679 -0.9164
 3113SOL    HW220976   1.634   3.271   6.789 -0.3739 -0.6265  0.0429
 3114SOL     OW20977   2.473   4.524   7.392  0.0419 -0.4882  0.0445
 3114SOL    HW120978   2.456   4.597   7.451  2.1024 -1.4599  1.8670
 3114SOL    HW220979   2.524   4.464   7.447 -1.5109 -0.6217  1.3476
 3115SOL     OW20980   4.466   1.712   7.341  0.6076 -0.4364 -0.0952
 3115SOL    HW120981   4.428   1.699   7.254 -1.4215 -0.9929  0.8757
 3115SOL    HW220982   4.509   1.797   7.342 -1.6334  0.7212 -3.1247
 3116SOL     OW20983   3.689   3.075  12.592 -0.1147 -0.1792  0.1423
 3116SOL    HW120984   3.762   3.014  12.582 -1.5743 -1.5619 -2.0840
 3116SOL    HW220985   3.708   3.119  12.675  0.9710  0.5614 -0.4952
 3117SOL     OW20986   3.433   3.131   8.296 -0.0019  0.2353  0.3483
 3117SOL    HW120987   3.391   3.170   8.219 -0.7696  2.1923  1.7645
 3117SOL    HW220988   3.483   3.058   8.260  1.0694  0.2937  1.6950
 3118SOL     OW20989   3.241   0.653   6.101  0.2951 -0.2986  0.0649
 3118SOL    HW120990   3.151   0.663   6.130 -0.1698 -2.3846 -0.6653
 3118SOL    HW220991   3.246   0.729   6.045  1.6431  0.3809  1.1025
 3119SOL     OW20992   0.313   2.798   3.928  0.7030 -0.3790 -0.4143
 3119SOL    HW120993   0.341   2.881   3.890  1.3623 -0.5811 -0.3670
 3119SOL    HW220994   0.337   2.755   3.845 -0.7938  1.4221 -1.7771
 3120SOL     OW20995   2.291   1.832   1.727  0.2533 -0.1498  0.0174
 3120SOL    HW120996   2.237   1.901   1.764 -0.7800 -1.2634  0.5927
 3120SOL    HW220997   2.268   1.843   1.634  2.4257  1.6933 -0.3053
 3121SOL     OW20998   4.680   0.851   4.485  0.9604  0.5602  0.2560
 3121SOL    HW120999   4.673   0.879   4.576  1.8507 -0.5606  0.6794
 3121SOL    HW221000   4.724   0.766   4.490  0.6151  0.4101  0.6417
 3122SOL     OW21001   2.715   4.411   3.408 -0.3739  0.3620  0.2397
 3122SOL    HW121002   2.674   4.326   3.395 -2.2828  1.0058  2.1383
 3122SOL    HW221003   2.633   4.449   3.438 -0.4690  0.7519 -0.5107
 3123SOL     OW21004   0.371   4.356   6.415  0.6216 -0.8157 -0.0640
 3123SOL    HW121005   0.416   4.383   6.496 -1.2787  2.1743 -0.0375
 3123SOL    HW221006   0.302   4.298   6.448  2.1887 -1.3289  2.3505
 3124SOL     OW21007   1.153   3.808   7.091  0.0927  0.1146  0.2580
 3124SOL    HW121008   1.189   3.749   7.158  1.9677  0.6851 -0.2479
 3124SOL    HW221009   1.073   3.840   7.132 -0.3089  0.9475 -1.1879
 3125SOL     OW21010   0.602   4.351   1.893 -0.4591 -0.0913 -0.5634
 3125SOL    HW121011   0.571   4.416   1.830 -0.5192 -0.1802 -0.6263
 3125SOL    HW221012   0.530   4.291   1.872 -0.6070  0.3050 -1.2011
 3126SOL     OW21013   4.696   1.604   3.505  0.1467 -0.1532  0.0161
 3126SOL    HW121014   4.606   1.595   3.476 -1.1075  0.5719  3.7242
 3126SOL    HW221015   4.694   1.542   3.578 -1.8947 -0.3806 -0.2548
 3127SOL     OW21016   0.862   0.728   5.587 -0.5897  0.4463  0.2540
 3127SOL    HW121017   0.913   0.783   5.646 -0.5953 -0.5267  1.1626
 3127SOL    HW221018   0.862   0.767   5.499  0.4500  0.9638  0.4923
 3128SOL     OW21019   1.928   0.097   9.928 -0.2381  0.7272 -0.6200
 3128SOL    HW121020   1.931   0.157  10.003  1.3488  0.1963 -0.2496
 3128SOL    HW221021   1.833   0.106   9.920 -0.4246 -0.2249  0.4286
 3129SOL     OW21022   4.464   0.582   9.050 -0.4087 -0.0312 -0.1123
 3129SOL    HW121023   4.405   0.588   9.125 -1.1576 -1.5226 -0.5842
 3129SOL    HW221024   4.451   0.669   9.011  2.0796  0.0721 -0.7038
 3130SOL     OW21025   3.426   1.697   5.156  0.0786 -0.5770 -0.1152
 3130SOL    HW121026   3.487   1.626   5.176  1.2728  0.1761 -1.0629
 3130SOL    HW221027   3.480   1.770   5.187  1.0612 -1.4181  0.1401
 3131SOL     OW21028   0.579   3.817   5.280  0.7918 -0.2281  0.1238
 3131SOL    HW121029   0.607   3.783   5.365  1.8001  0.3393  0.0237
 3131SOL    HW221030   0.486   3.822   5.304  0.2882  1.5537 -2.2521
 3132SOL     OW21031   3.697   0.504   4.104 -0.3861  0.1731 -0.4730
 3132SOL    HW121032   3.620   0.455   4.075  1.5889 -3.7111  0.6809
 3132SOL    HW221033   3.723   0.538   4.019  1.0730  0.2006 -0.0168
 3133SOL     OW21034   0.080   3.438   7.035 -0.0304  0.0303 -0.2204
 3133SOL    HW121035   0.151   3.415   6.974 -1.1153  0.8934 -1.7971
 3133SOL    HW221036   0.010   3.471   6.980 -0.8989 -0.4885  0.5755
 3134SOL     OW21037   4.050   2.793  16.957 -0.5432 -0.0395 -0.6591
 3134SOL    HW121038   4.104   2.794  17.036 -1.5856 -3.2347  0.0993
 3134SOL    HW221039   4.110   2.837  16.896 -0.4902 -1.0529 -1.3516
 3135SOL     OW21040   1.447   1.855   4.541 -0.0968  0.0458 -0.1200
 3135SOL    HW121041   1.409   1.769   4.559  0.1488 -0.0452 -0.0243
 3135SOL    HW221042   1.379   1.893   4.487  1.4708  0.7306 -1.6250
 3136SOL     OW21043   1.898   2.371   4.977  0.6044  0.2122 -0.3381
 3136SOL    HW121044   1.827   2.330   4.927 -0.6819  1.4239  0.5123
 3136SOL    HW221045   1.880   2.326   5.060  0.0450 -0.1080 -0.6291
 3137SOL     OW21046   2.976   1.615   4.701 -0.2861 -0.2529 -0.2161
 3137SOL    HW121047   3.068   1.632   4.720 -0.2053  0.8585 -1.5565
 3137SOL    HW221048   2.945   1.701   4.674 -1.2384 -1.1412 -1.9600
 3138SOL     OW21049   2.250   2.308   9.277 -0.4430  0.1773 -0.2462
 3138SOL    HW121050   2.192   2.380   9.303 -0.2863  0.7706 -1.5419
 3138SOL    HW221051   2.180   2.243   9.274  1.0536 -1.4825  0.7942
 3139SOL     OW21052   3.010   0.661  10.426 -0.2014 -0.0241  0.5757
 3139SOL    HW121053   3.009   0.742  10.477  1.3677  0.7883 -0.6943
 3139SOL    HW221054   3.093   0.669  10.378  0.8167  1.1551  2.5083
 3140SOL     OW21055   3.416   2.203   6.882  0.2258  0.0246 -0.4717
 3140SOL    HW121056   3.355   2.249   6.940 -1.9861  0.5987 -3.3017
 3140SOL    HW221057   3.435   2.269   6.816  1.8452 -0.2875 -0.3144
 3141SOL     OW21058   3.221   0.841   4.722  0.7941  0.1895  0.0150
 3141SOL    HW121059   3.285   0.912   4.718  0.2989  0.7740  2.4989
 3141SOL    HW221060   3.143   0.896   4.711 -0.0074 -1.1821 -1.1263
 3142SOL     OW21061   1.540   2.459   5.729 -0.3919 -0.4616 -0.5564
 3142SOL    HW121062   1.621   2.488   5.686 -1.4531  1.1524 -1.4634
 3142SOL    HW221063   1.500   2.412   5.656 -2.5366  0.2404  0.1794
 3143SOL     OW21064   4.672   0.125   8.932 -0.5089 -0.3096 -1.1762
 3143SOL    HW121065   4.578   0.106   8.929 -1.5328  4.3546  0.6555
 3143SOL    HW221066   4.670   0.212   8.970 -0.3682 -1.4331  1.4106
 3144SOL     OW21067   1.505   0.331   8.894  0.0217 -0.0177 -0.5419
 3144SOL    HW121068   1.417   0.311   8.928  0.5270 -1.0399  0.1598
 3144SOL    HW221069   1.510   0.422   8.924  0.4279  0.2735 -1.5215
 3145SOL     OW21070   4.561   0.179   4.800 -0.0134  0.3591  0.0189
 3145SOL    HW121071   4.465   0.175   4.803 -0.1585  3.0839 -0.9295
 3145SOL    HW221072   4.572   0.274   4.808  1.0764  0.1586  0.8166
 3146SOL     OW21073   0.137   4.502   3.981  0.1290 -0.3072  0.6907
 3146SOL    HW121074   0.096   4.571   3.929 -0.4770 -0.0129  1.5643
 3146SOL    HW221075   0.105   4.422   3.939  0.4453 -1.4757  2.7183
 3147SOL     OW21076   0.565   0.903   8.571 -0.0965 -0.4175 -0.1537
 3147SOL    HW121077   0.497   0.968   8.586  0.9311  0.7467 -0.5348
 3147SOL    HW221078   0.519   0.841   8.514 -3.9370 -0.0692  2.5810
 3148SOL     OW21079   3.793   3.551   6.000 -0.3572  0.2352 -0.6014
 3148SOL    HW121080   3.715   3.577   5.952 -2.0902 -2.2696  0.8463
 3148SOL    HW221081   3.837   3.636   6.000  0.2970 -0.0998 -0.8123
 3149SOL     OW21082   1.403   3.421   2.525 -0.4530 -0.0593 -0.2103
 3149SOL    HW121083   1.349   3.398   2.450 -2.5209 -3.1352  2.1987
 3149SOL    HW221084   1.481   3.453   2.480 -1.7731  2.6681 -0.5548
 3150SOL     OW21085   0.736   2.309   3.850  0.5450 -0.1967  0.3102
 3150SOL    HW121086   0.678   2.262   3.910  1.7687 -0.6417  1.1589
 3150SOL    HW221087   0.776   2.241   3.796  0.3011  0.5918 -0.8483
 3151SOL     OW21088   3.273   1.484   0.152  0.0658  0.6300 -0.2910
 3151SOL    HW121089   3.249   1.433   0.075  1.4280 -0.3202 -0.1010
 3151SOL    HW221090   3.354   1.523   0.119  1.1778 -0.5788  0.9928
 3152SOL     OW21091   2.092   0.106   5.872 -0.0145  0.6172 -0.7213
 3152SOL    HW121092   2.013   0.122   5.820  0.6033 -0.2068 -1.9121
 3152SOL    HW221093   2.059   0.040   5.933  0.0418 -0.0556 -1.4201
 3153SOL     OW21094   3.907   4.279   8.955  0.5458  0.3130  0.4864
 3153SOL    HW121095   3.883   4.280   8.862  0.7169 -1.4547  0.4317
 3153SOL    HW221096   3.948   4.194   8.971 -0.4487 -0.2651 -0.0573
 3154SOL     OW21097   0.733   3.442   5.016 -0.1583 -0.0381 -0.1686
 3154SOL    HW121098   0.782   3.522   5.031  1.8248 -1.0310 -1.3664
 3154SOL    HW221099   0.647   3.477   5.037  0.7546  1.1563  1.6251
 3155SOL     OW21100   4.147   0.103  11.784  0.5223  0.1559 -0.2699
 3155SOL    HW121101   4.238   0.074  11.792  0.5426 -0.4885 -2.7721
 3155SOL    HW221102   4.127   0.124  11.876  1.6298  0.5138 -0.1135
 3156SOL     OW21103   0.224   3.222  13.137  0.5527 -0.4269  0.5170
 3156SOL    HW121104   0.270   3.305  13.150  0.2021 -0.2029  0.3375
 3156SOL    HW221105   0.286   3.177  13.080 -0.8840 -1.4812 -0.1992
 3157SOL     OW21106   3.827   1.533   4.058 -0.4688  0.2187  0.2187
 3157SOL    HW121107   3.876   1.534   4.141  1.5822 -0.9122 -0.9845
 3157SOL    HW221108   3.866   1.450   4.033  0.2958 -0.2297  2.9057
 3158SOL     OW21109   3.389   4.472   6.135  0.2945  0.1343  0.2820
 3158SOL    HW121110   3.387   4.411   6.062  0.3874  1.2361 -0.6459
 3158SOL    HW221111   3.454   4.532   6.099 -0.1237 -0.3874 -1.3152
 3159SOL     OW21112   1.585   4.092   4.750 -0.2838 -0.0513  0.7508
 3159SOL    HW121113   1.538   4.030   4.805 -0.8759 -1.1333 -0.9722
 3159SOL    HW221114   1.647   4.122   4.817 -0.9831  0.0796  1.3461
 3160SOL     OW21115   2.990   0.109   4.532 -0.3279 -0.1888  0.2670
 3160SOL    HW121116   2.900   0.132   4.507 -0.3272  0.6786  1.0581
 3160SOL    HW221117   3.028   0.194   4.552  0.0201 -0.2115 -0.3019
 3161SOL     OW21118   4.031   1.947   5.002  0.1062  0.4339 -0.1579
 3161SOL    HW121119   4.061   2.038   5.001  0.2793  0.3723 -0.3699
 3161SOL    HW221120   3.936   1.957   4.999  0.2918  1.9714 -0.7337
 3162SOL     OW21121   3.841   0.381   5.504  0.2529  0.2351 -0.3321
 3162SOL    HW121122   3.858   0.419   5.418  0.8229  1.7198  0.4517
 3162SOL    HW221123   3.810   0.461   5.546 -0.4493  0.9907 -2.3101
 3163SOL     OW21124   1.080   1.498   8.014 -0.0774 -0.5720 -0.6302
 3163SOL    HW121125   1.155   1.523   8.068  0.5567 -0.9474 -1.3452
 3163SOL    HW221126   1.054   1.420   8.063  0.2678 -0.7636 -0.7554
 3164SOL     OW21127   1.855   1.194   9.581 -0.0591 -0.3219  0.2847
 3164SOL    HW121128   1.845   1.116   9.526  0.1197  1.6569 -2.5703
 3164SOL    HW221129   1.859   1.263   9.515  0.1985 -0.1405  0.4917
 3165SOL     OW21130   1.043   2.622   7.492 -0.5161  0.1194 -0.0734
 3165SOL    HW121131   1.022   2.680   7.565 -2.4680  0.1766 -0.6638
 3165SOL    HW221132   0.957   2.598   7.457 -1.9128  0.5007  3.1296
 3166SOL     OW21133   3.839   2.197  11.647  0.7212  0.5267  0.0160
 3166SOL    HW121134   3.903   2.236  11.707  0.5601 -0.2715  0.7085
 3166SOL    HW221135   3.777   2.171  11.715  0.4915  1.0227 -0.0014
 3167SOL     OW21136   4.217   2.080   8.598  0.1123 -0.1774 -0.5558
 3167SOL    HW121137   4.207   2.036   8.514  0.9962 -4.2480  1.4792
 3167SOL    HW221138   4.146   2.143   8.585 -1.1027 -1.1722  1.3338
 3168SOL     OW21139   1.023   1.689  17.052 -0.0945 -0.5387  0.4449
 3168SOL    HW121140   1.109   1.719  17.082 -0.6703  1.8574 -0.3115
 3168SOL    HW221141   0.965   1.734  17.114  0.5636  1.3877 -0.3149
 3169SOL     OW21142   1.466   2.104   1.546  0.0457  0.3786 -0.6556
 3169SOL    HW121143   1.462   2.087   1.641 -2.4192  0.7124 -0.6904
 3169SOL    HW221144   1.544   2.061   1.512  2.1874  1.8938  2.3607
 3170SOL     OW21145   3.503   1.465   3.665  0.2365 -0.2994 -0.4534
 3170SOL    HW121146   3.457   1.388   3.696 -2.9562  2.3816  1.4181
 3170SOL    HW221147   3.426   1.521   3.652  0.1968 -0.6768 -1.8411
 3171SOL     OW21148   2.161   4.513   5.686 -0.2800 -0.2226  0.2067
 3171SOL    HW121149   2.169   4.495   5.592  2.1632  1.4414  0.1131
 3171SOL    HW221150   2.255   4.518   5.704 -0.7618  1.5233  2.1564
 3172SOL     OW21151   1.909   0.718   8.953 -0.2582  0.2093  0.3034
 3172SOL    HW121152   1.825   0.756   8.927 -0.3821  0.0952  0.5425
 3172SOL    HW221153   1.887   0.665   9.029 -1.7249  0.4433  0.0501
 3173SOL     OW21154   2.256   2.763   9.087 -0.2485  0.1239  0.0015
 3173SOL    HW121155   2.272   2.669   9.079  0.5015  0.4303 -1.9365
 3173SOL    HW221156   2.331   2.803   9.044  0.1165 -1.1559 -0.5436
 3174SOL     OW21157   1.454   2.333  14.391 -0.1156  0.3971 -0.3655
 3174SOL    HW121158   1.504   2.369  14.318  0.3240 -0.6313 -0.5808
 3174SOL    HW221159   1.516   2.271  14.430 -3.8347 -3.0918  0.0540
 3175SOL     OW21160   0.591   3.978   4.525  0.3898  0.6044  0.0152
 3175SOL    HW121161   0.590   3.911   4.594  1.4942  0.3286 -0.2255
 3175SOL    HW221162   0.644   3.933   4.458  2.1384  1.7359  0.6566
 3176SOL     OW21163   3.624   0.476   8.987  0.4222  0.3837  0.1453
 3176SOL    HW121164   3.550   0.492   9.046 -0.2872 -0.7015 -0.4476
 3176SOL    HW221165   3.693   0.452   9.049  0.9680  0.6061 -0.3832
 3177SOL     OW21166   1.910   2.177   8.295  0.4340  0.3340 -0.5831
 3177SOL    HW121167   1.914   2.203   8.387 -0.2231 -0.3472 -0.3601
 3177SOL    HW221168   1.923   2.083   8.299  1.8217  0.6514  2.3577
 3178SOL     OW21169   2.059   1.278   0.371 -0.2027  0.2892  0.8747
 3178SOL    HW121170   2.071   1.300   0.279 -0.2096  1.0349  1.0524
 3178SOL    HW221171   2.028   1.187   0.370  0.5764  0.0606 -1.3664
 3179SOL     OW21172   2.583   0.608   4.609 -0.5751 -0.2029 -0.4913
 3179SOL    HW121173   2.640   0.535   4.588  1.3595  0.7380  1.4724
 3179SOL    HW221174   2.641   0.681   4.588 -1.7333  0.8684 -0.0364
 3180SOL     OW21175   2.051   0.816  12.833 -0.2402  0.1230  0.3997
 3180SOL    HW121176   2.059   0.831  12.739 -0.3414  0.2841  0.4163
 3180SOL    HW221177   2.134   0.856  12.860  0.5920  1.0237 -3.4748
 3181SOL     OW21178   3.487   1.028   5.407  0.4745  0.5972  0.2825
 3181SOL    HW121179   3.554   1.078   5.453  0.6976  1.3410 -0.8339
 3181SOL    HW221180   3.423   1.011   5.476  0.1160 -0.0900 -0.2064
 3182SOL     OW21181   0.913   4.382   5.256 -0.3048  0.1428 -0.3672
 3182SOL    HW121182   0.827   4.338   5.257 -0.0083 -0.4668 -1.4367
 3182SOL    HW221183   0.964   4.308   5.288 -0.7004  0.4089  0.8731
 3183SOL     OW21184   0.891   1.851   0.970 -0.4182  0.0636  0.1056
 3183SOL    HW121185   0.831   1.919   1.001  0.5882 -0.3644  3.0167
 3183SOL    HW221186   0.859   1.838   0.881  1.9624  2.2448 -1.0526
 3184SOL     OW21187   1.340   1.090   4.978 -0.1123  0.6241 -0.4406
 3184SOL    HW121188   1.268   1.128   5.029 -0.5520 -0.6478 -0.1178
 3184SOL    HW221189   1.417   1.092   5.034 -1.9268 -1.9043  2.1242
 3185SOL     OW21190   1.616   0.055   7.763  0.1493  0.3633  0.0755
 3185SOL    HW121191   1.565   0.125   7.803 -0.2643  1.0529 -1.6772
 3185SOL    HW221192   1.584   4.718   7.817 -2.4554 -0.6680 -2.8378
 3186SOL     OW21193   1.726   0.599   3.714 -0.3940 -0.3080  0.4575
 3186SOL    HW121194   1.778   0.670   3.750 -0.5579  0.2779 -0.4614
 3186SOL    HW221195   1.705   0.559   3.798 -0.1571  2.1919  1.7045
 3187SOL     OW21196   0.152   2.671   5.939  0.5081  0.0112  0.2362
 3187SOL    HW121197   0.066   2.638   5.911  0.5502  0.3531 -0.3123
 3187SOL    HW221198   0.134   2.765   5.933 -1.2439 -0.4003 -1.0870
 3188SOL     OW21199   1.587   2.439   9.094 -0.1373 -0.3565  0.7519
 3188SOL    HW121200   1.573   2.418   9.002  2.1121  1.1246  0.0713
 3188SOL    HW221201   1.531   2.516   9.101 -2.6618 -2.1443  0.0760
 3189SOL     OW21202   1.340   0.706   1.034  0.6345 -0.0342  0.1059
 3189SOL    HW121203   1.264   0.711   1.091  1.2623  1.0450  0.8408
 3189SOL    HW221204   1.324   0.624   0.986 -0.9763  1.5433 -2.0416
 3190SOL     OW21205   2.031   4.052  13.259 -0.0760  0.2472  0.0043
 3190SOL    HW121206   2.007   4.130  13.208  1.4186  1.1168  0.6322
 3190SOL    HW221207   1.952   4.051  13.314 -0.1282 -2.4381 -0.1053
 3191SOL     OW21208   3.580   1.699   0.015 -0.5069  0.2047  0.0222
 3191SOL    HW121209   3.567   1.634  17.686 -0.2784 -1.5970  1.7052
 3191SOL    HW221210   3.566   1.782  17.708 -0.5711  1.0909  1.6161
 3192SOL     OW21211   0.863   4.648   1.663 -0.2721  0.3410 -0.3995
 3192SOL    HW121212   0.869   4.588   1.737 -1.5473 -0.4339 -0.9193
 3192SOL    HW221213   0.828   4.581   1.605  3.8082 -0.5352 -1.8451
 3193SOL     OW21214   3.136   2.544   7.174 -0.1318 -0.0645  0.1738
 3193SOL    HW121215   3.093   2.500   7.247 -1.1003  2.1305  0.9441
 3193SOL    HW221216   3.189   2.613   7.214 -2.1951  1.8332 -0.3153
 3194SOL     OW21217   2.593   3.287   4.720  0.2175  0.3580  0.3738
 3194SOL    HW121218   2.555   3.320   4.639  0.0062 -0.3484  0.1822
 3194SOL    HW221219   2.648   3.215   4.688  0.2867  0.4243  0.3451
 3195SOL     OW21220   3.704   4.716   7.039  0.2008  0.4585 -0.7748
 3195SOL    HW121221   3.718   0.075   7.041 -0.2884  0.4503  2.4712
 3195SOL    HW221222   3.617   4.711   7.079 -0.1928 -2.2490 -1.9193
 3196SOL     OW21223   4.370   1.738   8.146  0.1870  0.2533 -0.6579
 3196SOL    HW121224   4.280   1.724   8.176  0.2501 -2.9112 -1.9347
 3196SOL    HW221225   4.374   1.833   8.152 -0.7772  0.1122  2.3097
 3197SOL     OW21226   3.659   4.514   5.676 -0.2035  0.7243  0.3127
 3197SOL    HW121227   3.587   4.520   5.614  0.0507  0.1282 -0.0425
 3197SOL    HW221228   3.707   4.595   5.660  0.2766  0.2927 -0.4226
 3198SOL     OW21229   1.647   0.686   8.002  0.4194 -0.0502 -0.3948
 3198SOL    HW121230   1.640   0.674   7.908 -0.5343  0.0066 -0.3303
 3198SOL    HW221231   1.585   0.621   8.034 -1.7471  1.0345 -2.3992
 3199SOL     OW21232   2.645   4.413   9.470  0.0448  0.2171  0.1943
 3199SOL    HW121233   2.720   4.398   9.527  0.2617  0.8424  0.0765
 3199SOL    HW221234   2.695   4.421   9.389 -0.8699 -0.3305 -0.4149
 3200SOL     OW21235   4.054   4.476   0.516  0.1371 -0.5472 -0.1158
 3200SOL    HW121236   4.025   4.507   0.601  3.0260 -1.8412  1.3396
 3200SOL    HW221237   4.011   4.532   0.452 -2.4744  0.5530  2.6519
 3201SOL     OW21238   1.285   1.817   6.284  0.1912 -0.3240 -0.1866
 3201SOL    HW121239   1.195   1.834   6.258  0.6603 -0.5590 -1.9680
 3201SOL    HW221240   1.276   1.754   6.356  1.3968 -1.8514 -1.3790
 3202SOL     OW21241   2.509   0.563  10.220 -1.2385 -0.5792  0.1992
 3202SOL    HW121242   2.527   0.506  10.145  2.8987  3.3688 -1.7581
 3202SOL    HW221243   2.498   0.503  10.294  3.3089  0.9344  2.0984
 3203SOL     OW21244   2.226   3.118   3.250  0.2232 -0.1201 -0.4046
 3203SOL    HW121245   2.207   3.025   3.243  1.4554 -0.3501 -0.6925
 3203SOL    HW221246   2.145   3.151   3.212  0.2382 -1.2299 -1.3807
 3204SOL     OW21247   4.144   2.638  11.531  0.0212 -0.3174 -1.0459
 3204SOL    HW121248   4.186   2.723  11.518 -0.8109  0.4102  0.9642
 3204SOL    HW221249   4.210   2.582  11.488  2.1392  1.2917  0.0852
 3205SOL     OW21250   0.963   0.865   8.205 -0.5298  0.0788  0.0660
 3205SOL    HW121251   0.921   0.950   8.201 -2.5420 -0.9294 -0.3948
 3205SOL    HW221252   0.909   0.814   8.143 -0.5585  1.3013 -0.9065
 3206SOL     OW21253   1.636   2.906  12.401 -0.2064 -0.2761 -0.0458
 3206SOL    HW121254   1.610   2.836  12.341 -1.1882  1.2127 -1.3646
 3206SOL    HW221255   1.633   2.984  12.345  2.7409  1.1265  1.7669
 3207SOL     OW21256   2.269   0.113   6.780 -0.3677 -0.7453 -0.4926
 3207SOL    HW121257   2.334   0.150   6.840  0.9469  0.2251 -2.5245
 3207SOL    HW221258   2.298   0.157   6.701 -0.0035  1.0115  0.6228
 3208SOL     OW21259   1.990   0.828  16.713 -0.1063 -0.0250 -0.2149
 3208SOL    HW121260   1.971   0.908  16.666 -0.1538  0.3480  0.4336
 3208SOL    HW221261   1.921   0.764  16.694  0.0127 -0.2086 -0.0327
 3209SOL     OW21262   3.440   3.756  16.042 -0.1683  0.3667 -0.5569
 3209SOL    HW121263   3.496   3.678  16.049 -1.2445 -0.2620  1.1929
 3209SOL    HW221264   3.491   3.810  16.103 -0.6131 -0.8391  0.8920
 3210SOL     OW21265   0.862   2.994  11.246  0.0993 -0.2326  0.3296
 3210SOL    HW121266   0.863   3.054  11.171 -0.9100 -0.9296 -0.2434
 3210SOL    HW221267   0.840   2.916  11.196 -1.2586  0.0179  0.5348
 3211SOL     OW21268   4.045   4.509   8.867  0.5084 -0.3566  0.0014
 3211SOL    HW121269   3.955   4.535   8.851  1.5881  3.0939 -0.4006
 3211SOL    HW221270   4.023   4.423   8.905 -0.6672  0.7432  1.7910
 3212SOL     OW21271   3.132   1.495   8.914 -0.2894 -0.1289 -0.4534
 3212SOL    HW121272   3.072   1.555   8.869  1.2699  1.9410  0.2078
 3212SOL    HW221273   3.086   1.413   8.932 -1.5240  0.6267 -0.1358
 3213SOL     OW21274   0.992   2.141   8.704  0.8035 -0.1940  0.4435
 3213SOL    HW121275   0.964   2.067   8.650 -1.5177  0.4685  0.7766
 3213SOL    HW221276   0.935   2.131   8.780  1.8212  1.7147  1.4556
 3214SOL     OW21277   4.648   4.249   9.242 -1.1891  0.7666  0.0724
 3214SOL    HW121278   4.712   4.198   9.193 -0.2930 -0.1943  2.2780
 3214SOL    HW221279   4.634   4.313   9.172 -0.0326  0.9375  0.0085
 3215SOL     OW21280   1.222   2.460   8.408  0.0864  0.0291  0.1014
 3215SOL    HW121281   1.188   2.373   8.425 -1.1698  0.3549 -0.7582
 3215SOL    HW221282   1.258   2.472   8.496 -0.6708  1.3957  0.2291
 3216SOL     OW21283   4.399   3.147  12.111 -0.6531  0.1485  0.6257
 3216SOL    HW121284   4.425   3.087  12.180 -0.1133  0.6691  0.8784
 3216SOL    HW221285   4.366   3.221  12.163 -0.8852 -0.0779  0.8039
 3217SOL     OW21286   2.084   2.483   6.826 -0.3824 -0.4557  0.3564
 3217SOL    HW121287   1.991   2.467   6.841 -0.4560  0.2808  0.6440
 3217SOL    HW221288   2.127   2.447   6.903  2.7837  0.5174 -0.9376
 3218SOL     OW21289   0.901   3.087   7.925 -0.6849 -0.2502  0.0486
 3218SOL    HW121290   0.812   3.061   7.900 -0.4409  1.7327 -2.9949
 3218SOL    HW221291   0.904   3.037   8.006 -2.7893 -0.8081 -0.2271
 3219SOL     OW21292   3.327   3.804   2.147  0.6799 -0.1582  0.0569
 3219SOL    HW121293   3.411   3.816   2.192  0.7721  1.7404 -0.6360
 3219SOL    HW221294   3.321   3.882   2.092 -0.7027 -1.7419 -2.0483
 3220SOL     OW21295   0.284   0.582   5.243 -0.1263  0.2125  0.5117
 3220SOL    HW121296   0.312   0.673   5.235  0.3574  0.2162  2.4438
 3220SOL    HW221297   0.218   0.588   5.312 -0.5727  0.9908  0.0237
 3221SOL     OW21298   0.955   4.216   2.316 -0.1170 -0.2533 -0.3626
 3221SOL    HW121299   0.908   4.265   2.383  0.0289  0.6739 -0.9460
 3221SOL    HW221300   1.040   4.216   2.358  0.2944 -1.2687 -1.1814
 3222SOL     OW21301   4.680   2.691   1.550  0.1796  0.6899  0.3307
 3222SOL    HW121302   4.710   2.640   1.625 -1.1692 -0.3813  0.1320
 3222SOL    HW221303   4.727   2.649   1.477 -0.3555 -1.5270  1.2764
 3223SOL     OW21304   3.495   3.575  15.031 -1.0133 -0.7209 -0.7459
 3223SOL    HW121305   3.572   3.617  15.069 -0.6340 -0.1031 -2.1879
 3223SOL    HW221306   3.425   3.638  15.016  1.7115  1.8101 -2.7884
 3224SOL     OW21307   3.025   1.267   4.311 -0.2304 -0.7272 -0.7017
 3224SOL    HW121308   3.097   1.226   4.263  1.7500 -0.4895  2.0638
 3224SOL    HW221309   3.071   1.331   4.366 -2.9242 -1.0087  1.8961
 3225SOL     OW21310   1.221   3.344   4.972  0.0950  0.3358 -0.0172
 3225SOL    HW121311   1.280   3.383   4.908 -1.6491  2.4976 -0.2997
 3225SOL    HW221312   1.217   3.410   5.041 -0.3313  0.9654 -0.6436
 3226SOL     OW21313   2.874   2.895  16.675 -0.1478  0.1642 -0.5647
 3226SOL    HW121314   2.929   2.839  16.730 -0.2868  0.0063 -0.5837
 3226SOL    HW221315   2.785   2.880  16.709  0.4279 -2.1935 -0.1215
 3227SOL     OW21316   2.721   3.608  13.385 -0.1044 -0.5068  1.0730
 3227SOL    HW121317   2.665   3.581  13.312  1.1674  0.2146 -0.1603
 3227SOL    HW221318   2.661   3.584  13.455 -1.7122  2.6497  0.7872
 3228SOL     OW21319   2.348   2.501   9.026 -0.0821 -0.2794 -0.5808
 3228SOL    HW121320   2.443   2.513   9.034 -0.1701  1.0271 -1.4933
 3228SOL    HW221321   2.356   2.416   8.984 -0.3519 -0.8514  0.5490
 3229SOL     OW21322   4.283   1.194   7.126  0.2239 -0.5043  0.1405
 3229SOL    HW121323   4.264   1.100   7.119  0.4919 -0.5646  0.1936
 3229SOL    HW221324   4.361   1.184   7.180  1.1494  1.2091 -0.8831
 3230SOL     OW21325   2.039   0.015   4.278 -0.4655  0.3770 -0.1985
 3230SOL    HW121326   2.085   0.090   4.315  0.2328 -0.0172 -0.2661
 3230SOL    HW221327   2.117   4.702   4.249 -0.6684  0.3831 -0.7589
 3231SOL     OW21328   2.799   2.473  12.978 -0.7799 -0.1037  0.4384
 3231SOL    HW121329   2.869   2.523  13.021  0.7214 -0.3306 -1.7201
 3231SOL    HW221330   2.847   2.391  12.966 -1.4990 -0.3243 -0.9618
 3232SOL     OW21331   1.238   2.318  10.577  0.6228  0.1462  0.1666
 3232SOL    HW121332   1.313   2.371  10.605  1.5524 -2.0464  1.8456
 3232SOL    HW221333   1.200   2.282  10.657  1.1714  0.4935  0.5825
 3233SOL     OW21334   2.366   1.768  12.263 -0.2803 -0.6324 -0.0280
 3233SOL    HW121335   2.291   1.711  12.279  0.2724 -1.3371  0.0407
 3233SOL    HW221336   2.439   1.714  12.292 -1.3523 -1.5624  0.9305
 3234SOL     OW21337   3.694   3.622   7.923  0.2155  0.1482 -0.4652
 3234SOL    HW121338   3.648   3.696   7.961 -1.1432 -0.7392 -0.3985
 3234SOL    HW221339   3.719   3.648   7.834  1.7760 -0.2821 -0.1551
 3235SOL     OW21340   2.985   4.434   3.456 -0.0773 -0.2518  0.7524
 3235SOL    HW121341   2.891   4.449   3.444 -0.4320 -2.1351  1.2255
 3235SOL    HW221342   3.026   4.467   3.376  1.5928 -1.6242  1.0510
 3236SOL     OW21343   0.409   0.533   3.863  0.6446  0.2707  0.0111
 3236SOL    HW121344   0.434   0.508   3.952  0.2189 -0.9254 -0.1985
 3236SOL    HW221345   0.344   0.600   3.885 -0.4751  0.2492 -3.2057
 3237SOL     OW21346   4.420   3.616   8.522 -0.3534  0.2567 -0.4520
 3237SOL    HW121347   4.453   3.704   8.539 -0.1201 -0.2295  1.6130
 3237SOL    HW221348   4.491   3.558   8.548  0.8835  1.9495 -0.0445
 3238SOL     OW21349   1.817   2.665   9.196 -0.5737  0.4483 -0.4768
 3238SOL    HW121350   1.831   2.718   9.117 -0.0141  2.1084  0.7200
 3238SOL    HW221351   1.883   2.596   9.192  2.1390  2.8473  2.6788
 3239SOL     OW21352   3.339   1.301   1.358 -0.1836  0.2130  0.4327
 3239SOL    HW121353   3.246   1.279   1.352 -0.7018  2.7056 -0.5656
 3239SOL    HW221354   3.363   1.227   1.302 -1.3000  0.7327 -0.7357
 3240SOL     OW21355   3.308   1.289   2.944 -0.0087 -0.0367  0.0402
 3240SOL    HW121356   3.401   1.275   2.924 -0.0258  0.5475 -0.4501
 3240SOL    HW221357   3.277   1.313   2.856  1.4851 -0.4563 -0.6010
 3241SOL     OW21358   1.805   3.683  10.200 -0.3341 -0.5767  0.3660
 3241SOL    HW121359   1.733   3.620  10.196 -1.2893  0.5141  0.2077
 3241SOL    HW221360   1.808   3.723  10.113 -2.4497 -1.0878  0.0635
 3242SOL     OW21361   0.385   1.905  16.501  0.6856 -0.1054  0.1252
 3242SOL    HW121362   0.414   1.863  16.420  0.9161  0.3470 -0.0259
 3242SOL    HW221363   0.300   1.938  16.473  0.3679 -2.1340 -1.2697
 3243SOL     OW21364   3.056   2.463   9.578 -0.6842 -0.3544 -0.1739
 3243SOL    HW121365   3.132   2.503   9.536  0.5218 -1.2438  1.1706
 3243SOL    HW221366   3.014   2.406   9.514 -2.4810  0.5280  0.2098
 3244SOL     OW21367   4.361   0.385   1.473 -0.3728 -0.1466 -0.5219
 3244SOL    HW121368   4.322   0.300   1.494 -0.2146  0.6059  2.8944
 3244SOL    HW221369   4.301   0.441   1.524  0.0108  0.0477 -0.2800
 3245SOL     OW21370   0.183   4.613   2.240  0.0321  0.2676  0.7809
 3245SOL    HW121371   0.127   4.639   2.167  3.5928  0.7970 -1.7553
 3245SOL    HW221372   0.236   4.551   2.190 -1.3165  0.1751 -0.5499
 3246SOL     OW21373   1.757   3.296   2.963  0.5309  0.0671  0.2173
 3246SOL    HW121374   1.811   3.370   2.991  0.3506  0.5782 -0.7872
 3246SOL    HW221375   1.671   3.339   2.967  0.4319  0.0796 -2.0147
 3247SOL     OW21376   1.712   3.768  17.600  0.4547 -0.2510 -0.1065
 3247SOL    HW121377   1.797   3.781  17.642 -0.0298 -0.4593  0.9301
 3247SOL    HW221378   1.683   3.857  17.580 -2.0157 -1.0307 -0.0931
 3248SOL     OW21379   0.621   4.160  14.779  0.0754 -0.2025 -0.1457
 3248SOL    HW121380   0.531   4.165  14.810  0.3962  1.2230  0.5834
 3248SOL    HW221381   0.647   4.070  14.796 -2.7283 -0.8388  0.6838
 3249SOL     OW21382   1.283   0.612   0.255  0.2628  0.1539  0.2210
 3249SOL    HW121383   1.324   0.600   0.170 -1.1633  0.9661 -0.5742
 3249SOL    HW221384   1.263   0.523   0.286  1.0577  0.5120  1.7791
 3250SOL     OW21385   2.944   4.436   2.584 -0.7080 -0.3579  0.1968
 3250SOL    HW121386   2.858   4.414   2.620  0.2784 -1.9888  1.5542
 3250SOL    HW221387   2.925   4.521   2.544 -1.4910 -1.1196 -1.0471
 3251SOL     OW21388   1.907   3.148   2.105  0.1136 -0.4172  0.0544
 3251SOL    HW121389   1.932   3.073   2.159  0.2305  0.2895  0.9914
 3251SOL    HW221390   1.817   3.158   2.136  0.5971  1.0617  0.9833
 3252SOL     OW21391   3.805   2.418   8.260  0.0229 -0.1606  0.2051
 3252SOL    HW121392   3.822   2.324   8.252  0.1110 -0.1043 -0.2794
 3252SOL    HW221393   3.725   2.406   8.310  0.0667  1.3181  0.6357
 3253SOL     OW21394   1.825   0.766  15.887  0.4518  0.3240 -0.0729
 3253SOL    HW121395   1.861   0.677  15.891  2.9366  1.1707 -4.3261
 3253SOL    HW221396   1.770   0.775  15.965 -0.0853 -2.8374 -0.1012
 3254SOL     OW21397   3.036   2.255   8.298  0.4500 -0.0275  0.0214
 3254SOL    HW121398   3.098   2.322   8.270  1.5328  0.3572  3.3241
 3254SOL    HW221399   2.999   2.296   8.377  0.9239  0.5163 -0.0332
 3255SOL     OW21400   0.224   2.170   4.424  0.2759  0.1193  0.2147
 3255SOL    HW121401   0.281   2.094   4.434  1.7749  1.0133 -1.5247
 3255SOL    HW221402   0.272   2.241   4.466  1.1557 -0.7597  0.6931
 3256SOL     OW21403   3.747   0.741  10.395  0.7266  0.5262 -0.4685
 3256SOL    HW121404   3.760   0.708  10.306  1.7396 -2.0414  0.6608
 3256SOL    HW221405   3.816   0.685  10.430 -0.6058  0.4968  2.1041
 3257SOL     OW21406   2.693   1.697   0.627 -0.0621 -0.4147  0.0512
 3257SOL    HW121407   2.712   1.790   0.632  1.0537 -0.6910  0.8394
 3257SOL    HW221408   2.658   1.684   0.538 -2.9457  1.9486  0.8484
 3258SOL     OW21409   3.780   1.811  10.174  0.2531 -0.1924  0.0618
 3258SOL    HW121410   3.832   1.812  10.254 -0.4335 -0.4826  0.5093
 3258SOL    HW221411   3.799   1.894  10.130 -0.6303 -0.8292 -1.5063
 3259SOL     OW21412   2.675   2.482   1.495  0.4746 -0.4146  0.4659
 3259SOL    HW121413   2.718   2.405   1.532  3.5158 -0.0651 -2.2917
 3259SOL    HW221414   2.708   2.476   1.405 -0.9407  1.2601 -0.1697
 3260SOL     OW21415   3.056   2.119  11.025 -0.0673 -0.0226 -0.0800
 3260SOL    HW121416   3.065   2.023  11.026  0.9477  0.0794  0.5336
 3260SOL    HW221417   2.969   2.129  11.062  0.2541 -0.2563  0.7591
 3261SOL     OW21418   2.135   0.435   4.739  0.4657  0.0606 -0.6556
 3261SOL    HW121419   2.137   0.512   4.683 -0.2161 -0.2151 -1.0699
 3261SOL    HW221420   2.215   0.460   4.784  0.2721  3.1630 -2.0314
 3262SOL     OW21421   0.755   3.761  17.487 -0.0069 -0.4684  0.7289
 3262SOL    HW121422   0.781   3.846  17.524 -0.7301 -0.2398  0.7114
 3262SOL    HW221423   0.662   3.777  17.471 -0.1097 -2.4354 -0.6085
 3263SOL     OW21424   1.117   2.837   6.043  0.2097  0.2905  0.3567
 3263SOL    HW121425   1.070   2.781   5.982  0.1826  1.8915 -1.0723
 3263SOL    HW221426   1.098   2.918   5.996  1.0356  0.6849  0.7046
 3264SOL     OW21427   4.257   3.008   8.884  0.4166 -0.1471  0.5418
 3264SOL    HW121428   4.184   3.059   8.919  0.1648 -0.3354  0.2952
 3264SOL    HW221429   4.216   2.942   8.829 -0.5023  1.9376 -1.2943
 3265SOL     OW21430   0.223   2.368   9.726  0.2053 -0.6571 -0.2513
 3265SOL    HW121431   0.158   2.336   9.788 -0.6279  0.2360 -0.6737
 3265SOL    HW221432   0.299   2.311   9.740  0.7138  0.1756  0.3982
 3266SOL     OW21433   3.455   0.682   9.523 -0.4596 -0.0231  0.3151
 3266SOL    HW121434   3.396   0.670   9.449  0.3182 -1.3424 -0.0976
 3266SOL    HW221435   3.391   0.724   9.580 -0.9232 -0.4812  0.1183
 3267SOL     OW21436   0.751   0.351  14.620  0.3271 -0.2728  0.0791
 3267SOL    HW121437   0.789   0.268  14.594  1.3690  0.2663 -0.1150
 3267SOL    HW221438   0.768   0.412  14.548 -0.5344  0.1503  0.2251
 3268SOL     OW21439   2.097   1.318  10.441 -0.6424  0.2739  0.0144
 3268SOL    HW121440   2.124   1.391  10.498 -0.4914  2.4088 -2.7956
 3268SOL    HW221441   2.160   1.261  10.485  0.6112 -0.5290 -2.8394
 3269SOL     OW21442   1.063   3.649   6.469  0.3955 -0.5570 -0.0441
 3269SOL    HW121443   1.013   3.568   6.482 -0.0452 -0.3893 -0.7474
 3269SOL    HW221444   1.135   3.611   6.419 -0.8407 -0.9131 -1.5233
 3270SOL     OW21445   1.521   3.541   5.245 -0.0653  0.2570 -0.5000
 3270SOL    HW121446   1.581   3.616   5.252  2.1063 -1.4570 -0.8417
 3270SOL    HW221447   1.500   3.538   5.338 -0.4738 -1.6707 -0.6550
 3271SOL     OW21448   0.508   3.419   7.114 -0.4014 -0.2747  0.0196
 3271SOL    HW121449   0.602   3.434   7.128 -0.5613  0.1858  0.6274
 3271SOL    HW221450   0.482   3.395   7.203 -2.6103  0.1196 -0.5155
 3272SOL     OW21451   0.577   1.314   6.102  0.1765  0.2083  0.0691
 3272SOL    HW121452   0.669   1.292   6.112  0.0897 -0.9012 -1.5040
 3272SOL    HW221453   0.547   1.227   6.129 -0.9365  0.4912 -0.2543
 3273SOL     OW21454   2.930   3.855   8.179  0.0581  0.1956  0.0529
 3273SOL    HW121455   2.954   3.790   8.245 -1.5106 -0.1248  0.2983
 3273SOL    HW221456   3.014   3.870   8.135  0.8380  0.8222  1.7412
 3274SOL     OW21457   3.659   0.575  11.264  0.3912 -0.2453  0.1014
 3274SOL    HW121458   3.661   0.516  11.189  1.4865  0.7138 -0.6155
 3274SOL    HW221459   3.573   0.617  11.260  0.6298  0.0692 -1.5840
 3275SOL     OW21460   1.767   4.505  11.301 -0.2217  0.0954  0.4533
 3275SOL    HW121461   1.832   4.446  11.262 -0.4666 -0.4343  0.8370
 3275SOL    HW221462   1.724   4.446  11.363 -2.2629  0.7261 -0.3407
 3276SOL     OW21463   3.043   0.704   6.930 -0.3723  0.6535 -0.1678
 3276SOL    HW121464   3.053   0.779   6.989  0.4738  2.1302 -2.1531
 3276SOL    HW221465   2.961   0.672   6.968  0.0756 -0.2345  0.0334
 3277SOL     OW21466   2.176   2.851   3.312 -0.0794  0.2020 -0.1403
 3277SOL    HW121467   2.096   2.841   3.364  0.0557 -2.3933 -0.4227
 3277SOL    HW221468   2.236   2.814   3.377 -1.5637 -1.6196  0.1954
 3278SOL     OW21469   0.495   3.734   3.604  0.0776 -0.3740 -0.4804
 3278SOL    HW121470   0.542   3.666   3.556 -0.1960 -0.6952 -0.2925
 3278SOL    HW221471   0.408   3.733   3.564  0.2542  0.0685 -0.8617
 3279SOL     OW21472   4.412   0.665   4.861 -0.2692  0.3965  0.6715
 3279SOL    HW121473   4.373   0.749   4.887  1.6028  0.9593  1.6793
 3279SOL    HW221474   4.437   0.687   4.771  0.6369  0.0524  0.8341
 3280SOL     OW21475   0.655   4.140   1.586  0.1210 -0.0587 -0.4342
 3280SOL    HW121476   0.751   4.142   1.592  0.0702  0.2393  0.2560
 3280SOL    HW221477   0.634   4.084   1.661 -1.3405  0.7527 -0.2456
 3281SOL     OW21478   4.562   2.489   7.075 -0.4656 -0.2955  0.5224
 3281SOL    HW121479   4.521   2.574   7.061  0.6009  0.1909  0.4178
 3281SOL    HW221480   4.513   2.454   7.150  0.6103 -2.6727  0.1296
 3282SOL     OW21481   4.319   2.871  11.437  0.3609 -0.2094 -0.7950
 3282SOL    HW121482   4.280   2.958  11.442  1.4765  0.1865  0.9107
 3282SOL    HW221483   4.382   2.871  11.365  0.2058 -2.1787 -0.9349
 3283SOL     OW21484   0.516   2.129   2.482 -0.2883  0.2354  0.2558
 3283SOL    HW121485   0.452   2.182   2.434 -2.8056 -1.7377  1.5146
 3283SOL    HW221486   0.489   2.153   2.570 -1.9079 -0.8702  0.0521
 3284SOL     OW21487   0.842   4.362   2.575  0.3679  0.1663 -0.0667
 3284SOL    HW121488   0.759   4.394   2.540 -0.7532 -0.9589  1.6239
 3284SOL    HW221489   0.887   4.441   2.605 -3.1692  2.2840 -0.3634
 3285SOL     OW21490   2.276   4.332   9.071 -0.3674  0.7724 -0.7138
 3285SOL    HW121491   2.231   4.250   9.053  1.7540 -0.7587  0.9578
 3285SOL    HW221492   2.258   4.346   9.164 -1.4565 -0.4557 -0.7456
 3286SOL     OW21493   2.751   3.672   9.248 -0.5431  0.1927  0.3094
 3286SOL    HW121494   2.728   3.694   9.338  0.0485  2.9957 -0.2183
 3286SOL    HW221495   2.732   3.751   9.196  0.3599 -1.0798 -1.9788
 3287SOL     OW21496   1.214   0.884  17.649 -0.1107 -0.6246  0.1215
 3287SOL    HW121497   1.281   0.835  17.697  0.7374  0.2376 -0.1880
 3287SOL    HW221498   1.224   0.836  17.566  3.1274 -0.4110  0.3701
 3288SOL     OW21499   4.432   3.678   4.835 -0.0159 -0.6383  0.4286
 3288SOL    HW121500   4.384   3.684   4.753  1.8734 -0.5105 -0.6858
 3288SOL    HW221501   4.450   3.771   4.850  1.7691 -0.8955 -0.0849
 3289SOL     OW21502   1.366   4.652   7.021  0.5326  0.2200  0.1349
 3289SOL    HW121503   1.355   4.560   6.996  1.8204  0.1328 -0.1088
 3289SOL    HW221504   1.290   4.689   6.978  0.9770 -0.6940 -1.4326
 3290SOL     OW21505   1.962   1.936   9.766 -0.3138 -0.5021  0.0417
 3290SOL    HW121506   1.929   1.980   9.688 -0.3714 -1.0415 -0.2427
 3290SOL    HW221507   2.039   1.892   9.730 -0.6945  0.4908 -1.9906
 3291SOL     OW21508   1.853   1.416   0.487  0.0286 -0.1947 -0.5589
 3291SOL    HW121509   1.789   1.406   0.416 -0.3055 -1.6040 -0.0659
 3291SOL    HW221510   1.930   1.376   0.447  0.2857  0.0443 -0.3042
 3292SOL     OW21511   1.771   2.985  17.479 -0.1980  0.2539 -0.7063
 3292SOL    HW121512   1.693   3.019  17.434 -1.5477  0.0530  1.4625
 3292SOL    HW221513   1.840   2.996  17.414  2.9274  0.1665  2.6121
 3293SOL     OW21514   0.763   2.608  13.305 -0.3934  0.1997  0.7383
 3293SOL    HW121515   0.782   2.543  13.372 -0.3709 -0.6850 -0.1354
 3293SOL    HW221516   0.684   2.646  13.344 -0.0924  1.3009  0.2765
 3294SOL     OW21517   2.154   0.104   3.206 -0.1434 -0.0477 -0.6591
 3294SOL    HW121518   2.193   0.050   3.137 -1.0955 -0.6742 -0.7123
 3294SOL    HW221519   2.189   0.050   3.276 -1.7721 -1.3020 -0.8259
 3295SOL     OW21520   3.002   0.618  14.621  0.4052  0.1457 -0.0518
 3295SOL    HW121521   2.947   0.551  14.662  0.2739  1.3554  1.7238
 3295SOL    HW221522   2.982   0.600  14.529 -0.0976 -2.3456  0.5306
 3296SOL     OW21523   2.059   0.618   4.542 -0.4383 -0.1627  0.0936
 3296SOL    HW121524   2.070   0.554   4.472  1.9416  1.9351 -1.4190
 3296SOL    HW221525   2.105   0.695   4.508 -0.6742  0.3190  0.8566
 3297SOL     OW21526   3.755   0.011   8.606  0.6208  0.0492  0.4075
 3297SOL    HW121527   3.694   0.070   8.649  1.3280  1.4543 -0.5305
 3297SOL    HW221528   3.762   4.682   8.677  0.6655  0.6373  0.9393
 3298SOL     OW21529   2.336   0.854   5.760  0.6059  0.9658  0.2203
 3298SOL    HW121530   2.280   0.902   5.822  1.9117 -0.4133  2.4773
 3298SOL    HW221531   2.294   0.876   5.677  1.6865  0.0978 -0.5463
 3299SOL     OW21532   1.173   0.832   2.185 -0.1989  0.5384 -0.1785
 3299SOL    HW121533   1.241   0.829   2.252 -0.2510  1.9156 -0.0549
 3299SOL    HW221534   1.216   0.899   2.131  2.0606 -2.2835 -1.8594
 3300SOL     OW21535   0.193   3.257   6.664  0.0012  0.2595  0.1964
 3300SOL    HW121536   0.233   3.274   6.750  3.0267 -2.8521 -0.5789
 3300SOL    HW221537   0.193   3.162   6.651  0.7317  0.6369 -2.5014
 3301SOL     OW21538   3.307   0.401  10.171 -0.3616  0.2398 -0.0211
 3301SOL    HW121539   3.402   0.397  10.181 -0.5653 -1.4004  1.3888
 3301SOL    HW221540   3.297   0.399  10.076  1.0926 -0.2485 -0.1620
 3302SOL     OW21541   0.746   1.823  13.346 -0.2804 -0.1495 -0.0546
 3302SOL    HW121542   0.718   1.914  13.340 -0.4536 -0.2582 -0.8990
 3302SOL    HW221543   0.685   1.796  13.414 -2.1156 -1.2255 -2.1562
 3303SOL     OW21544   1.478   4.302   4.067  0.5607  0.0662 -0.1262
 3303SOL    HW121545   1.445   4.229   4.119 -0.8943  1.2809  0.6493
 3303SOL    HW221546   1.515   4.255   3.992 -2.2483 -2.0453 -0.2140
 3304SOL     OW21547   0.699   4.097  14.472  0.1534  0.2552 -0.3681
 3304SOL    HW121548   0.675   4.005  14.459 -2.1750  0.5033  2.0554
 3304SOL    HW221549   0.613   4.136  14.459 -0.2464 -0.3534  0.4591
 3305SOL     OW21550   1.772   1.270   6.577  0.2238 -0.2504  0.1428
 3305SOL    HW121551   1.842   1.230   6.628  1.0681  0.5108 -0.4051
 3305SOL    HW221552   1.710   1.197   6.572 -1.4122  1.2567 -1.5056
 3306SOL     OW21553   3.675   3.612   5.624  0.5642  0.0851  0.8172
 3306SOL    HW121554   3.581   3.629   5.626  0.2517 -1.5147 -0.2203
 3306SOL    HW221555   3.681   3.539   5.685  0.7204 -0.9067 -0.3939
 3307SOL     OW21556   1.140   4.485  10.873  0.5122  0.8980 -0.6504
 3307SOL    HW121557   1.173   4.507  10.786 -0.5189 -0.8925 -1.4899
 3307SOL    HW221558   1.222   4.452  10.910 -0.6604 -0.4873  0.7313
 3308SOL     OW21559   0.419   4.427   7.160 -0.4527  0.4599 -0.3324
 3308SOL    HW121560   0.398   4.442   7.253 -0.8009  0.5216 -0.4237
 3308SOL    HW221561   0.511   4.456   7.156 -0.3329  0.1793  0.3295
 3309SOL     OW21562   1.212   3.395  16.450  0.2789 -0.0346  0.0953
 3309SOL    HW121563   1.274   3.330  16.417  1.2291  1.7448 -1.6181
 3309SOL    HW221564   1.169   3.340  16.515 -1.5598 -0.1761 -1.2436
 3310SOL     OW21565   3.674   1.192   9.206  0.4780 -0.2751  0.4169
 3310SOL    HW121566   3.642   1.281   9.194  0.9778  0.0353  1.4767
 3310SOL    HW221567   3.624   1.159   9.280  0.3758  0.0414  0.4869
 3311SOL     OW21568   0.411   0.158  14.828 -0.2482  0.6137  0.0822
 3311SOL    HW121569   0.412   0.062  14.834  1.1979  0.7172  1.4575
 3311SOL    HW221570   0.317   0.175  14.826 -0.4368 -0.5332 -0.8130
 3312SOL     OW21571   2.859   0.007   6.547  0.4809  0.5413 -0.7632
 3312SOL    HW121572   2.883   4.724   6.456  0.0557  0.9209 -0.9507
 3312SOL    HW221573   2.769   4.712   6.556  0.6365  0.1211 -0.6402
 3313SOL     OW21574   2.213   1.351   2.891 -0.3103  0.2754  0.0734
 3313SOL    HW121575   2.163   1.307   2.823 -2.5749  0.1915  1.8251
 3313SOL    HW221576   2.151   1.419   2.917 -1.0333 -0.2543 -0.2688
 3314SOL     OW21577   0.218   0.799  15.706 -0.2793 -0.1348  0.1113
 3314SOL    HW121578   0.228   0.869  15.770  0.0631  0.9770 -1.1523
 3314SOL    HW221579   0.160   0.743  15.757  1.4708  0.1603  2.4577
 3315SOL     OW21580   4.328   2.844  16.093  0.1884 -0.0431  0.1937
 3315SOL    HW121581   4.365   2.869  16.178 -1.1639  1.4144  0.3598
 3315SOL    HW221582   4.295   2.929  16.063  1.2022 -0.4269 -1.9338
 3316SOL     OW21583   1.713   3.887   4.542  0.1581  0.2185  0.0747
 3316SOL    HW121584   1.657   3.963   4.526  1.4534  1.1479 -0.0050
 3316SOL    HW221585   1.788   3.912   4.488  0.2570 -1.6454 -0.6492
 3317SOL     OW21586   2.140   0.876   8.310 -0.1374  0.0225  0.0544
 3317SOL    HW121587   2.058   0.832   8.287 -0.0667 -1.1653  2.0323
 3317SOL    HW221588   2.139   0.946   8.245 -1.0391  1.8543  2.0540
 3318SOL     OW21589   3.487   4.409  14.141  0.3407  0.5235 -0.3222
 3318SOL    HW121590   3.549   4.355  14.093 -0.4906 -0.4848 -0.2590
 3318SOL    HW221591   3.423   4.341  14.166  1.8184 -0.4613  0.8009
 3319SOL     OW21592   0.240   0.666   4.821 -0.0435 -0.4483 -0.5289
 3319SOL    HW121593   0.184   0.659   4.744  1.1852  0.3934 -1.5076
 3319SOL    HW221594   0.315   0.721   4.797  0.1390  0.3234  1.7865
 3320SOL     OW21595   4.277   3.911   3.136 -0.0676  0.0506  0.4811
 3320SOL    HW121596   4.187   3.935   3.114  0.2817  2.5564  1.8091
 3320SOL    HW221597   4.320   3.993   3.113 -1.3523  0.4332 -0.5284
 3321SOL     OW21598   0.704   4.446   7.610 -0.0678  0.5354  0.2081
 3321SOL    HW121599   0.661   4.362   7.592 -2.7227  2.3445 -1.7732
 3321SOL    HW221600   0.722   4.487   7.525  1.6822  0.2374  0.4309
 3322SOL     OW21601   2.156   1.794   1.200 -0.5323 -0.0386  0.2357
 3322SOL    HW121602   2.197   1.738   1.134  1.8132 -1.0013  2.4939
 3322SOL    HW221603   2.066   1.778   1.171 -0.6049  2.4578 -0.9426
 3323SOL     OW21604   0.431   3.930   6.303  0.0061  0.0322  0.8270
 3323SOL    HW121605   0.510   3.883   6.331  0.5625  0.3010 -0.2875
 3323SOL    HW221606   0.419   3.900   6.213  0.8492 -0.9068  1.0310
 3324SOL     OW21607   0.461   3.334   2.825 -0.1061  0.2109 -0.2102
 3324SOL    HW121608   0.515   3.318   2.903 -0.8251  1.4972  0.5577
 3324SOL    HW221609   0.391   3.386   2.865 -0.1882 -1.1419  1.3998
 3325SOL     OW21610   4.469   2.529  13.682  0.0914  0.6282 -0.0516
 3325SOL    HW121611   4.389   2.486  13.710 -0.3277  0.8979 -0.8285
 3325SOL    HW221612   4.445   2.567  13.597  1.2808 -1.5608 -1.3910
 3326SOL     OW21613   3.358   1.743   2.471 -0.1383  0.3700  0.0842
 3326SOL    HW121614   3.318   1.751   2.384  2.0809  0.4031 -0.9369
 3326SOL    HW221615   3.307   1.802   2.526  1.4756  0.3897  1.5562
 3327SOL     OW21616   4.247   3.968   7.338 -0.5733 -0.0870  0.0586
 3327SOL    HW121617   4.298   3.907   7.284  1.2839  0.5421  1.1119
 3327SOL    HW221618   4.291   3.945   7.420  1.4848  1.1120 -0.6944
 3328SOL     OW21619   2.855   4.180   6.825 -0.3705  0.1250  0.1183
 3328SOL    HW121620   2.769   4.194   6.786 -1.3192 -3.1194  1.0399
 3328SOL    HW221621   2.880   4.270   6.848 -0.8402  0.8463 -2.2516
 3329SOL     OW21622   3.477   0.935   3.190 -0.4908 -0.2089  0.4089
 3329SOL    HW121623   3.530   1.014   3.174 -1.0198  0.0511 -0.0758
 3329SOL    HW221624   3.440   0.905   3.107  0.1591  0.1275 -0.0061
 3330SOL     OW21625   1.329   2.012   4.350  0.7431  0.1270  0.8443
 3330SOL    HW121626   1.415   2.054   4.343  0.2307  0.9282 -0.5338
 3330SOL    HW221627   1.273   2.090   4.348  0.2268 -0.3606 -3.6088
 3331SOL     OW21628   2.850   1.333  17.707 -0.4574  0.1221  0.5102
 3331SOL    HW121629   2.918   1.369  17.650 -1.2946  0.7752 -0.0763
 3331SOL    HW221630   2.912   1.333   0.041  0.3033 -0.1563 -0.1270
 3332SOL     OW21631   4.222   3.022   3.917  0.9634  0.6634  0.0888
 3332SOL    HW121632   4.176   3.005   3.835 -1.8345  1.9056  1.4037
 3332SOL    HW221633   4.263   2.937   3.935  0.2071 -0.1423 -1.9592
 3333SOL     OW21634   2.375   2.118   4.557  0.0083 -0.5493 -0.4771
 3333SOL    HW121635   2.449   2.091   4.610 -0.0200 -0.9255 -0.6329
 3333SOL    HW221636   2.416   2.117   4.470 -3.2397  0.9788 -2.0269
 3334SOL     OW21637   1.571   4.303   3.369 -0.1911  0.1967  0.0491
 3334SOL    HW121638   1.546   4.215   3.343 -0.5162 -0.3392  2.1406
 3334SOL    HW221639   1.484   4.337   3.389 -0.0216  1.6120 -1.6067
 3335SOL     OW21640   4.435   1.326   0.481 -0.3388 -0.4068  0.1324
 3335SOL    HW121641   4.367   1.308   0.416 -1.8750 -0.4475  1.7306
 3335SOL    HW221642   4.388   1.405   0.511  1.0168  0.3218  0.3231
 3336SOL     OW21643   2.641   4.269   8.163  0.7378 -0.3348  0.4510
 3336SOL    HW121644   2.666   4.220   8.241  1.7695 -0.8308 -0.1937
 3336SOL    HW221645   2.657   4.206   8.093 -2.4088 -1.6666  0.9326
 3337SOL     OW21646   3.325   3.115   0.775 -0.2520 -0.2835 -0.0333
 3337SOL    HW121647   3.336   3.147   0.685 -1.4236 -0.1153 -0.1086
 3337SOL    HW221648   3.293   3.028   0.751  0.3764 -1.2885  2.7299
 3338SOL     OW21649   0.127   3.867  15.333 -0.0952  0.1890 -0.0806
 3338SOL    HW121650   0.098   3.911  15.413 -0.8271 -0.7730  0.1902
 3338SOL    HW221651   0.222   3.879  15.338 -0.1789  0.9543 -0.3035
 3339SOL     OW21652   2.688   4.156  11.386 -0.2942 -0.4731  0.2805
 3339SOL    HW121653   2.706   4.163  11.292  1.0060  0.8330  0.6340
 3339SOL    HW221654   2.775   4.182  11.416  1.1550 -2.3016 -2.2557
 3340SOL     OW21655   0.002   0.814   3.034  0.4126  0.3637  0.2524
 3340SOL    HW121656   4.705   0.904   3.028 -1.9267 -0.3896  1.3534
 3340SOL    HW221657   4.713   0.768   2.954  1.3804  0.9411 -0.3733
 3341SOL     OW21658   0.574   3.657   4.469  0.5572 -0.7784  0.6201
 3341SOL    HW121659   0.656   3.613   4.491  0.2101 -1.2016  1.0749
 3341SOL    HW221660   0.615   3.707   4.399 -0.6925  1.4812  1.4813
 3342SOL     OW21661   0.411   1.963   7.266 -0.4222  0.3196  0.1392
 3342SOL    HW121662   0.390   1.968   7.359 -0.9756 -2.3580  0.1462
 3342SOL    HW221663   0.383   2.046   7.228  1.6709  1.2598  0.6774
 3343SOL     OW21664   3.389   2.754   7.246 -0.6885  0.1684  0.8883
 3343SOL    HW121665   3.429   2.669   7.223  0.2121  0.0579  2.8528
 3343SOL    HW221666   3.366   2.781   7.157 -1.0676  0.5881  1.1132
 3344SOL     OW21667   1.080   4.057  11.449  0.0334 -0.1527 -0.3535
 3344SOL    HW121668   1.077   4.137  11.502  0.9915 -0.7220  0.5760
 3344SOL    HW221669   1.138   4.008  11.507  1.5875  0.9989 -0.9182
 3345SOL     OW21670   1.128   0.216   7.856  0.3689 -0.5298  0.7272
 3345SOL    HW121671   1.152   0.273   7.783  1.9836 -1.0779  0.8168
 3345SOL    HW221672   1.053   0.167   7.821 -0.0116  1.1945 -0.8415
 3346SOL     OW21673   0.407   1.062  13.258 -0.1896 -0.3102  0.1429
 3346SOL    HW121674   0.479   1.120  13.231  1.4640 -2.9529 -1.1429
 3346SOL    HW221675   0.438   0.977  13.227 -0.3549  0.2596 -1.5631
 3347SOL     OW21676   2.649   1.948  17.236  0.2498  0.3291  0.0725
 3347SOL    HW121677   2.559   1.937  17.265  0.1372  0.1601 -0.3378
 3347SOL    HW221678   2.620   1.971  17.148  0.0315 -0.0647  0.0399
 3348SOL     OW21679   3.106   1.234  11.403 -0.5227  0.5937  0.2907
 3348SOL    HW121680   3.136   1.257  11.315  2.4879 -3.3205  0.2936
 3348SOL    HW221681   3.133   1.303  11.464  2.7622 -0.4825  0.0233
 3349SOL     OW21682   1.218   4.660   2.323 -0.4568 -0.0924  0.1627
 3349SOL    HW121683   1.245   4.575   2.357 -0.8164 -0.8170 -1.3729
 3349SOL    HW221684   1.123   4.661   2.335 -0.1146 -0.6390  3.0335
 3350SOL     OW21685   4.291   0.013   3.325  0.2427 -0.0484 -0.2006
 3350SOL    HW121686   4.332   0.046   3.404  3.1471 -2.1585 -0.8263
 3350SOL    HW221687   4.209   0.063   3.321 -0.2212 -0.8779 -1.1135
 3351SOL     OW21688   4.443   1.097   4.686 -0.2484 -0.0586  0.0952
 3351SOL    HW121689   4.504   1.171   4.682 -0.8062  0.4412  0.9196
 3351SOL    HW221690   4.416   1.099   4.594 -2.2156  1.3047  0.6989
 3352SOL     OW21691   4.323   4.417   3.910 -0.2299  0.4182  0.3042
 3352SOL    HW121692   4.334   4.474   3.835 -2.3310  2.3412  1.4780
 3352SOL    HW221693   4.376   4.461   3.977 -0.8753 -0.7668  1.6025
 3353SOL     OW21694   3.275   2.164   3.031  0.0700  0.2743 -0.1428
 3353SOL    HW121695   3.189   2.193   3.063  0.3242  0.1693  0.6143
 3353SOL    HW221696   3.303   2.145   3.120  2.2662  1.1764 -0.6627
 3354SOL     OW21697   0.219   4.547   8.206  0.1005  0.6678  0.2003
 3354SOL    HW121698   0.234   4.456   8.178 -1.4656  1.1242 -2.0669
 3354SOL    HW221699   0.170   4.528   8.286 -0.6242 -2.0492 -0.8854
 3355SOL     OW21700   1.064   3.819   1.750  0.0256 -0.2279 -0.3139
 3355SOL    HW121701   1.086   3.910   1.769  2.0031 -0.8174  0.1801
 3355SOL    HW221702   0.970   3.838   1.740 -0.0112 -0.9190 -1.3486
 3356SOL     OW21703   0.032   0.196   2.764 -0.0287 -0.3606 -0.4745
 3356SOL    HW121704   4.698   0.262   2.757 -1.3275 -1.0219  5.8671
 3356SOL    HW221705   0.046   0.192   2.859  0.4914 -1.3113 -0.5888
 3357SOL     OW21706   0.758   2.156   6.426  0.1882  0.4569  0.2881
 3357SOL    HW121707   0.763   2.081   6.485  1.5522 -0.5934 -1.1539
 3357SOL    HW221708   0.730   2.230   6.480 -0.9477 -0.5674  1.0931
 3358SOL     OW21709   0.104   4.132   3.647  0.2390  0.2870 -0.3128
 3358SOL    HW121710   0.107   4.115   3.742  0.4409 -1.2579 -0.5924
 3358SOL    HW221711   0.170   4.070   3.617 -0.9679 -1.2031  0.1076
 3359SOL     OW21712   1.381   1.116   3.647 -0.1983  0.4401  0.5355
 3359SOL    HW121713   1.422   1.107   3.733  1.0923  0.9345 -0.0364
 3359SOL    HW221714   1.334   1.033   3.641  0.1191  0.3638 -0.8003
 3360SOL     OW21715   0.300   3.036   9.441 -0.0645 -0.2680  0.3637
 3360SOL    HW121716   0.243   3.112   9.454 -0.5267 -0.3151 -1.4681
 3360SOL    HW221717   0.377   3.071   9.487 -0.0087  1.1934 -0.8450
 3361SOL     OW21718   1.013   1.816   4.506  0.0085  0.6305 -0.2937
 3361SOL    HW121719   1.075   1.760   4.458  0.2845  1.0703 -0.4524
 3361SOL    HW221720   0.968   1.841   4.425  1.2204 -0.1775 -1.2231
 3362SOL     OW21721   3.212   0.634   0.276 -0.0735  0.0555  0.3106
 3362SOL    HW121722   3.266   0.663   0.203 -1.7729 -2.0193 -1.7963
 3362SOL    HW221723   3.174   0.554   0.238  0.4304 -0.4023  0.7762
 3363SOL     OW21724   2.396   4.210  14.566  0.1112  0.0154 -0.4985
 3363SOL    HW121725   2.447   4.174  14.493  0.9855 -1.1976  0.6981
 3363SOL    HW221726   2.460   4.226  14.635 -0.6663 -0.1922  0.2691
 3364SOL     OW21727   4.485   1.098  13.560  0.0619 -0.0779 -0.4678
 3364SOL    HW121728   4.499   1.166  13.494  1.0638  2.0924  1.9721
 3364SOL    HW221729   4.574   1.069  13.580  0.5013  1.7011  0.2337
 3365SOL     OW21730   1.507   0.703   8.767  0.1336 -0.3012 -0.2217
 3365SOL    HW121731   1.539   0.715   8.678  0.3686  2.0971  0.2083
 3365SOL    HW221732   1.413   0.717   8.755  0.0170 -0.6181  0.3296
 3366SOL     OW21733   3.917   3.644   8.096 -0.1799  0.3974 -0.0616
 3366SOL    HW121734   3.949   3.719   8.046  1.5143 -1.3905 -1.6472
 3366SOL    HW221735   3.827   3.641   8.062 -0.2604  0.5854  0.1313
 3367SOL     OW21736   2.472   0.856   3.693 -0.1215 -0.3092  0.3600
 3367SOL    HW121737   2.555   0.811   3.705  0.9946  1.0131 -2.4534
 3367SOL    HW221738   2.450   0.824   3.606  2.2662 -0.7412 -0.0884
 3368SOL     OW21739   2.108   0.873   7.924 -0.2496  0.2388  0.3522
 3368SOL    HW121740   2.059   0.923   7.990 -1.3272  1.5073 -1.3808
 3368SOL    HW221741   2.032   0.832   7.881  1.0358  0.7118 -2.3541
 3369SOL     OW21742   3.783   2.289   7.525  0.2509 -0.1985  0.1643
 3369SOL    HW121743   3.692   2.270   7.504  0.0040 -1.0538  2.0355
 3369SOL    HW221744   3.822   2.215   7.571  0.9428 -0.6086 -1.0863
 3370SOL     OW21745   1.951   2.555   2.549  0.0359  0.3672 -0.1853
 3370SOL    HW121746   1.866   2.599   2.544  0.1357  0.5919  0.1495
 3370SOL    HW221747   2.016   2.624   2.559  0.3892 -0.1066  0.7543
 3371SOL     OW21748   0.041   1.439   1.982 -0.0413  0.0091 -0.0103
 3371SOL    HW121749   0.114   1.384   1.954 -0.1097  0.9121 -1.9634
 3371SOL    HW221750   4.710   1.381   2.019 -0.2562 -0.1474 -0.6466
 3372SOL     OW21751   1.319   4.548   9.340  0.9223 -0.1832 -0.1568
 3372SOL    HW121752   1.305   4.489   9.265  0.4367  0.3735 -0.5055
 3372SOL    HW221753   1.406   4.581   9.319  0.6458  0.3404 -0.4900
 3373SOL     OW21754   4.706   1.562   2.727 -0.1474  0.9324 -0.0778
 3373SOL    HW121755   4.654   1.577   2.806 -1.0363 -0.0128 -0.4836
 3373SOL    HW221756   4.667   1.632   2.675 -0.1043  0.5873 -0.5714
 3374SOL     OW21757   4.108   1.597   6.511  0.1446 -0.1590  0.5451
 3374SOL    HW121758   4.197   1.627   6.529  0.2930 -0.3517  0.1327
 3374SOL    HW221759   4.071   1.635   6.591  0.9253  0.2087  0.7371
 3375SOL     OW21760   1.889   0.411   5.817  0.0441  0.1018  0.5118
 3375SOL    HW121761   1.885   0.334   5.761 -2.3965  0.9219 -0.4320
 3375SOL    HW221762   1.983   0.427   5.822 -0.1095  0.9824  0.6057
 3376SOL     OW21763   1.436   3.414   7.549 -0.6563  0.1369 -0.1524
 3376SOL    HW121764   1.447   3.475   7.475  1.1735 -0.8134 -0.6571
 3376SOL    HW221765   1.368   3.352   7.524 -0.7016  0.2318 -0.2640
 3377SOL     OW21766   2.090   2.097   8.886 -0.1555  0.3003 -0.6928
 3377SOL    HW121767   2.082   2.045   8.966  0.7246  1.3700  0.0888
 3377SOL    HW221768   2.167   2.045   8.862  0.3221  0.4133  0.5922
 3378SOL     OW21769   1.376   0.551   2.369 -0.7563  0.0011  0.2439
 3378SOL    HW121770   1.407   0.614   2.305 -2.4066  0.4578 -0.1112
 3378SOL    HW221771   1.324   0.498   2.309 -0.5657  0.3833 -0.2530
 3379SOL     OW21772   4.179   1.902   1.960 -0.2335 -0.3003 -0.0278
 3379SOL    HW121773   4.102   1.867   2.005  0.4028 -0.7027  0.7381
 3379SOL    HW221774   4.222   1.943   2.035  2.1129 -2.0185 -0.4208
 3380SOL     OW21775   0.976   0.431  16.430  0.4570 -0.1944 -0.1626
 3380SOL    HW121776   1.027   0.386  16.497 -2.1647  0.0534  1.9822
 3380SOL    HW221777   1.029   0.494  16.381 -0.3085  1.1383  0.7445
 3381SOL     OW21778   2.800   4.017   3.570  0.0139  0.4637  0.2724
 3381SOL    HW121779   2.795   3.930   3.611 -1.7626 -0.7259 -2.5100
 3381SOL    HW221780   2.875   3.992   3.517  1.4697  0.7971  2.1833
 3382SOL     OW21781   4.124   2.831   8.738 -0.0509 -0.2934  0.2795
 3382SOL    HW121782   4.051   2.877   8.697 -0.0660  1.2773  2.0394
 3382SOL    HW221783   4.107   2.746   8.698  0.8902 -0.1827 -0.3405
 3383SOL     OW21784   1.563   3.572   6.684 -0.2627  0.0235  0.5647
 3383SOL    HW121785   1.514   3.611   6.612 -0.7055 -3.0530 -0.7675
 3383SOL    HW221786   1.500   3.596   6.753 -0.1860 -0.1925  0.7077
 3384SOL     OW21787   4.226   3.535  13.775  0.2613 -0.1263  0.1409
 3384SOL    HW121788   4.171   3.541  13.697 -0.7866  2.3912  1.0628
 3384SOL    HW221789   4.304   3.493  13.739  1.2137  1.0890  0.7796
 3385SOL     OW21790   1.850   0.600   1.532 -0.7081 -0.1772 -0.1847
 3385SOL    HW121791   1.830   0.642   1.616 -1.0453 -1.4788  0.3977
 3385SOL    HW221792   1.926   0.651   1.506  1.1138 -2.0160  1.5087
 3386SOL     OW21793   1.187   4.158   6.803  0.6817  0.3499  0.6357
 3386SOL    HW121794   1.205   4.065   6.785 -2.0143  0.0158 -0.3202
 3386SOL    HW221795   1.091   4.163   6.805  0.5079 -2.4836 -0.3498
 3387SOL     OW21796   1.243   1.723   1.856 -0.5974 -0.4591  0.0388
 3387SOL    HW121797   1.266   1.815   1.870  4.7498 -1.4831 -2.0132
 3387SOL    HW221798   1.260   1.683   1.941 -0.9544 -0.3762  0.1489
 3388SOL     OW21799   1.683   2.143   7.739 -0.0617 -0.5858 -0.1508
 3388SOL    HW121800   1.754   2.167   7.679  2.4876 -2.6742  2.0066
 3388SOL    HW221801   1.625   2.217   7.721  0.9440  0.2311 -0.0304
 3389SOL     OW21802   4.727   2.877   3.716 -0.0045 -0.2028  0.1083
 3389SOL    HW121803   4.710   2.932   3.793 -0.9961  1.5644 -1.3544
 3389SOL    HW221804   4.678   2.800   3.744  0.8671 -0.4136  1.0803
 3390SOL     OW21805   4.653   0.955  11.997 -0.6016 -0.5141  0.0008
 3390SOL    HW121806   4.593   0.961  11.923 -0.7481 -0.4373  0.1252
 3390SOL    HW221807   4.584   0.972  12.061  0.2120  0.3899  0.6528
 3391SOL     OW21808   1.457   2.503   5.417 -0.1523  0.1375 -0.2514
 3391SOL    HW121809   1.400   2.580   5.422  0.6987  0.7634 -0.2489
 3391SOL    HW221810   1.535   2.538   5.375 -1.3975  2.3983 -0.6426
 3392SOL     OW21811   3.630   3.482  16.038  0.0048  0.3309 -0.1113
 3392SOL    HW121812   3.676   3.461  15.957  2.4467 -0.6941  1.5332
 3392SOL    HW221813   3.688   3.454  16.109 -0.0207  2.2164  0.6586
 3393SOL     OW21814   0.725   2.236   2.028  0.2856 -0.4328  0.5434
 3393SOL    HW121815   0.763   2.291   1.959  1.0196 -2.0453 -0.3255
 3393SOL    HW221816   0.790   2.236   2.098 -0.9141  0.2159  1.6598
 3394SOL     OW21817   0.990   1.729   1.704 -0.2490 -0.3244  0.8371
 3394SOL    HW121818   1.077   1.745   1.741  0.7322  0.2022 -1.6705
 3394SOL    HW221819   0.993   1.774   1.620  1.7528 -0.6147  0.7470
 3395SOL     OW21820   4.302   0.761  17.564 -0.0614  0.2280  0.0887
 3395SOL    HW121821   4.321   0.670  17.584  0.1685  0.6817  1.9006
 3395SOL    HW221822   4.293   0.757  17.469 -1.1821  3.2810  0.0559
 3396SOL     OW21823   3.846   0.840   0.197 -0.4953 -0.5915  0.0816
 3396SOL    HW121824   3.894   0.815   0.276  0.6511  0.0322 -0.4362
 3396SOL    HW221825   3.824   0.750   0.171  0.2946 -1.4150  2.2530
 3397SOL     OW21826   1.947   3.642   8.242  0.3133  0.6000  0.5907
 3397SOL    HW121827   1.943   3.549   8.220 -0.7061  0.7572  0.1429
 3397SOL    HW221828   2.018   3.647   8.307 -0.0404  0.8268  0.9568
 3398SOL     OW21829   3.668   4.227  11.723 -0.4212  0.1467  0.1619
 3398SOL    HW121830   3.613   4.154  11.752  0.1436 -0.1500  0.4969
 3398SOL    HW221831   3.745   4.183  11.686 -1.2351 -1.8797  0.8250
 3399SOL     OW21832   1.851   4.705  16.219  0.2094  0.2253 -0.4436
 3399SOL    HW121833   1.883   4.726  16.131  1.4246 -0.2777 -0.1233
 3399SOL    HW221834   1.791   4.635  16.194  1.4220 -0.6673 -0.8994
 3400SOL     OW21835   1.574   4.118  10.027  0.4415  0.1694 -0.2069
 3400SOL    HW121836   1.534   4.138   9.942 -2.0878 -0.4746  0.8034
 3400SOL    HW221837   1.505   4.069  10.073  0.1319 -0.0834 -0.9286
 3401SOL     OW21838   1.459   1.710   1.467  0.4818  0.2490  0.3643
 3401SOL    HW121839   1.461   1.725   1.562 -1.6318  1.8301  0.1771
 3401SOL    HW221840   1.506   1.627   1.469 -0.6192 -0.4458 -3.0548
 3402SOL     OW21841   3.643   2.469   2.983  0.3527 -0.7975 -0.4190
 3402SOL    HW121842   3.613   2.404   2.918  1.8973 -2.6742  0.7614
 3402SOL    HW221843   3.629   2.548   2.931  1.2666  1.1365  2.2795
 3403SOL     OW21844   4.383   2.695   0.662  0.0697 -0.7070 -0.4878
 3403SOL    HW121845   4.323   2.762   0.694 -0.0994 -1.2675  0.3548
 3403SOL    HW221846   4.334   2.613   0.667 -0.2810 -0.3840  1.2325
 3404SOL     OW21847   3.019   2.266   4.281  0.4099  0.7747 -0.2053
 3404SOL    HW121848   3.043   2.348   4.325  1.0406  1.4207 -1.7196
 3404SOL    HW221849   2.929   2.258   4.311 -0.2076  3.2770 -1.3314
 3405SOL     OW21850   3.615   0.610   6.959  0.7020 -0.4771 -0.2267
 3405SOL    HW121851   3.640   0.519   6.946  0.6054 -0.5091 -0.1827
 3405SOL    HW221852   3.520   0.598   6.957  0.7536 -1.2741  2.3458
 3406SOL     OW21853   2.323   3.090   7.840 -0.4996  0.5231 -0.1298
 3406SOL    HW121854   2.398   3.055   7.889  0.9702 -0.1769 -2.8993
 3406SOL    HW221855   2.369   3.151   7.783  0.1158 -1.1835 -1.4630
 3407SOL     OW21856   0.052   0.023   9.485  0.2855 -0.1439  0.5224
 3407SOL    HW121857   0.110   0.017   9.561 -0.5532 -1.0028  1.0869
 3407SOL    HW221858   4.705   4.713   9.507 -0.3559  0.2829 -1.0225
 3408SOL     OW21859   3.218   0.808   7.912  0.1314 -0.2986 -0.0087
 3408SOL    HW121860   3.229   0.901   7.929 -0.8614  0.4599 -3.5616
 3408SOL    HW221861   3.182   0.764   7.990  0.5752 -1.0147 -0.2092
 3409SOL     OW21862   1.988   3.500   5.168  0.0448 -0.1116 -0.3771
 3409SOL    HW121863   2.074   3.516   5.207  0.1422  1.5537 -1.2774
 3409SOL    HW221864   1.985   3.574   5.107  0.1485  0.0042 -0.2438
 3410SOL     OW21865   2.316   1.076   4.527  0.7243  0.4632  0.3695
 3410SOL    HW121866   2.326   0.990   4.568  0.9474  0.5992  0.6051
 3410SOL    HW221867   2.258   1.062   4.452  0.5815  1.1999  0.3382
 3411SOL     OW21868   2.819   3.882   8.824 -0.0507  0.1150  0.4200
 3411SOL    HW121869   2.774   3.829   8.889  2.8331 -1.4146  1.1703
 3411SOL    HW221870   2.891   3.819   8.818  0.6494  0.7788  1.7905
 3412SOL     OW21871   1.662   0.705  15.437 -0.3774  0.2696 -0.0612
 3412SOL    HW121872   1.737   0.724  15.379 -1.3706 -0.6880 -1.6763
 3412SOL    HW221873   1.593   0.769  15.419 -0.6222 -0.2064 -0.8381
 3413SOL     OW21874   3.406   1.394   7.456  0.3708  0.6375 -0.8590
 3413SOL    HW121875   3.439   1.469   7.506  0.4312 -0.0835  0.1916
 3413SOL    HW221876   3.446   1.416   7.372 -1.6100 -0.8578 -2.1913
 3414SOL     OW21877   2.162   4.348   6.439  0.1165 -0.0335 -0.4568
 3414SOL    HW121878   2.253   4.319   6.439  0.1502  0.0316  1.9454
 3414SOL    HW221879   2.148   4.375   6.530  0.6314  1.3643 -0.8068
 3415SOL     OW21880   4.694   0.351   6.156  0.5652  0.9218  0.1900
 3415SOL    HW121881   4.674   0.407   6.081 -1.8636  0.4253  0.4755
 3415SOL    HW221882   0.008   0.278   6.118 -2.0170 -0.8218  0.2057
 3416SOL     OW21883   2.661   4.382   4.013  0.5267 -0.6907 -0.3132
 3416SOL    HW121884   2.751   4.414   4.018 -0.1865  0.9635  1.5949
 3416SOL    HW221885   2.667   4.329   3.933  0.8468 -0.5401 -0.3887
 3417SOL     OW21886   2.511   1.730   5.316 -0.2698  0.4488  0.4120
 3417SOL    HW121887   2.481   1.812   5.278  0.9445 -0.0534 -1.6031
 3417SOL    HW221888   2.430   1.679   5.321 -0.8071  1.4310  1.6423
 3418SOL     OW21889   1.319   2.001   3.157 -0.5518  0.4660  0.2152
 3418SOL    HW121890   1.342   1.965   3.072 -4.5524  0.8567 -1.0493
 3418SOL    HW221891   1.367   2.084   3.153 -2.9922  1.8176 -0.8038
 3419SOL     OW21892   1.502   0.572   8.999 -0.6252 -0.1209  0.5313
 3419SOL    HW121893   1.453   0.624   9.062  0.2530 -0.5270  1.5535
 3419SOL    HW221894   1.509   0.619   8.916  0.6358 -2.7414 -0.8451
 3420SOL     OW21895   0.803   0.146   5.237 -0.6766 -0.5967  0.5367
 3420SOL    HW121896   0.785   0.188   5.153  4.9111 -0.1557 -0.4395
 3420SOL    HW221897   0.876   0.201   5.267 -0.8255 -1.7332  2.9684
 3421SOL     OW21898   2.980   0.592   8.973 -0.4921 -0.3355  0.2593
 3421SOL    HW121899   2.966   0.610   9.066  0.0412 -0.2773  0.3283
 3421SOL    HW221900   3.030   0.671   8.951 -0.0127 -1.5285 -2.9256
 3422SOL     OW21901   4.504   0.136   7.323 -0.2366  0.3616 -0.0340
 3422SOL    HW121902   4.513   0.154   7.416  0.3018 -1.6229  0.3050
 3422SOL    HW221903   4.515   0.225   7.291  0.9556  0.1103 -0.3094
 3423SOL     OW21904   0.092   1.730   3.275  0.2438  0.0842  0.5445
 3423SOL    HW121905   0.006   1.733   3.232  1.1971  0.9204 -1.2844
 3423SOL    HW221906   0.073   1.677   3.352 -2.4779 -0.4664 -0.5028
 3424SOL     OW21907   3.208   1.519   6.491 -0.1974  0.3561  0.3000
 3424SOL    HW121908   3.188   1.450   6.427  1.9383  0.9696 -0.9958
 3424SOL    HW221909   3.210   1.600   6.441 -1.3675 -0.5709 -1.2667
 3425SOL     OW21910   2.854   0.807  16.704  0.0155  0.0729  0.3062
 3425SOL    HW121911   2.796   0.750  16.655  2.9096 -0.9565 -1.9042
 3425SOL    HW221912   2.898   0.862  16.639 -0.4345  1.5040  1.2181
 3426SOL     OW21913   1.684   1.744   0.782  0.1471 -0.6317  0.1098
 3426SOL    HW121914   1.772   1.720   0.809  0.8973  2.0323 -0.0262
 3426SOL    HW221915   1.660   1.668   0.728  1.3679  0.1101 -1.4480
 3427SOL     OW21916   0.830   1.675   1.373 -0.7089 -0.1117  0.3843
 3427SOL    HW121917   0.846   1.688   1.280  3.2410  0.8047  1.1591
 3427SOL    HW221918   0.914   1.700   1.413 -1.0800 -3.0997  3.1150
 3428SOL     OW21919   3.536   2.461   5.577  0.0888 -0.4938 -0.0873
 3428SOL    HW121920   3.451   2.492   5.608 -0.4809 -0.3677 -1.7799
 3428SOL    HW221921   3.599   2.467   5.649 -0.0576  0.5113 -0.0371
 3429SOL     OW21922   2.929   3.554  16.254 -0.5272  0.3365 -0.8761
 3429SOL    HW121923   2.939   3.515  16.167  2.6200 -0.4592 -0.1536
 3429SOL    HW221924   2.935   3.472  16.303  0.2429  1.9722  1.7495
 3430SOL     OW21925   0.550   1.853   1.070 -0.2340 -0.3708 -0.7968
 3430SOL    HW121926   0.588   1.869   1.156  0.0482 -1.6826 -0.6745
 3430SOL    HW221927   0.583   1.765   1.048  0.5861 -0.4050  0.5757
 3431SOL     OW21928   1.284   1.454   9.136  0.7181  0.0052 -0.2364
 3431SOL    HW121929   1.226   1.384   9.167  0.4954  0.1966 -0.2236
 3431SOL    HW221930   1.241   1.535   9.163 -0.5509 -1.4608  2.1102
 3432SOL     OW21931   4.094   0.988  12.579 -0.3715 -0.0133  0.0048
 3432SOL    HW121932   4.109   0.996  12.673 -0.5329 -1.0110  0.1191
 3432SOL    HW221933   4.118   0.897  12.564 -1.9960 -0.0485 -2.3736
 3433SOL     OW21934   1.096   1.143   9.587  0.4531  0.3720 -0.3180
 3433SOL    HW121935   1.143   1.215   9.545  1.9262 -0.6027 -0.3551
 3433SOL    HW221936   1.076   1.177   9.674 -0.3263  0.5202 -0.5586
 3434SOL     OW21937   1.091   2.840  15.880  0.0742 -0.0655 -0.2936
 3434SOL    HW121938   1.060   2.876  15.797 -0.6162  0.5332  0.2215
 3434SOL    HW221939   1.181   2.869  15.891  0.8395 -2.5215 -0.2482
 3435SOL     OW21940   1.998   3.189   0.823 -0.0218  0.0461 -0.5079
 3435SOL    HW121941   1.947   3.227   0.751 -1.4199  0.9203  0.9412
 3435SOL    HW221942   1.942   3.118   0.855 -1.8909  1.7581  0.0394
 3436SOL     OW21943   1.495   1.275   5.730  0.0083 -0.5380 -0.1099
 3436SOL    HW121944   1.528   1.365   5.724  2.1765 -1.4177 -1.2065
 3436SOL    HW221945   1.576   1.229   5.752  0.6394  0.6089 -0.0642
 3437SOL     OW21946   3.815   3.081   0.026  0.2765 -0.2760 -0.2578
 3437SOL    HW121947   3.769   3.155   0.067  0.7254 -0.5961  0.8133
 3437SOL    HW221948   3.905   3.088   0.058 -0.7322 -0.1892  2.5198
 3438SOL     OW21949   4.027   2.047   8.083 -0.1347 -0.8432 -0.6996
 3438SOL    HW121950   4.115   2.049   8.120  0.3550 -1.0350 -1.8225
 3438SOL    HW221951   4.050   2.036   7.990  0.3479  3.0202 -1.0219
 3439SOL     OW21952   3.849   4.235   4.943  0.3921 -0.6080  0.4198
 3439SOL    HW121953   3.882   4.274   5.024 -1.3466  2.2084 -0.2414
 3439SOL    HW221954   3.851   4.143   4.969  0.1645 -0.7955 -0.2386
 3440SOL     OW21955   3.886   3.565  14.322 -0.2355  0.3064  0.5533
 3440SOL    HW121956   3.904   3.497  14.258 -1.1863 -0.3868  1.0238
 3440SOL    HW221957   3.972   3.606  14.331 -0.3503  0.8639 -1.0103
 3441SOL     OW21958   2.140   2.900   2.597 -0.7863 -0.4323  0.7814
 3441SOL    HW121959   2.130   2.845   2.674 -0.5883  2.3072  2.7618
 3441SOL    HW221960   2.047   2.911   2.574 -0.0588  2.6603 -0.7259
 3442SOL     OW21961   2.035   0.098   7.038 -0.3142  0.3783 -0.3618
 3442SOL    HW121962   2.030   0.049   6.956 -0.7643  0.9069 -0.6464
 3442SOL    HW221963   1.945   0.094   7.068 -0.0321  1.7192  0.6754
 3443SOL     OW21964   1.983   0.975  17.002 -0.4391  0.0001  0.2371
 3443SOL    HW121965   1.899   1.006  16.968 -0.2969  3.0259  2.7472
 3443SOL    HW221966   2.037   0.992  16.924  0.8634  1.9420  1.5861
 3444SOL     OW21967   0.011   1.539   8.446  0.3078  0.5113  0.2253
 3444SOL    HW121968   4.682   1.604   8.416  1.0915  0.2432 -1.9997
 3444SOL    HW221969   0.018   1.565   8.538  3.9564 -1.3402  0.4397
 3445SOL     OW21970   3.670   4.260   1.658  0.1157  0.5651  0.1818
 3445SOL    HW121971   3.698   4.344   1.694 -1.3195  1.2729 -0.3773
 3445SOL    HW221972   3.639   4.215   1.736  0.7674  1.8751  1.1955
 3446SOL     OW21973   4.335   3.757   1.394 -0.3261 -0.3145  0.0226
 3446SOL    HW121974   4.364   3.804   1.472 -0.3404 -2.0410  1.0631
 3446SOL    HW221975   4.417   3.729   1.354  0.5205  0.0594  1.4925
 3447SOL     OW21976   3.049   4.057   6.972 -0.1462  0.1677  0.4038
 3447SOL    HW121977   3.000   4.122   7.024 -0.1788 -0.6088  1.3528
 3447SOL    HW221978   2.987   4.050   6.899  2.0693  1.3862 -1.5701
 3448SOL     OW21979   1.861   3.220  10.897  0.1210  0.0962  0.6898
 3448SOL    HW121980   1.796   3.278  10.938  0.8492 -0.5004  2.7013
 3448SOL    HW221981   1.802   3.146  10.880 -2.0874  1.7382  1.1906
 3449SOL     OW21982   1.431   0.450  15.487 -0.2123  0.9610 -0.4381
 3449SOL    HW121983   1.455   0.497  15.407 -2.2138  0.3921 -1.3779
 3449SOL    HW221984   1.443   0.526  15.544  0.5047 -0.1483  0.9060
 3450SOL     OW21985   0.134   1.334   6.156 -0.1058 -0.8350  0.4017
 3450SOL    HW121986   0.054   1.377   6.187 -1.3736 -2.1856 -1.0417
 3450SOL    HW221987   0.188   1.409   6.129 -0.2694 -0.3605  1.3723
 3451SOL     OW21988   1.232   1.816  13.685 -0.0417 -1.0224 -0.1524
 3451SOL    HW121989   1.195   1.770  13.760  2.2352 -1.6845  0.5593
 3451SOL    HW221990   1.197   1.764  13.613 -1.1304 -0.6761  0.1158
 3452SOL     OW21991   0.978   1.634   1.122  0.5934  0.4812 -0.7002
 3452SOL    HW121992   0.932   1.703   1.074  1.6030  0.2756 -1.9352
 3452SOL    HW221993   1.063   1.635   1.079  0.9422 -0.6212 -0.0393
 3453SOL     OW21994   1.363   1.128   4.045  0.5687  0.1586  0.9810
 3453SOL    HW121995   1.269   1.111   4.044  1.0537 -2.4288  0.8553
 3453SOL    HW221996   1.367   1.224   4.047 -0.0910  0.2570 -2.2709
 3454SOL     OW21997   3.062   0.748   7.616  0.0000  0.6213 -0.0720
 3454SOL    HW121998   3.028   0.721   7.531 -1.3391  2.7176 -0.1915
 3454SOL    HW221999   2.987   0.760   7.674 -0.6596 -1.3024 -0.5047
 3455SOL     OW22000   2.109   3.108  10.829 -0.1178 -0.0579 -0.1528
 3455SOL    HW122001   2.025   3.144  10.858 -1.0795 -0.5629 -2.3256
 3455SOL    HW222002   2.151   3.098  10.914 -0.8703  2.2236  0.4747
 3456SOL     OW22003   4.062   3.145   5.229  0.2827 -0.5619  0.0842
 3456SOL    HW122004   4.034   3.178   5.314 -2.5180 -0.7092 -0.7685
 3456SOL    HW222005   4.114   3.068   5.252 -1.2918 -1.3993  0.8218
 3457SOL     OW22006   3.149   1.297   5.577 -0.9105  0.2574  0.1014
 3457SOL    HW122007   3.217   1.362   5.559 -0.5688  0.2530  1.3855
 3457SOL    HW222008   3.099   1.320   5.655  0.1063  1.6426  0.3399
 3458SOL     OW22009   0.298   0.192   5.777 -0.4024  0.0222  0.4930
 3458SOL    HW122010   0.220   0.141   5.799 -0.3753 -0.9928 -1.7164
 3458SOL    HW222011   0.364   0.146   5.828 -1.0289 -2.5813 -1.0510
 3459SOL     OW22012   4.395   4.036   2.135 -0.2510  0.1895 -0.4730
 3459SOL    HW122013   4.477   4.059   2.177 -0.6974  0.6018  0.1760
 3459SOL    HW222014   4.393   3.941   2.151 -0.9253 -0.3953 -3.9264
 3460SOL     OW22015   2.070   3.846   4.643  0.0597 -0.1420 -0.2700
 3460SOL    HW122016   2.057   3.940   4.657  1.3640 -0.3111  2.0092
 3460SOL    HW222017   2.165   3.841   4.641  0.0868  0.3375 -0.1461
 3461SOL     OW22018   0.905   1.350  12.639 -0.0709 -0.3287  0.5266
 3461SOL    HW122019   0.864   1.286  12.581 -0.3556  0.1077  0.2542
 3461SOL    HW222020   0.978   1.294  12.665  0.2686 -0.2059 -0.1405
 3462SOL     OW22021   0.710   2.405   5.773 -0.6419 -0.7785  0.2244
 3462SOL    HW122022   0.630   2.394   5.721 -0.7614 -1.1232  0.4829
 3462SOL    HW222023   0.745   2.482   5.729 -3.1731 -0.2627 -0.9161
 3463SOL     OW22024   2.640   3.897   9.103 -0.2892 -0.4578  0.2250
 3463SOL    HW122025   2.586   3.956   9.050 -0.9271 -2.3258 -1.2229
 3463SOL    HW222026   2.565   3.852   9.141 -0.5636 -0.3671 -0.2041
 3464SOL     OW22027   3.263   4.713   3.548 -0.0985 -0.2659 -0.0373
 3464SOL    HW122028   3.275   4.619   3.560  2.4533  0.1645  0.8254
 3464SOL    HW222029   3.178   4.718   3.503  0.1629  1.6281 -0.3397
 3465SOL     OW22030   2.231   4.175  12.733 -0.8028 -0.0235  0.1028
 3465SOL    HW122031   2.167   4.113  12.699  0.0356 -0.4433 -0.7141
 3465SOL    HW222032   2.307   4.117  12.735  0.5506  1.7568  0.6151
 3466SOL     OW22033   3.753   0.127  16.308 -0.4733 -0.7008 -0.1336
 3466SOL    HW122034   3.841   0.090  16.314 -1.0355 -1.8469  1.0569
 3466SOL    HW222035   3.711   0.047  16.276  0.3169 -0.8547 -0.7797
 3467SOL     OW22036   1.638   1.412   3.891  0.5209 -0.0875  0.7031
 3467SOL    HW122037   1.671   1.416   3.801 -0.6945 -1.3469  0.2045
 3467SOL    HW222038   1.681   1.331   3.918  3.4912  1.8389  1.7314
 3468SOL     OW22039   2.660   3.219   2.976  0.0863  0.4887  0.0150
 3468SOL    HW122040   2.602   3.247   3.047  1.3531  2.0253  0.4259
 3468SOL    HW222041   2.587   3.187   2.922  1.3592 -0.1783 -1.3058
 3469SOL     OW22042   4.494   4.265   8.343  0.0163  0.0737 -0.4135
 3469SOL    HW122043   4.420   4.291   8.399  0.4930 -0.0575  0.2865
 3469SOL    HW222044   4.469   4.174   8.326  0.3913 -0.3421  1.1807
 3470SOL     OW22045   1.647   0.895  16.113 -0.1612 -0.9049 -0.2943
 3470SOL    HW122046   1.641   0.979  16.159  3.5707 -0.4835 -0.6446
 3470SOL    HW222047   1.595   0.919  16.036 -0.2663  0.0456  0.0693
 3471SOL     OW22048   3.736   0.712   6.733  0.2469  0.0352  0.3385
 3471SOL    HW122049   3.736   0.698   6.828  0.4442  2.5243  0.7070
 3471SOL    HW222050   3.643   0.724   6.716  0.6271  0.0008 -1.7089
 3472SOL     OW22051   1.567   3.897  12.991  0.4573  0.6359 -0.5415
 3472SOL    HW122052   1.524   3.902  12.906  0.8467 -1.2176 -0.8392
 3472SOL    HW222053   1.614   3.814  12.998 -0.6071  0.0759  0.0016
 3473SOL     OW22054   4.236   4.227   0.526 -0.3064 -0.1165  0.7361
 3473SOL    HW122055   4.294   4.197   0.596  2.8846 -2.1433 -2.7577
 3473SOL    HW222056   4.196   4.302   0.570  0.2918 -0.4935  1.9384
 3474SOL     OW22057   2.566   0.109  16.108 -0.4720 -0.1716  0.5006
 3474SOL    HW122058   2.600   0.189  16.067  0.6247 -1.4267 -1.0235
 3474SOL    HW222059   2.630   0.045  16.075  0.8755  0.9620  0.8934
 3475SOL     OW22060   4.527   4.298   1.928  0.0992 -0.1114  0.7919
 3475SOL    HW122061   4.468   4.291   1.853  1.6295 -0.2912 -0.3853
 3475SOL    HW222062   4.469   4.339   1.993 -1.8292  0.9770 -1.5824
 3476SOL     OW22063   1.642   1.389   2.823 -0.9117  0.0981 -0.3189
 3476SOL    HW122064   1.717   1.431   2.781 -1.4949  2.4657  0.9949
 3476SOL    HW222065   1.651   1.421   2.913  1.0288  0.8047 -0.7657
 3477SOL     OW22066   2.167   0.523   7.994 -0.2550 -0.4805  0.2618
 3477SOL    HW122067   2.234   0.515   7.925 -2.0259 -0.4547 -1.4763
 3477SOL    HW222068   2.215   0.553   8.071 -0.4294 -0.1232  0.2332
 3478SOL     OW22069   1.204   4.598  15.923 -0.2652  0.8268 -0.4984
 3478SOL    HW122070   1.236   4.620  16.010 -1.5766  1.4966 -0.1756
 3478SOL    HW222071   1.119   4.643  15.928 -0.5836  0.1913 -0.2367
 3479SOL     OW22072   0.029   2.246  13.379 -0.1947 -0.3947 -0.5990
 3479SOL    HW122073   0.004   2.193  13.455 -3.8367  0.6075 -1.0945
 3479SOL    HW222074   4.712   2.325  13.391 -2.4200 -1.7473 -1.3059
 3480SOL     OW22075   1.739   4.128   7.867 -0.3265  0.0987  0.1581
 3480SOL    HW122076   1.833   4.110   7.875 -0.1422  2.1105  2.3788
 3480SOL    HW222077   1.706   4.070   7.936  0.9357 -1.8874 -0.8946
 3481SOL     OW22078   2.008   0.746   0.234  0.4301  0.0838 -0.7315
 3481SOL    HW122079   2.050   0.831   0.240 -0.2623  0.4145 -0.5395
 3481SOL    HW222080   1.958   0.756   0.153 -1.0826  2.1738  0.4713
 3482SOL     OW22081   1.622   2.724   6.487 -0.0146  0.3380 -0.1060
 3482SOL    HW122082   1.666   2.809   6.485  0.3123  0.2263  2.3981
 3482SOL    HW222083   1.533   2.754   6.471 -1.0214 -3.3926 -1.5020
 3483SOL     OW22084   2.782   3.215   5.954 -0.2801 -0.4246 -0.4471
 3483SOL    HW122085   2.696   3.251   5.931  0.7060  0.1498 -3.1884
 3483SOL    HW222086   2.783   3.123   5.928 -0.9625 -0.6345  0.2638
 3484SOL     OW22087   2.945   1.783   2.388  0.0136  1.2480  0.1636
 3484SOL    HW122088   2.868   1.826   2.425 -1.9550 -0.3829 -2.0746
 3484SOL    HW222089   2.940   1.792   2.293  0.7053  0.3421  0.0399
 3485SOL     OW22090   2.374   0.243   2.188 -0.5066  0.0589  0.3164
 3485SOL    HW122091   2.323   0.177   2.235 -1.5474  2.6675  2.8515
 3485SOL    HW222092   2.362   0.321   2.242 -0.6845 -0.0377  0.4147
 3486SOL     OW22093   2.565   1.930   7.880 -0.8443  0.3786 -0.3450
 3486SOL    HW122094   2.657   1.913   7.861 -1.0139  0.9548 -1.6893
 3486SOL    HW222095   2.551   1.911   7.973  2.7927  2.1315  0.5111
 3487SOL     OW22096   0.611   3.038   5.402 -0.0542 -0.1694  0.6176
 3487SOL    HW122097   0.663   3.118   5.396  0.1027 -0.4851 -2.1372
 3487SOL    HW222098   0.657   2.986   5.468  0.4454  1.4337  1.5268
 3488SOL     OW22099   0.535   0.206   7.028  0.2260  0.4761 -0.0536
 3488SOL    HW122100   0.622   0.193   7.065  0.0046 -1.9756 -0.3998
 3488SOL    HW222101   0.489   0.192   7.110 -0.8538  2.3172 -0.3585
 3489SOL     OW22102   0.143   1.292   7.596 -0.1441  0.2968  0.4604
 3489SOL    HW122103   0.073   1.353   7.573 -1.6291 -1.9460 -1.0121
 3489SOL    HW222104   0.208   1.361   7.583  0.3183 -0.6224 -2.1117
 3490SOL     OW22105   2.727   4.219   1.453 -0.0586  0.3393  0.6701
 3490SOL    HW122106   2.795   4.153   1.465  0.6740  0.8082 -0.8508
 3490SOL    HW222107   2.740   4.272   1.532  1.5148 -0.1462  0.7315
 3491SOL     OW22108   4.248   1.834   4.867  0.0565  0.2644  0.0563
 3491SOL    HW122109   4.176   1.876   4.915  0.2333 -0.0536  0.6090
 3491SOL    HW222110   4.305   1.907   4.847 -1.3182  1.0384 -1.0451
 3492SOL     OW22111   1.365   0.837   7.764 -0.0666 -0.3913 -0.3226
 3492SOL    HW122112   1.329   0.859   7.850  0.7011  1.5791 -0.4971
 3492SOL    HW222113   1.286   0.844   7.710 -0.4440  1.0439  0.4089
 3493SOL     OW22114   0.452   0.468   1.735 -0.6760  0.2005 -0.1433
 3493SOL    HW122115   0.401   0.474   1.655 -0.1195  0.6101 -0.4720
 3493SOL    HW222116   0.407   0.411   1.798  1.5714 -0.9665  0.4318
 3494SOL     OW22117   3.137   4.500   2.103  0.2711  0.2540 -0.1501
 3494SOL    HW122118   3.216   4.519   2.153 -0.0849 -2.1211  1.2824
 3494SOL    HW222119   3.141   4.565   2.033 -1.2030  1.6167  1.0556
 3495SOL     OW22120   1.798   0.452   4.640 -0.3718 -0.1535 -0.3841
 3495SOL    HW122121   1.852   0.518   4.598 -2.7791  0.8918 -1.8213
 3495SOL    HW222122   1.728   0.511   4.668 -0.5379 -1.2911  1.6505
 3496SOL     OW22123   3.097   1.107   4.874 -0.0719 -0.6284  0.1670
 3496SOL    HW122124   3.005   1.125   4.895  0.8998  3.3764  0.9342
 3496SOL    HW222125   3.085   1.106   4.779  0.0679 -0.8551  0.1527
 3497SOL     OW22126   2.596   4.332   1.227  0.4263  0.2322  1.1328
 3497SOL    HW122127   2.525   4.392   1.250 -0.2967 -1.4094  3.0516
 3497SOL    HW222128   2.634   4.301   1.309  0.6091  1.3135  1.4645
 3498SOL     OW22129   3.490   2.077  13.398  0.0765  0.0037  0.6210
 3498SOL    HW122130   3.536   1.994  13.409  1.6800  0.6947 -0.6936
 3498SOL    HW222131   3.408   2.055  13.354 -0.6161 -0.5076  2.1660
 3499SOL     OW22132   3.247   3.158   3.138  0.3390 -0.4430  0.1337
 3499SOL    HW122133   3.229   3.088   3.200 -0.6879 -1.8740 -1.7888
 3499SOL    HW222134   3.209   3.122   3.058  0.5673 -0.0833 -0.1385
 3500SOL     OW22135   3.826   0.167   9.256 -0.6125  0.8462  0.2904
 3500SOL    HW122136   3.888   0.107   9.216  1.6583  2.0835  1.9596
 3500SOL    HW222137   3.833   0.155   9.350  0.1563 -0.4782  0.0706
 3501SOL     OW22138   1.191   4.383   2.054  0.2833  0.6380 -0.0470
 3501SOL    HW122139   1.223   4.381   2.145 -0.2917 -1.0066  0.1196
 3501SOL    HW222140   1.131   4.309   2.052  0.1180  0.7865 -0.6117
 3502SOL     OW22141   3.659   2.126  11.817 -0.0391 -0.0723  0.0769
 3502SOL    HW122142   3.686   2.092  11.902 -0.5679  1.5670  0.8857
 3502SOL    HW222143   3.578   2.079  11.795 -0.2412 -0.5702  1.9170
 3503SOL     OW22144   0.084   3.718   5.330  0.1619 -0.1798  0.5367
 3503SOL    HW122145   0.092   3.811   5.309  1.6108 -0.3831  0.1592
 3503SOL    HW222146   0.164   3.709   5.383 -0.3241  0.4097  1.3651
 3504SOL     OW22147   1.316   3.760   7.949 -0.1892  0.7781 -0.4239
 3504SOL    HW122148   1.236   3.712   7.928  0.5083 -0.0599 -1.1334
 3504SOL    HW222149   1.350   3.697   8.012 -0.2065  0.3968 -0.7963
 3505SOL     OW22150   1.294   0.761   3.468 -0.2217 -0.0180  0.2428
 3505SOL    HW122151   1.326   0.795   3.384  0.4823 -2.6525 -0.5640
 3505SOL    HW222152   1.360   0.696   3.493  0.1260  0.0579 -0.4768
 3506SOL     OW22153   0.960   2.021   7.346  0.2682 -0.2754  0.2907
 3506SOL    HW122154   0.875   2.014   7.389 -0.5975  3.2390 -0.8613
 3506SOL    HW222155   0.925   2.007   7.257  0.1178  1.7905  0.0214
 3507SOL     OW22156   1.257   3.848   8.738 -0.2912  0.6198 -1.0282
 3507SOL    HW122157   1.208   3.773   8.773 -0.1921  1.1237  0.1958
 3507SOL    HW222158   1.248   3.908   8.812  0.4099 -1.5137  0.7973
 3508SOL     OW22159   3.457   1.678   7.000 -0.0131  0.3328  0.3215
 3508SOL    HW122160   3.365   1.666   6.975 -0.2314  0.0649  1.2469
 3508SOL    HW222161   3.480   1.752   6.943 -1.2350 -2.0279 -3.2541
 3509SOL     OW22162   3.352   0.526   9.123 -0.0289  0.1946 -0.0961
 3509SOL    HW122163   3.324   0.599   9.178 -0.4197  0.7870 -1.0941
 3509SOL    HW222164   3.364   0.457   9.189 -0.3296 -0.1455 -0.4012
 3510SOL     OW22165   1.898   4.482   3.855  0.2442  0.2434 -0.1962
 3510SOL    HW122166   1.946   4.500   3.936 -1.0955  0.2499  0.5947
 3510SOL    HW222167   1.969   4.500   3.793  1.2370  1.4592  1.2769
 3511SOL     OW22168   1.561   1.892   2.456  0.5508 -0.4072  0.6067
 3511SOL    HW122169   1.507   1.846   2.392 -2.4141  0.9156  2.1244
 3511SOL    HW222170   1.512   1.973   2.468  2.6805  0.7320  1.6019
 3512SOL     OW22171   4.180   2.850  11.745  0.1142 -0.3359 -0.3103
 3512SOL    HW122172   4.194   2.927  11.800  0.1792 -0.4691 -0.1379
 3512SOL    HW222173   4.262   2.849  11.696  0.3348  0.2397  0.0547
 3513SOL     OW22174   3.417   1.930   1.724  0.1418  0.4618  0.7724
 3513SOL    HW122175   3.417   1.855   1.665  3.5568  1.2848 -0.3055
 3513SOL    HW222176   3.506   1.927   1.761  0.1628  0.1104  0.6914
 3514SOL     OW22177   2.998   0.599   9.275  0.1276 -0.3001 -0.2924
 3514SOL    HW122178   2.944   0.543   9.330  0.6009  0.2418  0.7283
 3514SOL    HW222179   3.085   0.594   9.314  1.0910  0.3283 -2.3411
 3515SOL     OW22180   2.341   0.169   8.902 -0.0799 -0.0963  0.2223
 3515SOL    HW122181   2.336   0.253   8.947  0.4039  0.0097  0.0838
 3515SOL    HW222182   2.281   0.160   8.828  1.3628  0.9185 -1.0566
 3516SOL     OW22183   1.020   1.478   3.692  0.2002 -0.2100  0.1676
 3516SOL    HW122184   1.074   1.550   3.724  2.0507 -1.9890  1.0200
 3516SOL    HW222185   1.029   1.418   3.766  1.4681  0.6905  0.7324
 3517SOL     OW22186   0.936   4.109   6.669  0.4599 -0.2032 -0.1858
 3517SOL    HW122187   0.996   4.053   6.621  0.7484 -0.2071  0.1804
 3517SOL    HW222188   0.892   4.047   6.728  1.4870  1.6603  2.5168
 3518SOL     OW22189   1.668   2.399   4.512  0.1421 -0.1206 -0.5832
 3518SOL    HW122190   1.729   2.448   4.458  2.3255 -1.5559  0.5950
 3518SOL    HW222191   1.584   2.446   4.514  1.5088  2.4241 -2.4123
 3519SOL     OW22192   3.853   1.472   0.432 -0.3583  0.0794  0.1611
 3519SOL    HW122193   3.916   1.410   0.470 -0.1876  0.4244  0.4414
 3519SOL    HW222194   3.876   1.472   0.339 -1.1538  1.4569 -0.0422
 3520SOL     OW22195   1.025   2.494   6.498 -0.0737  0.3584 -0.6997
 3520SOL    HW122196   1.101   2.439   6.515 -1.2540 -0.3771  2.2360
 3520SOL    HW222197   1.020   2.504   6.403 -2.1641 -1.5267 -0.7802
 3521SOL     OW22198   2.067   2.885  10.097  0.1590  0.2424 -0.1847
 3521SOL    HW122199   2.068   2.973  10.060 -1.5316  1.1894  2.0069
 3521SOL    HW222200   2.157   2.870  10.126  0.3841  1.7558 -0.0942
 3522SOL     OW22201   1.528   1.403   8.641  0.2520 -0.1284  0.4370
 3522SOL    HW122202   1.595   1.335   8.631  0.9826  0.4378  1.4459
 3522SOL    HW222203   1.566   1.473   8.588  0.6900 -1.0770 -0.4938
 3523SOL     OW22204   3.261   4.711  16.888  0.7069 -0.1406 -0.3293
 3523SOL    HW122205   3.255   0.036  16.962 -3.0418 -0.4339 -0.3763
 3523SOL    HW222206   3.355   4.696  16.875  0.4130 -1.5613 -0.8066
 3524SOL     OW22207   2.131   0.572   7.706  0.3815  0.1941  0.0618
 3524SOL    HW122208   2.059   0.616   7.660  1.0730  1.0784 -0.1719
 3524SOL    HW222209   2.072   0.519   7.761 -1.0595  0.5683 -1.1098
 3525SOL     OW22210   1.641   4.060   5.469 -0.4075  0.3227 -0.9624
 3525SOL    HW122211   1.677   4.074   5.382 -1.5836 -1.3657 -1.7069
 3525SOL    HW222212   1.614   4.152   5.479 -0.8236  0.4359 -3.2258
 3526SOL     OW22213   0.097   3.144   1.541 -0.1324  0.0048 -0.7127
 3526SOL    HW122214   0.044   3.064   1.541  2.3253 -1.6423 -0.2231
 3526SOL    HW222215   0.182   3.100   1.541 -0.6140 -0.9277 -1.4667
 3527SOL     OW22216   3.035   0.250   3.971  0.1006 -0.7737 -0.1793
 3527SOL    HW122217   3.046   0.210   4.058 -0.5522  0.8051  0.6259
 3527SOL    HW222218   2.993   0.177   3.925 -1.1665 -0.2053  0.0841
 3528SOL     OW22219   2.026   4.340   1.571 -0.4752 -0.6161  0.2000
 3528SOL    HW122220   2.029   4.260   1.518 -3.8537 -1.1992  0.8615
 3528SOL    HW222221   1.984   4.298   1.646  0.4530  1.0076  1.6034
 3529SOL     OW22222   0.761   2.394   7.151  0.2207 -0.6648 -0.3033
 3529SOL    HW122223   0.747   2.377   7.244  2.4560 -0.6269  0.0380
 3529SOL    HW222224   0.750   2.309   7.109  0.2536 -0.8878  0.1412
 3530SOL     OW22225   0.360   1.255   0.735 -0.3947  0.5842 -0.1822
 3530SOL    HW122226   0.351   1.328   0.796  1.8646  1.7670 -1.2438
 3530SOL    HW222227   0.275   1.215   0.751 -0.4453  0.2949 -1.1729
 3531SOL     OW22228   1.681   0.666   7.399  0.1228 -0.3544 -0.1823
 3531SOL    HW122229   1.728   0.612   7.335 -0.5720 -1.3030  0.0975
 3531SOL    HW222230   1.591   0.644   7.372 -0.6348  0.9870  1.2197
 3532SOL     OW22231   1.775   3.235   6.006 -0.1074 -0.0635 -0.0174
 3532SOL    HW122232   1.718   3.205   5.935 -3.1037 -0.3154  2.5446
 3532SOL    HW222233   1.752   3.197   6.090  0.9713  1.2537  0.8744
 3533SOL     OW22234   1.442   3.976   7.852 -0.3642  0.4385 -0.2658
 3533SOL    HW122235   1.382   3.914   7.893 -0.5120 -0.5296 -1.9554
 3533SOL    HW222236   1.525   3.956   7.895  0.1477  2.3291 -0.3572
 3534SOL     OW22237   0.676   4.561   7.084 -0.2183 -0.3989 -0.0153
 3534SOL    HW122238   0.626   4.619   7.027 -1.2768 -0.8414  0.4715
 3534SOL    HW222239   0.759   4.555   7.036  0.3064 -0.1728  0.8463
 3535SOL     OW22240   1.500   2.950  11.918  0.0256 -0.0558  0.2516
 3535SOL    HW122241   1.446   3.020  11.882  1.3404  1.1470  0.6038
 3535SOL    HW222242   1.454   2.877  11.877  1.4179 -0.4889 -0.5381
 3536SOL     OW22243   1.020   0.258   4.141  0.1786  0.2785  0.0040
 3536SOL    HW122244   0.945   0.201   4.125  2.0088 -1.7464 -1.2268
 3536SOL    HW222245   1.083   0.218   4.081  2.3667  1.6669  1.3784
 3537SOL     OW22246   2.221   3.012   0.822  0.0963 -0.0633  0.2843
 3537SOL    HW122247   2.248   3.017   0.730  2.1679 -0.6636  0.8712
 3537SOL    HW222248   2.139   3.062   0.824  0.2410  0.2365 -1.4883
 3538SOL     OW22249   4.681   3.103  10.913 -0.5124  0.3809 -0.6113
 3538SOL    HW122250   4.659   3.035  10.977 -0.7213  1.4686  0.4900
 3538SOL    HW222251   4.649   3.184  10.954  0.9336 -0.6102  2.4600
 3539SOL     OW22252   0.917   3.821   2.600  0.1779  0.3030  0.3560
 3539SOL    HW122253   0.920   3.822   2.504 -2.9113  1.7982  0.2777
 3539SOL    HW222254   0.823   3.809   2.610  0.0710 -1.0375 -2.1808
 3540SOL     OW22255   4.119   0.873  10.962 -0.1417 -0.1960 -0.2146
 3540SOL    HW122256   4.200   0.826  10.940 -0.0936 -0.4767  0.5387
 3540SOL    HW222257   4.093   0.824  11.040 -4.0582  3.7627  0.9123
 3541SOL     OW22258   2.200   1.749   9.714 -0.3599 -0.2657  0.4921
 3541SOL    HW122259   2.208   1.661   9.677 -1.9257 -0.1642 -0.0786
 3541SOL    HW222260   2.287   1.775   9.744  0.4358 -0.8163 -1.3686
 3542SOL     OW22261   2.376   3.941   8.725 -0.1709  0.1946 -0.3284
 3542SOL    HW122262   2.442   3.994   8.682  0.5398 -0.2113  0.2673
 3542SOL    HW222263   2.390   3.848   8.709  0.0961  0.1236  0.3139
 3543SOL     OW22264   2.988   3.524   9.234  0.5411 -0.0341 -0.5203
 3543SOL    HW122265   2.918   3.569   9.280 -0.6114 -1.4755 -0.8611
 3543SOL    HW222266   3.049   3.594   9.213  1.7733 -1.3406 -1.3405
 3544SOL     OW22267   0.017   3.598   6.179  0.1370  0.9354 -0.6441
 3544SOL    HW122268   0.091   3.572   6.124 -0.3334 -0.4050 -0.6402
 3544SOL    HW222269   4.730   3.683   6.140  1.2313  1.7563  0.5215
 3545SOL     OW22270   2.834   1.469  12.854  0.1313  0.7832 -0.2393
 3545SOL    HW122271   2.906   1.505  12.906  1.1470  0.5845 -1.5179
 3545SOL    HW222272   2.800   1.547  12.810 -1.6303 -0.0588 -0.3759
 3546SOL     OW22273   4.539   1.788   9.225  0.4163 -0.1628 -0.1361
 3546SOL    HW122274   4.634   1.788   9.215  0.4081  1.9827 -0.1727
 3546SOL    HW222275   4.503   1.793   9.137  1.9704  0.8020 -0.6975
 3547SOL     OW22276   2.404   0.949   8.701  0.6156 -0.4782  0.7184
 3547SOL    HW122277   2.315   0.928   8.676  1.1349  0.2789 -1.7247
 3547SOL    HW222278   2.407   1.044   8.688  0.0155 -0.5266  0.2686
 3548SOL     OW22279   1.737   1.666   8.254  0.0782 -0.4676  0.3466
 3548SOL    HW122280   1.807   1.729   8.265 -0.3724 -0.2107  1.6716
 3548SOL    HW222281   1.767   1.599   8.192  0.8763 -0.3140  0.5707
 3549SOL     OW22282   1.821   2.805   5.546  0.0096 -0.1416 -0.0948
 3549SOL    HW122283   1.876   2.803   5.468  0.4741  2.4705  0.1720
 3549SOL    HW222284   1.794   2.714   5.536 -2.2347  0.6793 -1.3706
 3550SOL     OW22285   4.157   3.481   5.780  0.0673 -0.1243  0.5651
 3550SOL    HW122286   4.095   3.413   5.755 -0.1416  0.7582 -1.3229
 3550SOL    HW222287   4.222   3.460   5.713 -0.6044  0.3848 -0.2515
 3551SOL     OW22288   3.213   3.743   6.006 -0.1975  0.3990  0.1075
 3551SOL    HW122289   3.178   3.783   6.086  0.3016  0.3295  0.3630
 3551SOL    HW222290   3.273   3.808   5.968  1.4214 -0.7012  0.7943
 3552SOL     OW22291   4.285   3.375   1.907 -0.0141  0.0117 -0.4106
 3552SOL    HW122292   4.380   3.371   1.919 -0.0617 -1.3186 -0.4883
 3552SOL    HW222293   4.283   3.459   1.861  1.8264 -0.4644 -1.3458
 3553SOL     OW22294   0.978   4.510  10.215  0.0031 -0.2328  0.1511
 3553SOL    HW122295   1.042   4.570  10.254 -0.3718  1.1341 -1.3326
 3553SOL    HW222296   1.033   4.439  10.182  0.3627 -0.2932  0.8842
 3554SOL     OW22297   2.635   2.712   4.534  0.3962  0.3355 -0.2526
 3554SOL    HW122298   2.610   2.788   4.482  0.0311  0.2516 -0.1969
 3554SOL    HW222299   2.588   2.751   4.609  0.9434 -0.5219  0.5323
 3555SOL     OW22300   4.679   0.486   6.387  0.4611  0.6130 -0.3926
 3555SOL    HW122301   4.685   0.443   6.302  1.3949 -2.0316  0.9948
 3555SOL    HW222302   4.675   0.575   6.354  0.9971  1.1240  0.9222
 3556SOL     OW22303   2.996   2.299   3.124 -0.3154 -0.2826 -0.0372
 3556SOL    HW122304   2.919   2.354   3.137  0.0028  0.8740 -3.0076
 3556SOL    HW222305   2.987   2.301   3.029 -2.4647 -2.3790  0.1223
 3557SOL     OW22306   3.905   3.782   5.921  0.2250 -0.4108 -0.5321
 3557SOL    HW122307   3.984   3.781   5.867 -0.8015 -0.2388 -2.0618
 3557SOL    HW222308   3.921   3.854   5.982 -0.0862 -0.2435 -0.6461
 3558SOL     OW22309   0.415   3.070   8.080  0.2886 -0.0398  0.1284
 3558SOL    HW122310   0.387   3.051   7.990  0.6239 -1.4359  0.3106
 3558SOL    HW222311   0.366   3.147   8.108  1.6256  0.4590  1.0997
 3559SOL     OW22312   2.174   4.125   7.044 -0.1603 -0.1730 -0.2754
 3559SOL    HW122313   2.253   4.179   7.040 -0.6682  0.4912 -1.2135
 3559SOL    HW222314   2.225   4.063   7.096 -1.4316  0.4740  1.7420
 3560SOL     OW22315   3.524   1.990   4.837 -0.0440  0.5443 -0.7246
 3560SOL    HW122316   3.490   2.067   4.790 -0.1852  0.4594 -0.7612
 3560SOL    HW222317   3.492   2.007   4.926 -0.4730 -0.0498 -0.7687
 3561SOL     OW22318   2.853   3.331  11.818 -0.3930 -0.0447  0.2924
 3561SOL    HW122319   2.872   3.407  11.762 -1.3240  0.4558  0.6554
 3561SOL    HW222320   2.856   3.265  11.748  0.6214  0.0669  0.2409
 3562SOL     OW22321   1.862   1.332   7.799 -0.1363 -0.6294 -0.4308
 3562SOL    HW122322   1.766   1.335   7.801 -0.2071 -1.4435 -3.5204
 3562SOL    HW222323   1.879   1.243   7.769  1.0483 -0.6131  0.1886
 3563SOL     OW22324   0.825   2.586   2.016  0.2472 -0.4373  0.4192
 3563SOL    HW122325   0.826   2.514   1.953  0.4345  1.0557 -1.2852
 3563SOL    HW222326   0.839   2.541   2.099 -2.2246 -1.4039  0.3172
 3564SOL     OW22327   2.682   1.197   3.633 -0.5002  0.1544  0.5473
 3564SOL    HW122328   2.669   1.117   3.582  1.5306 -1.4862  2.5757
 3564SOL    HW222329   2.632   1.264   3.588  0.0180 -1.3403 -2.2666
 3565SOL     OW22330   0.199   4.262   8.393  0.0480  0.5278 -0.0216
 3565SOL    HW122331   0.124   4.204   8.378  0.6787 -0.5878  1.2082
 3565SOL    HW222332   0.240   4.256   8.307 -0.7306 -1.0809 -0.2786
 3566SOL     OW22333   0.729   1.759   7.358 -0.1144 -0.3443 -0.3200
 3566SOL    HW122334   0.773   1.799   7.434 -1.3734  0.9155 -0.2590
 3566SOL    HW222335   0.718   1.666   7.378  0.3284 -0.7722 -2.0544
 3567SOL     OW22336   3.474   2.835   0.490 -0.3084  0.5216 -0.1985
 3567SOL    HW122337   3.536   2.764   0.477 -0.8055 -0.0222  0.4188
 3567SOL    HW222338   3.516   2.903   0.438  1.6819 -1.5446 -1.2872
 3568SOL     OW22339   4.331   2.631  11.209 -0.5123 -0.2921  0.2569
 3568SOL    HW122340   4.401   2.611  11.272  0.2705 -1.0479 -0.8558
 3568SOL    HW222341   4.325   2.554  11.152  0.3888 -0.1539 -0.0240
 3569SOL     OW22342   3.874   0.360  17.306 -0.1188 -0.4396 -0.4667
 3569SOL    HW122343   3.861   0.269  17.330 -3.8320  0.0382 -0.7522
 3569SOL    HW222344   3.820   0.367  17.227  2.1629  1.6331 -1.8401
 3570SOL     OW22345   0.623   3.974   6.923  0.0763 -0.1379  0.0928
 3570SOL    HW122346   0.603   3.959   6.830  0.1329  1.3300 -0.1580
 3570SOL    HW222347   0.685   4.047   6.918  0.2240 -0.3013 -0.4615
 3571SOL     OW22348   1.088   1.709   3.915 -0.0270  0.5764  0.3944
 3571SOL    HW122349   1.113   1.800   3.901  2.9864  0.0015  2.1372
 3571SOL    HW222350   1.160   1.661   3.873 -0.2638  0.4996  0.0708
 3572SOL     OW22351   1.946   3.136   9.011 -0.0921 -0.5048  0.1326
 3572SOL    HW122352   1.937   3.108   8.920  0.9201 -3.3827  0.9135
 3572SOL    HW222353   1.967   3.051   9.051  0.6066 -0.9779 -1.2330
 3573SOL     OW22354   3.174   1.817   0.808 -0.5646  0.4479 -0.0405
 3573SOL    HW122355   3.206   1.732   0.837  1.4514  1.6183  1.1949
 3573SOL    HW222356   3.114   1.793   0.738  0.3831  0.7666 -0.9504
 3574SOL     OW22357   0.757   1.791   6.299 -0.6265 -0.1482  0.7981
 3574SOL    HW122358   0.768   1.709   6.251  0.6136  0.9457 -0.7485
 3574SOL    HW222359   0.780   1.755   6.385 -1.2774 -1.9776  0.2073
 3575SOL     OW22360   4.542   4.709   7.106  0.0788  0.2727  0.0352
 3575SOL    HW122361   4.517   0.040   7.170 -2.0665  0.6000 -1.1413
 3575SOL    HW222362   4.460   4.665   7.084  0.4309  1.0784 -2.9457
 3576SOL     OW22363   0.194   2.861   3.425  0.0689 -0.3669  0.0461
 3576SOL    HW122364   0.179   2.785   3.481  0.8431  0.1835  1.0118
 3576SOL    HW222365   0.285   2.881   3.449  0.2543  0.1030 -1.0423
 3577SOL     OW22366   1.232   1.845   0.649  0.2778 -0.1247 -0.2420
 3577SOL    HW122367   1.318   1.878   0.625 -0.5338  1.6524 -0.7055
 3577SOL    HW222368   1.210   1.781   0.580  0.6604 -0.6000  0.0811
 3578SOL     OW22369   3.125   2.190   5.553 -0.0502  0.2079  0.6492
 3578SOL    HW122370   3.173   2.252   5.607  0.5028  1.1488 -0.9065
 3578SOL    HW222371   3.191   2.127   5.527 -0.8520 -0.6967  0.8311
 3579SOL     OW22372   3.347   0.140  11.961 -0.5494  0.4095 -0.2849
 3579SOL    HW122373   3.349   0.159  12.055 -2.7579 -3.5988  0.5411
 3579SOL    HW222374   3.436   0.146  11.926 -1.3475  1.0791 -2.1902
 3580SOL     OW22375   1.372   4.587  10.251  0.1092 -0.1221  0.2814
 3580SOL    HW122376   1.453   4.539  10.271  0.4833  0.0840 -0.7379
 3580SOL    HW222377   1.395   4.634  10.171 -2.1851  4.5624  2.4071
 3581SOL     OW22378   3.213   1.194   8.461 -0.0113 -0.2017  0.6624
 3581SOL    HW122379   3.146   1.261   8.458  1.2101  0.9978  0.0899
 3581SOL    HW222380   3.279   1.252   8.500  0.4350 -1.4737  1.8042
 3582SOL     OW22381   4.631   1.276   2.766  0.3282 -0.1501  0.2806
 3582SOL    HW122382   4.680   1.341   2.716 -0.1873 -0.1784 -0.2557
 3582SOL    HW222383   4.595   1.336   2.831  2.6306  1.0913  0.3676
 3583SOL     OW22384   0.260   4.015   7.944 -0.0554  0.1851  0.5820
 3583SOL    HW122385   0.195   4.003   7.874 -1.8985  3.3459  1.7102
 3583SOL    HW222386   0.332   3.973   7.898  1.2408  1.0741  1.7945
 3584SOL     OW22387   0.350   3.429   6.546 -0.1836 -0.1219  0.0995
 3584SOL    HW122388   0.289   3.359   6.569 -1.9881  1.8663  1.3908
 3584SOL    HW222389   0.284   3.482   6.500  0.9827 -0.7181 -2.2466
 3585SOL     OW22390   2.410   1.255  13.506  0.1613 -0.2407  0.5182
 3585SOL    HW122391   2.379   1.308  13.580 -0.2809 -0.5975  0.5902
 3585SOL    HW222392   2.393   1.168  13.544  2.4354 -0.5080  0.9109
 3586SOL     OW22393   1.737   4.120   5.220  0.1192  0.1218  0.6955
 3586SOL    HW122394   1.790   4.075   5.154  0.9446  0.4604  1.1186
 3586SOL    HW222395   1.703   4.198   5.176  0.7571  0.7481  1.2953
 3587SOL     OW22396   4.323   0.895  13.636  0.7088 -0.1964  0.3185
 3587SOL    HW122397   4.322   0.866  13.545 -2.2683  0.7079  0.0759
 3587SOL    HW222398   4.374   0.977  13.632 -0.1266  0.2993 -0.1785
 3588SOL     OW22399   3.074   1.436   9.450 -0.3633 -0.1670 -0.3216
 3588SOL    HW122400   3.135   1.407   9.518 -0.7451  0.3893  0.2562
 3588SOL    HW222401   3.063   1.526   9.478 -2.8714 -0.3698 -0.6505
 3589SOL     OW22402   3.771   2.482   6.708 -0.3189  0.3006  0.1835
 3589SOL    HW122403   3.839   2.420   6.679 -0.2301  0.4492  0.0751
 3589SOL    HW222404   3.759   2.527   6.625  2.0189  1.2884  0.3707
 3590SOL     OW22405   2.525   3.395   4.461  0.1027  1.0275 -0.2976
 3590SOL    HW122406   2.570   3.417   4.380 -0.8439 -1.1317 -1.4080
 3590SOL    HW222407   2.466   3.470   4.467 -0.6325  0.4550 -0.2237
 3591SOL     OW22408   1.117   0.413   4.833 -0.1427  0.1637 -0.3729
 3591SOL    HW122409   1.060   0.362   4.776 -0.8954 -1.8608  2.1643
 3591SOL    HW222410   1.141   0.350   4.902 -0.1829  0.7714  0.1989
 3592SOL     OW22411   3.301   3.076   3.467  0.5584 -0.1283  0.1536
 3592SOL    HW122412   3.375   3.038   3.515  0.7799  1.8798  1.4160
 3592SOL    HW222413   3.344   3.159   3.447  2.7901 -1.5720 -1.1111
 3593SOL     OW22414   4.424   0.441   3.621  0.0793  0.4626 -0.7725
 3593SOL    HW122415   4.470   0.472   3.700 -2.8942  0.2421  1.0587
 3593SOL    HW222416   4.331   0.458   3.636  0.3932  1.7369 -0.2828
 3594SOL     OW22417   4.696   0.204   4.028  0.1697  0.2967 -0.5028
 3594SOL    HW122418   4.648   0.143   4.086 -0.7777  0.4569 -1.1203
 3594SOL    HW222419   0.040   0.157   4.003 -0.0756 -0.5792  0.3371
 3595SOL     OW22420   1.884   1.746   3.912  0.3765  0.1766  0.3752
 3595SOL    HW122421   1.932   1.802   3.974  0.0727  0.6333  0.1947
 3595SOL    HW222422   1.935   1.665   3.916 -1.4573 -1.0813 -2.0451
 3596SOL     OW22423   1.069   2.821   1.832  0.3962  0.7855  0.2782
 3596SOL    HW122424   0.982   2.781   1.842  0.9140 -0.3826  0.1238
 3596SOL    HW222425   1.120   2.788   1.906 -1.7569 -1.9987  0.5385
 3597SOL     OW22426   4.271   1.989  15.413  0.1678  0.0614  0.2161
 3597SOL    HW122427   4.366   2.004  15.406  0.1049 -1.3613 -3.4153
 3597SOL    HW222428   4.249   1.960  15.325 -0.4046  3.3333 -0.7064
 3598SOL     OW22429   2.264   4.543   5.188  0.6073  0.2291  0.0582
 3598SOL    HW122430   2.230   4.589   5.112  1.5902 -0.8249 -1.0101
 3598SOL    HW222431   2.356   4.528   5.166  0.3456  0.2438 -1.0116
 3599SOL     OW22432   0.938   4.457  16.125  0.0124 -0.0739  0.1249
 3599SOL    HW122433   1.003   4.525  16.107 -0.5557  0.4594  0.0887
 3599SOL    HW222434   0.855   4.504  16.116 -0.7292 -1.1206  1.5225
 3600SOL     OW22435   3.601   2.940  13.616 -0.2540 -0.6529  0.1552
 3600SOL    HW122436   3.585   2.857  13.660  4.2396 -0.6417  1.8621
 3600SOL    HW222437   3.517   2.984  13.627 -0.2106 -0.7267  0.8166
 3601SOL     OW22438   3.176   4.105  16.077  0.2838  0.0053 -0.4834
 3601SOL    HW122439   3.169   4.080  15.985  1.5685 -0.6765 -0.3793
 3601SOL    HW222440   3.123   4.185  16.082  1.3321  0.6137  0.8142
 3602SOL     OW22441   2.398   0.969   9.204  0.1580 -0.3886 -0.2790
 3602SOL    HW122442   2.440   0.906   9.145 -2.1920  0.5563 -2.9665
 3602SOL    HW222443   2.421   0.930   9.289  0.5329 -0.5746 -0.4632
 3603SOL     OW22444   4.343   0.444  15.930  0.6263 -0.3114 -0.1007
 3603SOL    HW122445   4.390   0.434  15.848  0.9893 -1.8348  0.3007
 3603SOL    HW222446   4.345   0.537  15.954  0.9947  0.0662 -1.6117
 3604SOL     OW22447   2.734   2.079   6.189  0.0512 -0.1669  0.1790
 3604SOL    HW122448   2.741   2.163   6.143  1.4547 -0.6088 -0.3791
 3604SOL    HW222449   2.825   2.068   6.216  0.7872  1.7552 -1.4780
 3605SOL     OW22450   2.501   3.308  12.292  0.1199 -0.1756 -0.3019
 3605SOL    HW122451   2.512   3.216  12.313  4.0905  0.7760  1.9201
 3605SOL    HW222452   2.558   3.320  12.217 -0.0084 -0.4704 -0.4420
 3606SOL     OW22453   2.636   0.580  13.289  0.0587 -0.3239  0.0155
 3606SOL    HW122454   2.664   0.671  13.276  0.1242 -0.3860 -0.2629
 3606SOL    HW222455   2.629   0.581  13.385 -0.3150  1.3018 -0.0170
 3607SOL     OW22456   2.793   1.241  15.145 -0.1315 -0.0830  0.4020
 3607SOL    HW122457   2.787   1.333  15.120  1.6936 -0.2571 -0.6469
 3607SOL    HW222458   2.880   1.220  15.113  0.2303  2.7663 -0.4250
 3608SOL     OW22459   3.255   3.417   3.229  0.5071 -1.1608  0.4969
 3608SOL    HW122460   3.304   3.455   3.156 -1.0290  1.6250  0.9195
 3608SOL    HW222461   3.241   3.329   3.192 -2.6606  0.5969 -2.5398
 3609SOL     OW22462   1.589   1.393   8.186  0.3753 -0.0375 -0.1139
 3609SOL    HW122463   1.621   1.314   8.230 -0.2097  0.3633  1.0251
 3609SOL    HW222464   1.665   1.450   8.191  0.6085 -0.3886  0.3299
 3610SOL     OW22465   0.239   3.718  12.698  0.0506 -0.6925  0.4803
 3610SOL    HW122466   0.324   3.687  12.665 -0.1329 -0.3544 -0.3068
 3610SOL    HW222467   0.199   3.759  12.621  1.0612 -2.1851 -0.8539
 3611SOL     OW22468   1.933   0.326  12.261 -0.3911  0.6467  0.5031
 3611SOL    HW122469   1.969   0.248  12.218 -1.1662 -0.0603  1.1515
 3611SOL    HW222470   2.016   0.373  12.274 -0.4261  0.7490  0.3540
 3612SOL     OW22471   3.828   4.657  11.396 -0.0312  0.3931  0.1384
 3612SOL    HW122472   3.743   4.640  11.435  0.6116  0.0467  1.4120
 3612SOL    HW222473   3.880   4.684  11.472  0.8593 -2.2727  0.4613
 3613SOL     OW22474   1.927   4.574  17.035 -0.0062  0.1222  0.1476
 3613SOL    HW122475   1.957   4.596  17.124  1.9272 -0.9399 -0.2276
 3613SOL    HW222476   2.008   4.586  16.985 -0.3992  0.0154 -0.5013
 3614SOL     OW22477   2.965   4.131   5.659 -0.1926  0.5228 -0.5941
 3614SOL    HW122478   2.976   4.115   5.752  0.7156  0.8761 -0.6391
 3614SOL    HW222479   2.969   4.227   5.656  1.1074  0.3927 -3.1007
 3615SOL     OW22480   0.690   1.389   9.667 -0.1009  0.4272  0.1045
 3615SOL    HW122481   0.746   1.311   9.661  0.8466  1.1917 -1.1467
 3615SOL    HW222482   0.754   1.454   9.696 -0.0380  1.6490 -2.7018
 3616SOL     OW22483   3.201   4.303   9.109  0.1239 -0.0445 -0.5323
 3616SOL    HW122484   3.231   4.365   9.043 -0.6981  0.0277 -0.8421
 3616SOL    HW222485   3.150   4.234   9.065  1.1290 -2.3181  1.9345
 3617SOL     OW22486   1.683   0.570  17.124 -0.2041 -0.3548 -0.2182
 3617SOL    HW122487   1.693   0.545  17.216  0.8152  0.2962 -0.1504
 3617SOL    HW222488   1.678   0.486  17.079 -0.5432 -0.3007 -0.2810
 3618SOL     OW22489   3.820   2.626  15.545 -0.0411 -0.0812  0.4002
 3618SOL    HW122490   3.894   2.686  15.549  0.1566 -0.4083  1.6061
 3618SOL    HW222491   3.783   2.649  15.460 -1.5490 -0.0438  1.0509
 3619SOL     OW22492   1.205   1.958   3.930 -0.3169  0.3851 -0.5283
 3619SOL    HW122493   1.130   2.008   3.965 -1.3765  0.1522 -2.4570
 3619SOL    HW222494   1.207   1.981   3.837  1.6461  0.2452 -0.5128
 3620SOL     OW22495   1.272   1.938   2.031  0.3733  0.6108  0.1500
 3620SOL    HW122496   1.178   1.950   2.041  0.2097  0.0087 -0.6943
 3620SOL    HW222497   1.301   1.942   2.122  1.5322  2.4598 -0.3005
 3621SOL     OW22498   1.832   0.840   2.037 -0.0605 -0.3068  0.0684
 3621SOL    HW122499   1.915   0.792   2.043  0.1330  0.0580  0.3424
 3621SOL    HW222500   1.779   0.782   2.092 -0.6409  1.8717  1.8331
 3622SOL     OW22501   4.337   4.656   3.051 -0.3070  0.2086  0.0637
 3622SOL    HW122502   4.392   4.633   3.126 -0.4333  2.8508  0.9492
 3622SOL    HW222503   4.365   0.010   3.033 -0.5260  0.3791  0.5602
 3623SOL     OW22504   1.027   4.593   8.763 -0.6191 -0.0487 -0.2167
 3623SOL    HW122505   0.945   4.545   8.771 -1.6624  2.0895  2.2362
 3623SOL    HW222506   1.053   4.628   8.849  0.5193 -0.0727 -0.5530
 3624SOL     OW22507   1.619   4.317   5.943  0.4056  0.1277  0.2294
 3624SOL    HW122508   1.670   4.326   6.023 -0.1439 -0.5802  0.6586
 3624SOL    HW222509   1.677   4.359   5.878 -0.8766  0.7601 -0.5090
 3625SOL     OW22510   1.597   1.269  14.065 -0.2172  0.4576  0.5444
 3625SOL    HW122511   1.516   1.254  14.016  0.7932  0.5989 -1.1881
 3625SOL    HW222512   1.661   1.264  13.994 -0.5423 -1.7431  0.4215
 3626SOL     OW22513   3.781   0.320   4.751 -0.3381  0.2449  0.0912
 3626SOL    HW122514   3.758   0.280   4.667 -0.9784 -0.0151  0.3922
 3626SOL    HW222515   3.780   0.249   4.814 -0.1247 -0.6160 -0.8739
 3627SOL     OW22516   4.121   1.132  10.013  0.2866  0.0218  0.1110
 3627SOL    HW122517   4.180   1.184  10.067  1.4653 -0.5411 -0.6469
 3627SOL    HW222518   4.124   1.050  10.064  0.8388 -0.4990 -0.7670
 3628SOL     OW22519   2.295   4.348   8.563  0.3612 -0.0905 -0.0534
 3628SOL    HW122520   2.376   4.341   8.512  1.4435 -0.2798  1.6972
 3628SOL    HW222521   2.255   4.428   8.530  0.5322 -0.1359 -0.3685
 3629SOL     OW22522   1.370   0.911   6.926 -0.2805  0.2210 -0.6520
 3629SOL    HW122523   1.455   0.898   6.883  0.2980 -0.5808  0.7082
 3629SOL    HW222524   1.396   0.952   7.009 -1.4012 -1.2602  0.4427
 3630SOL     OW22525   1.630   3.125   1.847  1.0117  0.2791  0.3616
 3630SOL    HW122526   1.618   3.212   1.808 -0.5022 -0.2299 -0.2862
 3630SOL    HW222527   1.725   3.116   1.839  1.1623  2.0259  0.1127
 3631SOL     OW22528   0.376   2.996  10.601 -0.3586  0.0956 -0.0699
 3631SOL    HW122529   0.321   3.052  10.656 -1.5840  0.7874 -2.0348
 3631SOL    HW222530   0.451   3.054  10.605  1.4509 -2.1799 -1.1049
 3632SOL     OW22531   1.819   2.711  12.806  0.1743 -0.3748  0.6036
 3632SOL    HW122532   1.867   2.757  12.874  0.6866  0.8736 -0.6066
 3632SOL    HW222533   1.737   2.700  12.855  1.2778 -1.0780  2.2702
 3633SOL     OW22534   4.340   1.469   3.785 -0.1869  0.3383 -0.4752
 3633SOL    HW122535   4.338   1.393   3.844  0.0579  0.8616  0.1978
 3633SOL    HW222536   4.267   1.519   3.822  0.0428 -0.0349  0.4644
 3634SOL     OW22537   0.603   1.797   3.469  0.7966  0.2337  0.6818
 3634SOL    HW122538   0.644   1.722   3.425 -1.2117  1.9262 -4.0371
 3634SOL    HW222539   0.672   1.826   3.529 -0.1791  0.5811  1.6318
 3635SOL     OW22540   1.566   4.489  10.007 -0.1510  0.7563 -0.0867
 3635SOL    HW122541   1.611   4.414  10.047 -1.2568 -0.3973 -1.0050
 3635SOL    HW222542   1.552   4.465   9.915 -1.6387 -0.2647  0.4105
 3636SOL     OW22543   3.904   2.406  16.931  0.2780  0.3959  0.1876
 3636SOL    HW122544   3.975   2.418  16.994 -0.4620  1.5833  0.8031
 3636SOL    HW222545   3.951   2.444  16.857  0.2069  1.7358  0.8290
 3637SOL     OW22546   0.838   1.653   6.530  0.7178 -0.4252  0.3420
 3637SOL    HW122547   0.827   1.561   6.506 -0.5311 -0.5981  1.5824
 3637SOL    HW222548   0.907   1.642   6.596  1.2167  0.2965 -0.0580
 3638SOL     OW22549   2.143   4.337  12.940  0.4051  0.5595  0.3092
 3638SOL    HW122550   2.177   4.274  12.876  0.2353  1.2152 -0.4265
 3638SOL    HW222551   2.160   4.289  13.021  2.6449  1.4575  0.3675
 3639SOL     OW22552   0.714   0.168  10.527 -0.6969  0.2066 -0.2204
 3639SOL    HW122553   0.766   0.188  10.606  1.0570  1.6342 -1.7335
 3639SOL    HW222554   0.743   0.079  10.506  0.9472  0.5417  0.6428
 3640SOL     OW22555   2.678   0.115   7.020 -0.9505  0.1030  0.3594
 3640SOL    HW122556   2.769   0.108   6.990 -0.4609  0.2515  1.8145
 3640SOL    HW222557   2.669   0.037   7.075  0.8661 -0.0782  0.4064
 3641SOL     OW22558   0.514   3.539  17.459 -0.4836 -0.1677 -0.1852
 3641SOL    HW122559   0.609   3.542  17.449 -0.7166  4.1482 -0.9781
 3641SOL    HW222560   0.501   3.627  17.494  2.0569  0.4525 -0.8393
 3642SOL     OW22561   4.471   3.938  11.543  0.3558 -0.3184 -0.4754
 3642SOL    HW122562   4.455   3.995  11.468 -0.6635 -0.4567 -0.3668
 3642SOL    HW222563   4.416   3.972  11.613  0.0044  1.1504 -1.4658
 3643SOL     OW22564   4.151   3.208   3.531  0.0911  0.3645  0.3850
 3643SOL    HW122565   4.159   3.294   3.572  0.5093  1.4391 -1.9259
 3643SOL    HW222566   4.168   3.254   3.448  2.0430  0.4857  0.8642
 3644SOL     OW22567   1.851   2.390  14.524  0.5974  0.4897  0.5517
 3644SOL    HW122568   1.926   2.350  14.481  0.2044 -0.6231  0.9037
 3644SOL    HW222569   1.783   2.324  14.514 -0.1670  1.0570  1.9206
 3645SOL     OW22570   3.014   3.702   8.835 -0.0028  0.4969  0.3480
 3645SOL    HW122571   3.080   3.717   8.903 -0.4755  1.7294  0.5316
 3645SOL    HW222572   2.984   3.615   8.861  1.7792  0.8638  3.6477
 3646SOL     OW22573   0.176   3.639   8.602  0.4032  0.1041  0.6258
 3646SOL    HW122574   0.152   3.730   8.588 -0.5974 -0.0817  1.1433
 3646SOL    HW222575   0.099   3.585   8.620 -0.4802  0.8641 -0.8227
 3647SOL     OW22576   0.169   0.157   5.434  0.1961 -0.2600 -0.0824
 3647SOL    HW122577   0.262   0.148   5.417  0.6353  0.1202  2.1825
 3647SOL    HW222578   0.131   0.221   5.373 -0.7816  1.0756  1.9429
 3648SOL     OW22579   2.982   0.123  12.473  0.1777 -0.1094 -0.5221
 3648SOL    HW122580   2.936   0.040  12.464 -0.5796  0.2326  0.1657
 3648SOL    HW222581   3.034   0.092  12.547 -0.2667 -2.6543 -1.3014
 3649SOL     OW22582   0.075   3.858  10.063 -0.1615  0.1563  0.3646
 3649SOL    HW122583   0.069   3.763  10.068 -3.0524  0.3232 -0.0944
 3649SOL    HW222584   0.146   3.870   9.999 -1.4862 -2.8272 -1.6317
 3650SOL     OW22585   3.199   0.618   3.713  0.3121 -0.1799 -0.1493
 3650SOL    HW122586   3.237   0.656   3.792 -0.0870 -0.2291  0.0648
 3650SOL    HW222587   3.171   0.531   3.739 -1.2364  0.7126  1.1707
 3651SOL     OW22588   4.202   0.589  12.466  0.3115  0.4644 -0.2827
 3651SOL    HW122589   4.215   0.530  12.541 -0.0414 -2.9891 -2.9333
 3651SOL    HW222590   4.107   0.594  12.476  0.4477 -0.3486  1.4723
 3652SOL     OW22591   3.477   2.740   3.835  0.3460 -0.6260 -0.0324
 3652SOL    HW122592   3.412   2.674   3.809 -0.3746 -0.7092  2.0238
 3652SOL    HW222593   3.513   2.756   3.747 -1.5969  0.6443 -0.5788
 3653SOL     OW22594   0.640   3.264   3.936 -0.2285 -0.0989 -0.2156
 3653SOL    HW122595   0.690   3.323   3.881 -0.3591  0.3973  0.1986
 3653SOL    HW222596   0.707   3.216   3.984 -0.5403  0.6716  0.9982
 3654SOL     OW22597   0.522   1.118   4.212 -0.5857 -0.1934 -0.3652
 3654SOL    HW122598   0.589   1.152   4.271 -0.9634 -0.3440  0.1498
 3654SOL    HW222599   0.555   1.156   4.131  3.2763 -0.9317  0.8392
 3655SOL     OW22600   1.708   4.350  11.523  0.2002  0.3337  0.1854
 3655SOL    HW122601   1.699   4.255  11.525  2.1535  0.1458  0.3763
 3655SOL    HW222602   1.650   4.376  11.595  1.1116 -0.5117  1.2350
 3656SOL     OW22603   4.371   2.396   4.956  0.0640  0.4730  0.3457
 3656SOL    HW122604   4.287   2.441   4.950 -0.1184  0.1351  0.3828
 3656SOL    HW222605   4.411   2.412   4.871 -0.2711 -0.4681  0.0091
 3657SOL     OW22606   2.982   3.736   4.254  0.9039  0.2879 -0.1565
 3657SOL    HW122607   2.945   3.709   4.170  2.2218  0.5744 -0.8366
 3657SOL    HW222608   2.999   3.830   4.241  0.5789  0.2727 -0.7062
 3658SOL     OW22609   2.643   4.315   9.822 -0.5921  0.2516  0.0454
 3658SOL    HW122610   2.666   4.225   9.847 -1.1687 -0.0847 -0.6506
 3658SOL    HW222611   2.721   4.337   9.772 -2.2055 -0.0147 -2.5846
 3659SOL     OW22612   1.401   4.706   5.815 -0.1562  0.0666 -0.0028
 3659SOL    HW122613   1.394   4.721   5.909 -1.0822  2.4324 -0.4483
 3659SOL    HW222614   1.475   4.647   5.802  0.0654  0.2007  0.6553
 3660SOL     OW22615   2.534   2.177  12.218 -0.4314  0.6127  0.1621
 3660SOL    HW122616   2.544   2.261  12.174  3.5315  0.0697  0.0644
 3660SOL    HW222617   2.583   2.197  12.298 -0.6470 -1.8929  0.9334
 3661SOL     OW22618   2.736   2.817  14.011 -0.6304 -0.1223 -0.4084
 3661SOL    HW122619   2.703   2.819  13.922 -0.4249 -2.7262 -0.5395
 3661SOL    HW222620   2.649   2.809  14.050 -1.8514 -1.0201 -3.3619
 3662SOL     OW22621   3.084   2.744   0.053 -0.0675  0.4564 -0.0893
 3662SOL    HW122622   3.030   2.710  17.722  1.6339  1.3111 -1.7966
 3662SOL    HW222623   3.173   2.737   0.020  0.1892 -0.5506  0.7853
 3663SOL     OW22624   1.314   4.136   7.209  0.3832  0.2332 -0.4479
 3663SOL    HW122625   1.317   4.041   7.201  1.8807  0.3358 -1.1979
 3663SOL    HW222626   1.281   4.144   7.299  0.9334  0.9277 -0.2953
 3664SOL     OW22627   0.135   0.388   5.026 -0.4254  0.2813  0.2563
 3664SOL    HW122628   0.208   0.354   4.975  0.3101  0.8640  0.9228
 3664SOL    HW222629   0.172   0.464   5.070  0.1692  0.5537 -0.7141
 3665SOL     OW22630   0.235   3.620   5.516 -0.2876 -0.1475 -0.3800
 3665SOL    HW122631   0.207   3.563   5.587 -2.8680 -0.1268 -1.3719
 3665SOL    HW222632   0.287   3.558   5.466  0.5849 -0.0314  0.3908
 3666SOL     OW22633   2.251   4.185  13.136 -0.8238 -0.0874 -0.0104
 3666SOL    HW122634   2.221   4.104  13.176  0.1055 -1.0265 -1.1853
 3666SOL    HW222635   2.326   4.205  13.191 -0.3047  0.1219 -0.7848
 3667SOL     OW22636   2.223   1.752   9.399 -0.4482 -0.3824  0.6671
 3667SOL    HW122637   2.261   1.794   9.477 -0.2804 -0.7801  0.8016
 3667SOL    HW222638   2.272   1.798   9.330 -2.4279 -0.3613 -0.7209
 3668SOL     OW22639   2.711   2.052   8.767 -0.3966  0.1788  0.0098
 3668SOL    HW122640   2.790   2.093   8.733  1.1788 -3.2731 -0.5184
 3668SOL    HW222641   2.711   2.061   8.862 -0.2146  1.3995 -0.1094
 3669SOL     OW22642   2.391   2.197   1.476  0.3243  0.1263  0.7677
 3669SOL    HW122643   2.386   2.284   1.514 -0.6035  0.3987  0.0174
 3669SOL    HW222644   2.298   2.174   1.473  0.4501 -0.3048  0.1318
 3670SOL     OW22645   1.476   2.351  17.469 -0.1861  0.3405  0.1922
 3670SOL    HW122646   1.507   2.267  17.504  0.2199  0.5145  0.2523
 3670SOL    HW222647   1.554   2.401  17.490  0.2139 -0.5595  0.8680
 3671SOL     OW22648   2.911   4.353   4.322  0.4415 -0.9403 -0.2610
 3671SOL    HW122649   2.970   4.293   4.368 -0.2022 -0.5710  1.0377
 3671SOL    HW222650   2.980   4.404   4.280  0.0663 -0.2621 -0.0359
 3672SOL     OW22651   2.968   3.322  16.759 -0.1707  0.6042  0.6728
 3672SOL    HW122652   3.010   3.286  16.837  2.9420  0.3330 -1.1293
 3672SOL    HW222653   2.986   3.249  16.700  1.8776  1.7167 -0.0686
 3673SOL     OW22654   2.126   4.453   3.697 -0.2766 -0.2718  0.3928
 3673SOL    HW122655   2.169   4.370   3.717  1.1644  0.1367 -0.9866
 3673SOL    HW222656   2.094   4.434   3.609  1.5488 -1.5355  0.0112
 3674SOL     OW22657   0.623   2.951  17.587 -0.1751  0.3351 -0.0216
 3674SOL    HW122658   0.575   2.987  17.662  2.7169  0.5586  1.7419
 3674SOL    HW222659   0.653   3.027  17.538  1.1318 -0.8496 -1.0884
 3675SOL     OW22660   2.945   0.044   4.796  0.1009  0.0738  0.2422
 3675SOL    HW122661   2.918   4.687   4.796  2.5840 -0.6750 -3.2120
 3675SOL    HW222662   2.979   0.048   4.706  1.7575 -1.9229  0.7823
 3676SOL     OW22663   3.056   3.530   0.249 -0.0006 -0.1029 -0.0988
 3676SOL    HW122664   3.144   3.536   0.212  0.8278  1.7344  2.1283
 3676SOL    HW222665   3.018   3.457   0.201 -0.3680  0.6000 -0.8645
 3677SOL     OW22666   2.556   2.815   5.308 -1.0819 -0.2982 -0.2702
 3677SOL    HW122667   2.499   2.768   5.368 -0.5774 -0.2935  0.2054
 3677SOL    HW222668   2.640   2.771   5.320 -1.7544 -1.6536 -0.4043
 3678SOL     OW22669   0.460   3.911   8.322 -0.9170 -0.3794 -0.3730
 3678SOL    HW122670   0.420   3.977   8.380  0.0931  0.0334 -0.1349
 3678SOL    HW222671   0.552   3.913   8.350 -1.3867  0.3546  1.1309
 3679SOL     OW22672   3.882   0.283   2.581 -0.6784 -0.2081  0.5935
 3679SOL    HW122673   3.838   0.325   2.507  1.2514  0.5714 -0.1204
 3679SOL    HW222674   3.958   0.338   2.603 -3.1024  1.7392  3.9973
 3680SOL     OW22675   2.789   1.482   5.217  0.0460  0.8400 -0.0255
 3680SOL    HW122676   2.876   1.446   5.200  0.1407 -0.5549  3.3350
 3680SOL    HW222677   2.813   1.553   5.277 -2.6610  2.5863 -0.9727
 3681SOL     OW22678   3.480   4.676   3.138 -0.9161 -0.4318  0.4150
 3681SOL    HW122679   3.430   0.021   3.154 -1.0929 -0.4894  0.1529
 3681SOL    HW222680   3.416   4.606   3.123 -1.5046 -0.3022  2.2825
 3682SOL     OW22681   0.458   3.098   6.845  0.0284 -0.2993  0.2205
 3682SOL    HW122682   0.386   3.047   6.809  1.3190 -2.0171  0.1095
 3682SOL    HW222683   0.491   3.156   6.777  1.7473  0.5036  1.7361
 3683SOL     OW22684   4.161   0.496   4.404 -0.1268  0.6543 -0.2766
 3683SOL    HW122685   4.148   0.405   4.376  3.7615 -0.6075  2.1363
 3683SOL    HW222686   4.215   0.526   4.331  1.6634  0.5745  1.0134
 3684SOL     OW22687   3.783   3.120   7.421 -0.0477 -0.4563 -0.1128
 3684SOL    HW122688   3.740   3.064   7.357 -0.2352 -0.2536 -0.1638
 3684SOL    HW222689   3.777   3.072   7.504 -1.3450 -1.3401 -0.7123
 3685SOL     OW22690   4.314   4.575   7.039  0.2739 -0.6242 -0.4036
 3685SOL    HW122691   4.231   4.604   7.000 -1.0683 -1.3303  1.9488
 3685SOL    HW222692   4.309   4.566   7.134 -0.3411 -1.7294 -0.5363
 3686SOL     OW22693   1.951   1.906   8.560  0.1151  0.4223 -0.2976
 3686SOL    HW122694   1.995   1.821   8.568 -0.2568  0.5115  2.5276
 3686SOL    HW222695   2.021   1.957   8.599  0.7712 -0.4655 -0.3095
 3687SOL     OW22696   2.418   0.630  11.384  0.4032  0.4135  0.1477
 3687SOL    HW122697   2.455   0.718  11.392  0.0782  0.3172  2.6867
 3687SOL    HW222698   2.324   0.649  11.382  0.3864  0.1037 -1.6359
 3688SOL     OW22699   0.692   0.905  12.690 -0.5065 -0.3734 -0.3135
 3688SOL    HW122700   0.605   0.870  12.672 -0.0477 -0.7200 -1.8332
 3688SOL    HW222701   0.686   0.997  12.664  2.0700 -0.3814 -0.9175
 3689SOL     OW22702   3.100   2.912   7.212  0.2099 -0.1693  0.0056
 3689SOL    HW122703   3.072   2.893   7.302 -2.2082  0.7822 -0.5246
 3689SOL    HW222704   3.179   2.963   7.227 -0.1996  0.2082  0.9070
 3690SOL     OW22705   0.889   2.316   9.087  0.3931  0.0139  0.0177
 3690SOL    HW122706   0.936   2.261   9.150  0.3116 -2.0542 -1.7359
 3690SOL    HW222707   0.856   2.245   9.033  0.9488  0.7661 -1.3156
 3691SOL     OW22708   2.262   3.126   9.006 -0.2107  0.1231  0.1400
 3691SOL    HW122709   2.338   3.068   9.008 -0.1746  0.1322 -0.9088
 3691SOL    HW222710   2.245   3.135   9.100 -0.8092  0.1882  0.0257
 3692SOL     OW22711   0.920   1.469   0.882 -0.4227  0.1624 -0.5296
 3692SOL    HW122712   0.922   1.421   0.965 -0.9042  1.5434  0.2938
 3692SOL    HW222713   1.010   1.501   0.891 -1.1478  1.9610  0.4548
 3693SOL     OW22714   3.454   2.173   8.300  0.3356 -0.1424 -0.1647
 3693SOL    HW122715   3.515   2.233   8.343  1.1576  0.1292 -1.6990
 3693SOL    HW222716   3.449   2.096   8.356  2.3089 -1.5335 -1.8697
 3694SOL     OW22717   2.329   2.036   9.492 -0.6475 -0.3260 -0.3537
 3694SOL    HW122718   2.271   2.112   9.490 -0.1367  0.0996  1.6604
 3694SOL    HW222719   2.337   2.038   9.587 -2.0470  2.5670 -0.2912
 3695SOL     OW22720   4.143   2.722   8.996  0.0020 -0.0358 -0.3640
 3695SOL    HW122721   4.118   2.804   9.038  0.6843 -0.3182  0.5875
 3695SOL    HW222722   4.151   2.749   8.904  2.9252 -0.6609 -0.2963
 3696SOL     OW22723   0.291   0.475  17.141 -0.5020 -0.5172 -0.3698
 3696SOL    HW122724   0.303   0.447  17.232  1.1565 -1.3456 -0.8469
 3696SOL    HW222725   0.378   0.497  17.110 -0.8036  0.6663 -0.3646
 3697SOL     OW22726   0.880   1.119   7.193  0.4398 -0.0370  0.0638
 3697SOL    HW122727   0.959   1.138   7.142 -0.0318 -1.1805 -1.0983
 3697SOL    HW222728   0.851   1.210   7.202 -1.2625 -0.5497 -0.1813
 3698SOL     OW22729   0.896   2.663   5.887 -0.3379  0.1805  0.1000
 3698SOL    HW122730   0.867   2.590   5.941 -1.3055  2.3693  2.5506
 3698SOL    HW222731   0.892   2.626   5.799 -1.9504  0.9546 -0.1473
 3699SOL     OW22732   1.878   4.479   7.812  0.3574  0.6361 -0.4115
 3699SOL    HW122733   1.938   4.485   7.886 -2.0389 -1.0280  1.6430
 3699SOL    HW222734   1.928   4.410   7.768  0.3229  0.2202  0.2003
 3700SOL     OW22735   1.765   1.658  11.593  0.3979 -0.3683  0.2425
 3700SOL    HW122736   1.854   1.624  11.593  0.4414 -0.2620 -1.4430
 3700SOL    HW222737   1.784   1.752  11.592  1.0144 -0.4728  2.2391
 3701SOL     OW22738   4.726   2.857   3.018  0.2881  0.0001 -0.5762
 3701SOL    HW122739   0.069   2.911   3.005 -0.7413  1.6635  0.0579
 3701SOL    HW222740   0.040   2.776   3.018  0.5734  0.1793  1.2900
 3702SOL     OW22741   1.331   1.835  16.538  0.7782  0.4302 -0.2328
 3702SOL    HW122742   1.372   1.816  16.623  0.6185 -0.6808 -0.4014
 3702SOL    HW222743   1.320   1.745  16.507  0.5345  0.9326 -1.6117
 3703SOL     OW22744   2.740   1.721  12.749 -0.3075  0.2217 -0.3945
 3703SOL    HW122745   2.816   1.777  12.736 -0.1705  0.2263  0.4258
 3703SOL    HW222746   2.683   1.751  12.678 -2.1823  0.9242  1.4010
 3704SOL     OW22747   4.638   0.769   3.286  0.2900 -0.1519  0.5117
 3704SOL    HW122748   4.588   0.849   3.299 -1.1032 -0.7333 -1.1428
 3704SOL    HW222749   4.678   0.774   3.199 -0.9867 -0.7659 -0.1241
 3705SOL     OW22750   0.553   3.284   6.657  0.0403 -0.0560  0.1543
 3705SOL    HW122751   0.504   3.363   6.632 -0.9498 -0.4090  0.9756
 3705SOL    HW222752   0.579   3.249   6.572 -0.3200 -0.3443  0.1662
 3706SOL     OW22753   2.426   4.666  16.278  0.4631 -0.3666  0.2278
 3706SOL    HW122754   2.494   4.605  16.308 -1.4778 -1.4571  2.3718
 3706SOL    HW222755   2.464   4.723  16.211  1.1782  1.6969  2.3875
 3707SOL     OW22756   3.151   4.468   4.091 -0.1411  0.1256 -0.2321
 3707SOL    HW122757   3.173   4.561   4.085  0.0248  0.1256  0.3211
 3707SOL    HW222758   3.229   4.425   4.127  0.5782  1.4691 -0.1543
 3708SOL     OW22759   0.267   4.318   7.841 -0.2390 -0.1161 -0.3405
 3708SOL    HW122760   0.325   4.242   7.849 -2.0133 -1.5292 -0.8136
 3708SOL    HW222761   0.190   4.280   7.884  0.3777  1.1439  1.8667
 3709SOL     OW22762   1.655   3.906   8.022  0.5078  0.5513  0.2858
 3709SOL    HW122763   1.708   3.839   7.978  0.1132 -0.2778  1.0861
 3709SOL    HW222764   1.670   3.871   8.109 -0.8796  0.9130  0.6653
 3710SOL     OW22765   0.001   2.260   6.594  0.2914  0.4280 -0.0533
 3710SOL    HW122766   4.712   2.260   6.687 -0.6707  1.5162 -0.3121
 3710SOL    HW222767   4.735   2.165   6.582 -0.0875  0.1675  1.9868
 3711SOL     OW22768   3.115   3.628   5.421 -0.3897 -0.1421 -0.2477
 3711SOL    HW122769   3.148   3.689   5.487  1.5531  2.1683 -3.3929
 3711SOL    HW222770   3.193   3.602   5.373 -0.5802 -0.9106 -0.1469
 3712SOL     OW22771   0.502   1.067   7.229 -0.7623 -0.3651  0.4117
 3712SOL    HW122772   0.556   0.995   7.262 -0.0176 -0.3744 -0.8033
 3712SOL    HW222773   0.513   1.045   7.136  1.8833 -1.5680  0.9933
 3713SOL     OW22774   4.183   3.012   3.134  0.2100  0.0930  0.2307
 3713SOL    HW122775   4.204   3.052   3.218  1.7050  1.8005 -0.9475
 3713SOL    HW222776   4.271   2.975   3.129  0.7379  1.1550  1.7214
 3714SOL     OW22777   3.523   0.610   9.869  0.6960  0.2344  0.2276
 3714SOL    HW122778   3.494   0.674   9.934 -1.5623 -0.4623 -0.0949
 3714SOL    HW222779   3.569   0.669   9.809 -0.3337  0.8636  0.0600
 3715SOL     OW22780   1.237   3.878  17.097  0.7348  0.9094  0.1791
 3715SOL    HW122781   1.149   3.901  17.067  0.1948  1.4507  2.2213
 3715SOL    HW222782   1.248   3.815  17.026 -0.4647  2.0203 -1.0073
 3716SOL     OW22783   1.997   2.596   5.016  0.3895 -0.3588 -0.3939
 3716SOL    HW122784   1.972   2.503   5.018  1.2586 -0.5648  0.9771
 3716SOL    HW222785   1.907   2.619   5.038 -0.6031 -0.8443 -3.8365
 3717SOL     OW22786   1.228   0.552  17.093 -0.1403 -0.3211 -0.5310
 3717SOL    HW122787   1.283   0.590  17.024 -2.2623  0.7673 -1.6159
 3717SOL    HW222788   1.228   0.458  17.072  1.0549 -0.5594  0.5841
 3718SOL     OW22789   3.391   2.964   7.721 -0.5486 -0.5820  0.4977
 3718SOL    HW122790   3.460   2.899   7.709  0.2219  1.0452 -3.7415
 3718SOL    HW222791   3.350   2.965   7.635  0.6149 -1.2851 -0.0683
 3719SOL     OW22792   2.136   0.942  14.742 -0.2168 -0.5651 -0.1302
 3719SOL    HW122793   2.097   1.030  14.746 -1.1212 -0.9131 -1.4503
 3719SOL    HW222794   2.216   0.962  14.791 -0.1525  0.0230 -0.4721
 3720SOL     OW22795   3.038   3.431   7.408  0.0110 -0.1076 -0.0046
 3720SOL    HW122796   3.020   3.397   7.495  0.1262 -1.3769 -0.4807
 3720SOL    HW222797   2.970   3.389   7.354  0.4239 -0.5260 -0.1994
 3721SOL     OW22798   3.183   3.954   2.569  0.4927 -0.0682 -0.0087
 3721SOL    HW122799   3.091   3.957   2.596 -0.0337 -3.8246 -1.4073
 3721SOL    HW222800   3.229   3.943   2.653 -2.6796  0.4078  1.8040
 3722SOL     OW22801   3.024   4.385   3.007 -0.4047  0.5203  0.1574
 3722SOL    HW122802   3.008   4.315   2.943  0.2221  2.4960 -2.1732
 3722SOL    HW222803   3.004   4.334   3.085 -0.1256 -1.1900 -0.8894
 3723SOL     OW22804   0.508   2.545   6.092 -0.1635  0.4106 -0.2262
 3723SOL    HW122805   0.497   2.449   6.093 -3.1277  0.7248 -0.7486
 3723SOL    HW222806   0.425   2.567   6.134 -1.0143  0.3566 -1.8615
 3724SOL     OW22807   0.317   0.456   2.765 -0.2476  0.6652  0.1513
 3724SOL    HW122808   0.353   0.449   2.853  1.2501 -2.7740 -0.7040
 3724SOL    HW222809   0.300   0.363   2.747 -2.4237  0.9537  0.7208
 3725SOL     OW22810   0.584   0.220   1.033  0.2902 -0.3178  0.2620
 3725SOL    HW122811   0.566   0.263   1.116 -0.6687  0.0349 -0.1265
 3725SOL    HW222812   0.680   0.229   1.026  0.2654 -0.6162 -0.5442
 3726SOL     OW22813   2.812   1.810  13.054  0.0501  0.2182 -0.4741
 3726SOL    HW122814   2.739   1.871  13.046  0.0225  0.3598  0.7792
 3726SOL    HW222815   2.802   1.780  12.964 -2.6205 -0.4634  0.0308
 3727SOL     OW22816   1.319   0.302   0.986  0.7289  0.5003  0.0159
 3727SOL    HW122817   1.392   0.362   0.991  1.9666 -1.1078  1.2338
 3727SOL    HW222818   1.363   0.224   0.953  1.1719  0.1582  1.4367
 3728SOL     OW22819   1.052   2.402   6.210 -0.2610  0.2669 -0.0435
 3728SOL    HW122820   1.147   2.414   6.199 -0.4606  0.9129 -1.0903
 3728SOL    HW222821   1.030   2.409   6.118  1.2421  0.3680 -0.4037
 3729SOL     OW22822   2.599   2.022   5.047  0.1246 -0.0854  0.5802
 3729SOL    HW122823   2.657   1.956   5.008 -0.6082 -0.0673 -0.5392
 3729SOL    HW222824   2.655   2.098   5.060  0.2897 -0.2300  0.7152
 3730SOL     OW22825   2.713   3.237  12.033  0.1909 -0.1135  0.2155
 3730SOL    HW122826   2.745   3.279  11.953  0.2595 -0.4387  0.0689
 3730SOL    HW222827   2.786   3.201  12.083  1.4956  2.4956  0.1378
 3731SOL     OW22828   0.104   0.983   6.823  0.1783  0.1703 -0.0856
 3731SOL    HW122829   0.141   0.900   6.851  1.0749  0.1352 -1.3394
 3731SOL    HW222830   0.017   0.973   6.861 -0.5822  0.6847 -1.6685
 3732SOL     OW22831   0.506   4.219   6.177  0.2694  0.2051  0.0939
 3732SOL    HW122832   0.467   4.300   6.209  0.2159  1.1036 -2.2632
 3732SOL    HW222833   0.594   4.221   6.213  0.0213  2.2789  0.5764
 3733SOL     OW22834   3.493   0.746   4.816 -0.0087 -0.3743 -0.5714
 3733SOL    HW122835   3.567   0.747   4.876 -0.8306  0.4662  0.4380
 3733SOL    HW222836   3.421   0.715   4.871  2.0360  0.4624  2.6120
 3734SOL     OW22837   3.716   4.613  14.480  0.2350  0.2126 -0.1056
 3734SOL    HW122838   3.748   4.528  14.509  0.0561  0.7902  1.7781
 3734SOL    HW222839   3.708   4.611  14.385  0.6824 -0.9091 -0.1138
 3735SOL     OW22840   0.716   4.336   3.836 -0.3364  0.2312 -0.4714
 3735SOL    HW122841   0.736   4.417   3.790  1.4477 -0.2378 -0.5206
 3735SOL    HW222842   0.759   4.355   3.919  1.4577 -1.2204 -1.0614
 3736SOL     OW22843   0.881   4.264   8.566  0.6663  0.4896 -0.3500
 3736SOL    HW122844   0.933   4.342   8.549 -1.5045  1.0846 -4.2805
 3736SOL    HW222845   0.847   4.282   8.654 -0.8658  0.6403 -0.9721
 3737SOL     OW22846   0.142   0.443   6.880 -0.2217 -0.7173  0.1040
 3737SOL    HW122847   0.097   0.467   6.798  0.8812  1.1635  0.0468
 3737SOL    HW222848   0.093   0.362   6.895  0.0794 -0.8760  0.2342
 3738SOL     OW22849   0.448   0.936   2.106 -0.3724  0.1218 -0.0615
 3738SOL    HW122850   0.443   0.979   2.021 -0.4315  0.2907  0.0260
 3738SOL    HW222851   0.497   0.856   2.090  0.8328  0.1443  3.4959
 3739SOL     OW22852   0.491   1.341   9.150 -0.2080  0.2880 -0.1071
 3739SOL    HW122853   0.452   1.404   9.210 -1.8577 -0.3886 -0.4816
 3739SOL    HW222854   0.442   1.368   9.072  0.3033  0.7088 -0.2836
 3740SOL     OW22855   4.624   3.058   7.006 -0.5132  0.7139 -0.0960
 3740SOL    HW122856   4.644   3.042   7.099  1.0927  1.1321 -0.3600
 3740SOL    HW222857   4.698   3.009   6.969 -2.1121 -1.1355 -0.8731
 3741SOL     OW22858   0.357   2.744  16.539 -0.1370 -0.0168 -0.1699
 3741SOL    HW122859   0.447   2.726  16.565  0.2126  1.8024 -0.1269
 3741SOL    HW222860   0.341   2.819  16.596  3.0376  0.4570  0.1142
 3742SOL     OW22861   4.110   2.090   6.826 -0.2358  0.0966  0.0433
 3742SOL    HW122862   4.200   2.097   6.857 -0.1689 -0.3002 -0.0617
 3742SOL    HW222863   4.076   2.178   6.843  1.2704  0.7037 -0.0598
 3743SOL     OW22864   4.341   3.641   7.460  0.1998 -0.3883  0.0191
 3743SOL    HW122865   4.290   3.720   7.438 -0.4185 -0.4740  1.1599
 3743SOL    HW222866   4.341   3.643   7.556  1.8695  2.4948 -0.0211
 3744SOL     OW22867   0.685   2.264   2.692 -0.0481 -0.2389 -0.6350
 3744SOL    HW122868   0.726   2.184   2.726 -0.0093  0.4305  0.8711
 3744SOL    HW222869   0.593   2.249   2.712  0.1301  0.0842  0.4149
 3745SOL     OW22870   4.251   1.398   2.944  0.2862  0.2706 -0.0834
 3745SOL    HW122871   4.157   1.401   2.958  0.4800 -0.1051  1.2469
 3745SOL    HW222872   4.270   1.307   2.922  3.8368  1.2669 -1.1181
 3746SOL     OW22873   1.458   2.541   1.377  0.1037 -0.2655 -0.6665
 3746SOL    HW122874   1.390   2.488   1.419  2.1082  0.0669  3.0496
 3746SOL    HW222875   1.473   2.608   1.444 -0.4496 -1.0134  0.2161
 3747SOL     OW22876   1.200   4.000   6.111 -0.4540  0.1941  0.0281
 3747SOL    HW122877   1.253   4.079   6.117 -0.3947  0.3026 -2.0993
 3747SOL    HW222878   1.263   3.940   6.072  0.0243 -1.0592  2.7062
 3748SOL     OW22879   2.965   0.800   5.296 -0.2530  0.0455  0.4816
 3748SOL    HW122880   2.951   0.875   5.239 -2.3962 -0.5772  0.1813
 3748SOL    HW222881   3.008   0.846   5.368  2.1341 -0.6265 -0.4923
 3749SOL     OW22882   4.688   3.804   6.747 -0.1920 -0.4465  0.0402
 3749SOL    HW122883   0.012   3.819   6.820  0.7115 -0.6480 -0.6563
 3749SOL    HW222884   4.666   3.712   6.759  1.0008 -0.7812 -0.3927
 3750SOL     OW22885   0.740   1.205   3.137 -0.6313  0.2510  0.4322
 3750SOL    HW122886   0.707   1.256   3.064 -1.0848  0.1894  0.5970
 3750SOL    HW222887   0.810   1.262   3.169 -0.0306 -1.4900  2.2832
 3751SOL     OW22888   4.261   3.841   6.719 -0.3923 -0.2138 -0.2613
 3751SOL    HW122889   4.291   3.759   6.759 -2.2084 -0.4510  0.5859
 3751SOL    HW222890   4.340   3.895   6.714 -0.9064  0.4883 -0.8275
 3752SOL     OW22891   4.243   2.634  17.148 -0.1875  0.2931 -0.1906
 3752SOL    HW122892   4.210   2.565  17.090  1.2532  0.7623 -1.5799
 3752SOL    HW222893   4.332   2.600  17.156 -0.5782 -0.3901  1.4322
 3753SOL     OW22894   3.001   0.295   2.356  0.2438 -0.0299 -0.7354
 3753SOL    HW122895   2.995   0.258   2.444  0.3861  0.0900 -0.6764
 3753SOL    HW222896   3.076   0.354   2.358  0.6295 -0.5274 -0.7237
 3754SOL     OW22897   2.053   1.452  15.796 -0.1774 -0.2292 -0.0038
 3754SOL    HW122898   2.024   1.513  15.864  4.1926  2.1468 -0.2837
 3754SOL    HW222899   1.970   1.405  15.796 -0.1879 -0.1901  2.3103
 3755SOL     OW22900   4.189   1.952   9.739 -0.0251 -0.1855  0.0169
 3755SOL    HW122901   4.229   1.868   9.715 -1.0503 -0.9745  1.0299
 3755SOL    HW222902   4.226   2.012   9.674 -0.2013 -0.1321 -0.0347
 3756SOL     OW22903   3.401   1.195   6.321 -0.5005 -0.0881  0.3525
 3756SOL    HW122904   3.324   1.252   6.326 -1.2348 -1.2784  2.7824
 3756SOL    HW222905   3.371   1.121   6.268 -2.2110  0.4672  0.5277
 3757SOL     OW22906   4.079   2.986   3.677  0.2249  0.5265  0.1637
 3757SOL    HW122907   4.090   3.064   3.622 -2.0849  1.2437  0.6975
 3757SOL    HW222908   3.987   3.001   3.701  0.0901 -0.5679  0.3501
 3758SOL     OW22909   3.915   2.678  13.272  0.0342  0.4886 -0.6720
 3758SOL    HW122910   3.913   2.628  13.354  0.2967  0.0996 -0.9019
 3758SOL    HW222911   3.909   2.605  13.211 -0.8830  1.4236 -1.6778
 3759SOL     OW22912   3.180   2.163   8.566 -0.1004 -0.5494  0.2061
 3759SOL    HW122913   3.246   2.230   8.579  0.6936 -1.2223 -0.3602
 3759SOL    HW222914   3.219   2.080   8.538 -0.5324 -0.1196 -1.7288
 3760SOL     OW22915   2.194   1.753   0.051  0.3892  0.0042  0.2980
 3760SOL    HW122916   2.128   1.802   0.099  1.9368  2.9359 -0.5451
 3760SOL    HW222917   2.182   1.670   0.099 -1.2122  0.0607 -0.0107
 3761SOL     OW22918   2.422   2.651   3.070  0.0699 -0.0240 -0.2459
 3761SOL    HW122919   2.346   2.700   3.040 -1.4403 -1.4694  1.2288
 3761SOL    HW222920   2.439   2.587   3.001  0.2039  0.2077 -0.4258
 3762SOL     OW22921   0.169   2.906   6.938  0.4017  0.4049  0.4490
 3762SOL    HW122922   0.162   2.810   6.937  1.0730  0.3708 -0.7808
 3762SOL    HW222923   0.180   2.921   6.844 -0.1885  0.9830  0.4752
 3763SOL     OW22924   1.243   4.447   8.370 -0.3170 -0.6051  0.1712
 3763SOL    HW122925   1.250   4.543   8.362 -1.0904 -0.5420  0.2386
 3763SOL    HW222926   1.277   4.429   8.283 -1.2950 -1.0980 -0.1135
 3764SOL     OW22927   2.922   4.729   1.916  0.4169  0.0489  0.0451
 3764SOL    HW122928   2.919   0.020   2.008  0.2285  0.9320 -0.2085
 3764SOL    HW222929   2.899   0.072   1.865 -1.9983  0.1266  1.2152
 3765SOL     OW22930   3.583   1.508   0.270  0.6824  0.3950  0.1771
 3765SOL    HW122931   3.645   1.581   0.262 -0.0031  0.9036 -0.4404
 3765SOL    HW222932   3.630   1.452   0.332 -1.4770 -1.9812 -0.3276
 3766SOL     OW22933   2.994   0.244   3.543  0.2735 -0.1382 -0.2401
 3766SOL    HW122934   2.939   0.263   3.467  1.8785 -0.9205 -1.5768
 3766SOL    HW222935   2.959   0.158   3.567 -0.0305  0.0631  0.0525
 3767SOL     OW22936   1.819   1.475   3.136  0.0097  0.0919  0.0935
 3767SOL    HW122937   1.909   1.458   3.110  0.3311  0.2624  1.1324
 3767SOL    HW222938   1.830   1.509   3.224  3.1943  1.6278 -0.9033
 3768SOL     OW22939   3.176   0.027  17.350 -0.3974 -0.8138 -0.1221
 3768SOL    HW122940   3.184   0.074  17.433 -1.2948 -1.9345  0.5902
 3768SOL    HW222941   3.089   0.051  17.316 -0.8980 -0.4239  1.4162
 3769SOL     OW22942   2.886   3.239  15.869 -0.0594  0.7328  0.5665
 3769SOL    HW122943   2.795   3.214  15.884 -0.3932  1.5409 -0.1479
 3769SOL    HW222944   2.886   3.246  15.774  1.2509  0.8089  0.5747
 3770SOL     OW22945   1.656   2.495   3.497 -0.7649 -0.1689 -0.3942
 3770SOL    HW122946   1.614   2.456   3.420  1.0183 -2.6139 -0.1312
 3770SOL    HW222947   1.614   2.448   3.569  1.9977 -2.2957 -0.2078
 3771SOL     OW22948   3.375   4.580  17.288 -0.3408  0.0813  0.1210
 3771SOL    HW122949   3.301   4.634  17.315 -0.8560 -1.4328  1.7086
 3771SOL    HW222950   3.428   4.589  17.367 -2.1879 -1.4975  1.5114
 3772SOL     OW22951   1.316   2.963   4.441  0.1449  0.7309  0.6628
 3772SOL    HW122952   1.318   2.902   4.367 -1.0204  2.7490 -1.0159
 3772SOL    HW222953   1.402   3.004   4.433  1.0317 -1.1927  0.3354
 3773SOL     OW22954   4.590   4.669   2.337  0.5620  0.5359 -0.1600
 3773SOL    HW122955   4.650   4.604   2.372 -0.8973 -0.6550  0.1323
 3773SOL    HW222956   4.510   4.618   2.351  1.0147  0.0300  0.5590
 3774SOL     OW22957   2.605   2.691   3.544 -0.3786 -0.0299 -0.0594
 3774SOL    HW122958   2.596   2.664   3.452  0.9949 -0.6147 -0.0175
 3774SOL    HW222959   2.598   2.608   3.590  0.4484 -1.0341 -1.7285
 3775SOL     OW22960   2.210   4.295   4.676  0.5677 -0.2632  0.0095
 3775SOL    HW122961   2.302   4.298   4.650  0.5890  1.7211  0.3836
 3775SOL    HW222962   2.189   4.388   4.670  0.5617 -0.3911 -1.9155
 3776SOL     OW22963   1.287   4.471   6.633  0.3813 -0.5635 -0.1139
 3776SOL    HW122964   1.206   4.432   6.600 -1.0192  3.2266 -1.0726
 3776SOL    HW222965   1.258   4.560   6.652 -0.7665 -0.5883 -1.7344
 3777SOL     OW22966   3.406   4.052   7.919  0.4106 -0.2667 -0.0619
 3777SOL    HW122967   3.500   4.069   7.908 -0.0587  2.2549 -0.2155
 3777SOL    HW222968   3.375   4.105   7.846 -1.1102  0.8308  1.3725
 3778SOL     OW22969   4.604   4.402   6.108 -0.7715  0.2682  0.6233
 3778SOL    HW122970   4.651   4.378   6.188 -0.1694 -0.2316  0.1150
 3778SOL    HW222971   4.511   4.391   6.131 -0.6755  0.0502  0.9115
 3779SOL     OW22972   1.003   3.875   3.177 -0.0944  0.0073 -0.0776
 3779SOL    HW122973   1.097   3.857   3.175 -0.0847 -0.6324  5.5902
 3779SOL    HW222974   0.974   3.890   3.087  0.7824 -1.5840 -0.6247
 3780SOL     OW22975   4.265   3.362  13.338 -0.1944 -0.3977  0.2187
 3780SOL    HW122976   4.219   3.412  13.406 -2.2835 -1.5614 -0.3289
 3780SOL    HW222977   4.236   3.406  13.258  0.2678 -1.2612 -0.4220
 3781SOL     OW22978   3.663   3.351   4.238  0.0362 -0.0937 -0.0532
 3781SOL    HW122979   3.751   3.344   4.201  0.5446  1.3503  0.9032
 3781SOL    HW222980   3.622   3.372   4.154 -1.7892 -0.0542  0.8618
 3782SOL     OW22981   4.625   1.055   2.447 -0.8234 -0.0183  0.3931
 3782SOL    HW122982   4.614   1.149   2.443 -2.8405 -0.2552  0.4001
 3782SOL    HW222983   4.720   1.055   2.458 -0.9304 -0.3282  1.3593
 3783SOL     OW22984   1.679   2.991   6.448  0.2146  0.2889  0.6760
 3783SOL    HW122985   1.771   3.017   6.444  0.7282 -1.8463 -1.7857
 3783SOL    HW222986   1.640   3.059   6.502  0.8538  1.3711 -0.2202
 3784SOL     OW22987   3.164   1.833   2.638 -0.2938  0.0327  0.0133
 3784SOL    HW122988   3.174   1.910   2.694  1.6373 -0.1522 -0.0734
 3784SOL    HW222989   3.083   1.854   2.593 -0.7708  2.5144  2.0624
 3785SOL     OW22990   0.392   4.271  16.639  0.5976 -0.5106 -0.0366
 3785SOL    HW122991   0.478   4.265  16.599 -0.6985 -0.9383 -2.7254
 3785SOL    HW222992   0.391   4.361  16.671  1.4348 -1.1974  1.9322
 3786SOL     OW22993   2.873   0.520   0.436  0.6720  0.2322 -0.5823
 3786SOL    HW122994   2.785   0.485   0.453  0.7509 -0.3689 -1.3593
 3786SOL    HW222995   2.874   0.476   0.351 -0.8850  0.2291 -0.6026
 3787SOL     OW22996   1.288   1.184   1.685  0.0135 -0.2408  0.5024
 3787SOL    HW122997   1.368   1.136   1.662  0.2367 -0.4557  1.7220
 3787SOL    HW222998   1.317   1.269   1.653 -2.4987 -0.1896 -1.6411
 3788SOL     OW22999   2.652   3.034  14.261  0.3735  0.0035  0.0724
 3788SOL    HW123000   2.622   3.107  14.316  0.8954  0.1799  0.1240
 3788SOL    HW223001   2.607   2.961  14.303 -1.8572  2.4965  2.0723
 3789SOL     OW23002   0.971   0.556   9.479  0.5806 -0.1646  0.2403
 3789SOL    HW123003   1.054   0.544   9.525  0.0749 -1.9306  0.6584
 3789SOL    HW223004   1.004   0.622   9.417  1.0040 -3.6885 -3.2927
 3790SOL     OW23005   2.375   0.423  13.635  0.0281 -0.0072 -0.2034
 3790SOL    HW123006   2.367   0.512  13.671 -2.6470 -0.0220 -0.7957
 3790SOL    HW223007   2.302   0.376  13.675  0.1947  0.1487  0.2848
 3791SOL     OW23008   0.595   4.690   6.476 -1.0416  0.0443 -0.1518
 3791SOL    HW123009   0.520   4.650   6.520  0.9343 -0.5141  2.7067
 3791SOL    HW223010   0.620   4.621   6.414 -2.1188 -0.4150 -0.0709
 3792SOL     OW23011   2.989   2.681  15.003 -0.6251 -0.0390 -0.1199
 3792SOL    HW123012   3.000   2.662  14.910 -2.5010 -1.8562  0.0179
 3792SOL    HW223013   3.073   2.658  15.042 -0.5415 -0.9240 -0.8273
 3793SOL     OW23014   2.112   0.036  10.248 -0.4402  0.0589  0.2454
 3793SOL    HW123015   2.043   0.102  10.239 -0.6942 -0.4416 -1.3432
 3793SOL    HW223016   2.073   4.700  10.199  0.0094 -1.8505  2.6491
 3794SOL     OW23017   1.253   2.758   8.570 -0.3026  0.0496  0.1799
 3794SOL    HW123018   1.175   2.716   8.608 -0.8006  0.3705 -0.4764
 3794SOL    HW223019   1.223   2.842   8.533 -0.0927 -0.8332 -2.0044
 3795SOL     OW23020   2.980   2.349   2.850  0.0162 -0.3569  0.6551
 3795SOL    HW123021   2.918   2.316   2.785 -0.0224 -1.6133  1.3209
 3795SOL    HW223022   3.041   2.408   2.805  0.5248 -1.6415 -0.3329
 3796SOL     OW23023   2.386   1.970  12.071  0.7701 -0.7418 -0.5690
 3796SOL    HW123024   2.373   1.904  12.139 -2.2682  0.9448  0.4799
 3796SOL    HW223025   2.454   2.026  12.108  0.4793 -1.7903  1.5580
 3797SOL     OW23026   4.386   3.656   7.738 -0.3293 -0.4430  0.5233
 3797SOL    HW123027   4.474   3.622   7.754  0.3057  0.6829 -0.5933
 3797SOL    HW223028   4.337   3.608   7.805 -1.3160 -0.6132 -0.3169
 3798SOL     OW23029   3.655   4.178   7.905  0.2334  0.1588 -0.2193
 3798SOL    HW123030   3.654   4.174   7.809 -1.1632  0.3889 -0.2150
 3798SOL    HW223031   3.596   4.253   7.914  1.3338  1.0102 -0.1476
 3799SOL     OW23032   0.216   0.994   3.846  0.0068  0.1647  0.1130
 3799SOL    HW123033   0.188   0.909   3.880  0.1326  0.6339  1.4231
 3799SOL    HW223034   0.221   0.991   3.751  1.5646  0.4536  0.1846
 3800SOL     OW23035   0.155   0.767   7.840  0.3611 -0.2771 -0.1905
 3800SOL    HW123036   0.155   0.704   7.767  1.5412 -0.2095 -0.2421
 3800SOL    HW223037   0.115   0.840   7.793 -0.6626 -0.8951 -0.3068
 3801SOL     OW23038   1.979   1.806  16.485  0.5160 -0.4781  0.1426
 3801SOL    HW123039   1.921   1.795  16.560  0.5939  1.3749  0.4568
 3801SOL    HW223040   2.006   1.897  16.493 -0.6781  0.0423 -1.6562
 3802SOL     OW23041   1.630   4.647   8.409 -0.0387  0.2018  0.6656
 3802SOL    HW123042   1.577   4.581   8.454  0.0997 -0.8545 -0.7168
 3802SOL    HW223043   1.715   4.626   8.447  1.2289 -0.9829 -2.8080
 3803SOL     OW23044   0.929   0.639   5.057  0.1666  0.5899  0.3213
 3803SOL    HW123045   0.877   0.559   5.062 -0.2859  0.7760 -1.7718
 3803SOL    HW223046   1.005   0.594   5.096 -0.1984  2.0816  2.7312
 3804SOL     OW23047   3.918   3.624   3.523  0.0910 -0.2560 -0.2069
 3804SOL    HW123048   3.960   3.639   3.608 -0.3024  2.4121 -0.4801
 3804SOL    HW223049   3.841   3.680   3.532  1.0801  0.9819  0.4471
 3805SOL     OW23050   1.456   1.001  13.343 -0.2177 -0.0807 -0.1084
 3805SOL    HW123051   1.409   1.026  13.423 -1.5395 -1.8417 -0.3489
 3805SOL    HW223052   1.396   1.034  13.276 -0.5573  1.3594  0.9016
 3806SOL     OW23053   2.259   1.210   6.065 -0.1539 -0.0147 -0.3468
 3806SOL    HW123054   2.308   1.247   5.992 -1.5869  3.0721  0.2499
 3806SOL    HW223055   2.282   1.269   6.136 -0.7885  0.1401 -0.2677
 3807SOL     OW23056   0.186   4.397   4.229 -0.6911  0.2726 -0.1943
 3807SOL    HW123057   0.104   4.351   4.249  0.1644 -1.0700  0.2394
 3807SOL    HW223058   0.160   4.446   4.151  0.0851 -2.5739 -2.2465
 3808SOL     OW23059   1.593   2.623   7.460 -0.1213  0.1885  0.0802
 3808SOL    HW123060   1.568   2.622   7.368 -0.7301 -0.4084  0.2512
 3808SOL    HW223061   1.517   2.668   7.497  0.4690  0.3469  1.1099
 3809SOL     OW23062   0.795   2.226  10.062  0.2445  0.0231  0.2687
 3809SOL    HW123063   0.720   2.234  10.121 -0.3389 -0.0137 -0.4620
 3809SOL    HW223064   0.759   2.264   9.982  3.0601 -1.3487 -1.6826
 3810SOL     OW23065   3.030   1.640  15.046  0.3929  0.0782  0.3553
 3810SOL    HW123066   3.073   1.631  14.961 -0.4349  0.9227 -0.1566
 3810SOL    HW223067   3.103   1.669  15.101  0.4311 -1.1028  0.9154
 3811SOL     OW23068   1.892   1.204  10.555 -0.0180  0.4985  0.0548
 3811SOL    HW123069   1.864   1.295  10.563  1.5016  1.1131 -1.6704
 3811SOL    HW223070   1.980   1.224  10.523 -0.3274 -1.4411 -1.9734
 3812SOL     OW23071   2.040   3.744  14.256 -0.5207  0.4791  0.7898
 3812SOL    HW123072   2.121   3.762  14.303  0.4680 -0.6936 -0.4897
 3812SOL    HW223073   1.977   3.746  14.329 -1.1187  1.8497  0.2316
 3813SOL     OW23074   0.902   1.740   7.103  0.0626 -0.7203 -0.0622
 3813SOL    HW123075   0.879   1.654   7.138  1.6795 -1.2410 -0.2716
 3813SOL    HW223076   0.819   1.787   7.112 -0.6905 -1.8762 -1.1250
 3814SOL     OW23077   0.150   2.922   7.680  0.0698  0.2458 -0.3840
 3814SOL    HW123078   0.055   2.915   7.689  0.2119  0.1083  0.9781
 3814SOL    HW223079   0.170   2.935   7.587  1.9598  0.3052  0.0341
 3815SOL     OW23080   3.271   0.394   2.570 -0.4421 -0.6131  0.3546
 3815SOL    HW123081   3.237   0.472   2.614 -2.4985 -1.0806 -0.4147
 3815SOL    HW223082   3.359   0.421   2.544 -1.2829  0.7936 -1.0274
 3816SOL     OW23083   0.346   3.711   2.019  0.6973 -0.2033 -0.0185
 3816SOL    HW123084   0.360   3.629   2.068  1.2137 -0.5007 -0.6763
 3816SOL    HW223085   0.293   3.762   2.080 -1.2097  0.8694 -2.5869
 3817SOL     OW23086   1.261   1.131   8.372  0.4546  0.1119  0.2119
 3817SOL    HW123087   1.167   1.117   8.372  0.5114 -0.2733  1.2492
 3817SOL    HW223088   1.269   1.191   8.446  0.9633  0.1286  0.1472
 3818SOL     OW23089   1.406   0.753   5.628  0.3862  0.5073 -0.3206
 3818SOL    HW123090   1.423   0.734   5.720 -2.7743 -2.5916 -0.3604
 3818SOL    HW223091   1.388   0.847   5.625 -0.2478  0.3858 -0.3029
 3819SOL     OW23092   2.613   3.922   1.536  0.0659  0.0604  0.0060
 3819SOL    HW123093   2.526   3.883   1.548 -0.8986  2.5047  0.8199
 3819SOL    HW223094   2.674   3.859   1.573 -1.3390 -0.8914  0.7228
 3820SOL     OW23095   1.313   0.704   3.888  0.4800 -0.0782 -0.8808
 3820SOL    HW123096   1.284   0.634   3.831  1.8607 -1.3562 -0.0120
 3820SOL    HW223097   1.242   0.768   3.893  1.6930  1.0410  2.0758
 3821SOL     OW23098   0.332   2.011   1.126 -0.2017 -0.5763 -0.3305
 3821SOL    HW123099   0.402   1.950   1.102  0.4408 -0.2291  0.6421
 3821SOL    HW223100   0.273   1.959   1.182 -1.2950  1.5465  0.4923
 3822SOL     OW23101   1.337   3.974   8.515 -0.0604  0.5684 -0.9125
 3822SOL    HW123102   1.295   3.927   8.587 -3.6800  1.3246 -2.5104
 3822SOL    HW223103   1.380   3.899   8.474  0.8335  0.1546  0.8022
 3823SOL     OW23104   0.600   1.246   7.506 -0.1448 -0.2661  0.1057
 3823SOL    HW123105   0.550   1.166   7.526 -1.7954  0.8307  0.3739
 3823SOL    HW223106   0.686   1.212   7.483  0.6125 -0.5671  3.3918
 3824SOL     OW23107   0.679   2.073   7.404 -0.0473  0.0747  0.8900
 3824SOL    HW123108   0.609   2.037   7.350 -0.2928  1.5562  0.2103
 3824SOL    HW223109   0.712   2.004   7.462 -2.6120 -1.9117 -0.0405
 3825SOL     OW23110   3.480   2.680   3.315  0.3082 -0.0102  0.3722
 3825SOL    HW123111   3.418   2.624   3.268 -1.3142  1.0531  1.2313
 3825SOL    HW223112   3.488   2.753   3.254 -1.0572  0.6480  0.9597
 3826SOL     OW23113   0.317   0.047   8.878  0.2889  0.2185 -0.2023
 3826SOL    HW123114   0.283   0.135   8.860  0.5803  0.0132 -1.7416
 3826SOL    HW223115   0.294   0.031   8.970  1.5891 -0.2630  0.0414
 3827SOL     OW23116   4.372   4.728   8.194  0.1113  0.1026 -0.2243
 3827SOL    HW123117   4.293   0.045   8.211 -0.1970 -1.1905  2.2658
 3827SOL    HW223118   4.332   4.673   8.127 -0.0575 -0.3813  0.2782
 3828SOL     OW23119   0.554   0.877   3.885 -0.0533  0.4142  0.6810
 3828SOL    HW123120   0.627   0.822   3.858 -0.6119 -0.2695  0.5419
 3828SOL    HW223121   0.528   0.838   3.969  0.8946 -0.6504  0.4834
 3829SOL     OW23122   2.669   1.993   7.099  0.1249  0.1092  0.7580
 3829SOL    HW123123   2.680   1.899   7.081 -1.4953 -0.0919  0.8035
 3829SOL    HW223124   2.748   2.033   7.135  0.0585  0.0121  1.0110
 3830SOL     OW23125   4.509   3.967   6.648 -0.0576 -0.6350  0.3341
 3830SOL    HW123126   4.511   4.047   6.702 -2.7163 -0.3668  0.0112
 3830SOL    HW223127   4.592   3.930   6.678  0.7506  1.2582  0.4504
 3831SOL     OW23128   4.322   3.660   6.488  0.3090  0.0371 -0.0434
 3831SOL    HW123129   4.406   3.689   6.454 -0.8962 -0.3100 -3.3225
 3831SOL    HW223130   4.276   3.744   6.491 -0.5859 -0.5019  1.3917
 3832SOL     OW23131   2.809   1.578  11.288 -0.2711  0.3179  0.1565
 3832SOL    HW123132   2.717   1.578  11.263  0.0331 -0.5730 -0.9699
 3832SOL    HW223133   2.809   1.575  11.384 -0.6930 -1.1693  0.1048
 3833SOL     OW23134   1.599   0.166   6.909 -0.4795  0.7427  0.0166
 3833SOL    HW123135   1.603   0.218   6.989  2.4628 -0.0377  0.3675
 3833SOL    HW223136   1.686   0.170   6.870  1.1172  0.7128  3.5826
 3834SOL     OW23137   0.991   1.603   5.506  0.3923  0.3949  0.1543
 3834SOL    HW123138   0.965   1.586   5.415  0.0246  0.1389  0.3074
 3834SOL    HW223139   1.086   1.594   5.497 -0.0595 -2.7776 -1.5254
 3835SOL     OW23140   3.658   0.233   3.751 -0.3757  0.3318  0.5324
 3835SOL    HW123141   3.614   0.163   3.702  0.1914  1.3518 -1.4312
 3835SOL    HW223142   3.580   0.266   3.796 -0.5508  1.3520 -0.5294
 3836SOL     OW23143   4.471   1.692  15.472 -0.0125 -0.0384  0.1504
 3836SOL    HW123144   4.413   1.644  15.412 -0.3707 -0.7586  1.0722
 3836SOL    HW223145   4.556   1.651  15.456 -0.7500 -0.9218 -1.5095
 3837SOL     OW23146   3.055   3.368   5.332 -0.0229  0.2946  0.1988
 3837SOL    HW123147   3.062   3.448   5.383  1.5380  0.0432  0.3789
 3837SOL    HW223148   2.964   3.369   5.302  0.3540 -1.4055 -1.0606
 3838SOL     OW23149   2.666   3.336   3.701 -0.4023 -0.5879  0.2298
 3838SOL    HW123150   2.733   3.271   3.680  0.7009  0.5200  0.3124
 3838SOL    HW223151   2.658   3.312   3.794  0.5359 -0.3012  0.3796
 3839SOL     OW23152   0.714   1.535  10.089 -0.0212  1.0017  0.5322
 3839SOL    HW123153   0.782   1.593  10.125 -0.7366  0.6676  2.4221
 3839SOL    HW223154   0.707   1.477  10.165 -0.7183 -0.5869 -0.7522
 3840SOL     OW23155   3.006   1.541   2.924  0.2286 -0.4671  0.1808
 3840SOL    HW123156   2.997   1.491   2.843 -0.6013  0.0273 -0.0313
 3840SOL    HW223157   2.949   1.492   2.983  0.5377 -0.9744  0.0557
 3841SOL     OW23158   2.216   2.009  17.137 -0.2215 -0.3050  0.1327
 3841SOL    HW123159   2.139   2.052  17.174  0.1884 -1.9903  2.9609
 3841SOL    HW223160   2.278   2.053  17.197  1.4575 -1.8997 -0.4361
 3842SOL     OW23161   2.574   1.210  13.970 -0.2218  0.3048 -0.0250
 3842SOL    HW123162   2.486   1.246  13.955 -0.7376 -1.6130 -1.6515
 3842SOL    HW223163   2.634   1.281  13.948  0.9631 -0.5824  0.3099
 3843SOL     OW23164   1.074   1.165  12.769  0.6652  0.3892 -0.1428
 3843SOL    HW123165   1.158   1.158  12.813  0.6482  0.7258 -0.0604
 3843SOL    HW223166   1.046   1.073  12.763  2.5050 -0.1084 -1.2529
 3844SOL     OW23167   4.615   4.237  10.036 -0.5886  0.2489  0.1399
 3844SOL    HW123168   4.587   4.150  10.010  0.2868 -0.3948  1.3760
 3844SOL    HW223169   4.596   4.285   9.955  0.6368 -0.8587 -0.7906
 3845SOL     OW23170   1.264   2.891   0.682 -0.2803  0.1969  0.1511
 3845SOL    HW123171   1.253   2.821   0.746  0.3374  0.8438  0.9668
 3845SOL    HW223172   1.262   2.836   0.603 -2.3697  1.4705 -0.6607
 3846SOL     OW23173   4.651   3.951   1.913  0.0277 -0.1437 -0.4539
 3846SOL    HW123174   4.633   3.967   1.820 -1.2652 -0.5885 -0.2841
 3846SOL    HW223175   4.707   4.025   1.935 -0.9104  0.0166  1.3882
 3847SOL     OW23176   3.548   0.208  17.526 -0.0099 -0.0276  0.8681
 3847SOL    HW123177   3.507   0.126  17.499 -0.3686  0.2312  0.6257
 3847SOL    HW223178   3.631   0.182  17.567 -0.4749 -0.9029  1.2449
 3848SOL     OW23179   4.042   0.814   3.456 -0.2235  0.3709  0.2325
 3848SOL    HW123180   4.116   0.858   3.415 -0.7097 -0.1197 -1.1590
 3848SOL    HW223181   3.977   0.882   3.474 -3.0462 -2.0829 -0.7154
 3849SOL     OW23182   3.614   3.737   7.286 -0.5344  0.0897 -0.0294
 3849SOL    HW123183   3.709   3.732   7.293 -0.5220 -1.3078 -1.1979
 3849SOL    HW223184   3.594   3.708   7.197 -1.0701 -0.1286  0.1566
 3850SOL     OW23185   0.019   4.645   1.989  0.2749 -0.4292 -0.1880
 3850SOL    HW123186   4.674   4.687   2.020 -0.3077 -2.3931  0.9419
 3850SOL    HW223187   0.068   4.712   1.941 -1.3649  1.4704  0.7948
 3851SOL     OW23188   3.554   2.499  17.353  0.3637  0.1342  0.1453
 3851SOL    HW123189   3.505   2.450  17.287  1.8611  1.8098 -2.2042
 3851SOL    HW223190   3.647   2.490  17.332  0.9617  2.4621  1.7929
 3852SOL     OW23191   0.719   1.715  12.640  0.4261  0.1028 -0.3700
 3852SOL    HW123192   0.691   1.637  12.689 -0.9932 -0.5153 -2.1617
 3852SOL    HW223193   0.771   1.672  12.573  0.0350 -0.3639 -0.3785
 3853SOL     OW23194   4.407   4.730   5.054 -0.3698  0.0435 -0.0665
 3853SOL    HW123195   4.487   4.724   5.002  0.3604  1.3344  0.9385
 3853SOL    HW223196   4.375   4.644   5.025  0.1288  0.2077 -1.1069
 3854SOL     OW23197   1.768   1.755   3.653 -0.4936  0.7149 -0.1728
 3854SOL    HW123198   1.818   1.820   3.604 -0.4604  1.2426  0.5687
 3854SOL    HW223199   1.793   1.772   3.744  0.1430 -1.0354 -0.0188
 3855SOL     OW23200   4.090   3.720   7.691 -0.4080 -0.0970  0.1817
 3855SOL    HW123201   4.024   3.704   7.623 -0.0133  1.0411 -0.4681
 3855SOL    HW223202   4.148   3.644   7.698 -2.6496 -1.7634  0.5831
 3856SOL     OW23203   0.041   2.868   1.361 -0.0810  0.1843 -0.0035
 3856SOL    HW123204   0.018   2.840   1.450  0.0143  0.9474  0.2579
 3856SOL    HW223205   0.131   2.894   1.381  0.2108 -0.5232 -0.4229
 3857SOL     OW23206   1.163   4.415   2.732  0.2763 -0.3148  0.0041
 3857SOL    HW123207   1.193   4.355   2.664  0.3637  1.4812 -1.5569
 3857SOL    HW223208   1.139   4.361   2.807 -0.2507 -2.0399 -1.4299
 3858SOL     OW23209   0.556   0.722   0.925 -0.0746  0.1785 -0.2400
 3858SOL    HW123210   0.606   0.800   0.899  0.1385  0.9330  2.4237
 3858SOL    HW223211   0.472   0.755   0.959 -0.1152 -0.7307  0.5438
 3859SOL     OW23212   1.120   0.744   3.682 -0.1140  0.4985  0.1694
 3859SOL    HW123213   1.059   0.817   3.673  1.4250  1.7436 -0.3200
 3859SOL    HW223214   1.177   0.767   3.608 -1.3104  0.2355 -0.8463
 3860SOL     OW23215   3.109   2.724   0.523  0.5968 -0.0076 -0.1615
 3860SOL    HW123216   3.129   2.795   0.584  1.8041 -0.2263 -0.2996
 3860SOL    HW223217   3.140   2.645   0.568 -3.2109 -1.1076  0.5271
 3861SOL     OW23218   3.701   0.308   7.841  0.4203 -0.0460  0.1858
 3861SOL    HW123219   3.776   0.312   7.782  0.6651 -2.4812  0.3328
 3861SOL    HW223220   3.682   0.214   7.840 -0.4111  0.1366 -0.7120
 3862SOL     OW23221   3.981   0.765   1.781  0.2833 -0.5264  0.1607
 3862SOL    HW123222   3.953   0.844   1.828 -0.1009  0.8953 -2.4449
 3862SOL    HW223223   3.970   0.791   1.689  3.5885 -0.3253 -0.1783
 3863SOL     OW23224   3.460   0.788   0.878 -0.1907 -0.1325 -0.1941
 3863SOL    HW123225   3.552   0.810   0.891 -0.9850  2.4367  1.1225
 3863SOL    HW223226   3.431   0.864   0.827 -1.1284  0.4109  1.1371
 3864SOL     OW23227   1.576   0.901   9.336  0.5880 -0.5838  0.3139
 3864SOL    HW123228   1.628   0.908   9.256  2.1575  0.0871  1.3812
 3864SOL    HW223229   1.500   0.953   9.308  1.1922 -0.5216 -1.1814
 3865SOL     OW23230   3.624   2.944  11.009 -0.0725 -0.0794  0.6459
 3865SOL    HW123231   3.698   3.000  10.985 -0.2839  0.0442  0.2908
 3865SOL    HW223232   3.542   2.993  11.016  0.4268  0.6383  1.4085
 3866SOL     OW23233   3.506   2.770  15.242  0.2066  0.1495  0.2199
 3866SOL    HW123234   3.551   2.778  15.157  0.0175  3.2516  0.4007
 3866SOL    HW223235   3.555   2.838  15.287  0.0567  0.7581 -0.5283
 3867SOL     OW23236   0.556   2.568  16.705  0.4129  0.4017 -0.0803
 3867SOL    HW123237   0.514   2.589  16.788  3.9770  0.3098  1.7385
 3867SOL    HW223238   0.644   2.593  16.734  1.1328  0.4461 -2.2902
 3868SOL     OW23239   1.728   0.165   5.944 -0.1384 -0.6883 -0.2189
 3868SOL    HW123240   1.659   0.229   5.928  1.8101  0.7634 -2.9058
 3868SOL    HW223241   1.767   0.160   5.857 -1.0485 -0.3757 -0.6456
 3869SOL     OW23242   2.142   4.443   1.183 -0.5891 -0.6510 -0.0886
 3869SOL    HW123243   2.048   4.437   1.201 -0.8574  2.0485 -0.5341
 3869SOL    HW223244   2.164   4.350   1.179  0.9179 -0.5317  5.2019
 3870SOL     OW23245   4.070   4.086  14.715  0.1015 -0.5617  0.1157
 3870SOL    HW123246   4.067   3.992  14.699  0.2084 -0.5091 -0.2193
 3870SOL    HW223247   4.137   4.107  14.649 -0.5207 -0.4160 -0.4649
 3871SOL     OW23248   2.003   4.679   8.810 -0.4409 -0.1391 -0.0046
 3871SOL    HW123249   1.957   4.728   8.878  0.2632  1.9859 -1.0612
 3871SOL    HW223250   2.038   4.610   8.867 -1.2433  0.6228  1.4204
 3872SOL     OW23251   4.117   0.083   1.843  0.2538 -0.0899 -0.0937
 3872SOL    HW123252   4.085   0.138   1.772 -3.1703  0.8767  2.1999
 3872SOL    HW223253   4.209   0.103   1.860  0.0137  1.6738 -0.8429
 3873SOL     OW23254   0.019   1.322   3.846  1.0930 -0.0205  0.1293
 3873SOL    HW123255   0.006   1.248   3.787 -0.2652  0.0774  0.3118
 3873SOL    HW223256   0.038   1.383   3.775  0.5561  0.1127  0.1023
 3874SOL     OW23257   2.350   3.694   6.601 -0.1160  0.0766 -0.0103
 3874SOL    HW123258   2.362   3.689   6.696 -0.0405 -2.0482 -0.1339
 3874SOL    HW223259   2.308   3.777   6.582 -0.3599  0.1411  0.8152
 3875SOL     OW23260   1.028   2.787   9.903 -0.4740 -0.0489 -0.4978
 3875SOL    HW123261   1.026   2.862   9.844 -1.4173  1.0348  0.9290
 3875SOL    HW223262   0.949   2.810   9.951  0.0012  1.9951 -0.7006
 3876SOL     OW23263   0.748   1.247   7.800 -0.1141  0.1162  0.4548
 3876SOL    HW123264   0.745   1.165   7.849 -1.3427 -1.3586 -2.1243
 3876SOL    HW223265   0.813   1.229   7.732  0.3596 -1.8172  1.4371
 3877SOL     OW23266   0.919   0.527   7.509 -0.2938  0.1714  0.5701
 3877SOL    HW123267   0.903   0.434   7.527  0.7723 -0.1477 -0.1158
 3877SOL    HW223268   0.983   0.514   7.439 -1.5429 -0.7409 -0.3811
 3878SOL     OW23269   4.534   0.468   6.771  0.5568 -0.0555  0.0498
 3878SOL    HW123270   4.594   0.541   6.756  1.1890 -0.6589 -0.3487
 3878SOL    HW223271   4.582   0.421   6.839  0.7091 -1.2057 -0.8473
 3879SOL     OW23272   0.935   3.795  12.418 -0.1368 -0.1244 -0.2911
 3879SOL    HW123273   0.863   3.772  12.360 -2.1952  2.7467  1.1056
 3879SOL    HW223274   0.989   3.860  12.372  2.5277 -0.7081  2.0052
 3880SOL     OW23275   1.309   4.448   8.620 -0.3299 -0.2710  0.8303
 3880SOL    HW123276   1.253   4.461   8.543  2.6603 -2.3654 -1.6791
 3880SOL    HW223277   1.399   4.451   8.588 -1.3085 -1.0297 -2.0219
 3881SOL     OW23278   1.972   4.213   3.598 -0.2138 -0.1870 -0.4129
 3881SOL    HW123279   1.927   4.263   3.529  0.7711 -0.2711 -1.1244
 3881SOL    HW223280   1.957   4.123   3.569  0.3185 -0.6138  0.6483
 3882SOL     OW23281   3.429   0.584  16.417 -0.6497  0.2964 -0.0235
 3882SOL    HW123282   3.393   0.670  16.437 -0.9491  0.0714  0.3965
 3882SOL    HW223283   3.399   0.574  16.327 -1.2695  1.9100  0.0181
 3883SOL     OW23284   2.682   3.108  16.449 -0.0419 -0.1527 -0.4761
 3883SOL    HW123285   2.738   3.157  16.510  0.3813 -1.6502  0.3360
 3883SOL    HW223286   2.622   3.060  16.507  0.5000  1.4227  1.4076
 3884SOL     OW23287   3.313   4.000   7.011  0.3453 -0.6591  0.4021
 3884SOL    HW123288   3.292   3.951   7.091  1.1434 -2.4401 -0.4943
 3884SOL    HW223289   3.225   4.028   6.985  1.4485  0.5890 -1.9659
 3885SOL     OW23290   0.591   3.756   1.908  0.4435  0.2563 -0.1842
 3885SOL    HW123291   0.509   3.759   1.956  0.2686 -0.8245 -0.4079
 3885SOL    HW223292   0.584   3.833   1.853 -2.4472  0.3545  0.3304
 3886SOL     OW23293   3.791   0.118  17.362  0.1982 -0.1805  0.1307
 3886SOL    HW123294   3.718   0.085  17.308  0.0885 -1.9353  1.3322
 3886SOL    HW223295   3.776   0.082  17.450  0.0813  0.2254  0.2766
 3887SOL     OW23296   0.955   0.413   8.045 -0.0871  0.0318 -0.4418
 3887SOL    HW123297   0.926   0.460   8.124 -1.4612 -0.9392 -0.3614
 3887SOL    HW223298   1.039   0.375   8.072  0.3104  1.0535 -0.2597
 3888SOL     OW23299   3.373   1.422   5.090  0.0992  0.2100  0.0377
 3888SOL    HW123300   3.386   1.328   5.096 -1.7017  0.1808  3.1998
 3888SOL    HW223301   3.369   1.448   5.182 -2.3258 -1.1535  0.3201
 3889SOL     OW23302   2.727   4.585   2.853  0.4447 -0.1746  0.5792
 3889SOL    HW123303   2.724   4.499   2.896 -2.5471 -1.6512 -2.6535
 3889SOL    HW223304   2.791   4.638   2.901  0.3853  0.3544  0.0560
 3890SOL     OW23305   1.198   0.837   0.375  0.3367  0.3202  0.1343
 3890SOL    HW123306   1.217   0.757   0.326  2.8216 -0.0795  1.8011
 3890SOL    HW223307   1.122   0.864   0.323  0.8003  1.5483  0.0820
 3891SOL     OW23308   2.790   0.022   4.215  1.0048 -0.3656  0.2517
 3891SOL    HW123309   2.877   0.063   4.210  1.2755 -1.0509 -0.7017
 3891SOL    HW223310   2.817   4.685   4.159 -2.1771 -2.3301  1.2936
 3892SOL     OW23311   2.892   1.498   0.632 -0.8584 -0.2208 -0.0771
 3892SOL    HW123312   2.819   1.560   0.625  0.6696  1.7362  1.3559
 3892SOL    HW223313   2.964   1.559   0.616 -2.6346  1.6025 -1.0985
 3893SOL     OW23314   4.676   0.017   8.444  0.6405  0.5939  0.2959
 3893SOL    HW123315   4.658   0.067   8.524  0.1472  0.5180  0.2273
 3893SOL    HW223316   4.691   4.664   8.480 -1.4318  0.4799  0.8801
 3894SOL     OW23317   2.818   4.624   5.358  0.6776 -0.0078 -0.3507
 3894SOL    HW123318   2.911   4.619   5.333  0.3248 -0.1221 -1.6463
 3894SOL    HW223319   2.807   4.719   5.354  2.9552  0.2954  0.5231
 3895SOL     OW23320   0.250   1.618  14.983  0.1957 -0.5476  0.1265
 3895SOL    HW123321   0.281   1.542  14.933  0.9821  0.5929 -1.1181
 3895SOL    HW223322   0.319   1.683  14.970  0.6697 -1.1780 -0.5496
 3896SOL     OW23323   2.181   1.513   8.291 -0.5270 -0.0032 -0.0524
 3896SOL    HW123324   2.113   1.458   8.330 -0.9655  1.2985  0.9943
 3896SOL    HW223325   2.157   1.597   8.328  2.1790  1.1764 -0.9759
 3897SOL     OW23326   0.479   1.779  16.293 -0.1797  0.6743  0.2956
 3897SOL    HW123327   0.460   1.690  16.322 -2.4975  0.4780 -1.8310
 3897SOL    HW223328   0.515   1.756  16.208 -0.5045  1.0202  0.0651
 3898SOL     OW23329   1.198   2.358   2.395  0.0675 -0.0812  0.1307
 3898SOL    HW123330   1.186   2.379   2.487  2.5487  3.4968 -0.3382
 3898SOL    HW223331   1.134   2.287   2.392  1.3054 -1.2888  1.9236
 3899SOL     OW23332   2.797   0.319   8.649 -0.1920 -0.2296  0.5787
 3899SOL    HW123333   2.721   0.288   8.698 -0.7326 -0.4688 -0.4206
 3899SOL    HW223334   2.770   0.329   8.558 -2.2642 -0.7731  1.1281
 3900SOL     OW23335   2.328   0.129  14.787 -0.0495 -0.0899  0.0879
 3900SOL    HW123336   2.277   0.084  14.854 -1.6520 -0.1206 -1.1397
 3900SOL    HW223337   2.291   0.216  14.806  0.4762 -0.1012  1.1446
 3901SOL     OW23338   4.363   1.857  16.826 -0.2262  0.1770  0.0657
 3901SOL    HW123339   4.452   1.891  16.814  0.0074  0.5529  2.7223
 3901SOL    HW223340   4.374   1.765  16.804  2.2030 -0.1885  2.7268
 3902SOL     OW23341   4.125   3.359   7.681 -0.0561 -0.0439 -0.3717
 3902SOL    HW123342   4.091   3.326   7.598 -0.1512 -0.2400 -0.2535
 3902SOL    HW223343   4.067   3.319   7.746  0.4939  1.4030  0.9994
 3903SOL     OW23344   4.318   0.361  12.980 -0.5722 -0.0792 -0.1943
 3903SOL    HW123345   4.336   0.435  13.039 -3.6424 -0.4141  1.1359
 3903SOL    HW223346   4.258   0.310  13.034  1.1082 -0.6101  1.1772
 3904SOL     OW23347   2.326   0.421   8.974 -0.1633  0.0091 -0.2088
 3904SOL    HW123348   2.252   0.474   9.004 -1.4828 -0.6317 -2.2686
 3904SOL    HW223349   2.389   0.445   9.042  1.6780 -0.7541 -1.6397
 3905SOL     OW23350   4.416   3.879   1.656 -0.4721 -0.1403  0.3214
 3905SOL    HW123351   4.463   3.961   1.672 -0.3577  0.1266 -1.3872
 3905SOL    HW223352   4.487   3.821   1.684  0.3223 -0.4911 -2.3923
 3906SOL     OW23353   0.188   1.953   6.326  0.0645 -0.0631 -0.0091
 3906SOL    HW123354   0.174   2.036   6.281 -1.3603  0.1921  0.8737
 3906SOL    HW223355   0.107   1.903   6.315 -0.2021 -0.1740  2.4464
 3907SOL     OW23356   1.705   0.226   4.792 -0.7125 -0.2765  0.1989
 3907SOL    HW123357   1.616   0.235   4.827  0.4176  2.6280  2.3454
 3907SOL    HW223358   1.710   0.310   4.746 -1.4509  1.1837  2.7994
 3908SOL     OW23359   1.713   3.790   2.688 -0.3616  0.4100  0.6185
 3908SOL    HW123360   1.744   3.880   2.682 -0.7526  0.4853 -0.3199
 3908SOL    HW223361   1.626   3.799   2.651  0.4866 -0.1616 -1.5109
 3909SOL     OW23362   0.790   1.220   8.763  0.0068  0.4392 -0.1784
 3909SOL    HW123363   0.766   1.311   8.747 -0.6593  0.2826 -0.0602
 3909SOL    HW223364   0.883   1.230   8.783  0.3025 -0.5272 -1.0763
 3910SOL     OW23365   0.969   2.073   4.427  0.1299 -0.0727 -0.8611
 3910SOL    HW123366   1.045   2.126   4.402 -0.0395  1.4273  1.7165
 3910SOL    HW223367   0.988   2.042   4.516  2.0111 -0.8248 -1.5323
 3911SOL     OW23368   2.773   3.123  14.942 -0.2274  0.9459 -0.0634
 3911SOL    HW123369   2.726   3.067  14.881 -1.3240  0.8384  0.8890
 3911SOL    HW223370   2.783   3.203  14.891  1.6374  0.3935 -0.5534
 3912SOL     OW23371   3.541   1.634   7.464 -0.3739  0.7856 -0.2422
 3912SOL    HW123372   3.544   1.669   7.375 -0.3671  0.4250 -0.3852
 3912SOL    HW223373   3.629   1.651   7.499 -0.3338 -0.8906  0.4448
 3913SOL     OW23374   1.042   3.115   4.427  0.0072  0.7134  0.0230
 3913SOL    HW123375   1.113   3.062   4.461 -1.5246 -1.1119  0.3967
 3913SOL    HW223376   1.040   3.080   4.337 -0.8665  0.2436  0.2232
 3914SOL     OW23377   2.082   1.553   3.931 -0.0620  0.0159 -0.3518
 3914SOL    HW123378   2.159   1.557   3.988  0.8885 -0.1158 -1.6301
 3914SOL    HW223379   2.041   1.473   3.965  0.7672 -0.3463 -0.2122
 3915SOL     OW23380   3.643   4.525   9.402  0.4437 -0.5025 -0.1277
 3915SOL    HW123381   3.733   4.507   9.428 -0.6521 -1.2680  3.2012
 3915SOL    HW223382   3.637   4.463   9.329  0.0021 -0.1641 -0.3757
 3916SOL     OW23383   0.636   4.546   2.545  0.2648 -0.7932  0.3482
 3916SOL    HW123384   0.634   4.639   2.570 -1.7369 -0.5386 -0.7342
 3916SOL    HW223385   0.638   4.513   2.634  0.2037 -2.2968 -0.1988
 3917SOL     OW23386   0.983   0.621  12.531 -0.1886 -0.7784 -0.0728
 3917SOL    HW123387   1.044   0.569  12.479  0.9533 -0.3351  0.8392
 3917SOL    HW223388   0.903   0.586  12.491 -1.6517  1.2200  1.0911
 3918SOL     OW23389   2.811   0.284   3.300 -0.7923  0.4605  0.1312
 3918SOL    HW123390   2.799   0.273   3.206 -0.2909  1.0787 -0.0078
 3918SOL    HW223391   2.721   0.275   3.331 -0.6931  1.9853  0.8477
 3919SOL     OW23392   4.120   1.192   4.754 -0.3794 -0.5482  0.1507
 3919SOL    HW123393   4.204   1.203   4.710 -0.8571  0.1827 -0.5697
 3919SOL    HW223394   4.061   1.216   4.683  0.2150 -1.2462 -0.5760
 3920SOL     OW23395   2.291   4.256   4.926  0.5467 -0.0179 -0.1318
 3920SOL    HW123396   2.274   4.280   4.834  0.5485 -2.7731 -0.8297
 3920SOL    HW223397   2.344   4.179   4.907  1.6739  0.3099  1.8082
 3921SOL     OW23398   0.474   1.411  10.694  0.6112  0.2706  0.1454
 3921SOL    HW123399   0.527   1.468  10.638 -0.5893  3.2785  2.0542
 3921SOL    HW223400   0.543   1.359  10.733  1.1986  0.5854 -0.4830
 3922SOL     OW23401   1.397   0.377   3.579 -0.0534  0.3737  0.1034
 3922SOL    HW123402   1.325   0.430   3.544 -0.9546  0.2578  1.7633
 3922SOL    HW223403   1.380   0.377   3.674 -1.1857  1.4236 -0.0980
 3923SOL     OW23404   2.016   2.718  16.863  0.2759 -0.1624 -0.0189
 3923SOL    HW123405   2.063   2.784  16.812 -0.4195  0.2341 -0.1357
 3923SOL    HW223406   2.059   2.725  16.948  0.2364  0.8385 -0.0826
 3924SOL     OW23407   0.433   1.026  14.119  0.3951  0.3638 -0.5302
 3924SOL    HW123408   0.399   1.030  14.209  1.9869  0.6278  0.0660
 3924SOL    HW223409   0.397   0.943  14.088 -1.5142  1.3104 -0.8043
 3925SOL     OW23410   2.842   3.594   6.648  0.3513  0.1024 -0.3960
 3925SOL    HW123411   2.845   3.561   6.558  0.7214 -3.3012  0.8851
 3925SOL    HW223412   2.857   3.511   6.692 -0.7860  0.6999  1.1314
 3926SOL     OW23413   4.257   0.775   8.485 -0.3297 -0.2408  0.4371
 3926SOL    HW123414   4.288   0.772   8.575  0.1858 -0.5459  0.2506
 3926SOL    HW223415   4.294   0.691   8.458 -2.4626 -1.2997  0.8123
 3927SOL     OW23416   1.587   3.567   8.004  0.1160 -0.3430  0.1078
 3927SOL    HW123417   1.611   3.614   7.924 -0.0464  1.1695  0.9542
 3927SOL    HW223418   1.620   3.630   8.069 -1.3493 -0.7381  1.2270
 3928SOL     OW23419   2.780   0.620   5.429  0.4011  0.0560 -0.2478
 3928SOL    HW123420   2.688   0.629   5.405  0.7066  1.5806 -0.8753
 3928SOL    HW223421   2.825   0.669   5.360 -2.1703  3.2858  0.3355
 3929SOL     OW23422   3.726   0.910   2.617  0.1509 -0.0716  0.0070
 3929SOL    HW123423   3.634   0.886   2.622  0.7791 -3.4353 -4.6585
 3929SOL    HW223424   3.712   1.004   2.629 -0.9724 -0.3121  0.4972
 3930SOL     OW23425   0.276   0.886   0.358  0.3252  0.4851 -0.2818
 3930SOL    HW123426   0.337   0.860   0.428  3.2788  3.3155 -1.8243
 3930SOL    HW223427   0.339   0.863   0.290  0.8197  1.7059 -0.2315
 3931SOL     OW23428   0.775   3.165   4.387  0.2208  0.1257  0.7315
 3931SOL    HW123429   0.738   3.107   4.454 -2.0271  0.0871 -0.5823
 3931SOL    HW223430   0.862   3.175   4.428  0.1204  0.3478  0.8927
 3932SOL     OW23431   4.443   1.564   9.841  0.1322  0.5983  0.2329
 3932SOL    HW123432   4.420   1.632   9.905  4.4961  0.3747  1.9859
 3932SOL    HW223433   4.536   1.579   9.826  0.2383  0.8807  1.1553
 3933SOL     OW23434   2.544   3.398   7.419 -0.4769 -0.1995 -0.0818
 3933SOL    HW123435   2.534   3.478   7.368 -0.4523  1.0626  1.8979
 3933SOL    HW223436   2.464   3.354   7.388  0.9184 -2.7258 -0.1431
 3934SOL     OW23437   0.715   4.051   3.033  0.5360 -0.2998  0.0058
 3934SOL    HW123438   0.765   4.118   3.080  1.0041 -0.1931 -0.6425
 3934SOL    HW223439   0.781   4.009   2.978 -0.5631 -1.5896 -0.3280
 3935SOL     OW23440   3.457   2.444   3.484 -0.2194 -0.1901 -0.4951
 3935SOL    HW123441   3.479   2.359   3.523  1.5389  0.5980  0.2151
 3935SOL    HW223442   3.545   2.465   3.451 -0.4731  3.1826  1.0299
 3936SOL     OW23443   2.255   4.101   2.326 -0.0893 -0.0150  0.1177
 3936SOL    HW123444   2.300   4.182   2.301  1.1078 -0.3362  1.2329
 3936SOL    HW223445   2.250   4.055   2.242 -0.6543 -1.0223  0.7047
 3937SOL     OW23446   4.426   3.451   1.430  0.5425  0.2335 -0.1639
 3937SOL    HW123447   4.482   3.526   1.409  0.4334  0.2236 -0.4870
 3937SOL    HW223448   4.413   3.405   1.347  1.0006 -0.3918  0.1064
 3938SOL     OW23449   1.859   2.495  16.950 -0.5812 -0.7270 -0.3714
 3938SOL    HW123450   1.910   2.416  16.938  1.1655  0.1166  1.6430
 3938SOL    HW223451   1.888   2.546  16.874 -0.5584 -0.0786  0.0688
 3939SOL     OW23452   1.931   0.496   0.390  0.0027 -0.0546  0.6487
 3939SOL    HW123453   1.898   0.561   0.329 -0.8718 -1.3335 -0.2469
 3939SOL    HW223454   1.997   0.553   0.430  0.2842 -1.5822  2.3524
 3940SOL     OW23455   3.840   3.301  14.942 -0.2633 -0.0725 -0.0691
 3940SOL    HW123456   3.775   3.340  14.884  0.7988 -0.6293 -1.6324
 3940SOL    HW223457   3.800   3.215  14.954  1.7746 -0.7884  1.5544
 3941SOL     OW23458   4.005   4.292   8.377 -0.3493  0.3420 -0.2399
 3941SOL    HW123459   3.945   4.365   8.388  0.2633  0.7709  0.2419
 3941SOL    HW223460   3.945   4.218   8.372  1.9660 -1.5243 -0.0221
 3942SOL     OW23461   4.715   4.240   2.507 -0.5949  0.4379 -0.2241
 3942SOL    HW123462   0.052   4.204   2.559 -0.7537  1.3598  0.6436
 3942SOL    HW223463   0.006   4.331   2.496  0.0061  0.0835 -1.6733
 3943SOL     OW23464   2.290   0.341   5.071 -0.4027  0.1935  0.0038
 3943SOL    HW123465   2.340   0.383   5.141  1.4052 -1.2034 -0.4351
 3943SOL    HW223466   2.340   0.371   4.995 -0.0545  1.8752  0.9007
 3944SOL     OW23467   1.892   3.101   7.308  0.4012  0.0028 -0.6472
 3944SOL    HW123468   1.860   3.145   7.229  0.3137  0.5088 -0.3341
 3944SOL    HW223469   1.838   3.162   7.359  0.6793 -1.5982  1.5571
 3945SOL     OW23470   0.938   3.201   8.707  0.4018 -0.4047 -0.0135
 3945SOL    HW123471   1.019   3.180   8.753 -0.2033 -0.9256  0.7976
 3945SOL    HW223472   0.906   3.111   8.699  1.0150 -0.7236  1.2299
 3946SOL     OW23473   2.459   1.834   9.739 -0.0343  0.2920 -0.4639
 3946SOL    HW123474   2.501   1.791   9.814  0.9790 -0.4548 -1.4505
 3946SOL    HW223475   2.517   1.796   9.673 -1.3758 -3.7472  0.6851
 3947SOL     OW23476   3.899   4.368   5.834 -0.0752  0.3149 -0.2282
 3947SOL    HW123477   3.887   4.414   5.917  0.0384 -1.4541  0.7662
 3947SOL    HW223478   3.816   4.392   5.793  0.6172  0.3700 -1.6376
 3948SOL     OW23479   1.756   3.641   2.942  0.4210 -0.1317  0.4855
 3948SOL    HW123480   1.717   3.657   2.856  0.5814  1.6257  0.7421
 3948SOL    HW223481   1.680   3.628   2.998  0.7569 -3.2282  0.2441
 3949SOL     OW23482   0.360   2.225   5.447  0.1672 -0.4093 -0.1176
 3949SOL    HW123483   0.373   2.131   5.459 -0.0129 -0.2049  1.7562
 3949SOL    HW223484   0.391   2.236   5.357 -2.1583 -0.3921 -0.9296
 3950SOL     OW23485   1.090   4.709  10.674 -0.0322 -0.6902  0.5952
 3950SOL    HW123486   0.995   4.706  10.686  0.1960 -1.4554  2.1277
 3950SOL    HW223487   1.117   0.051  10.725  1.8538 -0.3253 -0.9661
 3951SOL     OW23488   1.847   4.325   2.562  0.1520  0.0476 -0.0179
 3951SOL    HW123489   1.841   4.335   2.467 -0.4484  0.8677  0.1057
 3951SOL    HW223490   1.871   4.233   2.562 -0.1266 -0.0266 -0.0899
 3952SOL     OW23491   2.392   0.858   4.932 -0.1656 -0.0204  0.4261
 3952SOL    HW123492   2.343   0.873   5.013 -0.6871 -1.0972  0.3092
 3952SOL    HW223493   2.357   0.779   4.891  0.9270 -0.8387  1.0566
 3953SOL     OW23494   4.537   1.521   2.937 -0.9032  0.6531 -0.4179
 3953SOL    HW123495   4.471   1.565   2.991 -1.4572 -0.5332 -0.1305
 3953SOL    HW223496   4.545   1.447   2.997  1.3702 -0.3233 -1.9300
 3954SOL     OW23497   3.187   2.941  16.262 -0.1980  0.1938 -0.3879
 3954SOL    HW123498   3.206   2.998  16.336 -0.0535 -1.5713  0.9232
 3954SOL    HW223499   3.214   3.003  16.194 -0.3885  1.8225  1.0251
 3955SOL     OW23500   0.993   1.822   7.951 -0.1143 -0.0354  0.1512
 3955SOL    HW123501   1.026   1.767   7.880  1.9620  0.5493  0.6878
 3955SOL    HW223502   1.066   1.837   8.011 -0.6803  1.3523  0.4974
 3956SOL     OW23503   4.354   1.374  12.162 -0.3733 -0.1906 -0.2704
 3956SOL    HW123504   4.361   1.465  12.188 -0.5425 -0.5868  1.1848
 3956SOL    HW223505   4.431   1.362  12.107  0.6672  4.1046  0.2605
 3957SOL     OW23506   3.338   4.196  14.877 -0.2234 -0.0732 -0.0999
 3957SOL    HW123507   3.350   4.230  14.965 -2.5794 -0.8110  0.4997
 3957SOL    HW223508   3.364   4.275  14.828  0.9465  0.2840  1.0897
 3958SOL     OW23509   1.848   4.171   1.723 -0.3493 -0.4603 -0.0401
 3958SOL    HW123510   1.816   4.137   1.807  0.5907  2.6567  1.5573
 3958SOL    HW223511   1.761   4.182   1.684 -0.1256  1.5994  0.0498
 3959SOL     OW23512   1.572   4.432  10.337 -0.3376 -0.0089  0.6459
 3959SOL    HW123513   1.649   4.473  10.376  0.3450 -2.3290  1.7604
 3959SOL    HW223514   1.581   4.346  10.378  0.5037  0.5594  1.6653
 3960SOL     OW23515   2.061   3.525   3.703 -0.0187  0.3404 -0.2375
 3960SOL    HW123516   2.050   3.569   3.788 -1.7758 -0.3756 -0.0855
 3960SOL    HW223517   2.124   3.457   3.725 -2.3464 -1.0466  2.1515
 3961SOL     OW23518   4.503   2.619   6.218 -0.9019  0.8682  0.9870
 3961SOL    HW123519   4.506   2.539   6.166  0.3759  1.2557  0.4886
 3961SOL    HW223520   4.518   2.678   6.144  3.2668 -2.6218 -0.9479
 3962SOL     OW23521   1.924   2.232   5.215 -0.0440  0.2100  0.1609
 3962SOL    HW123522   1.908   2.247   5.308 -0.7905  0.6717 -0.0440
 3962SOL    HW223523   2.018   2.250   5.220  0.2517 -1.2566  0.0266
 3963SOL     OW23524   3.533   3.632   9.068  0.1953  0.5042  0.0412
 3963SOL    HW123525   3.570   3.720   9.066  1.1850  0.1535  2.9209
 3963SOL    HW223526   3.580   3.595   9.142 -2.6998 -2.3838  0.4181
 3964SOL     OW23527   3.335   2.342   3.806  0.2754  0.4940  0.6414
 3964SOL    HW123528   3.382   2.298   3.735  0.3271  1.2829  0.1813
 3964SOL    HW223529   3.309   2.424   3.762 -0.1006  0.1852  0.2892
 3965SOL     OW23530   3.565   2.599   7.508 -0.3638 -0.0601 -0.1663
 3965SOL    HW123531   3.496   2.532   7.512  0.2154 -0.6126  0.6043
 3965SOL    HW223532   3.589   2.611   7.416 -1.9874  1.0748 -0.4352
 3966SOL     OW23533   1.332   2.262   5.598 -0.2400 -0.5704  0.5366
 3966SOL    HW123534   1.268   2.200   5.633  0.0034 -2.5606 -2.5495
 3966SOL    HW223535   1.400   2.200   5.573 -0.4274 -0.3079 -0.6186
 3967SOL     OW23536   3.321   4.452   1.341 -0.3496  0.2238  0.2642
 3967SOL    HW123537   3.387   4.436   1.274 -0.9004 -2.4778  0.3504
 3967SOL    HW223538   3.350   4.489   1.425  1.6864 -2.4295  0.7464
 3968SOL     OW23539   3.997   2.255   4.494 -0.1504 -0.1875  0.5816
 3968SOL    HW123540   3.910   2.292   4.476 -0.1036 -0.7972 -0.8974
 3968SOL    HW223541   3.984   2.161   4.505 -1.2690  0.0413  1.1927
 3969SOL     OW23542   2.914   0.918   5.056 -0.2389 -0.0243 -0.1063
 3969SOL    HW123543   2.865   0.987   5.012  0.6101 -0.0687 -1.1299
 3969SOL    HW223544   2.937   0.869   4.977 -1.5943 -0.3761 -0.2841
 3970SOL     OW23545   4.125   1.031   5.912  0.0044 -0.4832 -0.2175
 3970SOL    HW123546   4.186   1.046   5.840 -0.2218 -3.7591 -1.1059
 3970SOL    HW223547   4.120   0.935   5.913  4.3668 -0.7075 -1.3598
 3971SOL     OW23548   3.927   2.088  17.233 -0.2767  0.0533 -0.9344
 3971SOL    HW123549   3.889   2.151  17.294  0.5068 -1.0459  0.7220
 3971SOL    HW223550   3.849   2.038  17.209 -0.4423  0.6437 -1.6089
 3972SOL     OW23551   1.296   4.285   6.113  0.3575 -0.1572  0.0862
 3972SOL    HW123552   1.223   4.310   6.170  0.2302  1.0048 -0.5756
 3972SOL    HW223553   1.359   4.357   6.120  0.3873 -0.1071 -0.7878
 3973SOL     OW23554   1.102   1.303   6.613  0.1778 -0.1196 -0.5151
 3973SOL    HW123555   1.173   1.316   6.676  0.6682  0.6547 -1.2368
 3973SOL    HW223556   1.148   1.242   6.556  1.0630  0.2194 -0.1758
 3974SOL     OW23557   3.445   2.897   5.092 -0.1612  0.2125  0.3225
 3974SOL    HW123558   3.396   2.818   5.072 -2.6767  1.4171  1.7088
 3974SOL    HW223559   3.538   2.875   5.084 -0.1302  0.4289  0.0771
 3975SOL     OW23560   4.003   2.043   6.264  0.0386 -0.5079  0.5906
 3975SOL    HW123561   3.934   2.100   6.298 -1.2296 -1.1331 -0.9693
 3975SOL    HW223562   3.963   1.994   6.192 -0.3947 -1.5638  1.5438
 3976SOL     OW23563   1.389   3.101   8.904 -0.1900 -0.3582 -0.2103
 3976SOL    HW123564   1.378   3.031   8.969 -1.5699  0.0687  0.0338
 3976SOL    HW223565   1.479   3.127   8.919  0.0162 -1.5209  0.5980
 3977SOL     OW23566   2.759   3.240   4.170 -0.6236 -0.4959 -0.0445
 3977SOL    HW123567   2.748   3.283   4.255 -0.1927 -0.2987 -0.0921
 3977SOL    HW223568   2.818   3.169   4.196  0.8191  0.8566  0.3296
 3978SOL     OW23569   1.034   1.041   2.922  0.7326  0.1808 -0.5174
 3978SOL    HW123570   1.109   0.984   2.938 -1.8999 -2.2749  2.9910
 3978SOL    HW223571   1.027   1.026   2.828 -4.3201 -1.9523  0.1954
 3979SOL     OW23572   0.646   0.846  15.324 -0.1973 -0.2068 -0.4267
 3979SOL    HW123573   0.692   0.895  15.255 -0.0371  1.1028  0.6205
 3979SOL    HW223574   0.686   0.764  15.295 -0.2157 -0.3366 -0.0809
 3980SOL     OW23575   0.194   0.647   7.600 -0.6383 -0.1686 -0.4090
 3980SOL    HW123576   0.207   0.679   7.511  1.4457  0.9679  0.3117
 3980SOL    HW223577   0.133   0.577   7.577 -0.5966 -0.6070  0.8280
 3981SOL     OW23578   1.077   0.740   4.010  0.8819  0.1495 -0.0763
 3981SOL    HW123579   0.981   0.743   4.011  0.9562  1.3254  2.7079
 3981SOL    HW223580   1.102   0.787   4.090  0.2967 -0.0368  0.2123
 3982SOL     OW23581   1.687   4.639   2.064  0.4114 -0.4413  0.3692
 3982SOL    HW123582   1.710   4.710   2.123  1.6444  1.6873 -2.6720
 3982SOL    HW223583   1.592   4.650   2.070  0.3023 -1.1331 -0.0401
 3983SOL     OW23584   4.452   2.689   5.103 -0.2080 -0.1260 -0.0397
 3983SOL    HW123585   4.474   2.614   5.047  1.6693  1.5915 -1.6084
 3983SOL    HW223586   4.470   2.764   5.047  3.3802 -2.0076 -1.4222
 3984SOL     OW23587   4.508   1.799   4.668 -1.0530 -0.0320  0.6760
 3984SOL    HW123588   4.448   1.853   4.616 -0.7271 -1.6979 -1.4389
 3984SOL    HW223589   4.558   1.870   4.708 -0.0381  0.2190 -1.0391
 3985SOL     OW23590   4.667   3.753   3.726  0.1582  0.1317 -0.2734
 3985SOL    HW123591   4.572   3.758   3.717  0.0194 -2.7712 -0.6326
 3985SOL    HW223592   4.692   3.778   3.637  0.3804  1.2123  0.0916
 3986SOL     OW23593   3.335   1.940   3.552  0.5237 -0.1793  0.1778
 3986SOL    HW123594   3.250   1.897   3.560  0.7069 -0.4747  0.5468
 3986SOL    HW223595   3.391   1.888   3.610  2.0375  0.5805 -0.6057
 3987SOL     OW23596   2.743   2.624   4.838 -0.1921 -0.5513 -0.4020
 3987SOL    HW123597   2.743   2.539   4.794  0.7792 -0.2972 -0.8949
 3987SOL    HW223598   2.696   2.670   4.769 -0.4162 -0.4164 -0.1595
 3988SOL     OW23599   4.057   2.870   8.206 -0.1053  0.3317  0.2945
 3988SOL    HW123600   4.021   2.903   8.288  2.3804  1.6457  0.8644
 3988SOL    HW223601   4.047   2.944   8.146  2.0857  1.0522  0.8322
 3989SOL     OW23602   4.211   1.689   4.586  0.6282  0.0594  0.1981
 3989SOL    HW123603   4.186   1.760   4.527 -3.3146 -0.2968  1.4517
 3989SOL    HW223604   4.239   1.741   4.661  1.1363  0.9950 -0.6361
 3990SOL     OW23605   2.977   0.789   5.949 -0.0676 -0.4177  0.2455
 3990SOL    HW123606   2.978   0.800   5.854 -2.8198  2.6137  0.5734
 3990SOL    HW223607   2.920   0.714   5.959  1.6601 -1.7530  0.1149
 3991SOL     OW23608   2.255   3.666   5.552  0.1122  0.1190 -0.0409
 3991SOL    HW123609   2.174   3.624   5.582 -1.1620  3.3073  0.9588
 3991SOL    HW223610   2.312   3.598   5.587  0.2180  0.4325  0.3996
 3992SOL     OW23611   1.660   2.234   3.923  0.2797 -0.4086  0.0505
 3992SOL    HW123612   1.608   2.155   3.935  0.0635 -0.2004  0.4783
 3992SOL    HW223613   1.747   2.205   3.949  0.7136  0.8473 -0.0039
 3993SOL     OW23614   3.113   4.351  16.926  0.5859 -0.4256 -0.2932
 3993SOL    HW123615   3.078   4.424  16.875  2.7302  1.0695  0.4057
 3993SOL    HW223616   3.081   4.276  16.874 -0.7815  0.0173 -0.1002
 3994SOL     OW23617   1.881   2.607   7.358 -0.2254  0.0281 -0.2389
 3994SOL    HW123618   1.835   2.683   7.395  0.8075  0.7407 -0.4167
 3994SOL    HW223619   1.822   2.533   7.373 -1.3469  0.5249 -2.1120
 3995SOL     OW23620   4.435   3.082   3.457 -0.1214  0.2577  0.1030
 3995SOL    HW123621   4.436   3.127   3.541  2.1548  3.2815 -1.5577
 3995SOL    HW223622   4.386   3.148   3.408 -0.1186  0.1796 -0.0046
 3996SOL     OW23623   3.038   3.926   5.140 -0.4275 -0.0554  0.1948
 3996SOL    HW123624   3.008   3.944   5.229 -2.3154 -1.4685 -0.1594
 3996SOL    HW223625   3.124   3.967   5.148 -0.8533  0.5278  1.7245
 3997SOL     OW23626   2.877   3.736   4.517 -0.4990  0.1969  0.0625
 3997SOL    HW123627   2.929   3.728   4.437  0.1149  1.4767  0.3276
 3997SOL    HW223628   2.926   3.808   4.557 -0.5586  0.1132  0.2871
 3998SOL     OW23629   3.475   1.435  17.321  0.1091  0.1048 -0.1320
 3998SOL    HW123630   3.418   1.448  17.244 -1.9498 -0.5552  1.2848
 3998SOL    HW223631   3.549   1.386  17.285 -1.8392 -2.2454 -0.9867
 3999SOL     OW23632   2.859   2.772   5.039  0.5405 -0.1767 -0.0941
 3999SOL    HW123633   2.828   2.726   4.961  0.0945  0.5404 -0.3332
 3999SOL    HW223634   2.949   2.796   5.019  0.8795 -0.0375  1.6065
 4000SOL     OW23635   1.280   0.449   2.890 -0.4541 -0.2088 -0.6315
 4000SOL    HW123636   1.361   0.430   2.842 -0.1781  2.4066 -1.1785
 4000SOL    HW223637   1.251   0.357   2.892  2.0811 -0.9339  3.8435
 4001SOL     OW23638   3.011   2.037   6.025 -0.6025  0.1041  0.3107
 4001SOL    HW123639   2.954   2.105   5.991 -2.1030 -1.2608  0.0906
 4001SOL    HW223640   3.042   2.003   5.941 -0.0169  0.9955  0.1733
 4002SOL     OW23641   1.264   2.012   6.080  0.5722  0.1565 -0.4840
 4002SOL    HW123642   1.228   2.023   6.168 -1.4516 -1.5177 -1.0943
 4002SOL    HW223643   1.356   2.032   6.097  0.7176 -1.0043  0.0914
 4003SOL     OW23644   4.625   0.755   5.032 -0.4743  0.4182 -0.1025
 4003SOL    HW123645   4.550   0.723   4.982 -1.0985 -0.9130  1.6811
 4003SOL    HW223646   4.624   0.682   5.095 -2.2933 -0.4570 -1.1488
 4004SOL     OW23647   4.187   3.057   4.397 -0.0435 -0.0391 -0.3907
 4004SOL    HW123648   4.110   3.114   4.392  0.4429  0.7413  0.9603
 4004SOL    HW223649   4.248   3.105   4.453 -1.3541 -0.2225  1.1721
 4005SOL     OW23650   1.679   0.632  16.205  0.2739 -0.0828 -0.1702
 4005SOL    HW123651   1.627   0.572  16.152  2.2638 -0.2586 -1.9238
 4005SOL    HW223652   1.660   0.719  16.169 -0.9247 -0.4280 -0.3464
 4006SOL     OW23653   2.067   0.767  16.187 -0.0615 -0.3195 -0.8190
 4006SOL    HW123654   2.027   0.793  16.270  2.8744 -0.6058  0.6696
 4006SOL    HW223655   2.001   0.709  16.148 -2.0511  0.5657  1.2128
 4007SOL     OW23656   2.034   2.176  17.275 -0.1059 -0.0022  0.1875
 4007SOL    HW123657   1.983   2.135  17.344  2.0998 -1.5354  0.9203
 4007SOL    HW223658   2.034   2.271  17.293 -1.1930  0.1064 -0.4057
 4008SOL     OW23659   1.053   3.920   6.496 -0.6380  0.3109 -0.7917
 4008SOL    HW123660   1.143   3.953   6.490 -0.6633  0.0985 -2.3223
 4008SOL    HW223661   1.060   3.824   6.491 -1.0758  0.4033 -3.2485
 4009SOL     OW23662   3.044   2.243   7.538 -0.1932 -0.1409 -0.5827
 4009SOL    HW123663   2.990   2.296   7.597 -3.0326 -0.0646 -3.2064
 4009SOL    HW223664   3.006   2.158   7.559  1.3891 -0.5099  0.6914
 4010SOL     OW23665   2.352   2.430   2.654 -0.0801  0.0051  0.7753
 4010SOL    HW123666   2.444   2.449   2.670 -0.0039 -0.8675  1.3920
 4010SOL    HW223667   2.331   2.355   2.710 -2.0539 -0.9807 -1.2866
 4011SOL     OW23668   2.877   2.247  10.766  0.3409  0.4965 -0.1913
 4011SOL    HW123669   2.862   2.217  10.677  1.4652 -1.4132  0.2555
 4011SOL    HW223670   2.918   2.165  10.794 -0.4098 -0.0681 -0.7754
 4012SOL     OW23671   2.102   2.176   0.610  0.4833 -0.3959  0.5644
 4012SOL    HW123672   2.053   2.176   0.691 -2.8175 -1.2940 -1.4418
 4012SOL    HW223673   2.081   2.264   0.578  0.2724 -0.2667  1.0678
 4013SOL     OW23674   0.012   3.412  15.406  0.3617 -0.2187 -0.1715
 4013SOL    HW123675   0.016   3.391  15.500 -3.4863  1.0512  0.2867
 4013SOL    HW223676   0.105   3.422  15.384  0.0641  1.8461 -0.5286
 4014SOL     OW23677   0.596   1.563   1.403 -0.2902  0.1126 -0.3687
 4014SOL    HW123678   0.671   1.620   1.383  0.1285 -0.1176  0.5470
 4014SOL    HW223679   0.611   1.499   1.334  0.5608  1.3399 -1.3394
 4015SOL     OW23680   2.078   0.522   2.562  0.6550  0.1988 -0.3557
 4015SOL    HW123681   2.156   0.566   2.527  1.5973  0.1640  1.7105
 4015SOL    HW223682   2.003   0.580   2.552  0.8489  0.5513  0.2591
 4016SOL     OW23683   3.689   1.860   5.837 -0.0915  0.4079 -0.2932
 4016SOL    HW123684   3.775   1.903   5.833 -0.2366  0.9676  2.3365
 4016SOL    HW223685   3.677   1.793   5.905  1.2681 -1.3121 -1.7516
 4017SOL     OW23686   0.746   2.141   2.346 -0.4418  0.3640  0.0528
 4017SOL    HW123687   0.729   2.055   2.308  1.4730 -0.2999  0.7068
 4017SOL    HW223688   0.666   2.152   2.398 -1.4144  2.3004 -1.8210
 4018SOL     OW23689   0.542   1.945   6.384 -0.0476 -0.1070  0.2793
 4018SOL    HW123690   0.620   1.893   6.363  0.2772  1.1312 -1.4640
 4018SOL    HW223691   0.576   2.034   6.386 -1.0658  0.2586  1.1664
 4019SOL     OW23692   1.491   2.197   3.020  0.3565 -0.0664 -0.0914
 4019SOL    HW123693   1.521   2.151   2.942  0.4367  1.4564 -0.9586
 4019SOL    HW223694   1.550   2.271   3.036  1.4939 -0.6049 -1.8304
 4020SOL     OW23695   1.198   1.131   3.263  0.0962  0.1105 -0.5456
 4020SOL    HW123696   1.126   1.070   3.278 -0.1660  0.3903 -0.6604
 4020SOL    HW223697   1.237   1.139   3.349  1.5227 -1.2962 -1.0511
 4021SOL     OW23698   0.063   0.282  17.120 -0.0549  0.2506  0.2777
 4021SOL    HW123699   0.083   0.268  17.212  2.4989 -0.2856 -0.3787
 4021SOL    HW223700   0.131   0.345  17.095 -0.1593  0.4782  0.5570
 4022SOL     OW23701   0.099   0.530   0.138  0.9711  0.0461  0.4572
 4022SOL    HW123702   0.098   0.622   0.114 -3.2759  0.4810  2.2849
 4022SOL    HW223703   0.124   0.538   0.230 -1.9962 -1.1596  1.3741
 4023SOL     OW23704   3.551   1.428   1.516 -0.1524 -0.3100  0.5280
 4023SOL    HW123705   3.482   1.378   1.474  0.0076  1.3785 -1.7294
 4023SOL    HW223706   3.618   1.434   1.448  1.3877  0.3696  2.1126
 4024SOL     OW23707   1.074   2.705   8.336 -0.9839  0.7698  0.2185
 4024SOL    HW123708   0.981   2.689   8.355 -0.3871 -1.2331  1.4878
 4024SOL    HW223709   1.116   2.660   8.410 -1.3716 -0.6055 -0.3964
 4025SOL     OW23710   1.563   2.312   6.374 -0.0348  0.4401 -0.2759
 4025SOL    HW123711   1.578   2.231   6.423  1.9551 -0.0125 -1.6496
 4025SOL    HW223712   1.616   2.369   6.430  2.3736 -0.5755 -1.5540
 4026SOL     OW23713   2.732   3.674   1.631 -0.5482 -0.5741 -0.3627
 4026SOL    HW123714   2.814   3.670   1.680 -1.0274 -1.7904  0.3455
 4026SOL    HW223715   2.742   3.609   1.562  0.6971  0.8976 -1.5572
 4027SOL     OW23716   4.537   0.122   6.222 -0.2115  0.3899 -0.0659
 4027SOL    HW123717   4.612   0.076   6.260  0.1842  1.5022  0.4938
 4027SOL    HW223718   4.578   0.201   6.186  0.7918  0.6300  1.6175
 4028SOL     OW23719   3.853   2.855   2.741  0.0389 -0.9001  0.4806
 4028SOL    HW123720   3.855   2.846   2.646  1.9472  0.2063  0.4331
 4028SOL    HW223721   3.876   2.946   2.756  0.3752 -0.6684 -1.4787
 4029SOL     OW23722   2.375   0.713   9.855  0.5984 -0.2464 -0.1414
 4029SOL    HW123723   2.399   0.804   9.840  2.8393 -0.9785 -0.9846
 4029SOL    HW223724   2.329   0.716   9.939 -1.6186  2.5049 -1.4593
 4030SOL     OW23725   1.632   3.414   3.393 -0.7024 -0.4073 -0.0587
 4030SOL    HW123726   1.721   3.430   3.425 -0.5912 -0.2799 -0.4244
 4030SOL    HW223727   1.584   3.439   3.472  0.2658 -0.0662  0.4281
 4031SOL     OW23728   1.429   3.401   9.940  0.3087  0.1667  0.0951
 4031SOL    HW123729   1.518   3.431   9.922  0.7799 -1.2873  0.0550
 4031SOL    HW223730   1.426   3.417  10.034  0.0047 -1.1091  0.2997
 4032SOL     OW23731   0.638   0.512   7.410 -0.4262  0.5158 -0.1697
 4032SOL    HW123732   0.636   0.507   7.315 -0.2323  0.6784 -0.1824
 4032SOL    HW223733   0.731   0.529   7.426 -0.4293 -0.3070  0.7392
 4033SOL     OW23734   1.051   3.549   8.186 -0.7618 -0.2278  0.0250
 4033SOL    HW123735   0.975   3.501   8.154  0.1279 -0.7685 -1.2753
 4033SOL    HW223736   1.113   3.476   8.187  0.2762  0.6592  0.4031
 4034SOL     OW23737   4.375   2.481  15.653  0.1906 -0.5020 -0.3013
 4034SOL    HW123738   4.365   2.556  15.711 -1.4823 -0.4389 -0.6649
 4034SOL    HW223739   4.291   2.480  15.607  0.5581 -1.3675 -0.9520
 4035SOL     OW23740   1.462   2.111   4.903  0.6021  0.0741  0.0514
 4035SOL    HW123741   1.486   2.102   4.811  0.0728 -0.8322 -0.0050
 4035SOL    HW223742   1.373   2.076   4.901  1.7551 -2.8964  0.3546
 4036SOL     OW23743   4.721   2.572  13.388  0.8773  0.3905  0.0539
 4036SOL    HW123744   0.047   2.592  13.317  0.8427 -2.6927 -0.8147
 4036SOL    HW223745   0.049   2.555  13.458  1.5185 -0.3903 -0.7098
 4037SOL     OW23746   0.487   0.034   8.426 -0.2646  0.2592 -0.6839
 4037SOL    HW123747   0.419   0.027   8.492 -0.3949  0.9629 -0.7389
 4037SOL    HW223748   0.530   4.686   8.445  0.5053  0.6511 -0.6809
 4038SOL     OW23749   1.252   2.967   5.352  0.1714  0.2280 -0.6002
 4038SOL    HW123750   1.223   3.020   5.427 -1.5406 -0.1537 -0.9968
 4038SOL    HW223751   1.169   2.922   5.336 -1.3990  2.1572  1.9966
 4039SOL     OW23752   2.769   2.460   3.069 -0.6446 -0.0326  0.0233
 4039SOL    HW123753   2.814   2.520   3.010  0.5475 -0.1286  0.8441
 4039SOL    HW223754   2.703   2.523   3.096 -0.5338  0.7459 -1.5055
 4040SOL     OW23755   4.260   3.137   2.632 -0.1019 -0.0100 -0.0555
 4040SOL    HW123756   4.327   3.073   2.608  0.6391  1.0701 -0.8650
 4040SOL    HW223757   4.232   3.102   2.717 -0.6301 -0.1453 -0.2852
 4041SOL     OW23758   3.863   4.137   2.432  0.3754  0.6221 -0.3333
 4041SOL    HW123759   3.790   4.196   2.449 -2.2635 -2.5493 -0.8573
 4041SOL    HW223760   3.934   4.156   2.494  1.7281 -0.2996 -1.6021
 4042SOL     OW23761   1.838   4.006   7.348 -0.1436  0.0696 -0.2644
 4042SOL    HW123762   1.848   4.074   7.281  1.4357 -0.1070 -0.1977
 4042SOL    HW223763   1.845   4.063   7.425  0.0187 -0.1389 -0.1262
 4043SOL     OW23764   3.211   0.190  17.068  0.2098 -0.0792 -0.7204
 4043SOL    HW123765   3.268   0.175  17.144  0.3493 -1.4056 -1.0770
 4043SOL    HW223766   3.255   0.261  17.021  2.3491  0.3155  1.8660
 4044SOL     OW23767   3.619   0.178  14.130 -0.4444 -0.8362 -0.6334
 4044SOL    HW123768   3.606   0.091  14.168  3.4868 -1.9011 -1.7596
 4044SOL    HW223769   3.700   0.151  14.087  1.3236  1.7090  1.1243
 4045SOL     OW23770   2.607   3.906   1.945  0.1841  0.0308  0.2379
 4045SOL    HW123771   2.598   3.994   1.982  0.4779 -0.3068  1.1152
 4045SOL    HW223772   2.612   3.935   1.854 -0.5370  1.9827  0.8163
 4046SOL     OW23773   4.269   0.091  15.640 -0.8777 -0.0398 -0.5053
 4046SOL    HW123774   4.236   0.041  15.714  0.9990  1.1746  1.1664
 4046SOL    HW223775   4.209   0.069  15.569  0.3327 -1.1592 -1.1783
 4047SOL     OW23776   3.011   2.786   7.932 -0.0313 -0.1678 -0.2458
 4047SOL    HW123777   2.928   2.765   7.890  0.2631  1.2343 -1.5457
 4047SOL    HW223778   3.033   2.856   7.871  2.0165  0.6382  1.3996
 4048SOL     OW23779   0.687   3.282  12.981 -0.4108 -0.2414 -0.4174
 4048SOL    HW123780   0.693   3.345  12.909  0.1737 -0.9534 -0.9880
 4048SOL    HW223781   0.683   3.345  13.053  0.4797  0.8314 -1.3215
 4049SOL     OW23782   2.661   3.205  10.034 -0.2471 -0.4953  0.0356
 4049SOL    HW123783   2.582   3.250  10.061 -1.7580 -1.7138 -2.3028
 4049SOL    HW223784   2.641   3.112  10.045 -1.7065 -0.1922 -0.1361
 4050SOL     OW23785   0.985   0.012   7.491  0.2717 -0.2616  0.5158
 4050SOL    HW123786   0.907   4.716   7.445 -0.8198  1.8507  0.9378
 4050SOL    HW223787   1.057   4.702   7.447  0.7243  1.4589 -0.4821
 4051SOL     OW23788   2.616   0.999  16.783  0.2831 -0.2231 -0.4801
 4051SOL    HW123789   2.682   0.945  16.740 -0.2499 -1.3329  0.0865
 4051SOL    HW223790   2.558   0.923  16.795 -0.3710  0.6364  1.8295
 4052SOL     OW23791   4.455   1.161   4.392  0.0564  1.0742 -0.1664
 4052SOL    HW123792   4.538   1.183   4.352 -0.0859  0.2314 -0.9363
 4052SOL    HW223793   4.402   1.238   4.375 -0.7465  1.3869  3.7490
 4053SOL     OW23794   2.424   3.765   3.208  0.0065  0.0619 -0.6361
 4053SOL    HW123795   2.410   3.706   3.135 -0.5217  1.5397 -1.7205
 4053SOL    HW223796   2.330   3.779   3.225 -0.1952 -1.7884 -0.3089
 4054SOL     OW23797   4.578   0.054   4.543 -0.7954  0.1113  0.2337
 4054SOL    HW123798   4.548   4.719   4.601 -1.1424  1.2188  1.4028
 4054SOL    HW223799   4.560   0.134   4.594 -0.1361  0.1858  0.3463
 4055SOL     OW23800   3.799   0.034   5.739 -0.0596  0.3149  1.1061
 4055SOL    HW123801   3.814   0.054   5.646 -0.4645  0.2140  1.0185
 4055SOL    HW223802   3.808   0.121   5.778  0.9633  0.4951  0.4530
 4056SOL     OW23803   3.635   3.144   6.525  0.6844  0.1513 -0.3950
 4056SOL    HW123804   3.618   3.119   6.434  0.3773  2.3114 -0.9296
 4056SOL    HW223805   3.720   3.188   6.518  0.6063  0.4303  0.4104
 4057SOL     OW23806   0.253   0.625  14.502 -0.9385  0.5160 -0.5216
 4057SOL    HW123807   0.326   0.607  14.444  0.5221 -0.0647  1.4985
 4057SOL    HW223808   0.291   0.613  14.589  2.2847 -1.0551 -2.1846
 4058SOL     OW23809   3.062   2.140   3.762 -0.0252 -0.8593 -0.3379
 4058SOL    HW123810   3.057   2.141   3.857 -0.2697 -0.3716 -0.3555
 4058SOL    HW223811   3.099   2.228   3.758  0.8434 -1.1398  1.6077
 4059SOL     OW23812   1.542   0.594   3.502 -0.3082 -0.2773 -0.0108
 4059SOL    HW123813   1.628   0.603   3.543  0.0312 -0.1622 -0.7520
 4059SOL    HW223814   1.510   0.513   3.541  0.7205 -0.8687 -0.3968
 4060SOL     OW23815   2.697   1.309   0.927  0.8016 -0.0294 -0.0077
 4060SOL    HW123816   2.695   1.284   1.019 -0.1317 -0.7401 -0.2136
 4060SOL    HW223817   2.613   1.271   0.898  2.2330 -1.7997 -1.8409
 4061SOL     OW23818   4.362   4.245   0.788  0.1224  0.1180 -0.1073
 4061SOL    HW123819   4.327   4.198   0.864  0.5973  1.4865  0.9686
 4061SOL    HW223820   4.454   4.218   0.792 -0.3060 -1.6364 -2.3882
 4062SOL     OW23821   1.102   4.273   9.072  0.5698 -0.3209  0.1303
 4062SOL    HW123822   1.023   4.322   9.095  0.8116  1.0726 -2.0304
 4062SOL    HW223823   1.099   4.281   8.976  0.2886 -3.0569 -0.1024
 4063SOL     OW23824   3.494   4.211   6.650  0.3656  0.3315 -0.8316
 4063SOL    HW123825   3.528   4.199   6.561 -0.2350  1.6789 -1.2439
 4063SOL    HW223826   3.563   4.176   6.706  0.0926  0.3262 -0.4957
 4064SOL     OW23827   0.682   3.681   1.556 -0.1814 -0.6188  0.5766
 4064SOL    HW123828   0.729   3.635   1.486  1.4873  1.0352  0.6033
 4064SOL    HW223829   0.591   3.670   1.529 -0.4190 -0.1501  1.1928
 4065SOL     OW23830   4.729   2.449   2.884  0.3273  0.1398 -0.3820
 4065SOL    HW123831   4.672   2.526   2.876 -2.0453 -1.6031 -0.4769
 4065SOL    HW223832   4.726   2.421   2.976 -1.8500 -2.0807 -1.1050
 4066SOL     OW23833   1.112   2.768   6.308  0.3813  0.1779 -0.2110
 4066SOL    HW123834   1.030   2.811   6.332 -0.1095 -0.2862 -1.0638
 4066SOL    HW223835   1.130   2.789   6.217  2.2605 -1.0524 -0.1436
 4067SOL     OW23836   3.714   2.201   4.247 -0.0918 -0.3231  0.3729
 4067SOL    HW123837   3.789   2.176   4.193 -0.3715  0.0414 -0.1836
 4067SOL    HW223838   3.645   2.215   4.182 -2.6973  1.6443  3.5608
 4068SOL     OW23839   2.014   2.472   3.024 -0.3032  0.9536 -0.3009
 4068SOL    HW123840   1.955   2.397   3.023  0.6077  0.2299 -0.3196
 4068SOL    HW223841   2.095   2.434   3.059 -0.9210 -0.4914 -0.4600
 4069SOL     OW23842   4.514   3.719   8.847 -0.2233  0.1442 -0.0889
 4069SOL    HW123843   4.490   3.626   8.843  0.5009 -0.0590  0.3410
 4069SOL    HW223844   4.608   3.703   8.858 -0.3808 -1.0910 -0.4828
 4070SOL     OW23845   1.090   2.598   4.766  0.1954  0.2152 -0.4686
 4070SOL    HW123846   1.141   2.530   4.811  1.1049  0.6429 -0.8371
 4070SOL    HW223847   1.162   2.645   4.724 -0.5487  0.6737 -1.2337
 4071SOL     OW23848   4.250   0.044  13.801  0.4455 -0.1554  0.4352
 4071SOL    HW123849   4.213   0.092  13.726  1.2803 -0.3601 -0.1071
 4071SOL    HW223850   4.186   4.709  13.814 -1.5388  1.7881  1.1612
 4072SOL     OW23851   1.122   3.003   8.499 -0.2164 -0.5565 -0.0776
 4072SOL    HW123852   1.077   3.075   8.454  1.3397 -0.4014 -1.4095
 4072SOL    HW223853   1.135   3.039   8.586 -1.5787 -0.4869  0.0958
 4073SOL     OW23854   1.513   3.710   4.839  0.3326  0.5976  0.0317
 4073SOL    HW123855   1.431   3.693   4.885  0.8249  0.3836  0.8330
 4073SOL    HW223856   1.488   3.682   4.751 -1.2390  1.0724  0.3201
 4074SOL     OW23857   2.484   2.005   2.854 -0.5308 -0.2002 -0.4520
 4074SOL    HW123858   2.560   2.009   2.913  0.3292 -2.1108 -1.4298
 4074SOL    HW223859   2.441   1.926   2.886 -2.0419  0.7222 -0.1761
 4075SOL     OW23860   0.958   1.853  17.379 -0.2336 -0.2579 -0.4064
 4075SOL    HW123861   0.939   1.932  17.429 -0.4862 -0.4120 -0.2608
 4075SOL    HW223862   0.906   1.857  17.299  1.1670  2.0799 -1.2096
 4076SOL     OW23863   4.495   3.370  11.293 -0.1351  0.7162 -0.9014
 4076SOL    HW123864   4.561   3.410  11.350  0.1723 -0.9283 -0.0805
 4076SOL    HW223865   4.425   3.435  11.291  1.2594  2.2412 -0.0302
 4077SOL     OW23866   2.611   4.725   9.466  0.7511  0.1707  0.7952
 4077SOL    HW123867   2.673   4.655   9.487 -1.1216 -1.5997  0.4519
 4077SOL    HW223868   2.541   4.695   9.523  1.0961  0.1590  1.2132
 4078SOL     OW23869   1.526   0.333   6.548 -1.6402  0.4507 -0.5500
 4078SOL    HW123870   1.600   0.272   6.557 -2.0263  0.0757  0.0802
 4078SOL    HW223871   1.542   0.413   6.599  1.1717  0.6467 -1.7216
 4079SOL     OW23872   4.096   2.452   5.341  0.1554  0.1072 -0.3066
 4079SOL    HW123873   4.093   2.519   5.272 -1.3819 -0.0033 -0.3551
 4079SOL    HW223874   4.008   2.415   5.332  1.1711 -3.1461  3.0693
 4080SOL     OW23875   2.211   3.489   4.851  0.2871  0.3716 -0.0481
 4080SOL    HW123876   2.133   3.473   4.799  1.0420 -0.9124 -0.7810
 4080SOL    HW223877   2.279   3.493   4.784 -0.6129 -3.4278 -1.1565
 4081SOL     OW23878   1.677   4.606   6.975 -0.3276  0.2247  0.9471
 4081SOL    HW123879   1.629   4.688   6.962  0.0883  0.3558  0.2669
 4081SOL    HW223880   1.744   4.634   7.038  0.1892 -0.3171  0.6351
 4082SOL     OW23881   1.220   1.020   1.380 -0.2009  0.0122 -0.4542
 4082SOL    HW123882   1.283   1.033   1.310 -0.8082  1.5461 -0.7152
 4082SOL    HW223883   1.284   0.993   1.445  0.4433 -1.5941 -1.7854
 4083SOL     OW23884   2.567   2.283   1.821 -0.2064  0.4817  0.3121
 4083SOL    HW123885   2.557   2.378   1.822 -0.4436  0.4907 -2.0629
 4083SOL    HW223886   2.611   2.271   1.737  2.0967 -0.5012  1.6662
 4084SOL     OW23887   3.806   3.252   8.789 -0.2022 -0.1886  0.5692
 4084SOL    HW123888   3.819   3.291   8.702  0.2365  0.6618  1.0262
 4084SOL    HW223889   3.718   3.284   8.810 -0.3913  1.7656 -3.2713
 4085SOL     OW23890   2.980   3.802   7.150 -0.9801  0.6169  0.0098
 4085SOL    HW123891   3.027   3.719   7.158 -1.8234  0.2628  1.1905
 4085SOL    HW223892   2.969   3.815   7.056  0.2352  0.7967 -0.1113
 4086SOL     OW23893   1.941   2.524  17.229 -0.1578 -0.0566  0.1968
 4086SOL    HW123894   1.906   2.613  17.223  0.8812  0.3180 -0.2626
 4086SOL    HW223895   1.926   2.488  17.141 -2.6815  1.7284 -0.1032
 4087SOL     OW23896   1.614   0.855   3.203 -0.0590  0.3645  0.6468
 4087SOL    HW123897   1.634   0.944   3.174  1.7430 -0.7396 -1.5007
 4087SOL    HW223898   1.648   0.861   3.292 -0.9695 -1.0348  1.0922
 4088SOL     OW23899   1.096   0.880  12.835 -0.0228  0.5605  0.3897
 4088SOL    HW123900   1.155   0.862  12.908  0.5123 -0.0977 -0.2052
 4088SOL    HW223901   1.013   0.873  12.881  0.1834 -0.6231  0.5958
 4089SOL     OW23902   0.988   3.856  12.675 -0.1593 -0.7594  0.6410
 4089SOL    HW123903   0.953   3.854  12.586  0.3337 -3.4229  0.4871
 4089SOL    HW223904   0.911   3.867  12.730 -0.8593 -0.4734 -0.4125
 4090SOL     OW23905   4.012   4.127  12.407  0.4059  0.5664 -0.0739
 4090SOL    HW123906   4.092   4.138  12.356  0.7303 -2.1869 -0.1991
 4090SOL    HW223907   3.953   4.090  12.341 -1.4417 -0.1494  1.9655
 4091SOL     OW23908   0.400   2.696   1.893  0.0731 -0.3994  0.0121
 4091SOL    HW123909   0.446   2.677   1.975  0.9773  1.3370 -0.0982
 4091SOL    HW223910   0.427   2.617   1.846 -1.5337 -1.6178  1.1094
 4092SOL     OW23911   4.422   0.796   3.040  0.3237 -0.2415 -0.1593
 4092SOL    HW123912   4.459   0.852   2.972 -1.0435 -0.0437 -0.7330
 4092SOL    HW223913   4.484   0.723   3.034 -0.6699 -1.1645  1.0460
 4093SOL     OW23914   4.395   0.414   5.952 -0.3259  0.0333 -0.2827
 4093SOL    HW123915   4.483   0.452   5.949 -0.1811  0.0737  4.3531
 4093SOL    HW223916   4.416   0.327   5.917  2.5768  0.5908  0.0637
 4094SOL     OW23917   3.523   2.391  15.861 -0.0273  0.6419 -0.2639
 4094SOL    HW123918   3.606   2.414  15.820  0.9135  0.2344  1.4122
 4094SOL    HW223919   3.496   2.482  15.872 -1.2436  0.1907  0.4944
 4095SOL     OW23920   0.151   2.458   8.688  0.0595 -0.4559  0.4104
 4095SOL    HW123921   0.205   2.535   8.705 -0.1356 -0.0927 -0.6167
 4095SOL    HW223922   0.068   2.484   8.727  0.3882  0.3465  0.5766
 4096SOL     OW23923   2.873   2.258   5.944 -0.3703  0.5531  0.0470
 4096SOL    HW123924   2.795   2.266   5.889 -0.6162 -1.1746  0.1444
 4096SOL    HW223925   2.835   2.311   6.014  0.5046 -0.6132  1.4064
 4097SOL     OW23926   3.265   2.109  14.548 -0.7790  0.0361 -0.3657
 4097SOL    HW123927   3.344   2.159  14.527 -0.5118 -0.3681 -0.3250
 4097SOL    HW223928   3.209   2.136  14.476 -1.7205  0.1475  0.3997
 4098SOL     OW23929   0.509   1.662   0.041  0.1220  0.3252  0.1622
 4098SOL    HW123930   0.551   1.703  17.704 -0.2199  0.4364  0.0331
 4098SOL    HW223931   0.534   1.571   0.027 -2.1099 -0.1530 -0.7132
 4099SOL     OW23932   3.922   1.348   7.098 -0.4558  0.7976  0.2923
 4099SOL    HW123933   3.857   1.412   7.128 -1.1636 -1.1914  2.9035
 4099SOL    HW223934   3.922   1.362   7.003 -2.0418 -0.4215  0.1193
 4100SOL     OW23935   4.457   3.935   4.842  0.3233 -0.3116 -0.0608
 4100SOL    HW123936   4.380   3.920   4.898  0.5568 -2.4386 -0.3159
 4100SOL    HW223937   4.498   3.998   4.901  0.1257 -0.9938  0.8044
 4101SOL     OW23938   0.389   2.854  17.333 -0.3030  0.1825 -0.0474
 4101SOL    HW123939   0.359   2.887  17.418  0.8557 -1.6306  1.0482
 4101SOL    HW223940   0.442   2.930  17.307 -0.2336  0.4616  0.9146
 4102SOL     OW23941   1.001   0.304   5.312  0.2796  0.6612  0.1641
 4102SOL    HW123942   1.050   0.382   5.285  0.2332 -0.0553 -1.9506
 4102SOL    HW223943   0.953   0.341   5.387 -1.0133 -2.0507  0.6775
 4103SOL     OW23944   3.532   0.263  13.822  0.0522  0.1766  0.1709
 4103SOL    HW123945   3.609   0.246  13.769 -0.1455  1.1922 -0.4589
 4103SOL    HW223946   3.561   0.235  13.909  1.4071 -1.7864 -0.9256
 4104SOL     OW23947   4.617   2.076   3.925 -0.4166 -0.0642 -0.0256
 4104SOL    HW123948   4.576   2.162   3.934 -0.2481  0.0858 -0.7358
 4104SOL    HW223949   4.706   2.097   3.952 -0.3938 -0.3473  0.1244
 4105SOL     OW23950   0.604   2.783   8.798  0.3483  0.5704  0.2948
 4105SOL    HW123951   0.602   2.745   8.710 -0.9632 -2.6412  1.7153
 4105SOL    HW223952   0.525   2.738   8.828 -0.8360  2.3401 -0.1973
 4106SOL     OW23953   4.313   3.261   8.657  0.0668 -0.0414 -0.6761
 4106SOL    HW123954   4.273   3.243   8.572 -1.7189  0.2010  0.0910
 4106SOL    HW223955   4.235   3.242   8.709 -0.5763  0.3283 -1.5056
 4107SOL     OW23956   1.295   4.036   5.628  0.0647 -0.3414  0.1420
 4107SOL    HW123957   1.252   3.956   5.660 -0.6765  0.1150  0.2999
 4107SOL    HW223958   1.358   4.059   5.696  0.2638 -0.1977 -0.0893
 4108SOL     OW23959   4.609   3.275   5.225  0.4030 -0.1360  0.3933
 4108SOL    HW123960   4.676   3.343   5.218 -1.8621  2.2380  2.0830
 4108SOL    HW223961   4.672   3.226   5.278  1.7397  0.0018 -1.0567
 4109SOL     OW23962   0.490   2.635  17.362  0.6499 -0.0890  0.2170
 4109SOL    HW123963   0.461   2.726  17.357  1.4953  0.1405 -0.6108
 4109SOL    HW223964   0.433   2.603  17.432  0.6475 -0.2535  0.1377
 4110SOL     OW23965   3.717   1.325   3.851 -0.0870  0.0347  0.4044
 4110SOL    HW123966   3.797   1.375   3.834  1.6573 -2.4019  1.4377
 4110SOL    HW223967   3.746   1.234   3.847 -0.2294  0.0134 -0.1494
 4111SOL     OW23968   0.612   0.703   8.766 -0.1421  0.2020  0.2038
 4111SOL    HW123969   0.619   0.791   8.729 -0.4120  0.8288  1.6584
 4111SOL    HW223970   0.517   0.697   8.754  0.2201 -1.8412 -1.7228
 4112SOL     OW23971   2.591   1.458   6.624 -0.7760  0.3319 -0.2782
 4112SOL    HW123972   2.678   1.497   6.628 -0.8450  0.2557  2.3310
 4112SOL    HW223973   2.622   1.367   6.619 -2.0607 -0.1144  0.0338
 4113SOL     OW23974   1.338   4.093   2.293 -0.3829  0.1406 -0.2006
 4113SOL    HW123975   1.315   4.057   2.207  0.3590  1.1287 -0.8018
 4113SOL    HW223976   1.298   4.024   2.347 -0.8762  0.9162  0.4349
 4114SOL     OW23977   2.636   4.248  13.686 -0.2075  0.2382 -0.2836
 4114SOL    HW123978   2.584   4.314  13.641  0.2448  0.0552 -1.0690
 4114SOL    HW223979   2.572   4.186  13.722  1.1871 -2.3395 -2.1691
 4115SOL     OW23980   2.003   4.217   5.470 -0.4804 -0.1815  0.0025
 4115SOL    HW123981   2.026   4.186   5.382 -1.2526 -0.4047 -0.1226
 4115SOL    HW223982   2.039   4.145   5.522 -1.0504 -0.9183 -0.6162
 4116SOL     OW23983   3.832   0.054  16.887  0.0614 -0.5851 -0.8020
 4116SOL    HW123984   3.888   0.098  16.823 -2.0859 -1.0109 -2.9905
 4116SOL    HW223985   3.777   0.130  16.910  0.0881 -0.4885 -1.0576
 4117SOL     OW23986   1.937   2.882   1.207  0.5475 -0.6412  0.0491
 4117SOL    HW123987   2.012   2.856   1.153  0.5924 -0.0901 -0.1505
 4117SOL    HW223988   1.979   2.936   1.274 -1.5328  0.8161  0.1614
 4118SOL     OW23989   1.348   1.184   3.017 -0.3347 -0.3627  0.1155
 4118SOL    HW123990   1.285   1.205   3.086 -0.3271  1.9295 -0.5812
 4118SOL    HW223991   1.418   1.190   3.081 -0.3045  1.2467 -0.0572
 4119SOL     OW23992   2.877   1.857   6.907 -0.6369 -0.2540  0.1428
 4119SOL    HW123993   2.892   1.842   6.814 -1.6345  0.3297 -0.1180
 4119SOL    HW223994   2.932   1.932   6.932  2.3828 -2.0556 -1.1870
 4120SOL     OW23995   3.367   3.846   4.848 -0.3161  0.6653  0.0193
 4120SOL    HW123996   3.431   3.817   4.782  0.7302  1.5954  0.6283
 4120SOL    HW223997   3.426   3.892   4.907 -2.3751  1.4689  1.4335
 4121SOL     OW23998   1.719   0.957  16.789  0.7902 -0.2115  0.1862
 4121SOL    HW123999   1.757   0.907  16.861  2.5710  0.5414 -0.2370
 4121SOL    HW224000   1.740   1.048  16.810 -1.3585  0.1158  0.9382
 4122SOL     OW24001   0.431   3.644   6.732  0.6238 -0.2238  0.2014
 4122SOL    HW124002   0.396   3.560   6.702  1.0797  0.0038 -0.9661
 4122SOL    HW224003   0.411   3.643   6.826  1.8612  2.9578  0.5150
 4123SOL     OW24004   0.416   1.914   7.538 -0.1487 -0.4682 -0.3738
 4123SOL    HW124005   0.463   1.854   7.596 -1.8167 -0.3383  1.1114
 4123SOL    HW224006   0.443   1.997   7.575  0.2136 -0.0569 -1.5605
 4124SOL     OW24007   3.206   1.531  16.246 -0.2374  0.4005  0.3038
 4124SOL    HW124008   3.181   1.623  16.253  1.6101  0.8913  0.4203
 4124SOL    HW224009   3.279   1.518  16.307  0.1133 -1.9635 -0.6147
 4125SOL     OW24010   1.169   4.070   1.814 -0.0470  0.0635 -0.3767
 4125SOL    HW124011   1.122   4.138   1.862  0.8144 -0.0348  0.6174
 4125SOL    HW224012   1.232   4.130   1.774 -0.2174 -0.0846 -0.8634
 4126SOL     OW24013   1.089   0.648   9.223 -0.2970 -0.0768  0.1139
 4126SOL    HW124014   0.997   0.623   9.215 -1.4348  3.4975  1.6517
 4126SOL    HW224015   1.088   0.725   9.167  1.3503  0.5558  0.9538
 4127SOL     OW24016   3.689   2.304   1.896  0.1593  0.0197  0.0641
 4127SOL    HW124017   3.661   2.395   1.904  1.2848  0.3595  0.1453
 4127SOL    HW224018   3.613   2.269   1.849  0.3636  1.3106 -1.2404
 4128SOL     OW24019   0.114   1.044   0.174  0.2905  0.0318 -0.3041
 4128SOL    HW124020   0.127   0.966   0.228  0.0724  0.8188  0.8728
 4128SOL    HW224021   0.200   1.047   0.132  1.1629 -0.7938  1.4072
 4129SOL     OW24022   1.578   2.316   2.643 -0.8922 -0.1282 -0.4370
 4129SOL    HW124023   1.534   2.397   2.616  0.3948  0.0673 -1.9298
 4129SOL    HW224024   1.511   2.269   2.693 -1.6131  1.7141  0.3466
 4130SOL     OW24025   0.783   2.684  16.764 -0.3230 -0.1711  0.3576
 4130SOL    HW124026   0.819   2.645  16.684  1.4153  1.2003  0.4801
 4130SOL    HW224027   0.801   2.774  16.736  0.7625  0.3203  2.6034
 4131SOL     OW24028   1.617   0.518   4.954 -0.3676 -0.2231 -0.9281
 4131SOL    HW124029   1.611   0.565   4.871  0.5461  0.9072 -0.3704
 4131SOL    HW224030   1.551   0.452   4.934  0.2837 -1.0480 -0.3593
 4132SOL     OW24031   1.614   1.356  16.040 -0.2671  0.2812 -0.0079
 4132SOL    HW124032   1.653   1.287  16.094  0.5709 -0.1453 -1.1548
 4132SOL    HW224033   1.596   1.323  15.952  1.9913 -0.7332 -0.0846
 4133SOL     OW24034   3.431   4.473   1.620 -0.2442  0.3484  0.3052
 4133SOL    HW124035   3.451   4.559   1.585 -0.8974  0.0854 -0.7136
 4133SOL    HW224036   3.495   4.411   1.584 -1.1477 -0.8897  0.8356
 4134SOL     OW24037   2.665   2.266   6.590  0.2519 -0.1092  0.3553
 4134SOL    HW124038   2.678   2.306   6.676  1.3628  1.3666 -0.4901
 4134SOL    HW224039   2.756   2.253   6.562  0.4033  1.1824  0.2385
 4135SOL     OW24040   3.541   4.702  12.527  0.3097 -0.6095 -0.2507
 4135SOL    HW124041   3.503   4.686  12.614  1.5908 -0.6021  0.3077
 4135SOL    HW224042   3.579   4.617  12.505  1.0233 -0.3424 -0.0290
 4136SOL     OW24043   3.877   0.531   5.279 -0.7178  0.1470  0.5845
 4136SOL    HW124044   3.797   0.582   5.267 -0.3560  0.6398  0.2792
 4136SOL    HW224045   3.919   0.553   5.196 -0.3125  0.8480  0.9829
 4137SOL     OW24046   0.635   2.330   3.558  0.2298  0.2592  0.0575
 4137SOL    HW124047   0.696   2.388   3.603 -0.5588  1.6869 -0.7233
 4137SOL    HW224048   0.640   2.358   3.467 -2.9051  1.8497  0.3598
 4138SOL     OW24049   3.019   3.115  16.593  0.0175  0.1980  0.4324
 4138SOL    HW124050   2.977   3.029  16.606 -0.5905  0.3382 -0.6021
 4138SOL    HW224051   3.112   3.093  16.587  0.1129  0.3514  1.4543
 4139SOL     OW24052   0.544   2.804   7.457  0.0463 -0.5070 -1.0128
 4139SOL    HW124053   0.480   2.805   7.386 -0.8782 -3.4478 -0.2379
 4139SOL    HW224054   0.515   2.732   7.513  0.7597 -0.1147 -0.1250
 4140SOL     OW24055   0.420   4.118   8.501  0.0695 -0.4113 -0.0583
 4140SOL    HW124056   0.338   4.167   8.498  0.4365  0.2194  0.1805
 4140SOL    HW224057   0.428   4.103   8.595 -1.7591  2.6643  0.5615
 4141SOL     OW24058   1.189   2.036   3.640  0.1801 -0.0398 -0.1218
 4141SOL    HW124059   1.124   2.107   3.635  1.0512  0.7602 -0.1535
 4141SOL    HW224060   1.243   2.045   3.561 -0.6596  1.3733 -0.5464
 4142SOL     OW24061   2.468   2.715   0.766 -0.6015  0.5788 -0.0763
 4142SOL    HW124062   2.541   2.655   0.750 -0.2088  1.4397 -1.5297
 4142SOL    HW224063   2.518   2.777   0.820  1.5385  0.1786 -1.5684
 4143SOL     OW24064   2.382   1.524  10.538 -0.5137 -0.4443 -0.4102
 4143SOL    HW124065   2.324   1.582  10.489 -0.3941  0.1868  0.1949
 4143SOL    HW224066   2.404   1.593  10.601 -2.2064  0.8006 -1.1712
 4144SOL     OW24067   2.994   2.017   3.112  0.0272 -0.0008 -0.4687
 4144SOL    HW124068   3.004   1.969   3.194 -0.0039  1.7747  0.5954
 4144SOL    HW224069   2.982   2.105   3.148 -1.2757 -0.0906 -0.6695
 4145SOL     OW24070   3.091   4.662  10.007  0.2929 -0.4923  0.0024
 4145SOL    HW124071   3.101   4.596   9.939 -0.2641 -1.8803  1.2693
 4145SOL    HW224072   3.132   4.616  10.081  0.9143  0.1665  0.0774
 4146SOL     OW24073   3.941   3.607   7.482 -0.2346  0.2503  0.0181
 4146SOL    HW124074   3.968   3.516   7.472 -2.1462 -0.2646 -0.5560
 4146SOL    HW224075   3.994   3.640   7.410  0.2885 -0.9436 -0.1390
 4147SOL     OW24076   0.272   2.708   8.710 -0.1528  0.2087 -0.4144
 4147SOL    HW124077   0.277   2.774   8.642  0.3164  0.7782  0.1691
 4147SOL    HW224078   0.258   2.759   8.790  2.1972 -1.2229  0.9144
 4148SOL     OW24079   2.530   4.125   2.059  0.2340 -0.2772 -0.0408
 4148SOL    HW124080   2.520   4.217   2.081  0.6414 -0.3733  0.5692
 4148SOL    HW224081   2.573   4.091   2.138 -0.1409 -2.4618 -0.7751
 4149SOL     OW24082   2.685   4.614   2.584  0.0955 -0.0991  0.3458
 4149SOL    HW124083   2.755   4.678   2.574 -0.3981  0.5584  1.0750
 4149SOL    HW224084   2.683   4.625   2.679  0.3373  0.4001  0.2882
 4150SOL     OW24085   2.514   1.354   4.008 -0.1608 -0.0041  0.5128
 4150SOL    HW124086   2.524   1.430   3.950 -2.3689  0.2876  0.5078
 4150SOL    HW224087   2.455   1.386   4.076 -0.5027  0.4711 -0.0056
 4151SOL     OW24088   4.670   2.863   8.514  0.4254  0.1604 -0.0087
 4151SOL    HW124089   0.007   2.802   8.499  0.4108  0.5819 -1.7664
 4151SOL    HW224090   4.685   2.925   8.443 -1.7033  0.4908 -0.1781
 4152SOL     OW24091   2.413   3.847   7.033  0.0090 -0.3085  0.0198
 4152SOL    HW124092   2.496   3.826   7.076 -0.2186 -0.4432  0.3996
 4152SOL    HW224093   2.370   3.900   7.100 -0.8627 -1.3865  0.3129
 4153SOL     OW24094   3.831   2.283  12.163 -0.2992  0.2651 -0.4739
 4153SOL    HW124095   3.842   2.307  12.071  1.7733  2.4104  0.3295
 4153SOL    HW224096   3.738   2.298  12.181 -0.1916  0.9626 -0.4873
 4154SOL     OW24097   0.690   4.332   0.749  0.1556 -0.3757  0.0980
 4154SOL    HW124098   0.755   4.401   0.739  1.2274 -0.7024  4.6079
 4154SOL    HW224099   0.691   4.287   0.665 -1.0303  0.8831 -0.5902
 4155SOL     OW24100   4.491   4.566   4.168  0.0287  0.6314  0.6330
 4155SOL    HW124101   4.569   4.619   4.183 -0.4193  1.4476  0.0824
 4155SOL    HW224102   4.485   4.514   4.249  2.4727 -0.5546  0.0448
 4156SOL     OW24103   1.371   0.462   4.591 -0.3312  1.4427  0.1106
 4156SOL    HW124104   1.430   0.431   4.522 -0.8719  1.2508 -0.2753
 4156SOL    HW224105   1.288   0.481   4.547 -0.9654  0.4875  0.9054
 4157SOL     OW24106   0.066   2.745   4.895 -0.2398 -0.3483  0.3130
 4157SOL    HW124107   0.148   2.741   4.847 -0.5549 -0.6645 -0.1958
 4157SOL    HW224108   4.733   2.729   4.830 -1.2276  1.5986  0.8707
 4158SOL     OW24109   0.449   0.718   6.875 -0.1238  0.4225 -0.1845
 4158SOL    HW124110   0.538   0.695   6.848  0.1142  2.1624 -0.9406
 4158SOL    HW224111   0.403   0.639   6.849 -0.6388  0.5184  0.4575
 4159SOL     OW24112   2.136   0.695   3.726  0.3445  0.1790  0.6245
 4159SOL    HW124113   2.199   0.750   3.773 -0.0825  0.8070  0.4501
 4159SOL    HW224114   2.184   0.680   3.644 -2.0387  0.8595 -0.8790
 4160SOL     OW24115   4.474   1.934   9.741  0.3892  0.1286  0.0586
 4160SOL    HW124116   4.518   1.861   9.698  0.2754  0.6818 -1.0031
 4160SOL    HW224117   4.459   1.997   9.670  0.6229  0.2607  0.1275
 4161SOL     OW24118   1.577   2.819   8.345 -0.1073 -0.0015  0.1957
 4161SOL    HW124119   1.589   2.796   8.253  0.0008 -1.3492  0.5449
 4161SOL    HW224120   1.651   2.879   8.349 -0.3179  0.2733  0.0240
 4162SOL     OW24121   1.395   1.367   6.565 -0.0143  0.2886 -0.4325
 4162SOL    HW124122   1.471   1.425   6.554  0.9819 -0.9561 -0.1434
 4162SOL    HW224123   1.428   1.304   6.629 -1.5174 -2.0573 -1.9480
 4163SOL     OW24124   0.731   2.651  12.798  0.0016 -0.1151  0.4007
 4163SOL    HW124125   0.814   2.639  12.845  0.9728  1.7345 -0.8652
 4163SOL    HW224126   0.686   2.635  12.881 -0.2206  0.0637  0.3141
 4164SOL     OW24127   3.724   1.142   6.975  0.2859  0.6644  0.4168
 4164SOL    HW124128   3.819   1.129   6.975  0.2192  0.1812  1.1972
 4164SOL    HW224129   3.704   1.133   7.068 -2.9182  1.2522 -0.2341
 4165SOL     OW24130   0.680   0.004  11.705  0.2749 -0.5209 -0.3758
 4165SOL    HW124131   0.731   4.709  11.630  1.5312  0.4688  0.0774
 4165SOL    HW224132   0.745   4.717  11.772 -0.6951  0.7523  0.9775
 4166SOL     OW24133   3.851   3.856   8.885 -0.4810  0.3471  0.1586
 4166SOL    HW124134   3.806   3.879   8.966  1.7103 -0.6277  1.6362
 4166SOL    HW224135   3.776   3.857   8.826 -0.9188 -0.1575  0.7072
 4167SOL     OW24136   0.434   1.806   8.829  0.2267  0.6822 -0.0167
 4167SOL    HW124137   0.406   1.892   8.798  0.5163  0.7893  0.0184
 4167SOL    HW224138   0.440   1.767   8.741 -1.0051 -1.2077  0.7323
 4168SOL     OW24139   1.201   2.722  13.561  0.0810  0.6072 -0.7669
 4168SOL    HW124140   1.188   2.762  13.647  0.1120 -0.1530 -0.4104
 4168SOL    HW224141   1.116   2.679  13.560  1.2377 -1.7083  1.4502
 4169SOL     OW24142   0.719   3.232   4.837 -0.3562  0.3585 -0.5778
 4169SOL    HW124143   0.813   3.224   4.820 -0.5855 -0.7350 -1.3262
 4169SOL    HW224144   0.729   3.317   4.879  0.5166  0.4897 -1.0457
 4170SOL     OW24145   1.737   0.396   8.063 -1.3703  0.1809 -0.0029
 4170SOL    HW124146   1.678   0.343   8.010  1.3955 -2.2211 -0.6227
 4170SOL    HW224147   1.815   0.341   8.059 -0.2889  1.7925 -1.2555
 4171SOL     OW24148   4.322   3.313   3.315  0.3287  0.1959  0.2830
 4171SOL    HW124149   4.293   3.346   3.230 -0.7361  0.9766  0.9491
 4171SOL    HW224150   4.345   3.393   3.363  1.6018  0.0188 -0.0420
 4172SOL     OW24151   3.372   0.902   5.627 -0.2640 -0.4064 -1.1599
 4172SOL    HW124152   3.443   0.863   5.678 -1.6302 -1.2765  0.0426
 4172SOL    HW224153   3.351   0.970   5.690 -2.0824 -2.3389  0.3143
 4173SOL     OW24154   3.389   3.668   8.397  0.3598 -0.5244  0.0020
 4173SOL    HW124155   3.447   3.628   8.463 -1.2527 -1.5823  0.7778
 4173SOL    HW224156   3.354   3.597   8.344 -1.4619  0.4323 -0.0610
 4174SOL     OW24157   2.507   0.219   8.434  0.1934  0.1478 -0.5740
 4174SOL    HW124158   2.420   0.244   8.465 -0.4936 -1.9178 -0.8578
 4174SOL    HW224159   2.504   0.123   8.440  2.4320  0.2428  1.8904
 4175SOL     OW24160   1.135   3.712  11.387  0.7271  0.2424  0.0299
 4175SOL    HW124161   1.091   3.627  11.392  3.5993 -1.2174  0.6752
 4175SOL    HW224162   1.138   3.727  11.481 -1.9993 -1.5510  0.4045
 4176SOL     OW24163   3.369   2.618   5.733  0.4299  0.5655  0.2726
 4176SOL    HW124164   3.275   2.619   5.748  0.0555 -2.7936 -1.6291
 4176SOL    HW224165   3.397   2.709   5.742 -0.3067  0.8311 -0.1321
 4177SOL     OW24166   0.871   1.290   4.113 -0.4142  0.6105 -0.5732
 4177SOL    HW124167   0.806   1.318   4.048 -0.9433  2.0629  0.5832
 4177SOL    HW224168   0.929   1.365   4.127 -0.8424  0.7413  0.4939
 4178SOL     OW24169   0.937   2.625  16.282 -0.5061  0.0620  0.1415
 4178SOL    HW124170   0.868   2.601  16.221  0.5055  1.2243 -1.4810
 4178SOL    HW224171   0.934   2.720  16.271  0.5835  0.2955  1.8127
 4179SOL     OW24172   0.400   2.499   4.889  0.0638 -0.3341 -0.6156
 4179SOL    HW124173   0.468   2.447   4.931  0.9418  1.1247 -0.2403
 4179SOL    HW224174   0.348   2.516   4.967  0.2151  1.6888 -0.9780
 4180SOL     OW24175   2.298   0.830   4.647  0.4256 -0.2083 -0.4606
 4180SOL    HW124176   2.257   0.857   4.729  0.2126 -1.8126 -0.0532
 4180SOL    HW224177   2.289   0.735   4.641  1.8086 -0.2572 -1.9796
 4181SOL     OW24178   1.676   1.153   0.459 -0.1543  0.1325 -0.6795
 4181SOL    HW124179   1.709   1.234   0.420  1.7261 -0.4504 -0.3349
 4181SOL    HW224180   1.620   1.128   0.385  1.4305 -0.0915 -1.8098
 4182SOL     OW24181   3.108   0.435   3.092  0.6447  0.2917  0.0067
 4182SOL    HW124182   3.066   0.373   3.033  1.7066  0.1298 -0.5683
 4182SOL    HW224183   3.116   0.376   3.167 -1.0035 -1.0205 -0.8411
 4183SOL     OW24184   1.171   4.578   4.244  0.1035  0.2758 -0.1837
 4183SOL    HW124185   1.133   4.544   4.324 -3.2256  2.7963 -0.6850
 4183SOL    HW224186   1.095   4.599   4.190  0.4739  0.7826 -0.5110
 4184SOL     OW24187   0.796   2.880   3.480  0.0770 -0.6682 -0.2503
 4184SOL    HW124188   0.753   2.863   3.564 -1.3642  0.2952 -0.7884
 4184SOL    HW224189   0.739   2.829   3.424  1.3184 -1.9737 -0.3345
 4185SOL     OW24190   3.777   4.408   1.905  0.6253  0.3875  0.2078
 4185SOL    HW124191   3.778   4.351   1.981  0.2672 -1.5928 -1.2883
 4185SOL    HW224192   3.866   4.403   1.870  0.0344 -1.2767 -1.0553
 4186SOL     OW24193   4.509   0.754  15.377  0.6503  0.1387  0.0564
 4186SOL    HW124194   4.557   0.781  15.455 -0.1122  0.1223  0.5362
 4186SOL    HW224195   4.429   0.802  15.395 -0.2580 -0.9750 -1.0227
 4187SOL     OW24196   0.365   0.450   5.898 -0.1090 -0.7213  0.0056
 4187SOL    HW124197   0.371   0.358   5.873  2.1944 -1.0938  1.9624
 4187SOL    HW224198   0.453   0.473   5.928 -0.0944  3.5483 -3.2679
 4188SOL     OW24199   4.440   0.541  14.713 -0.0923  0.5550 -0.8578
 4188SOL    HW124200   4.353   0.571  14.686 -0.7659 -0.6407 -0.0090
 4188SOL    HW224201   4.463   0.507  14.626 -0.4460 -2.1630  0.1029
 4189SOL     OW24202   2.993   4.062   8.692  0.7182  0.7587  0.1135
 4189SOL    HW124203   3.045   4.030   8.618  0.0823  2.4286 -1.0466
 4189SOL    HW224204   2.920   4.000   8.694  0.2285  1.3053 -0.8048
 4190SOL     OW24205   3.853   3.107  11.306 -0.4383 -0.4660  0.2718
 4190SOL    HW124206   3.761   3.133  11.312 -0.4625 -1.1372  3.1737
 4190SOL    HW224207   3.888   3.166  11.240 -2.4934  0.4859  0.0237
 4191SOL     OW24208   0.842   3.995   5.544 -0.1779  0.1569  0.0193
 4191SOL    HW124209   0.866   4.012   5.635  1.8200 -0.8644 -0.3154
 4191SOL    HW224210   0.773   4.059   5.530  0.8155  1.1324 -0.4438
 4192SOL     OW24211   4.292   3.038  17.126  0.0905  0.2524  0.7743
 4192SOL    HW124212   4.299   2.946  17.100  2.4566  0.2473  1.4252
 4192SOL    HW224213   4.234   3.029  17.201  1.9002  1.3379  2.3124
 4193SOL     OW24214   4.099   4.198  15.763 -0.7524  0.3468 -0.0402
 4193SOL    HW124215   4.105   4.207  15.668  0.3967  1.4721  0.1531
 4193SOL    HW224216   4.019   4.146  15.763  1.3555 -2.9099 -0.9783
 4194SOL     OW24217   4.202   1.264   1.634  0.8914 -0.2862 -0.1653
 4194SOL    HW124218   4.256   1.210   1.575  1.9337 -0.2667  0.7745
 4194SOL    HW224219   4.161   1.311   1.562 -1.5448 -0.9320  0.8044
 4195SOL     OW24220   3.327   0.906   9.033 -0.5105 -0.8976  0.4376
 4195SOL    HW124221   3.309   0.989   9.076  1.7166 -1.0014  1.5294
 4195SOL    HW224222   3.389   0.946   8.972  1.7755 -0.2994  3.1843
 4196SOL     OW24223   4.402   3.817   7.161 -0.2663 -0.0733 -0.3961
 4196SOL    HW124224   4.438   3.742   7.113 -0.7621 -0.8675  0.4804
 4196SOL    HW224225   4.439   3.889   7.110 -0.2763 -1.6235 -2.6008
 4197SOL     OW24226   0.708   3.208   3.551 -0.2785  0.1666  0.2183
 4197SOL    HW124227   0.670   3.171   3.630  0.5595 -1.2624 -0.0425
 4197SOL    HW224228   0.717   3.139   3.485  0.9780  1.6089 -1.1190
 4198SOL     OW24229   0.118   1.637   7.303 -0.4269 -0.1489 -0.1436
 4198SOL    HW124230   0.109   1.658   7.210 -0.7794  0.8826  0.1312
 4198SOL    HW224231   0.213   1.634   7.314 -0.0775 -1.1810 -3.1621
 4199SOL     OW24232   2.669   3.580   3.852  0.5982 -0.2380  0.4542
 4199SOL    HW124233   2.655   3.509   3.789 -1.6131 -0.1971  0.9177
 4199SOL    HW224234   2.660   3.658   3.797  1.1060 -1.8912 -1.9853
 4200SOL     OW24235   0.456   2.228   6.574  0.0031 -0.6177  0.4531
 4200SOL    HW124236   0.405   2.219   6.494 -0.4985  1.4639  0.5400
 4200SOL    HW224237   0.460   2.137   6.603  0.1215 -0.2152  1.7216
 4201SOL     OW24238   3.617   3.665  16.776 -0.0560  0.0759 -0.5604
 4201SOL    HW124239   3.586   3.622  16.696  0.9716  0.9634 -1.4457
 4201SOL    HW224240   3.534   3.654  16.821 -0.3852  1.9979 -0.6715
 4202SOL     OW24241   3.963   0.008  14.597 -0.1808 -0.2484 -0.9106
 4202SOL    HW124242   3.910   0.059  14.658  0.9337 -0.6147  0.3564
 4202SOL    HW224243   3.898   4.710  14.535 -0.3932 -2.4224  0.4964
 4203SOL     OW24244   1.423   1.245  11.563 -0.3930 -0.1468  0.2401
 4203SOL    HW124245   1.461   1.205  11.485 -0.6736  0.4316 -0.1950
 4203SOL    HW224246   1.347   1.288  11.522 -0.9742 -2.9672 -1.6734
 4204SOL     OW24247   2.179   4.304   9.988 -0.2873  0.1454  0.3980
 4204SOL    HW124248   2.271   4.288  10.011  0.0093  1.1536 -0.0842
 4204SOL    HW224249   2.185   4.304   9.893 -1.5215  1.2541  0.3191
 4205SOL     OW24250   3.738   3.958   9.714  0.3888  0.3011 -0.6166
 4205SOL    HW124251   3.671   3.903   9.675  0.3513 -0.4103  0.4365
 4205SOL    HW224252   3.751   3.934   9.806 -1.5886  0.3273 -0.3240
 4206SOL     OW24253   2.874   2.496  17.072 -0.1036 -0.1697 -0.2370
 4206SOL    HW124254   2.788   2.490  17.113  0.6086  0.5723  1.3415
 4206SOL    HW224255   2.876   2.413  17.023 -0.9919 -0.5136  0.3204
 4207SOL     OW24256   4.268   3.342   6.253 -0.3024  0.5265  0.8370
 4207SOL    HW124257   4.211   3.350   6.176  0.4753  2.1627  0.4250
 4207SOL    HW224258   4.331   3.412   6.235  0.8439 -0.2672  1.7673
 4208SOL     OW24259   0.594   4.327   7.986 -0.0221  0.0028  0.1485
 4208SOL    HW124260   0.640   4.286   7.913  1.2467  0.7680  0.5255
 4208SOL    HW224261   0.512   4.360   7.947  1.1624  3.6588  0.7388
 4209SOL     OW24262   1.435   1.627   2.642  0.3510  0.2088 -0.2274
 4209SOL    HW124263   1.471   1.623   2.554  1.3899 -1.0499  0.2711
 4209SOL    HW224264   1.363   1.690   2.630  1.8579  1.4092 -2.8490
 4210SOL     OW24265   1.461   1.628   2.353  0.2523  0.4294  0.0803
 4210SOL    HW124266   1.535   1.639   2.293 -0.1679 -1.9301 -0.8552
 4210SOL    HW224267   1.386   1.609   2.297 -0.9836  1.0861  1.5170
 4211SOL     OW24268   3.590   4.318   9.237 -0.3978  0.3823 -0.0576
 4211SOL    HW124269   3.632   4.295   9.154 -1.7053  0.4879 -0.7636
 4211SOL    HW224270   3.525   4.248   9.238  1.2432 -1.1372 -0.8659
 4212SOL     OW24271   1.293   2.275  10.241 -0.3424 -0.7402 -0.1532
 4212SOL    HW124272   1.260   2.206  10.300 -4.4028  1.8908  0.6279
 4212SOL    HW224273   1.218   2.297  10.186 -1.5589 -0.4795  1.6001
 4213SOL     OW24274   1.642   4.496  16.710  0.2096  0.4822 -0.3365
 4213SOL    HW124275   1.629   4.403  16.725  0.1947  0.5079 -0.1835
 4213SOL    HW224276   1.582   4.537  16.774 -1.7457 -2.6018 -0.2067
 4214SOL     OW24277   1.375   3.232   8.653  0.5297 -0.4887  0.8837
 4214SOL    HW124278   1.436   3.299   8.683  0.0363  0.5371 -0.3988
 4214SOL    HW224279   1.384   3.174   8.728 -0.8008 -0.6810  0.9015
 4215SOL     OW24280   2.157   0.599  12.215 -0.7295  0.2447  0.4273
 4215SOL    HW124281   2.168   0.687  12.252 -1.6007  0.7682 -0.5686
 4215SOL    HW224282   2.139   0.559  12.301  0.0464  0.6866  0.7968
 4216SOL     OW24283   0.590   4.067   8.101 -0.2479  0.4287 -0.1120
 4216SOL    HW124284   0.640   4.147   8.118 -0.9486  0.5599  1.3714
 4216SOL    HW224285   0.617   4.050   8.011 -0.7727 -0.3945 -0.1188
 4217SOL     OW24286   1.246   2.208   9.083  0.3372 -0.2019 -0.5736
 4217SOL    HW124287   1.261   2.148   9.010 -0.7582 -0.7731 -0.3365
 4217SOL    HW224288   1.336   2.231   9.105  0.3020  2.8148 -3.5008
 4218SOL     OW24289   2.434   0.362  11.410 -0.4336 -0.5670  0.0276
 4218SOL    HW124290   2.369   0.359  11.481 -1.3984  2.0666 -0.7360
 4218SOL    HW224291   2.403   0.445  11.375  0.9108  0.2715  0.8392
 4219SOL     OW24292   2.058   4.293   3.028  0.1098  0.1510 -0.2376
 4219SOL    HW124293   2.048   4.342   2.947 -1.0543  1.4870  0.7236
 4219SOL    HW224294   2.110   4.220   2.994  0.5212  1.4777 -2.4610
 4220SOL     OW24295   3.014   1.603   3.980 -0.0187  0.6330 -0.6787
 4220SOL    HW124296   2.981   1.514   3.995 -1.0853  0.6966 -2.7286
 4220SOL    HW224297   2.931   1.647   3.997  0.0531  1.0431 -1.3866
 4221SOL     OW24298   1.111   0.195   3.627 -0.2584  0.4524  0.2126
 4221SOL    HW124299   1.126   0.255   3.700 -1.8921 -1.3806  2.0151
 4221SOL    HW224300   1.081   0.264   3.567  1.3955  0.7114 -0.3259
 4222SOL     OW24301   0.723   3.033  15.889  0.6374 -0.4543 -0.0753
 4222SOL    HW124302   0.696   2.954  15.936 -1.3911  0.6008  0.5343
 4222SOL    HW224303   0.815   3.016  15.869  0.1254  0.5449 -3.2783
 4223SOL     OW24304   3.755   1.596   2.718  0.2975 -0.1694  0.2385
 4223SOL    HW124305   3.710   1.598   2.634 -0.2475  1.0215  0.5645
 4223SOL    HW224306   3.696   1.635   2.782  1.0035 -0.5941  1.1488
 4224SOL     OW24307   0.081   3.170  17.694  0.5919  0.1901 -0.1701
 4224SOL    HW124308   0.043   3.188  17.608  0.7155  1.3021  0.0130
 4224SOL    HW224309   4.732   3.154  17.737  2.1206 -1.5823  2.1652
 4225SOL     OW24310   2.283   2.359   9.735  0.3304 -0.4871 -0.1165
 4225SOL    HW124311   2.276   2.268   9.762 -0.6615 -0.6473 -0.9140
 4225SOL    HW224312   2.193   2.377   9.706  1.3607  1.9713 -1.7699
 4226SOL     OW24313   2.897   1.376   4.846  0.4497  0.4981  0.3246
 4226SOL    HW124314   2.923   1.457   4.803 -0.7250  1.0200  0.5979
 4226SOL    HW224315   2.970   1.373   4.907  0.3276 -1.0934  0.3952
 4227SOL     OW24316   4.541   3.522  14.943  0.1496 -0.8917  0.1041
 4227SOL    HW124317   4.594   3.445  14.964 -0.9493 -1.8177 -0.5411
 4227SOL    HW224318   4.484   3.513  15.019  0.6559  0.4311  0.6455
 4228SOL     OW24319   1.584   3.382   4.436 -0.2653  0.0927 -0.0522
 4228SOL    HW124320   1.564   3.289   4.425  0.1633  0.1313 -1.1536
 4228SOL    HW224321   1.612   3.408   4.348 -0.8703  0.2156 -0.2032
 4229SOL     OW24322   4.342   1.913   5.370  0.5355 -0.0129  0.2381
 4229SOL    HW124323   4.331   1.825   5.405 -1.0782 -0.6132 -1.8036
 4229SOL    HW224324   4.415   1.944   5.424  2.3910 -2.7935 -0.7275
 4230SOL     OW24325   4.605   2.982   5.505 -0.1387 -1.0408  0.0198
 4230SOL    HW124326   4.579   2.918   5.439  0.3207 -0.0341 -1.1267
 4230SOL    HW224327   4.653   3.046   5.453 -0.6461 -0.0265  0.8153
 4231SOL     OW24328   0.801   0.121   3.673  0.1150  0.5648  0.5821
 4231SOL    HW124329   0.890   0.102   3.703 -0.4817 -2.5095  0.3843
 4231SOL    HW224330   0.779   0.188   3.738 -1.3440  0.1163  0.5464
 4232SOL     OW24331   2.219   2.763   1.571  0.0019  0.1643  0.4687
 4232SOL    HW124332   2.210   2.816   1.493 -1.1262 -0.8394 -0.0754
 4232SOL    HW224333   2.175   2.685   1.538  2.1802 -1.4230  1.2736
 4233SOL     OW24334   0.771   2.946   8.635 -0.1442 -0.5153  0.3466
 4233SOL    HW124335   0.729   3.004   8.571 -1.8666  0.2422  2.1826
 4233SOL    HW224336   0.755   2.861   8.593  2.1460 -0.2691 -1.0490
 4234SOL     OW24337   0.751   3.419  15.166 -0.6027 -0.1343 -0.6477
 4234SOL    HW124338   0.776   3.445  15.254 -1.9300 -0.9578 -0.0199
 4234SOL    HW224339   0.770   3.325  15.166  1.6717  0.3129  1.4688
 4235SOL     OW24340   2.107   3.577   7.253 -0.1766  0.6902 -0.2336
 4235SOL    HW124341   2.031   3.634   7.260  0.0992  0.6427  2.9508
 4235SOL    HW224342   2.133   3.607   7.166  0.5755 -0.8708 -0.5565
 4236SOL     OW24343   3.719   4.408   1.120  0.3853 -0.0791 -0.3095
 4236SOL    HW124344   3.725   4.339   1.054 -2.1952  0.1699 -0.8207
 4236SOL    HW224345   3.714   4.364   1.204 -0.9302  0.7268  0.0370
 4237SOL     OW24346   2.940   3.481  16.005 -0.1018 -0.2117  0.0760
 4237SOL    HW124347   3.033   3.499  15.998 -0.0896  0.3800  1.6527
 4237SOL    HW224348   2.934   3.403  15.950  0.9270  0.1069 -0.4855
 4238SOL     OW24349   2.383   4.682   9.638 -0.1807 -0.0644 -0.0372
 4238SOL    HW124350   2.415   4.631   9.712 -0.4106 -1.0936 -0.6451
 4238SOL    HW224351   2.306   4.631   9.614 -0.1749 -0.0330 -0.1244
 4239SOL     OW24352   0.016   0.317  15.788  0.0391 -0.3573 -0.3928
 4239SOL    HW124353   0.104   0.311  15.824  0.3567 -1.0982 -1.3198
 4239SOL    HW224354   0.021   0.255  15.716 -0.0018 -0.4621 -0.3060
 4240SOL     OW24355   0.761   1.523   8.837  0.0215 -0.7645  0.0531
 4240SOL    HW124356   0.678   1.490   8.803 -0.7277 -0.0727  1.1972
 4240SOL    HW224357   0.724   1.592   8.892  0.1961 -1.9783  1.7089
 4241SOL     OW24358   2.688   2.705  11.892 -0.0483 -0.6714  0.0153
 4241SOL    HW124359   2.702   2.800  11.896  0.1731 -0.7284  0.5823
 4241SOL    HW224360   2.600   2.683  11.923  0.0592 -0.7455  0.2673
 4242SOL     OW24361   0.312   0.741   6.161  0.0905 -0.4216  1.1016
 4242SOL    HW124362   0.266   0.801   6.219 -1.7282 -0.6063 -0.1761
 4242SOL    HW224363   0.342   0.793   6.087  0.0089  0.8565  1.9566
 4243SOL     OW24364   4.410   4.574  13.607 -0.1780 -0.4065 -0.2521
 4243SOL    HW124365   4.483   4.635  13.613 -0.9670  0.4579  0.6044
 4243SOL    HW224366   4.355   4.616  13.674  0.3897 -1.2167  0.7178
 4244SOL     OW24367   4.338   0.548   8.323  0.2663 -0.0108  0.2421
 4244SOL    HW124368   4.259   0.534   8.272  0.9940  1.2076 -1.2327
 4244SOL    HW224369   4.359   0.455   8.327  1.9746  0.5131  3.4999
 4245SOL     OW24370   1.504   3.836   3.017  0.3355  0.1569 -0.2372
 4245SOL    HW124371   1.435   3.800   2.961  3.4907 -2.3464 -2.4858
 4245SOL    HW224372   1.523   3.756   3.065  0.9755  1.2667  1.3817
 4246SOL     OW24373   0.407   2.583   3.539  0.0029  0.4512 -0.4280
 4246SOL    HW124374   0.324   2.622   3.566  0.0163 -0.4570  0.9127
 4246SOL    HW224375   0.426   2.541   3.623 -4.5114  0.0518  0.3827
 4247SOL     OW24376   0.019   2.821   4.084 -0.2414  0.8574 -0.5428
 4247SOL    HW124377   0.069   2.805   4.004 -0.1859 -0.7094 -0.2058
 4247SOL    HW224378   0.080   2.872   4.137  1.9009  1.5212 -3.6563
 4248SOL     OW24379   0.145   1.508   7.840 -0.0694 -0.4446 -0.0888
 4248SOL    HW124380   0.203   1.494   7.764 -0.5214  0.4871 -0.6017
 4248SOL    HW224381   0.077   1.560   7.798  0.5204  0.8761  0.6025
 4249SOL     OW24382   1.085   1.294   3.872  0.2840 -0.0777  0.2069
 4249SOL    HW124383   1.150   1.330   3.933 -1.9555 -0.0460  2.5628
 4249SOL    HW224384   1.066   1.206   3.904  1.0682  0.0349  0.9967
 4250SOL     OW24385   3.663   3.184  15.334  0.5740  0.1821  0.4324
 4250SOL    HW124386   3.648   3.251  15.400 -0.1691 -0.6575  1.1199
 4250SOL    HW224387   3.604   3.211  15.263  1.4557  0.2633 -0.2640
 4251SOL     OW24388   1.001   2.299  15.403  0.3110  0.2949  0.0970
 4251SOL    HW124389   0.916   2.306  15.360  1.2037  0.8000 -1.5981
 4251SOL    HW224390   0.971   2.320  15.491 -0.7399 -1.7281  0.2208
 4252SOL     OW24391   0.067   1.409   6.502 -0.0021 -0.2584  0.2694
 4252SOL    HW124392   0.018   1.338   6.462  2.1504 -1.1530 -0.7945
 4252SOL    HW224393   0.141   1.360   6.539  1.3019  1.5456  0.0241
 4253SOL     OW24394   0.497   1.084  12.897  0.3679  0.1350 -0.1832
 4253SOL    HW124395   0.411   1.089  12.854  0.4145 -1.3996 -0.4644
 4253SOL    HW224396   0.549   1.111  12.821  0.5438 -2.4337 -0.9809
 4254SOL     OW24397   3.921   0.348  17.570 -0.1553  0.1961 -0.1379
 4254SOL    HW124398   3.926   0.432  17.617 -0.9060  0.0765  0.1584
 4254SOL    HW224399   3.929   0.371  17.478  0.3523  0.1369 -0.1068
 4255SOL     OW24400   3.253   2.423  11.956 -0.4036  1.1711  0.0170
 4255SOL    HW124401   3.232   2.486  11.886 -1.2613 -0.6271 -1.3503
 4255SOL    HW224402   3.338   2.394  11.923 -0.3998  0.9451  0.2352
 4256SOL     OW24403   1.833   1.905   8.304 -0.1391  0.2410  0.4013
 4256SOL    HW124404   1.813   1.912   8.397 -0.6474  0.0320  0.3074
 4256SOL    HW224405   1.751   1.940   8.271  0.6628  1.4618 -0.2848
 4257SOL     OW24406   0.219   3.922   7.639  0.7229  0.3841  0.4242
 4257SOL    HW124407   0.248   3.851   7.581 -0.5868 -0.5931  0.9542
 4257SOL    HW224408   0.137   3.942   7.594  0.7977  0.2838  0.2416
 4258SOL     OW24409   2.910   2.174   7.937  0.3008 -0.2093  0.1124
 4258SOL    HW124410   2.960   2.254   7.952  1.4766 -0.8780 -0.2682
 4258SOL    HW224411   2.870   2.197   7.853  0.3316  0.0630  0.1732
 4259SOL     OW24412   2.715   1.143   3.910  0.5117 -0.2760 -0.3220
 4259SOL    HW124413   2.649   1.204   3.941  1.6170 -0.1081  1.6946
 4259SOL    HW224414   2.689   1.139   3.817 -1.0044 -0.5073  0.1179
 4260SOL     OW24415   0.813   1.127  12.879  0.0623  0.0107 -0.1453
 4260SOL    HW124416   0.790   1.183  12.805 -1.1538  0.1384  0.3203
 4260SOL    HW224417   0.759   1.049  12.864 -1.2850  0.9997 -0.5091
 4261SOL     OW24418   1.210   0.103   6.596  0.2213 -0.4302  0.1725
 4261SOL    HW124419   1.257   0.152   6.664 -0.6684 -0.7883  1.0368
 4261SOL    HW224420   1.161   0.176   6.557  0.8625  1.3013  2.6083
 4262SOL     OW24421   0.350   4.431   2.171  0.1582  0.2466 -0.1236
 4262SOL    HW124422   0.310   4.363   2.224  0.4776  0.9821  1.0625
 4262SOL    HW224423   0.442   4.424   2.198 -0.2096 -0.8516  0.8549
 4263SOL     OW24424   4.334   2.592   3.667 -0.0037  0.3330 -0.1234
 4263SOL    HW124425   4.253   2.555   3.701  0.6841 -0.3733  0.7469
 4263SOL    HW224426   4.301   2.671   3.626  1.7296  0.4149 -1.3725
 4264SOL     OW24427   3.951   1.503   5.748 -0.4520  0.8505 -0.1582
 4264SOL    HW124428   3.953   1.462   5.661 -1.9841 -1.9426  1.0914
 4264SOL    HW224429   4.044   1.514   5.764 -0.4530 -0.5212  0.8351
 4265SOL     OW24430   0.908   2.719   4.587 -0.3627  0.5836 -0.3628
 4265SOL    HW124431   0.946   2.695   4.503  1.3167 -2.4437  1.2655
 4265SOL    HW224432   0.974   2.674   4.640 -0.3596 -0.0606 -0.9160
 4266SOL     OW24433   4.025   1.213   2.243  0.3158 -0.4463 -0.0721
 4266SOL    HW124434   3.949   1.170   2.202 -0.6153  0.0760  1.0975
 4266SOL    HW224435   4.004   1.306   2.237  0.0400 -0.5587 -0.8460
 4267SOL     OW24436   2.532   2.114  15.622 -0.3454 -0.3048  0.5687
 4267SOL    HW124437   2.544   2.095  15.529 -1.0978  1.3032  0.1537
 4267SOL    HW224438   2.610   2.067  15.653 -0.5983 -0.4164  1.0332
 4268SOL     OW24439   2.437   3.401  17.682  0.1068 -0.1224  0.3160
 4268SOL    HW124440   2.410   3.398  17.590  0.2212  0.2650  0.2709
 4268SOL    HW224441   2.403   3.487  17.707  1.0174  0.3948 -0.2069
 4269SOL     OW24442   1.738   1.105   5.817 -0.3868  0.7090 -0.1568
 4269SOL    HW124443   1.653   1.083   5.855 -0.8472  2.4083 -0.1728
 4269SOL    HW224444   1.770   1.019   5.792  0.6093  1.2279 -0.6415
 4270SOL     OW24445   2.498   0.813   4.347  0.1378 -0.0391 -0.2197
 4270SOL    HW124446   2.592   0.799   4.353  0.6701  3.6185 -0.0114
 4270SOL    HW224447   2.476   0.846   4.434 -0.0333  0.8831 -0.6091
 4271SOL     OW24448   2.985   3.820   9.777  0.2329 -0.3141 -0.5420
 4271SOL    HW124449   3.064   3.849   9.822  0.6355 -1.3454 -0.5893
 4271SOL    HW224450   2.942   3.906   9.776  0.2338 -0.3161 -0.7598
 4272SOL     OW24451   4.730   1.696   2.408  0.7245  0.2913  0.8303
 4272SOL    HW124452   4.716   1.790   2.422 -0.8143  0.5577 -2.5153
 4272SOL    HW224453   4.642   1.668   2.430  0.3859  0.1224 -0.7316
 4273SOL     OW24454   2.447   4.347   7.916  0.3430 -0.0414 -0.0408
 4273SOL    HW124455   2.496   4.422   7.949  0.2621  1.5753 -3.6082
 4273SOL    HW224456   2.392   4.330   7.993 -0.0441  1.2006 -0.0397
 4274SOL     OW24457   3.056   1.514   6.715 -0.2876 -0.4937  0.2274
 4274SOL    HW124458   2.965   1.519   6.686 -0.9770 -2.5417  2.0413
 4274SOL    HW224459   3.103   1.508   6.631 -1.3981 -0.7659 -0.3727
 4275SOL     OW24460   2.666   2.218   3.253 -1.0480  0.0628  0.4763
 4275SOL    HW124461   2.691   2.187   3.339 -1.1484  2.0055  1.2133
 4275SOL    HW224462   2.713   2.302   3.255 -0.6713 -0.1694  1.0639
 4276SOL     OW24463   0.766   4.626   7.364  0.2417  0.2646 -0.5717
 4276SOL    HW124464   0.740   4.606   7.274 -1.7991 -0.0348  0.0943
 4276SOL    HW224465   0.679   4.654   7.394 -1.1799 -3.4882 -1.1593
 4277SOL     OW24466   2.558   0.895   8.477 -0.0713  0.5402 -0.3171
 4277SOL    HW124467   2.496   0.904   8.550  0.3423 -0.2721  0.1327
 4277SOL    HW224468   2.619   0.834   8.518  0.9288  1.0534 -1.0404
 4278SOL     OW24469   3.557   2.330   3.210 -0.3377 -0.6534 -0.1876
 4278SOL    HW124470   3.559   2.409   3.156  0.2671 -0.9745 -0.6369
 4278SOL    HW224471   3.604   2.358   3.289 -0.3971  4.1270 -1.8537
 4279SOL     OW24472   2.570   0.214   8.740 -0.3166  0.8727  0.1615
 4279SOL    HW124473   2.562   0.144   8.676 -2.7529  1.6798 -0.4095
 4279SOL    HW224474   2.489   0.209   8.792  0.8056  2.3930  2.0821
 4280SOL     OW24475   0.374   4.071   9.477  0.6891 -0.3489 -1.1242
 4280SOL    HW124476   0.321   4.131   9.530 -1.0507 -0.5010 -2.6804
 4280SOL    HW224477   0.340   3.993   9.520  0.0621  0.5001 -0.0771
 4281SOL     OW24478   2.222   2.201  13.369 -0.6212 -0.0674  0.7156
 4281SOL    HW124479   2.314   2.198  13.395 -0.7546 -1.3419  1.0969
 4281SOL    HW224480   2.174   2.221  13.450 -0.0714 -1.4910  1.4019
 4282SOL     OW24481   1.688   0.544   7.673 -0.6609 -0.4517  0.4154
 4282SOL    HW124482   1.679   0.599   7.595  1.4897 -1.8256 -0.8037
 4282SOL    HW224483   1.732   0.464   7.645  0.2099 -0.1868  1.0392
 4283SOL     OW24484   4.341   1.197  14.814  0.2800  0.6602 -0.3547
 4283SOL    HW124485   4.390   1.119  14.841  1.3805  2.2099  2.1350
 4283SOL    HW224486   4.338   1.182  14.719 -3.9551 -1.3185  0.0835
 4284SOL     OW24487   0.786   1.054   8.526 -0.4196 -0.6837 -0.7611
 4284SOL    HW124488   0.701   1.014   8.545  0.5472 -2.4240  0.0044
 4284SOL    HW224489   0.787   1.116   8.599  0.6243 -2.5593  0.8331
 4285SOL     OW24490   2.515   4.475   4.904  0.7325  0.0663 -0.1860
 4285SOL    HW124491   2.506   4.409   4.836 -0.7229  1.3399 -1.2341
 4285SOL    HW224492   2.463   4.543   4.861  1.4180  1.3958  1.0752
 4286SOL     OW24493   2.548   1.007   4.187  0.3002  0.0715 -0.1818
 4286SOL    HW124494   2.601   1.061   4.246  2.0835 -0.5019 -1.2495
 4286SOL    HW224495   2.511   0.946   4.251  1.9371  1.1675  1.8083
 4287SOL     OW24496   2.969   1.616   7.082 -0.2045  0.5231 -0.3606
 4287SOL    HW124497   2.949   1.528   7.050 -2.8723  0.9014  0.2905
 4287SOL    HW224498   2.914   1.663   7.019 -1.1381  0.5698  0.4991
 4288SOL     OW24499   2.242   1.625  15.647 -1.0399 -0.1018 -0.0495
 4288SOL    HW124500   2.155   1.618  15.686 -1.8000 -2.8868 -2.2462
 4288SOL    HW224501   2.289   1.561  15.702  1.1628  0.4353 -1.2819
 4289SOL     OW24502   3.416   3.651   4.043 -0.3974 -0.1485  0.4684
 4289SOL    HW124503   3.400   3.630   3.951 -2.0954 -0.2731  0.7880
 4289SOL    HW224504   3.356   3.722   4.064  0.2003  0.8859 -1.2716
 4290SOL     OW24505   4.442   3.614   5.104 -0.2328  0.5225 -0.4787
 4290SOL    HW124506   4.437   3.647   5.014  1.5149 -0.0581 -0.7840
 4290SOL    HW224507   4.502   3.542   5.087 -0.8456 -0.2968  0.8880
 4291SOL     OW24508   3.237   2.086   7.812  0.0375 -0.1127 -0.0149
 4291SOL    HW124509   3.161   2.050   7.857 -0.0472 -1.4267 -1.1907
 4291SOL    HW224510   3.286   2.133   7.880  1.4551 -0.3425 -0.8792
 4292SOL     OW24511   4.189   4.707  13.051  0.3891 -0.2388 -0.5169
 4292SOL    HW124512   4.271   4.697  13.002  0.7676 -1.2336  0.3074
 4292SOL    HW224513   4.141   0.041  13.006  0.4358  1.3339  1.8431
 4293SOL     OW24514   1.062   1.822   4.999 -0.1278  0.4150  0.5370
 4293SOL    HW124515   1.072   1.897   5.058  0.0157  0.7526  0.0869
 4293SOL    HW224516   1.129   1.836   4.932  0.1594 -1.1410  0.5072
 4294SOL     OW24517   1.626   0.331   7.451 -0.1350 -0.3329  0.4065
 4294SOL    HW124518   1.532   0.318   7.463 -0.5155  0.9386 -1.2056
 4294SOL    HW224519   1.661   0.314   7.539  0.1340 -1.1483  0.1392
 4295SOL     OW24520   1.670   1.648   4.577  0.0123 -0.2728 -0.2591
 4295SOL    HW124521   1.591   1.700   4.565 -1.9231 -3.1455  0.0598
 4295SOL    HW224522   1.690   1.615   4.490  0.6902 -0.5675  0.0006
 4296SOL     OW24523   3.588   0.526   3.619  0.2275 -0.1055 -0.1112
 4296SOL    HW124524   3.647   0.485   3.555 -1.5804 -0.4377 -1.5711
 4296SOL    HW224525   3.558   0.598   3.562 -0.2896 -1.3738 -1.4525
 4297SOL     OW24526   3.960   4.243   4.237 -0.4298  0.3062  0.0094
 4297SOL    HW124527   4.018   4.250   4.161 -0.2436  2.3285  0.3323
 4297SOL    HW224528   4.028   4.245   4.304  0.1925 -0.5179 -0.5933
 4298SOL     OW24529   3.875   4.273   8.667 -0.5770 -0.5353 -0.2023
 4298SOL    HW124530   3.936   4.267   8.594 -0.3388 -1.7020  0.0971
 4298SOL    HW224531   3.802   4.322   8.628 -0.5162 -0.5615 -0.3487
 4299SOL     OW24532   1.676   4.037  11.542  0.3038  0.3063 -0.1961
 4299SOL    HW124533   1.641   4.019  11.454 -0.5355  1.9666 -0.1905
 4299SOL    HW224534   1.747   3.973  11.548 -0.1934 -0.4323 -1.9728
 4300SOL     OW24535   2.165   4.586  15.288  0.5256 -0.8890 -0.3256
 4300SOL    HW124536   2.083   4.537  15.279 -0.3772  0.7891 -1.0589
 4300SOL    HW224537   2.144   4.669  15.331  1.1927 -0.7014 -0.3706
 4301SOL     OW24538   3.523   0.160  14.777 -0.2647  0.2639  0.2128
 4301SOL    HW124539   3.537   0.173  14.871  0.2594 -0.2366  0.2033
 4301SOL    HW224540   3.437   0.121  14.761  0.6397 -1.3413 -0.7351
 4302SOL     OW24541   3.056   0.868   8.990 -0.1287  0.2149  0.5731
 4302SOL    HW124542   2.979   0.910   9.029  1.3489  1.1267  2.4868
 4302SOL    HW224543   3.122   0.926   9.028  1.8381 -1.8424  0.2627
 4303SOL     OW24544   0.408   0.456   4.922  0.2328 -0.0064  0.3439
 4303SOL    HW124545   0.355   0.531   4.893  1.2939  0.3945 -0.5694
 4303SOL    HW224546   0.487   0.502   4.949  1.3336 -0.8750 -1.4060
 4304SOL     OW24547   2.831   3.933   2.857  0.3245  0.2682  0.6860
 4304SOL    HW124548   2.762   3.924   2.792 -1.0508 -1.9359  2.4876
 4304SOL    HW224549   2.777   3.927   2.935 -1.4257 -0.2831 -0.5832
 4305SOL     OW24550   1.842   4.634  16.592 -0.4214 -0.0949  0.8311
 4305SOL    HW124551   1.850   4.708  16.652 -0.0146 -0.8308  1.6788
 4305SOL    HW224552   1.757   4.594  16.612 -1.0835  0.0760 -1.5932
 4306SOL     OW24553   4.470   0.139   6.498  0.2650 -0.2422  0.1853
 4306SOL    HW124554   4.471   0.126   6.403  0.1369 -0.9124  0.2723
 4306SOL    HW224555   4.453   0.232   6.512 -0.6511 -0.1188 -1.7374
 4307SOL     OW24556   0.949   3.416   6.476  0.3564  0.4986 -0.4787
 4307SOL    HW124557   0.988   3.331   6.455 -2.5412 -1.5131  2.3894
 4307SOL    HW224558   0.854   3.402   6.472  0.7549 -1.4992 -3.1062
 4308SOL     OW24559   0.318   3.567  14.792  0.0488  0.6443  0.3574
 4308SOL    HW124560   0.333   3.588  14.884 -2.3848  2.8773  0.2416
 4308SOL    HW224561   0.265   3.488  14.801 -1.2361  1.4674 -0.0766
 4309SOL     OW24562   1.838   3.801  13.790  0.3111  0.2953 -0.0708
 4309SOL    HW124563   1.890   3.842  13.859 -0.8034  1.9105 -0.1779
 4309SOL    HW224564   1.764   3.862  13.782  0.7616  1.0818  1.8186
 4310SOL     OW24565   3.063   3.712   8.377 -0.1629 -0.1245  0.1441
 4310SOL    HW124566   3.141   3.657   8.387 -0.0709  0.1394  0.8769
 4310SOL    HW224567   2.992   3.656   8.408 -0.7289  0.3707 -0.2666
 4311SOL     OW24568   1.077   2.234  10.080 -0.5313 -0.6993  0.0682
 4311SOL    HW124569   0.984   2.215  10.070 -0.0338 -3.8624  1.6234
 4311SOL    HW224570   1.087   2.268   9.991  0.9070 -1.1762  0.0525
 4312SOL     OW24571   3.020   0.989   6.604  0.0336 -0.3479  0.0033
 4312SOL    HW124572   2.964   1.005   6.679  3.5329 -0.0411  2.5780
 4312SOL    HW224573   3.102   0.965   6.649  0.2402 -0.8351 -0.6285
 4313SOL     OW24574   4.507   1.403  12.614 -0.3513  0.3174 -0.2962
 4313SOL    HW124575   4.463   1.485  12.637  1.0899  1.0086  0.0299
 4313SOL    HW224576   4.434   1.346  12.592 -0.9753  1.4385 -1.1248
 4314SOL     OW24577   4.436   2.300  11.812 -0.3490 -0.1446  0.1070
 4314SOL    HW124578   4.528   2.309  11.837 -0.3208 -1.3746  0.4186
 4314SOL    HW224579   4.399   2.381  11.848 -1.0711 -0.5552  0.2706
 4315SOL     OW24580   0.665   3.747   9.671 -0.3584 -0.2526  0.1577
 4315SOL    HW124581   0.688   3.656   9.692 -0.9118 -0.3616  0.3112
 4315SOL    HW224582   0.731   3.787   9.726  0.4617 -0.4993 -0.6470
 4316SOL     OW24583   1.695   1.376   7.392  0.2263  0.5585 -0.4289
 4316SOL    HW124584   1.644   1.399   7.470 -0.8302 -2.0201 -0.3660
 4316SOL    HW224585   1.700   1.461   7.348 -0.6177  1.1112  0.5242
 4317SOL     OW24586   2.067   3.124   9.996 -0.3336  0.2766 -1.0279
 4317SOL    HW124587   2.130   3.127   9.925  0.4850 -0.9944 -0.3630
 4317SOL    HW224588   2.008   3.197   9.978 -0.0397  1.1605  1.5718
 4318SOL     OW24589   1.233   3.782   1.501  0.1851  0.1029 -0.2529
 4318SOL    HW124590   1.186   3.801   1.582  1.9939 -0.9833  1.0785
 4318SOL    HW224591   1.210   3.862   1.455 -1.7694 -1.2394 -1.6051
 4319SOL     OW24592   2.050   2.521   9.168 -0.1042  0.0805 -0.4263
 4319SOL    HW124593   2.044   2.463   9.092 -1.9647  0.5963 -0.6617
 4319SOL    HW224594   2.143   2.543   9.155  0.2414  0.0450  2.1511
 4320SOL     OW24595   2.908   0.059  17.717 -0.3912 -0.1610 -0.3469
 4320SOL    HW124596   2.816   0.038  17.729 -0.5217  0.6174  0.0043
 4320SOL    HW224597   2.952   4.723   0.023  0.3546  1.2956  1.2272
 4321SOL     OW24598   1.097   1.627   5.968 -0.3953  0.4502  0.0052
 4321SOL    HW124599   1.178   1.576   5.970 -0.2059  0.7480 -0.1427
 4321SOL    HW224600   1.077   1.617   6.061  0.1497 -0.1776  0.0537
 4322SOL     OW24601   2.260   1.813  12.769  0.2168  0.0805 -0.5623
 4322SOL    HW124602   2.188   1.847  12.823  1.0545  1.7166 -0.4854
 4322SOL    HW224603   2.250   1.850  12.681 -0.0822 -0.6733 -0.8473
 4323SOL     OW24604   0.305   4.730  13.112  0.0420 -0.3520 -0.3459
 4323SOL    HW124605   0.363   4.694  13.179 -2.1766 -1.8417  0.7803
 4323SOL    HW224606   0.291   0.080  13.153  1.9800 -1.6028  3.0153
 4324SOL     OW24607   4.037   1.172   3.676 -0.3975  0.1479  0.3915
 4324SOL    HW124608   4.024   1.181   3.582  1.4756  1.6251  0.2683
 4324SOL    HW224609   4.132   1.172   3.684 -0.3372 -1.0536 -0.4562
 4325SOL     OW24610   0.966   0.378   2.823  0.2515 -0.4957  0.0063
 4325SOL    HW124611   1.040   0.323   2.848  0.6462 -0.1323 -0.3512
 4325SOL    HW224612   0.961   0.378   2.727  3.0001 -1.2150 -0.1378
 4326SOL     OW24613   2.022   4.372   2.781  0.1853  0.3284 -0.0275
 4326SOL    HW124614   2.045   4.322   2.702  0.4406  0.0924  0.1933
 4326SOL    HW224615   1.943   4.409   2.744  0.2960  1.8799  1.3079
 4327SOL     OW24616   3.098   3.242  16.978 -0.3523 -0.1136  0.5636
 4327SOL    HW124617   3.185   3.273  17.004 -0.3431  1.1724 -1.0297
 4327SOL    HW224618   3.072   3.189  17.054 -2.6390  2.1161  1.3103
 4328SOL     OW24619   2.428   0.576   8.467  0.8181 -0.4983 -0.4858
 4328SOL    HW124620   2.473   0.637   8.526  0.5725 -2.4775  1.7837
 4328SOL    HW224621   2.434   0.501   8.527  0.2177  1.1003  1.6023
 4329SOL     OW24622   2.707   4.190   6.309  0.4235  0.5597  0.7605
 4329SOL    HW124623   2.684   4.273   6.268 -1.5214 -0.8359 -0.9398
 4329SOL    HW224624   2.622   4.153   6.334 -0.0795  0.2824 -1.3763
 4330SOL     OW24625   0.941   0.076   3.228 -0.3811  0.0150  0.0662
 4330SOL    HW124626   0.862   0.088   3.175  0.5665 -0.8592 -1.5649
 4330SOL    HW224627   0.997   0.033   3.163 -0.9733 -3.4699  1.8586
 4331SOL     OW24628   2.197   2.299   3.421 -0.3215  0.0603  0.2062
 4331SOL    HW124629   2.142   2.227   3.392  1.6061 -0.7686 -1.3427
 4331SOL    HW224630   2.158   2.324   3.505  2.0394  0.4894  1.1952
 4332SOL     OW24631   3.202   4.486   7.976 -0.5195  0.4782 -0.3372
 4332SOL    HW124632   3.138   4.485   7.905  1.4473 -0.5822 -2.1075
 4332SOL    HW224633   3.194   4.575   8.009 -1.3873  0.4316 -0.4309
 4333SOL     OW24634   1.455   1.935   7.694  0.4857 -0.3074  0.2109
 4333SOL    HW124635   1.434   2.005   7.632 -2.5973 -1.2773  0.1617
 4333SOL    HW224636   1.468   1.984   7.776 -0.8327 -1.5052  1.1346
 4334SOL     OW24637   2.132   1.006   6.870  0.5588  0.0572  0.6820
 4334SOL    HW124638   2.221   1.024   6.900  0.6926 -0.1878  0.4214
 4334SOL    HW224639   2.147   0.921   6.830  1.5605  1.0619 -1.0870
 4335SOL     OW24640   2.918   3.390   2.117  0.4074  0.4072  0.1847
 4335SOL    HW124641   2.841   3.444   2.139  0.5070 -0.0419  1.6190
 4335SOL    HW224642   2.981   3.461   2.102  0.5013  0.5728  1.4028
 4336SOL     OW24643   2.426   3.600   7.274 -0.5430  0.4411  0.1934
 4336SOL    HW124644   2.363   3.655   7.318 -0.7692  0.2007  0.1694
 4336SOL    HW224645   2.362   3.540   7.237 -1.0009  1.4364 -0.6251
 4337SOL     OW24646   3.963   0.062   6.389  0.3384 -0.5430  0.0703
 4337SOL    HW124647   4.033   0.064   6.454  0.6856 -0.4509 -0.3037
 4337SOL    HW224648   3.884   0.065   6.443 -1.2860 -3.4263 -2.1270
 4338SOL     OW24649   0.589   1.140   0.820  0.1213 -0.5237  0.1863
 4338SOL    HW124650   0.513   1.187   0.786 -0.1262 -1.4830 -0.6181
 4338SOL    HW224651   0.655   1.208   0.835 -1.0069  0.3681  1.0083
 4339SOL     OW24652   0.443   1.664   8.556  0.1437 -0.2398  0.4118
 4339SOL    HW124653   0.445   1.594   8.491 -0.2623 -0.3988  0.5695
 4339SOL    HW224654   0.369   1.718   8.529  0.5755 -0.1475 -0.6104
 4340SOL     OW24655   2.742   0.600   7.338  0.5627  0.5135  0.2250
 4340SOL    HW124656   2.835   0.613   7.317  0.4624 -0.0124 -0.5499
 4340SOL    HW224657   2.738   0.632   7.428  1.7385  0.7446  0.2030
 4341SOL     OW24658   3.360   4.555   5.356 -0.4847  0.9284  0.4523
 4341SOL    HW124659   3.374   4.615   5.429 -0.5622 -0.0121  1.2398
 4341SOL    HW224660   3.439   4.501   5.366 -0.8535  0.2531 -0.2833
 4342SOL     OW24661   1.297   1.491   1.700  0.5778  0.2089 -0.3735
 4342SOL    HW124662   1.362   1.556   1.671  1.3376 -0.2356  0.3383
 4342SOL    HW224663   1.246   1.553   1.753  0.5078  0.6870 -0.9922
 4343SOL     OW24664   4.411   2.273   8.082 -0.6238 -0.1431  0.0233
 4343SOL    HW124665   4.409   2.235   7.994  0.2824 -1.9914  0.7864
 4343SOL    HW224666   4.393   2.364   8.058  0.2529 -0.1610 -0.7008
 4344SOL     OW24667   3.164   4.034   6.623  0.5146  0.2718 -0.0822
 4344SOL    HW124668   3.081   3.995   6.650  0.0028  0.2344 -1.6838
 4344SOL    HW224669   3.184   4.068   6.711 -0.4531 -0.1682  0.3070
 4345SOL     OW24670   2.329   2.149  14.344 -0.0834  0.0114 -1.1116
 4345SOL    HW124671   2.411   2.196  14.355 -0.9629  1.2987  0.0836
 4345SOL    HW224672   2.307   2.166  14.252  1.4036 -1.9258 -1.8076
 4346SOL     OW24673   3.328   1.413  16.600  0.3446 -0.3242 -0.5144
 4346SOL    HW124674   3.262   1.344  16.608  0.7060 -0.4106  1.5816
 4346SOL    HW224675   3.371   1.385  16.519  0.3143  0.0378 -0.6558
 4347SOL     OW24676   3.083   1.246   2.154  0.8613 -0.2930  0.0675
 4347SOL    HW124677   3.036   1.204   2.081  1.9308 -2.5230  0.6510
 4347SOL    HW224678   3.102   1.328   2.109 -0.8332 -0.3553 -0.7820
 4348SOL     OW24679   1.946   2.625   8.549 -0.0070 -0.2429 -0.4288
 4348SOL    HW124680   1.998   2.572   8.488 -2.3128 -1.1128 -1.6192
 4348SOL    HW224681   1.996   2.707   8.556 -1.7486  0.5926  2.1140
 4349SOL     OW24682   2.938   0.226  14.121  0.2730 -0.1075 -0.3842
 4349SOL    HW124683   3.015   0.281  14.111  0.3490 -0.3524 -1.1781
 4349SOL    HW224684   2.891   0.257  14.044  0.4474 -3.5715 -1.8885
 4350SOL     OW24685   3.798   1.890  10.472  0.0892 -0.6810 -0.4341
 4350SOL    HW124686   3.849   1.811  10.452  0.5097  0.0092 -2.0408
 4350SOL    HW224687   3.845   1.929  10.546 -0.2100  1.2312 -1.2437
 4351SOL     OW24688   1.694   3.492   9.854 -0.1900  0.8236  0.7514
 4351SOL    HW124689   1.665   3.508   9.764  1.8746 -1.5338 -0.3476
 4351SOL    HW224690   1.730   3.577   9.879  4.7674 -0.6883 -1.2072
 4352SOL     OW24691   0.277   3.074  16.423  0.3717 -0.4454  0.3335
 4352SOL    HW124692   0.276   3.156  16.473  3.2312 -1.2827  1.7274
 4352SOL    HW224693   0.318   3.030  16.497 -0.5580  0.8866  1.6332
 4353SOL     OW24694   1.044   4.447   7.976  0.4941  0.4692 -0.2441
 4353SOL    HW124695   0.978   4.379   7.983  1.9783 -1.1341 -1.8620
 4353SOL    HW224696   1.023   4.487   7.891  0.0500  2.1880  0.6656
 4354SOL     OW24697   1.247   3.557   6.286 -0.3491 -0.1428  0.3743
 4354SOL    HW124698   1.228   3.463   6.275  1.2806 -0.4914  0.5117
 4354SOL    HW224699   1.216   3.597   6.205 -0.4322 -0.3626  0.2965
 4355SOL     OW24700   1.681   2.214   8.614  0.6938 -0.1089  0.0632
 4355SOL    HW124701   1.586   2.227   8.616  0.4769 -1.4078 -1.6817
 4355SOL    HW224702   1.690   2.303   8.580  1.1340 -0.4762 -0.7937
 4356SOL     OW24703   2.837   3.744  13.588  0.3423  0.1133  0.1054
 4356SOL    HW124704   2.788   3.739  13.506 -0.1137  1.7225  0.2766
 4356SOL    HW224705   2.810   3.832  13.616 -1.0408  0.4578 -2.2582
 4357SOL     OW24706   2.791   3.269  11.096 -0.6500 -0.2806 -0.3733
 4357SOL    HW124707   2.885   3.286  11.095 -0.6363 -0.1569  2.2609
 4357SOL    HW224708   2.764   3.320  11.020  2.2035 -0.0506 -1.2329
 4358SOL     OW24709   0.049   3.175   2.917 -0.0738 -0.4117 -0.8036
 4358SOL    HW124710   0.116   3.169   2.985 -0.3394 -0.7948 -0.5709
 4358SOL    HW224711   0.093   3.121   2.852  1.8222  0.0472  0.0906
 4359SOL     OW24712   3.506   0.770  10.100  0.2276 -0.0347  0.4138
 4359SOL    HW124713   3.570   0.841  10.090 -0.8990  0.7203 -1.4687
 4359SOL    HW224714   3.524   0.730  10.185  0.0041  0.5403  0.7239
 4360SOL     OW24715   4.116   4.423   5.064 -0.6042 -0.0178 -0.3750
 4360SOL    HW124716   4.178   4.438   5.135 -0.9415 -2.2479  0.4043
 4360SOL    HW224717   4.041   4.457   5.112  1.0982  1.4829  1.2283
 4361SOL     OW24718   0.776   0.265   7.206  0.4502 -0.5936  0.3119
 4361SOL    HW124719   0.826   0.257   7.287  1.7429  1.7465 -0.2333
 4361SOL    HW224720   0.821   0.333   7.155  0.5989 -0.9039  0.0264
 4362SOL     OW24721   2.347   2.001   8.814 -0.3301 -0.3346 -0.3818
 4362SOL    HW124722   2.402   1.977   8.740  2.1866 -1.2920  1.7941
 4362SOL    HW224723   2.384   1.955   8.889 -0.5251 -2.0567 -1.3359
 4363SOL     OW24724   1.790   0.658   0.743 -0.6168  0.0828  0.1097
 4363SOL    HW124725   1.714   0.646   0.799 -1.0409 -1.4981 -0.7825
 4363SOL    HW224726   1.850   0.591   0.776  1.0690  1.3217 -0.4494
 4364SOL     OW24727   4.113   4.286   3.996 -0.4893  0.4811  0.7608
 4364SOL    HW124728   4.193   4.336   3.978  0.8509 -1.5207  1.2377
 4364SOL    HW224729   4.063   4.289   3.914  1.8801  0.4667 -0.6662
 4365SOL     OW24730   2.102   0.114   2.892 -0.6761 -0.4592  0.0782
 4365SOL    HW124731   2.037   0.148   2.831  0.0263  3.1667  1.3157
 4365SOL    HW224732   2.176   0.126   2.833 -0.0525  1.3404  1.2363
 4366SOL     OW24733   3.604   4.152  15.696  0.5951  0.1460  0.1435
 4366SOL    HW124734   3.610   4.247  15.703 -1.5282  0.2583  0.2504
 4366SOL    HW224735   3.581   4.130  15.786  0.1003 -0.5297 -0.1526
 4367SOL     OW24736   1.411   4.612   9.043  0.7016 -1.0031 -0.7140
 4367SOL    HW124737   1.495   4.634   9.083  1.1003 -0.2687 -1.9201
 4367SOL    HW224738   1.429   4.626   8.950 -2.3549 -2.3844 -1.4954
 4368SOL     OW24739   2.133   1.136   2.342 -0.2745  0.2193  0.3726
 4368SOL    HW124740   2.213   1.085   2.360 -0.9921 -0.9397  0.2791
 4368SOL    HW224741   2.089   1.085   2.410 -1.3745 -0.7708 -1.0700
 4369SOL     OW24742   4.253   1.460   3.509 -0.1800  0.0857  0.0430
 4369SOL    HW124743   4.241   1.419   3.595  1.1321 -0.2077  0.0862
 4369SOL    HW224744   4.175   1.515   3.516 -1.1040 -0.9202 -2.4340
 4370SOL     OW24745   0.015   2.265  15.762  0.2250 -0.2346  0.1311
 4370SOL    HW124746   0.053   2.345  15.799  1.0919  0.1138 -1.5083
 4370SOL    HW224747   4.666   2.279  15.805 -0.5274  0.6237 -1.6206
 4371SOL     OW24748   0.397   4.061  15.951  0.2421  0.2900  0.0594
 4371SOL    HW124749   0.435   3.999  15.888  0.5516  2.0515 -1.4993
 4371SOL    HW224750   0.314   4.081  15.907  1.2964 -0.1542 -2.1096
 4372SOL     OW24751   2.219   4.581   7.685 -0.0609 -0.1144  0.1882
 4372SOL    HW124752   2.150   4.635   7.646  0.4434 -0.4959 -1.2289
 4372SOL    HW224753   2.297   4.620   7.646  0.2312 -1.6178 -0.7202
 4373SOL     OW24754   0.489   2.141  11.759 -0.0255 -0.4893  0.4559
 4373SOL    HW124755   0.583   2.144  11.739 -0.5626  1.7604 -1.7057
 4373SOL    HW224756   0.460   2.225  11.725  0.8972 -1.0169 -1.6360
 4374SOL     OW24757   0.026   1.219  14.625  0.6504 -0.2115 -0.1065
 4374SOL    HW124758   0.035   1.126  14.645 -1.8432 -0.5326 -0.4211
 4374SOL    HW224759   0.016   1.260  14.710  1.2046 -0.1943 -0.0509
 4375SOL     OW24760   2.006   4.097   0.432  0.3026  0.0404 -0.4059
 4375SOL    HW124761   1.978   4.187   0.416 -1.0925 -0.2537  0.3819
 4375SOL    HW224762   2.050   4.118   0.514 -2.6751 -1.6467  1.6101
 4376SOL     OW24763   3.500   3.396   8.322  0.5121  0.6119 -0.2128
 4376SOL    HW124764   3.502   3.404   8.227 -0.2195  0.1551 -0.2610
 4376SOL    HW224765   3.466   3.307   8.330 -0.2247  1.0700  1.8267
 4377SOL     OW24766   1.910   4.220   4.481  0.9846 -0.6206  0.5436
 4377SOL    HW124767   1.845   4.163   4.439  1.1936 -0.2012 -0.3663
 4377SOL    HW224768   1.962   4.244   4.404 -2.7173  3.8849 -0.5428
 4378SOL     OW24769   2.834   4.709   7.518  0.7113  0.2383 -0.1590
 4378SOL    HW124770   2.829   0.069   7.518 -1.1767  0.1474 -0.3350
 4378SOL    HW224771   2.856   4.690   7.609  1.2038  0.0603 -0.3168
 4379SOL     OW24772   3.483   1.708   5.501 -0.1041  0.4179  0.1048
 4379SOL    HW124773   3.410   1.716   5.439 -0.9902 -3.3547  0.6427
 4379SOL    HW224774   3.554   1.717   5.438 -1.4959  0.1264 -1.5336
 4380SOL     OW24775   3.280   4.712   4.479  0.7015  0.0320  0.1108
 4380SOL    HW124776   3.348   4.680   4.420  1.8287  1.5730  0.5752
 4380SOL    HW224777   3.284   4.636   4.537 -1.4679  1.1766  1.7893
 4381SOL     OW24778   0.607   3.939   6.614 -0.0009 -0.2233  0.0984
 4381SOL    HW124779   0.564   4.019   6.584 -1.3218 -1.8455 -2.2945
 4381SOL    HW224780   0.565   3.869   6.564  0.3718  0.1489 -0.7337
 4382SOL     OW24781   2.930   4.541  15.467 -0.0254 -0.3507 -0.2820
 4382SOL    HW124782   2.940   4.449  15.442 -0.6173 -0.3471 -0.5157
 4382SOL    HW224783   3.018   4.572  15.444 -0.5939  1.4008 -0.0410
 4383SOL     OW24784   2.757   2.318   6.950 -0.3529  0.0434 -0.1559
 4383SOL    HW124785   2.821   2.387   6.929 -1.4847  0.5577 -1.8966
 4383SOL    HW224786   2.680   2.361   6.985 -0.0420  0.2621  0.2579
 4384SOL     OW24787   3.342   2.494   9.501  0.1749 -0.2936  0.3273
 4384SOL    HW124788   3.405   2.536   9.561 -1.6831  3.5761 -0.4068
 4384SOL    HW224789   3.365   2.402   9.511  1.5782 -0.3472 -3.3450
 4385SOL     OW24790   3.911   1.081   0.302 -0.4853  0.2948 -0.3162
 4385SOL    HW124791   3.902   1.010   0.237  0.1879 -0.4654  0.4221
 4385SOL    HW224792   3.989   1.047   0.345 -1.8581 -0.5869  1.4620
 4386SOL     OW24793   4.557   1.011   6.670 -0.3877  0.5804 -0.0021
 4386SOL    HW124794   4.525   1.069   6.739 -0.0853  0.8316 -0.0777
 4386SOL    HW224795   4.480   1.009   6.612 -1.5042  0.4144  1.4948
 4387SOL     OW24796   0.968   0.547  11.993 -0.4302  0.1202  0.3781
 4387SOL    HW124797   0.878   0.574  11.975 -0.2109  2.6612  3.1584
 4387SOL    HW224798   1.019   0.628  11.989  0.7962 -0.6113  1.3069
 4388SOL     OW24799   3.290   0.504   7.211 -0.3491  0.0081 -0.5749
 4388SOL    HW124800   3.306   0.584   7.260 -0.5985 -2.3313  3.2648
 4388SOL    HW224801   3.299   0.538   7.122  1.4267  1.7912  0.2993
 4389SOL     OW24802   3.847   3.863   6.295  0.2878  0.2109 -0.0110
 4389SOL    HW124803   3.869   3.915   6.373 -0.6552  1.2245 -0.4200
 4389SOL    HW224804   3.901   3.909   6.231  0.1578 -0.8374 -0.8683
 4390SOL     OW24805   3.547   1.154   7.900  0.4526 -0.2635  0.3523
 4390SOL    HW124806   3.473   1.174   7.842  3.0811 -0.8373 -3.1838
 4390SOL    HW224807   3.518   1.066   7.927  2.5247 -1.6814 -1.9996
 4391SOL     OW24808   3.461   2.130  15.947 -0.3273 -0.0845 -0.2528
 4391SOL    HW124809   3.483   2.218  15.915 -0.2228  0.1316  0.4040
 4391SOL    HW224810   3.536   2.081  15.915 -0.0446  0.7845 -0.9009
 4392SOL     OW24811   1.473   2.385   4.275  0.6472  0.1222  0.4900
 4392SOL    HW124812   1.512   2.346   4.353 -2.0846  0.8092  2.2125
 4392SOL    HW224813   1.396   2.430   4.310  0.1603  1.2258 -2.0390
 4393SOL     OW24814   3.903   3.314   4.140  0.4125  0.5586  0.0386
 4393SOL    HW124815   3.920   3.386   4.079  1.4708  1.1701  1.0617
 4393SOL    HW224816   3.915   3.237   4.084  2.0434 -0.0372  1.2094
 4394SOL     OW24817   1.742   1.487   6.046 -0.0264 -0.0884 -0.0714
 4394SOL    HW124818   1.659   1.507   6.088 -0.7481 -0.4349 -1.3076
 4394SOL    HW224819   1.797   1.438   6.108  0.6025 -0.0380 -0.5788
 4395SOL     OW24820   3.096   2.807   8.471 -0.6237 -0.1006  0.3089
 4395SOL    HW124821   3.036   2.808   8.545  1.8546  2.8030  2.2483
 4395SOL    HW224822   3.045   2.836   8.395  0.2365  0.0340 -0.2224
 4396SOL     OW24823   4.558   2.774   4.796  0.1821 -0.0043 -0.7458
 4396SOL    HW124824   4.483   2.715   4.799  0.2816 -0.1061 -0.2553
 4396SOL    HW224825   4.530   2.852   4.844  0.0469  1.5421 -3.3418
 4397SOL     OW24826   4.539   1.506   4.954  0.9893 -0.2900  0.0401
 4397SOL    HW124827   4.544   1.450   4.877 -1.9102  1.1307 -1.1850
 4397SOL    HW224828   4.615   1.479   5.005  0.5848  0.0926  0.8585
 4398SOL     OW24829   1.246   4.147  12.063  0.0018 -0.0478 -0.2378
 4398SOL    HW124830   1.327   4.112  12.029  0.4536 -0.4737  1.2543
 4398SOL    HW224831   1.265   4.152  12.157 -1.4443 -1.1973  0.1235
 4399SOL     OW24832   1.677   1.718   8.815  0.2592 -0.5050  0.1628
 4399SOL    HW124833   1.711   1.807   8.809 -0.4053 -0.3171 -0.9003
 4399SOL    HW224834   1.661   1.698   8.723  1.5053  4.1899 -1.0799
 4400SOL     OW24835   3.430   4.634   6.758  0.2478  0.0953  0.3288
 4400SOL    HW124836   3.497   4.578   6.718 -0.8229 -3.0359  2.9294
 4400SOL    HW224837   3.346   4.601   6.726  0.7580 -0.7234 -0.1699
 4401SOL     OW24838   4.124   4.086  17.163  0.3689 -0.0724  0.1309
 4401SOL    HW124839   4.060   4.021  17.193  2.4562 -2.7976 -1.2746
 4401SOL    HW224840   4.179   4.034  17.105  1.0237  0.8002 -0.0338
 4402SOL     OW24841   0.921   1.266   8.061 -0.2013  0.0032 -0.7560
 4402SOL    HW124842   0.871   1.210   8.121 -1.4880  1.5902 -0.3593
 4402SOL    HW224843   0.944   1.206   7.989  0.4499 -3.2295  2.1433
 4403SOL     OW24844   1.826   0.800   2.789 -0.3186 -0.7246 -0.3254
 4403SOL    HW124845   1.890   0.864   2.820 -0.6918  0.4666 -2.0645
 4403SOL    HW224846   1.875   0.718   2.797  0.7115 -0.2108 -1.4802
 4404SOL     OW24847   1.494   2.630   9.699  0.3559 -0.2248  0.9182
 4404SOL    HW124848   1.405   2.597   9.708 -0.1613  1.3656  1.6393
 4404SOL    HW224849   1.495   2.645   9.604 -2.4244 -2.6830  0.5047
 4405SOL     OW24850   2.880   3.498   8.019 -0.2996  0.2705  0.0730
 4405SOL    HW124851   2.931   3.549   7.957  0.1272 -0.5861 -0.2779
 4405SOL    HW224852   2.913   3.410   8.003  0.2966  0.5092 -0.0269
 4406SOL     OW24853   2.598   2.124  12.665 -0.0184  0.1324 -0.3931
 4406SOL    HW124854   2.642   2.095  12.745 -1.8907 -0.4998  0.4123
 4406SOL    HW224855   2.664   2.107  12.597 -0.0447  1.4377 -0.7626
 4407SOL     OW24856   4.386   3.241   9.099 -0.5384 -0.1245 -0.4465
 4407SOL    HW124857   4.295   3.209   9.095 -0.0719 -1.6668  1.1772
 4407SOL    HW224858   4.379   3.334   9.079 -2.4187 -0.7712 -2.8842
 4408SOL     OW24859   2.216   1.449  11.014  0.3550 -0.1176  0.6670
 4408SOL    HW124860   2.144   1.395  11.048  0.2827  0.3173  1.1969
 4408SOL    HW224861   2.224   1.500  11.094 -0.5839 -2.2725  2.1375
 4409SOL     OW24862   4.380   2.093   4.900  0.3264 -0.2232  0.0675
 4409SOL    HW124863   4.345   2.143   4.973  3.0442  1.1202  0.4422
 4409SOL    HW224864   4.334   2.125   4.823  1.3239  0.7212 -0.1268
 4410SOL     OW24865   1.311   1.217  12.240 -0.1526  0.5210 -0.3508
 4410SOL    HW124866   1.261   1.159  12.298  1.1314  1.2320  1.4643
 4410SOL    HW224867   1.315   1.302  12.284 -0.8182 -0.1099  0.9228
 4411SOL     OW24868   2.149   2.702   4.820 -0.2351 -0.0009  0.0693
 4411SOL    HW124869   2.118   2.785   4.857 -0.9111 -0.8725  1.4525
 4411SOL    HW224870   2.120   2.646   4.892 -0.8913 -1.2527 -1.1527
 4412SOL     OW24871   0.266   1.396  12.739  0.2298 -0.2050 -0.6177
 4412SOL    HW124872   0.174   1.371  12.736  0.5870 -1.5350 -0.1043
 4412SOL    HW224873   0.275   1.451  12.817 -1.5847  2.7034 -2.4621
 4413SOL     OW24874   3.884   2.362   2.649 -0.4983  0.3660 -0.0615
 4413SOL    HW124875   3.951   2.375   2.716 -0.2276  2.5952 -0.7533
 4413SOL    HW224876   3.923   2.385   2.564  2.9378 -0.3964  1.2805
 4414SOL     OW24877   3.140   1.495   7.287 -0.0011 -0.1458 -0.0396
 4414SOL    HW124878   3.225   1.472   7.249  1.3592  2.7018  1.1876
 4414SOL    HW224879   3.081   1.491   7.212  0.2047  1.7627 -0.3016
 4415SOL     OW24880   3.261   1.788   5.370  0.4707  0.1000 -0.4640
 4415SOL    HW124881   3.169   1.804   5.353 -0.1280  0.3837  3.1277
 4415SOL    HW224882   3.299   1.760   5.286 -0.0754  2.5702 -1.5336
 4416SOL     OW24883   1.585   2.786   2.117  0.7269  0.1966 -0.2791
 4416SOL    HW124884   1.527   2.827   2.054  0.8486  1.5924  0.5099
 4416SOL    HW224885   1.646   2.740   2.059 -0.6308 -2.0029  0.0378
 4417SOL     OW24886   4.547   1.285   5.374 -0.4667  0.1905  0.0319
 4417SOL    HW124887   4.594   1.215   5.329  1.4996  1.3794  0.2140
 4417SOL    HW224888   4.594   1.282   5.457 -1.2394  2.2172  0.5522
 4418SOL     OW24889   1.136   0.937   5.847 -0.5376 -0.0055 -0.3448
 4418SOL    HW124890   1.183   0.858   5.873 -0.3852  0.0081 -0.5813
 4418SOL    HW224891   1.208   0.973   5.795  0.7816  0.9299  2.1407
 4419SOL     OW24892   2.447   3.635  14.844  0.0981  0.0756 -0.0382
 4419SOL    HW124893   2.356   3.609  14.831  0.3067 -1.1922  1.0770
 4419SOL    HW224894   2.436   3.703  14.911  2.0956 -0.7229  1.1011
 4420SOL     OW24895   0.852   1.279   5.425 -0.0447 -0.4433  0.2769
 4420SOL    HW124896   0.867   1.352   5.365  1.5691  0.5634  1.9376
 4420SOL    HW224897   0.865   1.203   5.367  0.6407  1.8196 -2.5200
 4421SOL     OW24898   1.432   0.643   4.123 -0.1176  0.7983  0.2735
 4421SOL    HW124899   1.369   0.658   4.053 -0.0909 -0.4628 -0.0230
 4421SOL    HW224900   1.414   0.551   4.143 -3.1513  1.6827  1.5181
 4422SOL     OW24901   4.311   1.167  10.351  0.1947 -0.4949 -0.3226
 4422SOL    HW124902   4.357   1.241  10.390 -0.8894  0.1193 -0.2211
 4422SOL    HW224903   4.345   1.171  10.262  0.3394 -1.1168 -0.3012
 4423SOL     OW24904   3.490   1.555   2.900 -0.0954 -0.2509  0.3006
 4423SOL    HW124905   3.505   1.641   2.939 -0.9549 -0.0232  0.1303
 4423SOL    HW224906   3.398   1.571   2.876  0.5173  0.0766 -1.8591
 4424SOL     OW24907   4.434   4.041  10.286 -0.2290  0.3024 -0.5957
 4424SOL    HW124908   4.437   3.960  10.337  2.1581  0.3958 -0.5786
 4424SOL    HW224909   4.421   4.003  10.199  2.0093 -0.4755 -0.5801
 4425SOL     OW24910   2.180   4.294   9.696  0.1473  0.2061 -0.7932
 4425SOL    HW124911   2.135   4.349   9.632  1.7266  1.1767 -1.0657
 4425SOL    HW224912   2.271   4.283   9.668  1.0924 -1.1196  2.7262
 4426SOL     OW24913   0.586   2.343   8.679 -0.0628 -0.2976  1.1679
 4426SOL    HW124914   0.513   2.390   8.719  0.7398  0.6496  1.5254
 4426SOL    HW224915   0.650   2.366   8.746  0.8598 -3.4546  1.3974
 4427SOL     OW24916   4.372   2.002   8.203  0.0159 -0.7239  0.2452
 4427SOL    HW124917   4.403   2.078   8.153  0.5811 -0.5444  0.8640
 4427SOL    HW224918   4.301   2.041   8.255 -0.0853 -0.4311 -0.1082
 4428SOL     OW24919   2.799   2.879   3.541 -0.0105  0.1572  0.6627
 4428SOL    HW124920   2.821   2.839   3.457  0.2395 -2.2225  1.8488
 4428SOL    HW224921   2.727   2.820   3.565  0.0293 -0.3899 -0.5538
 4429SOL     OW24922   2.393   3.185   6.733  0.2485  0.2611  0.2513
 4429SOL    HW124923   2.395   3.264   6.678 -0.8235 -0.1441 -0.3777
 4429SOL    HW224924   2.445   3.208   6.810 -0.0371  1.6294  0.0370
 4430SOL     OW24925   2.963   1.313   7.083 -0.3290  0.3891  0.4549
 4430SOL    HW124926   2.888   1.255   7.075  1.0658 -1.4094  0.5890
 4430SOL    HW224927   3.036   1.274   7.036 -1.7967 -0.4558 -1.1409
 4431SOL     OW24928   2.859   0.845   3.615  0.1419 -0.7234 -0.5564
 4431SOL    HW124929   2.936   0.887   3.652  1.2874 -3.2607 -0.0082
 4431SOL    HW224930   2.843   0.900   3.539  2.4896  1.2305  0.3488
 4432SOL     OW24931   4.309   4.703   7.903 -0.2099  0.5758 -0.2207
 4432SOL    HW124932   4.348   4.728   7.819 -1.3594 -1.3872 -1.3417
 4432SOL    HW224933   4.283   0.053   7.939 -1.5918 -0.1261  0.4514
 4433SOL     OW24934   4.284   3.050  14.428  0.3370 -0.5986 -0.6096
 4433SOL    HW124935   4.296   3.033  14.334  0.6633  2.6301 -1.1711
 4433SOL    HW224936   4.373   3.040  14.460  0.0600 -0.2153  0.2702
 4434SOL     OW24937   1.567   2.921   5.544 -0.3269  0.1790  0.9837
 4434SOL    HW124938   1.524   2.873   5.615  0.6222 -0.5470  1.0627
 4434SOL    HW224939   1.658   2.893   5.549 -0.2069  0.3765  0.0099
 4435SOL     OW24940   1.701   0.894   8.873 -0.4776 -0.2165  0.1216
 4435SOL    HW124941   1.620   0.843   8.869  0.8182 -2.0889 -2.3710
 4435SOL    HW224942   1.676   0.966   8.814 -4.3158 -1.2996  0.4454
 4436SOL     OW24943   3.246   2.020   8.838  0.6075 -0.1802 -0.3213
 4436SOL    HW124944   3.177   1.955   8.850  0.2582  1.0639  4.5450
 4436SOL    HW224945   3.204   2.073   8.771 -0.4371 -2.0562 -1.1523
 4437SOL     OW24946   0.111   3.929  12.828  0.0428  0.7316  0.2322
 4437SOL    HW124947   0.160   3.855  12.794  3.2688  1.9278  2.2640
 4437SOL    HW224948   0.096   3.983  12.750 -2.1557 -1.1787 -0.6767
 4438SOL     OW24949   4.027   2.351   3.423  0.4086 -0.6528  0.9200
 4438SOL    HW124950   4.055   2.434   3.463  2.2099 -1.1711  0.7395
 4438SOL    HW224951   4.013   2.283   3.490  1.5100 -1.9013 -0.1230
 4439SOL     OW24952   3.571   2.383   8.436 -0.3702 -0.1072  0.4254
 4439SOL    HW124953   3.538   2.363   8.524  0.2796 -1.3711  0.3845
 4439SOL    HW224954   3.576   2.479   8.442 -1.7918 -0.3129  4.8058
 4440SOL     OW24955   3.310   4.481   4.623  0.1818 -0.0497  0.0787
 4440SOL    HW124956   3.318   4.392   4.657 -1.1884 -0.1150  0.1937
 4440SOL    HW224957   3.369   4.530   4.680  1.2752 -1.3158  0.0458
 4441SOL     OW24958   2.955   0.967   2.725 -0.2211  0.2153 -0.1088
 4441SOL    HW124959   3.045   0.940   2.744 -0.1782 -0.8979 -1.8471
 4441SOL    HW224960   2.943   1.039   2.787  2.8708 -0.5725  1.3646
 4442SOL     OW24961   0.269   1.120  12.758 -0.1503  0.3158 -0.0036
 4442SOL    HW124962   0.290   1.209  12.727  1.1315 -0.3797 -1.1301
 4442SOL    HW224963   0.180   1.122  12.794 -0.4308 -1.0416 -0.6236
 4443SOL     OW24964   1.778   3.180   2.640  0.2126  0.4196  0.5215
 4443SOL    HW124965   1.776   3.273   2.617 -0.3593  0.6328  1.4190
 4443SOL    HW224966   1.808   3.191   2.730  0.4090 -0.8772  0.6116
 4444SOL     OW24967   2.179   0.775   5.109 -0.0222 -0.1182 -0.1889
 4444SOL    HW124968   2.189   0.696   5.162 -1.7110  1.4529  2.5189
 4444SOL    HW224969   2.127   0.828   5.170 -0.9996 -1.2513 -0.0350
 4445SOL     OW24970   2.456   2.451   2.200 -0.2778  0.0671  0.9805
 4445SOL    HW124971   2.502   2.535   2.200 -0.2667  0.0619  1.5752
 4445SOL    HW224972   2.425   2.451   2.110  1.1580 -0.3353  0.4828
 4446SOL     OW24973   0.759   2.340   7.424 -0.2175 -0.1794 -0.6906
 4446SOL    HW124974   0.734   2.247   7.427  1.4628 -0.5601  1.6619
 4446SOL    HW224975   0.793   2.367   7.509 -5.4946 -0.7395  1.6270
 4447SOL     OW24976   1.772   1.988   5.854 -0.8749 -0.2314 -0.0725
 4447SOL    HW124977   1.795   1.899   5.880 -2.1874 -0.1632  1.4034
 4447SOL    HW224978   1.677   1.998   5.868 -0.7071  0.7734  0.3253
 4448SOL     OW24979   1.376   3.610  17.216  0.4647 -0.3669 -0.0586
 4448SOL    HW124980   1.437   3.542  17.187  0.8701  0.5377 -1.2858
 4448SOL    HW224981   1.427   3.690  17.218  0.2054 -0.1904 -0.5364
 4449SOL     OW24982   2.558   2.174  11.276  0.2248  0.2472 -0.1174
 4449SOL    HW124983   2.489   2.209  11.219  2.0430  1.1492 -1.7419
 4449SOL    HW224984   2.543   2.230  11.352  0.7938 -0.1980  0.3171
 4450SOL     OW24985   3.099   0.987   0.345 -0.4884  0.0254  0.0039
 4450SOL    HW124986   3.155   1.001   0.269  1.4204  0.9312  1.5682
 4450SOL    HW224987   3.035   0.922   0.317 -0.3012 -0.2842  0.2913
 4451SOL     OW24988   2.949   0.655  12.047  0.1279  0.0815  0.2780
 4451SOL    HW124989   2.992   0.720  11.991  0.7169  1.1909  2.0229
 4451SOL    HW224990   2.958   0.579  11.989 -2.5408  0.1134 -0.1647
 4452SOL     OW24991   4.417   1.798  12.462 -0.2463 -0.2380 -0.2645
 4452SOL    HW124992   4.381   1.872  12.510  0.4033 -1.3363  1.9249
 4452SOL    HW224993   4.509   1.818  12.444 -0.6556  0.7255 -1.2824
 4453SOL     OW24994   0.962   4.000   8.483  0.6553  0.1607  0.3436
 4453SOL    HW124995   0.979   4.076   8.539 -1.2922  0.6683  0.2630
 4453SOL    HW224996   0.867   4.003   8.469  0.6652  0.3389  0.3150
 4454SOL     OW24997   2.551   4.631   7.112 -0.3746 -0.3795  0.4015
 4454SOL    HW124998   2.573   4.589   7.195 -2.1366 -0.1088  0.9909
 4454SOL    HW224999   2.461   4.656   7.133 -0.4683  0.0023 -0.4484
 4455SOL     OW25000   3.279   1.728  15.079  0.6138  0.3548  0.1866
 4455SOL    HW125001   3.315   1.816  15.087 -0.5365  0.5530  3.2715
 4455SOL    HW225002   3.295   1.712  14.986  0.6231  1.3458  0.0254
 4456SOL     OW25003   0.574   2.703   6.554 -0.1282 -0.3105 -0.1180
 4456SOL    HW125004   0.511   2.635   6.578 -2.0390  1.8382  0.8697
 4456SOL    HW225005   0.652   2.653   6.529 -0.8119 -0.3837 -2.1200
 4457SOL     OW25006   1.056   3.194   2.389  0.3996  0.0077  0.9115
 4457SOL    HW125007   0.997   3.254   2.345 -0.4766 -0.7578  1.0376
 4457SOL    HW225008   1.002   3.115   2.384  1.2829 -0.5503  0.0252
 4458SOL     OW25009   4.450   4.231   8.665  0.1792  0.2843 -0.1708
 4458SOL    HW125010   4.408   4.261   8.584  0.9878 -0.2458 -0.7890
 4458SOL    HW225011   4.429   4.138   8.673  0.9674  0.1782  0.6039
 4459SOL     OW25012   3.002   4.163   3.991 -0.2626  0.0626  0.4091
 4459SOL    HW125013   2.941   4.229   3.956 -1.2433  0.0921  2.1325
 4459SOL    HW225014   3.085   4.184   3.948 -0.2513  0.9437  0.8622
 4460SOL     OW25015   4.091   3.902  11.007 -0.1560  0.1423  0.4556
 4460SOL    HW125016   4.002   3.915  10.974  0.0991 -0.8579 -0.6125
 4460SOL    HW225017   4.125   3.989  11.030 -3.1660  1.6725 -0.8349
 4461SOL     OW25018   3.391   2.153   6.513  0.2824 -0.5979  0.3769
 4461SOL    HW125019   3.381   2.233   6.564 -0.7463 -0.5529  0.1083
 4461SOL    HW225020   3.484   2.135   6.520  0.1923 -1.0898  0.3183
 4462SOL     OW25021   1.705   3.290   8.389 -0.0774 -0.0677  0.0551
 4462SOL    HW125022   1.690   3.303   8.295  1.1445 -0.1605 -0.1458
 4462SOL    HW225023   1.639   3.221   8.393 -0.3170 -0.0283 -2.9405
 4463SOL     OW25024   4.604   0.355  10.424  0.3194 -0.0825 -0.1181
 4463SOL    HW125025   4.584   0.419  10.492  0.7123 -2.0025  1.8025
 4463SOL    HW225026   4.580   0.273  10.467  2.1033 -1.2612 -1.3554
 4464SOL     OW25027   0.062   0.840   0.800  0.3247 -0.2547 -0.0146
 4464SOL    HW125028   0.014   0.780   0.857  1.2362 -0.9754 -0.0083
 4464SOL    HW225029   0.126   0.882   0.858 -0.3134  1.3728 -0.4877
 4465SOL     OW25030   1.646   0.519   2.688 -0.1683  0.4581 -0.2897
 4465SOL    HW125031   1.563   0.485   2.654  0.8248 -0.8852 -1.4001
 4465SOL    HW225032   1.629   0.570   2.767 -1.3994  0.5929 -0.6352
 4466SOL     OW25033   2.968   0.204  14.508  1.0550  0.0743  0.1372
 4466SOL    HW125034   2.879   0.228  14.481 -0.0808 -5.1241 -0.7165
 4466SOL    HW225035   2.984   0.121  14.463  1.5755 -0.1900  0.8048
 4467SOL     OW25036   2.182   3.298   2.795  0.2479 -0.4627  0.8383
 4467SOL    HW125037   2.240   3.223   2.805 -0.1307 -0.9639 -0.7148
 4467SOL    HW225038   2.110   3.266   2.850 -1.1106 -0.8771 -1.1639
 4468SOL     OW25039   0.389   0.126   7.240 -0.1204 -0.4921  0.6818
 4468SOL    HW125040   0.336   0.059   7.197 -0.2134  0.9773 -1.4629
 4468SOL    HW225041   0.327   0.198   7.245  0.0622 -0.4269  2.1435
 4469SOL     OW25042   0.763   2.936   3.954 -0.8702  0.1903 -0.3271
 4469SOL    HW125043   0.780   2.986   4.034  2.8962 -1.7889  0.0919
 4469SOL    HW225044   0.849   2.935   3.912 -0.9015  3.2929 -0.4337
 4470SOL     OW25045   4.164   3.204   5.519  0.2234 -0.1290  0.1009
 4470SOL    HW125046   4.235   3.225   5.459 -0.0967 -1.0654 -0.6052
 4470SOL    HW225047   4.123   3.290   5.522  3.2154  1.2909  0.8460
 4471SOL     OW25048   1.392   3.978   9.190  0.2210 -0.1749 -0.1925
 4471SOL    HW125049   1.406   4.040   9.118  1.6328  0.4382  0.6173
 4471SOL    HW225050   1.470   3.985   9.244 -0.8885 -0.9236  1.4972
 4472SOL     OW25051   3.323   3.186   2.133  0.1785 -0.4687  0.7349
 4472SOL    HW125052   3.377   3.115   2.166  2.0300  0.4102 -0.4288
 4472SOL    HW225053   3.389   3.242   2.092 -0.9627 -0.0340 -0.4916
 4473SOL     OW25054   0.982   2.091   3.981  0.8311  0.0393 -0.6428
 4473SOL    HW125055   0.910   2.053   4.032  0.3162 -0.1786 -1.5322
 4473SOL    HW225056   0.944   2.096   3.893 -1.1029  2.6966  0.3594
 4474SOL     OW25057   2.471   0.369   4.887  0.0883 -0.0120  0.2530
 4474SOL    HW125058   2.470   0.329   4.800 -1.4362 -0.2203  0.3671
 4474SOL    HW225059   2.555   0.333   4.918 -1.4563 -1.8922  2.2631
 4475SOL     OW25060   4.400   3.699   3.919  0.4369 -0.2036 -0.0991
 4475SOL    HW125061   4.306   3.705   3.933  0.5267 -0.3025  0.5305
 4475SOL    HW225062   4.437   3.713   4.006 -1.4972  1.7523  0.4221
 4476SOL     OW25063   2.213   2.729   0.634  0.6706 -0.1352 -0.5008
 4476SOL    HW125064   2.200   2.824   0.632  0.2614 -0.1728  0.4211
 4476SOL    HW225065   2.282   2.719   0.700  0.7775  0.5451 -0.5032
 4477SOL     OW25066   3.537   1.304   2.399 -0.2334 -0.1327  0.3129
 4477SOL    HW125067   3.459   1.281   2.450  1.2231 -1.2798  2.0185
 4477SOL    HW225068   3.550   1.395   2.425  0.0054 -0.4751  1.3623
 4478SOL     OW25069   0.314   3.193   4.125  0.2393  0.5376 -0.0246
 4478SOL    HW125070   0.300   3.101   4.146 -3.6478  1.0275 -0.3984
 4478SOL    HW225071   0.359   3.218   4.206 -0.6876 -0.9904  0.9807
 4479SOL     OW25072   0.803   1.537  12.463  0.7413 -0.3863 -0.1131
 4479SOL    HW125073   0.841   1.463  12.511 -0.0756  0.9850  2.6599
 4479SOL    HW225074   0.725   1.499  12.423 -0.2019 -0.6672  2.0177
 4480SOL     OW25075   1.255   0.515   7.091  0.1132  0.4790  0.6835
 4480SOL    HW125076   1.213   0.590   7.049 -0.9270 -0.5690 -0.1533
 4480SOL    HW225077   1.336   0.513   7.040 -0.5553  0.0268 -0.3614
 4481SOL     OW25078   2.854   1.675   9.066 -0.5073 -0.2998 -0.0373
 4481SOL    HW125079   2.835   1.588   9.100 -1.6857  0.1556  0.4558
 4481SOL    HW225080   2.802   1.731   9.123 -1.5443  0.9528 -2.1937
 4482SOL     OW25081   3.492   2.176   5.857  0.1426 -0.1200 -0.1338
 4482SOL    HW125082   3.575   2.219   5.834  0.3585 -0.4727 -0.0026
 4482SOL    HW225083   3.484   2.222   5.941  2.1051 -0.1665  0.0965
 4483SOL     OW25084   0.180   3.083   3.138 -0.1879  0.3455 -0.9534
 4483SOL    HW125085   0.232   3.135   3.200  0.7468 -0.2972 -1.1952
 4483SOL    HW225086   0.110   3.049   3.194  2.2466  1.1287  2.5671
 4484SOL     OW25087   1.341   1.367  13.153  0.2947 -0.0489  0.3937
 4484SOL    HW125088   1.342   1.315  13.073  0.4783 -0.7896  0.8798
 4484SOL    HW225089   1.334   1.292  13.212 -1.4650  1.4019  2.0038
 4485SOL     OW25090   1.296   1.471  17.421  0.4526  0.6814  0.5382
 4485SOL    HW125091   1.247   1.553  17.424  0.1974  0.4953  1.4855
 4485SOL    HW225092   1.291   1.448  17.514  0.9675 -4.5831 -0.7696
 4486SOL     OW25093   4.276   3.987   1.018 -0.2508 -0.7719  0.3857
 4486SOL    HW125094   4.184   4.011   1.007  0.0331  1.1817  2.2340
 4486SOL    HW225095   4.281   3.892   1.005  0.2527 -0.4031 -2.1443
 4487SOL     OW25096   3.604   0.517   2.494 -0.1438 -0.0794 -0.2445
 4487SOL    HW125097   3.631   0.586   2.432 -2.1390 -0.7605 -1.8601
 4487SOL    HW225098   3.573   0.444   2.441 -2.3680 -0.0760  1.0617
 4488SOL     OW25099   0.379   4.653   5.318 -0.2060 -0.3593 -0.1341
 4488SOL    HW125100   0.460   4.643   5.268  0.7419  1.6112  0.9916
 4488SOL    HW225101   0.379   4.574   5.372 -1.3957 -1.7099 -2.1144
 4489SOL     OW25102   1.282   3.976   2.039 -0.0794 -1.0051  0.8766
 4489SOL    HW125103   1.239   3.997   1.957  1.7219 -2.7505 -0.5259
 4489SOL    HW225104   1.341   3.910   2.002  0.7601  0.2538 -0.0247
 4490SOL     OW25105   0.683   2.603  13.065  0.5122  0.1842 -0.1132
 4490SOL    HW125106   0.702   2.511  13.049  0.5617  0.4008 -1.2344
 4490SOL    HW225107   0.716   2.625  13.153  1.4139 -2.8105  0.2827
 4491SOL     OW25108   3.716   2.055   7.943  0.0702  0.2080 -0.9076
 4491SOL    HW125109   3.781   2.119   7.973 -2.5986  1.4637  2.2366
 4491SOL    HW225110   3.632   2.095   7.965 -1.4616 -3.3183 -0.4016
 4492SOL     OW25111   2.256   0.635  14.894  0.1636 -0.7788  0.3006
 4492SOL    HW125112   2.232   0.669  14.980  1.1200 -0.9207  0.6264
 4492SOL    HW225113   2.178   0.656  14.844 -0.3712  1.3086  2.0193
 4493SOL     OW25114   3.376   2.273  13.561  0.2854 -0.1352 -0.3303
 4493SOL    HW125115   3.430   2.205  13.520 -0.9792 -0.1548 -1.9108
 4493SOL    HW225116   3.324   2.214  13.616  2.5822 -1.1541  0.7470
 4494SOL     OW25117   4.209   3.982   2.380 -0.2048  0.0601 -0.6203
 4494SOL    HW125118   4.157   4.042   2.327  0.5840  2.3268  1.1371
 4494SOL    HW225119   4.197   4.028   2.463  2.0494  1.3267 -0.9998
 4495SOL     OW25120   0.152   4.204   6.491 -0.0898 -0.3730  0.6166
 4495SOL    HW125121   0.058   4.220   6.494 -0.1037 -0.3154 -0.2530
 4495SOL    HW225122   0.156   4.128   6.434  1.5689  0.1813 -0.0234
 4496SOL     OW25123   1.426   4.225   5.766  0.1085  0.3071  0.8130
 4496SOL    HW125124   1.348   4.268   5.802 -0.4620  0.2371 -0.3716
 4496SOL    HW225125   1.484   4.250   5.839 -0.3192 -0.3880  1.3900
 4497SOL     OW25126   1.556   2.622   2.331  0.0726  0.7026  0.2087
 4497SOL    HW125127   1.546   2.697   2.272  1.7178  0.1949 -0.7086
 4497SOL    HW225128   1.626   2.578   2.282 -1.8230 -3.1721  0.9636
 4498SOL     OW25129   2.229   0.698   4.343 -0.2998  0.1077  0.2215
 4498SOL    HW125130   2.245   0.644   4.266  0.1703 -2.2948  2.0040
 4498SOL    HW225131   2.303   0.758   4.338 -0.9595  0.8726 -0.5034
 4499SOL     OW25132   3.598   1.188  13.081  0.1628  0.0687 -0.3489
 4499SOL    HW125133   3.592   1.174  13.176  1.0086  1.0122 -0.1537
 4499SOL    HW225134   3.667   1.125  13.062  1.0090  0.5966  0.9138
 4500SOL     OW25135   1.112   3.860  10.531  0.5032 -0.2162 -0.3314
 4500SOL    HW125136   1.173   3.885  10.600  0.8518 -0.4480 -0.5599
 4500SOL    HW225137   1.133   3.769  10.512 -1.7712 -0.7247 -0.4261
 4501SOL     OW25138   0.738   4.310   7.210  0.3013 -0.1328  0.1453
 4501SOL    HW125139   0.810   4.366   7.241  0.7489  0.2020 -1.4878
 4501SOL    HW225140   0.700   4.274   7.290 -2.1006  1.7054 -0.2008
 4502SOL     OW25141   1.433   0.309   4.827  0.2270  0.4827  0.3880
 4502SOL    HW125142   1.399   0.365   4.757  1.6952  1.0149  0.1049
 4502SOL    HW225143   1.347   0.273   4.849 -0.2600 -0.0606 -2.3646
 4503SOL     OW25144   3.672   3.561   2.822 -0.1149 -0.0388 -0.1067
 4503SOL    HW125145   3.606   3.493   2.833 -2.4704  2.1895 -0.3750
 4503SOL    HW225146   3.636   3.636   2.870  0.9126 -1.9476  3.6283
 4504SOL     OW25147   2.194   2.241   5.213 -0.1330  0.0804 -0.1951
 4504SOL    HW125148   2.207   2.179   5.141  3.4018 -0.9528  1.3459
 4504SOL    HW225149   2.256   2.313   5.203 -0.2452  0.5842  2.8223
 4505SOL     OW25150   1.567   4.417   8.524 -0.2797  0.1410 -0.4139
 4505SOL    HW125151   1.661   4.400   8.519  0.0995  2.7411 -2.4579
 4505SOL    HW225152   1.532   4.333   8.495  1.4387 -0.4369 -0.7860
 4506SOL     OW25153   3.838   4.080   5.616  0.0614 -0.7370 -0.3296
 4506SOL    HW125154   3.808   4.093   5.705 -1.8522  1.9113 -1.3807
 4506SOL    HW225155   3.926   4.045   5.627 -0.8796 -2.1182  2.6829
 4507SOL     OW25156   2.190   1.871  10.852 -0.2872 -0.4282  0.7336
 4507SOL    HW125157   2.179   1.960  10.886 -0.1848 -0.7154  1.5261
 4507SOL    HW225158   2.227   1.835  10.932  0.4071  0.0748  0.6449
 4508SOL     OW25159   3.184   1.303   4.006 -0.9412  0.2809  0.8759
 4508SOL    HW125160   3.101   1.346   3.988 -1.5147 -0.1479  2.5097
 4508SOL    HW225161   3.144   1.216   4.006  0.8592 -0.5462 -1.5192
 4509SOL     OW25162   0.290   3.178  10.800 -0.2456  0.2386 -0.1633
 4509SOL    HW125163   0.260   3.186  10.891  0.0407 -1.9442  0.1275
 4509SOL    HW225164   0.355   3.248  10.807  1.2120 -0.9914 -1.4553
 4510SOL     OW25165   3.932   3.629   4.179 -0.0855 -0.1055  0.1682
 4510SOL    HW125166   3.861   3.680   4.142 -0.6572 -0.3799  0.8891
 4510SOL    HW225167   3.901   3.608   4.267  0.2103  1.0040  0.5368
 4511SOL     OW25168   3.322   2.939   6.264 -0.7913 -0.1681 -0.0398
 4511SOL    HW125169   3.242   2.889   6.246 -0.5045 -0.1337 -1.4328
 4511SOL    HW225170   3.310   2.945   6.358 -0.8160 -0.8431  0.0025
 4512SOL     OW25171   0.310   3.354   6.912  0.6116  0.0772  0.1483
 4512SOL    HW125172   0.360   3.433   6.935  1.9067 -0.4866 -0.6920
 4512SOL    HW225173   0.354   3.296   6.974  1.4002  1.4299  0.8527
 4513SOL     OW25174   4.438   1.601  16.144 -0.0449 -0.2910 -0.4737
 4513SOL    HW125175   4.467   1.622  16.233  0.3823  0.3830 -0.7666
 4513SOL    HW225176   4.376   1.673  16.127  1.8630  0.8890 -2.4494
 4514SOL     OW25177   2.199   4.131   4.117 -0.3530 -0.7506 -0.0120
 4514SOL    HW125178   2.139   4.187   4.167  0.5981  0.6463 -0.4277
 4514SOL    HW225179   2.277   4.124   4.171 -0.6841  3.3590  1.0346
 4515SOL     OW25180   3.341   0.708   1.612  0.3677 -0.0027  0.7168
 4515SOL    HW125181   3.303   0.639   1.559 -0.5144 -0.7088  2.2635
 4515SOL    HW225182   3.317   0.681   1.701  0.4567 -0.0372  0.7309
 4516SOL     OW25183   3.679   1.725   2.291  0.0696 -0.0216 -0.7136
 4516SOL    HW125184   3.770   1.695   2.297 -0.3211 -0.7665  1.7106
 4516SOL    HW225185   3.687   1.813   2.255  0.4259  0.1219 -0.2921
 4517SOL     OW25186   2.493   2.057   3.534  0.7869 -0.3046  0.0837
 4517SOL    HW125187   2.475   1.963   3.542  2.8781 -0.6754  0.2269
 4517SOL    HW225188   2.576   2.053   3.487  2.1655 -1.9163  2.6726
 4518SOL     OW25189   1.495   2.241   7.436  0.4375  0.2846  0.8789
 4518SOL    HW125190   1.585   2.210   7.426  0.8315  1.8204 -0.2359
 4518SOL    HW225191   1.488   2.295   7.357  0.1257 -2.2572 -0.8199
 4519SOL     OW25192   3.919   2.398  11.910  0.0103 -0.4747  0.1083
 4519SOL    HW125193   3.862   2.475  11.913 -0.8729 -1.0797 -1.4265
 4519SOL    HW225194   3.998   2.442  11.879 -0.0441 -0.9740 -0.7222
 4520SOL     OW25195   2.714   3.178   6.500  0.0322 -0.2059  0.2923
 4520SOL    HW125196   2.619   3.189   6.493 -0.2721 -2.6256  0.8306
 4520SOL    HW225197   2.728   3.137   6.414  0.9789  2.7441 -0.9777
 4521SOL     OW25198   3.802   2.716  17.039  0.2336  0.1475 -0.3248
 4521SOL    HW125199   3.889   2.730  17.002  0.8224 -3.1236 -0.2373
 4521SOL    HW225200   3.762   2.713  16.952 -0.8101  0.5437  0.1470
 4522SOL     OW25201   0.591   3.502   5.564  0.0967  0.4108 -0.4191
 4522SOL    HW125202   0.552   3.589   5.557 -0.7975  0.2291  2.4600
 4522SOL    HW225203   0.620   3.507   5.655 -0.0249  0.0333 -0.3574
 4523SOL     OW25204   3.048   4.549   8.849  0.0278  0.2467 -0.4062
 4523SOL    HW125205   2.955   4.571   8.842  0.6218  2.4287 -1.2331
 4523SOL    HW225206   3.074   4.577   8.762 -0.2157 -0.2425 -0.6397
 4524SOL     OW25207   1.033   1.262   1.027  0.1467  0.6572  0.0393
 4524SOL    HW125208   1.084   1.219   0.958  1.5007 -0.6101  1.8231
 4524SOL    HW225209   1.052   1.209   1.104 -1.9090  2.2746  1.6484
 4525SOL     OW25210   2.899   3.933  13.320  0.5517 -0.8438  0.1319
 4525SOL    HW125211   2.839   4.000  13.354  1.7956 -0.1641  0.9926
 4525SOL    HW225212   2.974   3.989  13.299 -0.5400 -1.1877 -4.5368
 4526SOL     OW25213   4.029   1.211  10.372 -0.5731 -0.1412  0.1156
 4526SOL    HW125214   4.006   1.134  10.321  1.2783 -0.0924 -0.7984
 4526SOL    HW225215   4.111   1.186  10.415 -0.0655 -0.4169 -1.0089
 4527SOL     OW25216   1.562   2.322   9.786 -0.5837  0.5694  0.0608
 4527SOL    HW125217   1.540   2.409   9.820 -0.6623  0.1316  1.1168
 4527SOL    HW225218   1.613   2.334   9.707  0.3993  0.5755  0.7000
 4528SOL     OW25219   4.110   2.372   1.275  0.5533 -0.4991 -0.5522
 4528SOL    HW125220   4.107   2.325   1.192  1.7376 -0.7128 -0.4707
 4528SOL    HW225221   4.112   2.298   1.336 -0.8436 -0.8552 -0.9253
 4529SOL     OW25222   2.283   3.924   6.317  0.1124  0.2699 -0.1035
 4529SOL    HW125223   2.266   3.909   6.410 -1.5897  0.7109 -0.3366
 4529SOL    HW225224   2.234   4.004   6.295 -0.0719  0.5613  1.3872
 4530SOL     OW25225   3.594   3.168  16.831  0.5125  0.2442 -0.9077
 4530SOL    HW125226   3.610   3.234  16.898  0.0376  0.4902 -1.0408
 4530SOL    HW225227   3.623   3.094  16.886 -0.2653  0.1013 -0.6831
 4531SOL     OW25228   0.079   1.869   2.048 -0.0597 -0.1361  0.0386
 4531SOL    HW125229   0.149   1.813   2.084 -1.1251  0.2222  2.7126
 4531SOL    HW225230   0.015   1.865   2.119 -0.4972 -0.2837 -0.3691
 4532SOL     OW25231   4.591   1.830  11.578  0.3446 -0.6384 -0.5340
 4532SOL    HW125232   4.686   1.821  11.577  0.7642  3.2981  0.8490
 4532SOL    HW225233   4.584   1.771  11.653  0.3688  1.3509  1.0515
 4533SOL     OW25234   4.092   2.569   2.115 -0.0342 -0.2595 -0.3662
 4533SOL    HW125235   4.012   2.526   2.085 -1.4331 -1.2247  4.8688
 4533SOL    HW225236   4.105   2.629   2.041 -1.4538 -0.0508 -0.4427
 4534SOL     OW25237   0.375   4.733   2.449  0.4851 -0.3069 -0.1092
 4534SOL    HW125238   0.315   0.017   2.377 -0.1857  1.1022  0.8161
 4534SOL    HW225239   0.327   0.043   2.519  0.6714 -0.8699  0.3820
 4535SOL     OW25240   1.623   4.081   6.627 -0.5077  0.1806  0.2953
 4535SOL    HW125241   1.695   4.120   6.677 -0.4050  2.1250 -1.3639
 4535SOL    HW225242   1.572   4.160   6.614 -0.0128  0.4643  0.0648
 4536SOL     OW25243   3.370   2.959  13.084 -0.2368 -0.2020 -0.4230
 4536SOL    HW125244   3.460   2.963  13.051 -0.5779 -1.5328 -1.5196
 4536SOL    HW225245   3.397   2.950  13.175 -1.0631 -0.9821 -0.2617
 4537SOL     OW25246   0.916   4.075  17.531 -0.0021  0.1559 -0.6452
 4537SOL    HW125247   0.952   4.008  17.472 -3.8236 -1.4054 -1.2172
 4537SOL    HW225248   0.857   4.036  17.595  0.1361  1.5097  0.2908
 4538SOL     OW25249   1.012   2.621   2.520  1.2054 -0.1787 -0.4854
 4538SOL    HW125250   1.075   2.651   2.586  0.5714  0.1259 -0.0244
 4538SOL    HW225251   1.044   2.532   2.505  1.6336  0.0599 -1.0069
 4539SOL     OW25252   3.224   1.638   1.465  0.2205  0.4515  0.2929
 4539SOL    HW125253   3.166   1.640   1.389  0.6862  1.0113 -0.0463
 4539SOL    HW225254   3.198   1.555   1.505  2.5412  0.4790  1.8877
 4540SOL     OW25255   2.904   1.405   1.768  0.2337  0.1326 -0.3896
 4540SOL    HW125256   2.864   1.465   1.704 -0.1236 -0.1536 -0.4367
 4540SOL    HW225257   2.875   1.451   1.846 -1.4260 -1.5817  0.0031
 4541SOL     OW25258   0.789   2.079   9.427  0.9550 -0.3921  0.0177
 4541SOL    HW125259   0.759   2.169   9.438  1.4623 -0.0709 -1.3363
 4541SOL    HW225260   0.884   2.086   9.437  0.9639 -0.7280  0.1866
 4542SOL     OW25261   2.754   1.715   2.932  0.6170 -0.0581  0.1037
 4542SOL    HW125262   2.837   1.670   2.914  1.0012  1.2663 -1.4810
 4542SOL    HW225263   2.784   1.805   2.919 -0.4537  0.0975 -1.2823
 4543SOL     OW25264   4.710   3.352   3.841  0.7845 -0.1526 -0.2962
 4543SOL    HW125265   0.037   3.362   3.912 -1.0977  3.8852  0.8116
 4543SOL    HW225266   4.691   3.259   3.848  0.3476  0.0307  0.8508
 4544SOL     OW25267   2.737   0.745   8.598  0.1994 -0.4330  0.0675
 4544SOL    HW125268   2.814   0.783   8.641 -0.6968  0.7667  0.6243
 4544SOL    HW225269   2.709   0.678   8.661  1.3303  1.6267  2.7834
 4545SOL     OW25270   3.450   1.096   6.931 -0.3327  0.2660  0.4134
 4545SOL    HW125271   3.545   1.088   6.946 -0.6063  0.5350  2.2645
 4545SOL    HW225272   3.442   1.188   6.904 -1.7883 -0.0761 -0.3003
 4546SOL     OW25273   1.921   3.355   9.956  0.3725 -0.6064  0.0715
 4546SOL    HW125274   1.845   3.411   9.941  0.4285 -1.0954 -2.0795
 4546SOL    HW225275   1.977   3.430   9.975 -1.4027 -0.1016  3.1790
 4547SOL     OW25276   1.447   1.239   2.399  0.4891  0.3718 -0.0528
 4547SOL    HW125277   1.515   1.171   2.396  0.5080  0.4258 -0.7379
 4547SOL    HW225278   1.497   1.318   2.377  1.5340 -0.4185 -0.5472
 4548SOL     OW25279   1.664   1.192   7.194 -0.6167 -0.1673 -0.2899
 4548SOL    HW125280   1.640   1.258   7.129  1.9233 -0.3782 -1.4236
 4548SOL    HW225281   1.701   1.253   7.258  1.7110  0.0636 -1.8369
 4549SOL     OW25282   0.865   2.715  15.988 -0.0101 -0.3248  0.2093
 4549SOL    HW125283   0.929   2.766  15.938 -0.4611  0.7417  0.7172
 4549SOL    HW225284   0.842   2.650  15.922  1.3008 -0.4806 -0.0842
 4550SOL     OW25285   1.066   0.470  12.831  0.1378  1.0334  1.1383
 4550SOL    HW125286   1.014   0.517  12.767 -0.4264  0.8939  1.4968
 4550SOL    HW225287   1.009   0.394  12.839  1.0969  0.1263 -0.4937
 4551SOL     OW25288   4.686   2.958  13.467  0.0160  0.1089  0.1584
 4551SOL    HW125289   4.662   2.882  13.520  1.3132 -0.8747 -0.6570
 4551SOL    HW225290   4.678   2.918  13.380 -0.2292  0.5341 -0.0183
 4552SOL     OW25291   0.410   0.416  15.434  0.3148  0.0783  0.5014
 4552SOL    HW125292   0.377   0.369  15.510  0.3374 -0.7106  0.0239
 4552SOL    HW225293   0.421   0.506  15.464  2.1172  0.4246 -1.1677
 4553SOL     OW25294   2.556   3.717  17.022 -0.7005 -0.4865 -0.1624
 4553SOL    HW125295   2.529   3.785  17.084  1.3175 -1.3320  1.6400
 4553SOL    HW225296   2.498   3.726  16.947 -0.7827  0.3942  0.0085
 4554SOL     OW25297   3.295   3.595  17.218 -0.2164  0.1646  0.8007
 4554SOL    HW125298   3.200   3.583  17.216 -0.0014 -1.1064 -1.5306
 4554SOL    HW225299   3.314   3.627  17.306 -0.4020  1.6158  0.3137
 4555SOL     OW25300   2.693   2.063  12.954  0.7140 -0.5160  0.1810
 4555SOL    HW125301   2.646   2.127  13.007 -1.0562 -1.0408 -0.7442
 4555SOL    HW225302   2.626   1.995  12.942  0.2536  0.1354 -0.8914
 4556SOL     OW25303   3.931   3.371   8.001  0.0558 -0.2283  0.1630
 4556SOL    HW125304   3.902   3.460   8.020 -0.5446 -0.6317  1.1968
 4556SOL    HW225305   3.975   3.336   8.079  1.3547 -2.3256 -1.5222
 4557SOL     OW25306   0.230   2.912  13.527 -0.2103  0.6031 -0.2439
 4557SOL    HW125307   0.301   2.866  13.483  0.8272  1.5501  0.4446
 4557SOL    HW225308   0.183   2.953  13.454 -0.4824  0.4605 -0.1472
 4558SOL     OW25309   0.801   1.090   8.240 -0.3104 -0.2114  0.0496
 4558SOL    HW125310   0.798   1.057   8.329 -2.3395 -1.7694 -0.6008
 4558SOL    HW225311   0.715   1.130   8.225  0.5099  0.4314 -3.0247
 4559SOL     OW25312   3.940   2.999   8.654  0.2447 -0.2187 -0.3321
 4559SOL    HW125313   3.876   3.065   8.680  1.7454  0.9997  0.2846
 4559SOL    HW225314   3.961   3.033   8.567 -0.2868  1.0064  0.0244
 4560SOL     OW25315   4.039   1.326   6.478 -0.2494 -0.4615  0.0286
 4560SOL    HW125316   4.098   1.279   6.537 -0.9552 -0.4112  0.7638
 4560SOL    HW225317   4.054   1.420   6.489 -2.4122  0.3319 -3.7330
 4561SOL     OW25318   4.189   0.248   7.565 -0.3585 -0.1914  0.1448
 4561SOL    HW125319   4.163   0.220   7.477  1.1411 -1.1775  0.0201
 4561SOL    HW225320   4.209   0.336   7.534  1.7028 -0.0536  1.9263
 4562SOL     OW25321   0.504   1.908  13.164  0.0310  0.0646  0.1117
 4562SOL    HW125322   0.522   1.825  13.209 -1.3902  0.0154  0.5672
 4562SOL    HW225323   0.410   1.910  13.152 -0.0147 -1.6596  0.1990
 4563SOL     OW25324   1.632   3.341   8.134  0.3126 -0.1989 -0.4428
 4563SOL    HW125325   1.580   3.282   8.081  1.5350 -1.2332 -0.4996
 4563SOL    HW225326   1.611   3.427   8.099 -0.8816 -1.2771 -2.3342
 4564SOL     OW25327   2.048   0.233   2.524  0.0787 -0.3428 -0.2678
 4564SOL    HW125328   1.954   0.213   2.517 -0.1815  1.0092 -0.5669
 4564SOL    HW225329   2.054   0.327   2.536 -1.4579 -0.2967  0.1038
 4565SOL     OW25330   2.370   3.727  15.620 -0.5314 -0.7803 -0.0212
 4565SOL    HW125331   2.295   3.671  15.604  0.8700 -2.5720 -0.3579
 4565SOL    HW225332   2.432   3.656  15.637  0.2101 -0.1743 -0.1480
 4566SOL     OW25333   3.735   0.639  14.051  0.3039  0.0896 -0.0245
 4566SOL    HW125334   3.734   0.719  14.103 -2.6052 -0.9505  1.5451
 4566SOL    HW225335   3.661   0.593  14.092 -0.4516  0.7247 -0.6855
 4567SOL     OW25336   1.795   2.185   0.099  0.4321 -0.2886  0.0505
 4567SOL    HW125337   1.831   2.139   0.175  1.6632 -0.1278 -0.4264
 4567SOL    HW225338   1.822   2.276   0.112  1.0589 -0.5708  0.7112
 4568SOL     OW25339   4.481   2.027  13.345  0.0206  0.5467 -0.1952
 4568SOL    HW125340   4.415   2.036  13.277 -0.5485  0.1715  0.3129
 4568SOL    HW225341   4.470   2.112  13.388 -0.6297 -0.2737  1.2197
 4569SOL     OW25342   2.157   0.400   5.818  0.0883  0.1402  0.0989
 4569SOL    HW125343   2.234   0.440   5.857  1.3789 -2.1740 -0.0642
 4569SOL    HW225344   2.196   0.373   5.735 -0.6157  1.1400 -0.5560
 4570SOL     OW25345   1.610   4.102   3.074  0.4020 -0.2645  0.2646
 4570SOL    HW125346   1.577   4.018   3.041  0.1275 -0.3732  0.8204
 4570SOL    HW225347   1.690   4.062   3.108  0.8474 -0.3327 -0.8658
 4571SOL     OW25348   1.294   3.326  10.867  0.4236  0.0594  0.2459
 4571SOL    HW125349   1.209   3.316  10.911  0.5515 -0.6916  0.3185
 4571SOL    HW225350   1.269   3.315  10.776  1.3318  0.8823 -0.1058
 4572SOL     OW25351   4.368   1.922   4.029 -0.3422 -0.4274 -0.4307
 4572SOL    HW125352   4.416   1.900   4.109 -1.5205 -0.4242  0.2725
 4572SOL    HW225353   4.447   1.932   3.975  1.5711 -0.6869  2.2943
 4573SOL     OW25354   0.144   4.568   7.572  0.6967  0.0185 -0.5881
 4573SOL    HW125355   0.143   4.661   7.596  1.0715 -0.3206  0.7598
 4573SOL    HW225356   0.111   4.527   7.652 -0.4086  1.8017 -0.1189
 4574SOL     OW25357   3.407   3.238   3.742 -0.7379  0.0448  0.1202
 4574SOL    HW125358   3.314   3.252   3.727 -0.8943 -0.3057  0.7791
 4574SOL    HW225359   3.436   3.305   3.681  0.2181  0.2006  0.7462
 4575SOL     OW25360   0.928   4.534  11.118  0.5978  0.6724 -0.3402
 4575SOL    HW125361   0.985   4.490  11.056  3.9237 -0.0465  3.2054
 4575SOL    HW225362   0.924   4.618  11.072  1.7842  0.3355 -1.0671
 4576SOL     OW25363   2.386   1.773  10.672  0.6420 -0.4320  0.4511
 4576SOL    HW125364   2.404   1.853  10.624 -2.1393 -0.5527 -0.7623
 4576SOL    HW225365   2.326   1.812  10.736  0.9195  0.1024  0.3817
 4577SOL     OW25366   1.716   2.330   7.177 -0.1728  1.0123 -0.2507
 4577SOL    HW125367   1.799   2.335   7.224 -0.2634 -2.3558  0.2503
 4577SOL    HW225368   1.747   2.328   7.087 -0.6455  0.9968 -0.4159
 4578SOL     OW25369   1.301   4.065   8.904  0.3145  0.3986 -0.0480
 4578SOL    HW125370   1.232   4.130   8.887  1.3783  2.3424  3.0812
 4578SOL    HW225371   1.376   4.121   8.884  1.1347 -0.5445  0.4206
 4579SOL     OW25372   3.724   4.281   3.860  0.3009 -0.3039 -0.1030
 4579SOL    HW125373   3.752   4.313   3.945 -1.5781 -0.3349  0.5144
 4579SOL    HW225374   3.808   4.272   3.814 -0.1721  2.3478 -1.4852
 4580SOL     OW25375   2.032   4.727   5.232  0.0692 -0.7340  0.4894
 4580SOL    HW125376   1.980   4.649   5.251 -0.9891  0.2405  1.6236
 4580SOL    HW225377   2.016   0.012   5.139 -2.0600 -0.4195  0.9182
 4581SOL     OW25378   2.626   2.836   2.423  0.3010 -0.2813 -0.1378
 4581SOL    HW125379   2.544   2.821   2.470  1.1840  0.4913  1.6205
 4581SOL    HW225380   2.601   2.910   2.368 -0.8843 -2.1941 -2.1937
 4582SOL     OW25381   1.438   4.571   4.337  0.2481 -0.4115 -0.1130
 4582SOL    HW125382   1.358   4.597   4.292 -0.3047  2.2532  2.3849
 4582SOL    HW225383   1.408   4.545   4.424 -1.7708  2.0014 -0.0930
 4583SOL     OW25384   1.189   3.083   5.041 -0.2443 -0.8627  0.2429
 4583SOL    HW125385   1.243   3.077   5.119  0.7977 -3.4560 -0.6719
 4583SOL    HW225386   1.209   3.172   5.013 -0.8749 -1.5991 -2.5449
 4584SOL     OW25387   4.050   0.541   6.121 -0.3235 -0.1970 -0.0197
 4584SOL    HW125388   4.102   0.549   6.201 -0.5382  0.5870  0.0493
 4584SOL    HW225389   3.991   0.469   6.142  1.2621 -0.5889  3.1390
 4585SOL     OW25390   0.753   0.168   2.317  0.8610 -0.3235 -0.3679
 4585SOL    HW125391   0.847   0.168   2.304  1.0132 -1.2704  0.7424
 4585SOL    HW225392   0.732   0.179   2.224  4.1139  0.9956 -0.9333
 4586SOL     OW25393   4.527   1.754   2.619 -0.1544 -0.0968 -0.3897
 4586SOL    HW125394   4.449   1.736   2.566  0.0154  1.2876 -1.1260
 4586SOL    HW225395   4.511   1.846   2.638  0.8518  0.1208 -0.5695
 4587SOL     OW25396   3.717   0.925   6.493  0.3993  0.5982  0.4284
 4587SOL    HW125397   3.643   0.981   6.516 -0.4004 -0.3586  0.2092
 4587SOL    HW225398   3.776   0.945   6.565 -0.4635  1.1350  0.9893
 4588SOL     OW25399   0.990   4.200   2.020 -0.6974  0.3974 -0.3668
 4588SOL    HW125400   0.895   4.211   2.009 -0.4235  0.9501 -2.1083
 4588SOL    HW225401   0.995   4.206   2.116  0.6567 -0.3842 -0.3924
 4589SOL     OW25402   3.345   2.694  10.031 -0.6014  0.5738 -0.5590
 4589SOL    HW125403   3.369   2.764  10.092  2.3942 -0.5889 -0.4023
 4589SOL    HW225404   3.250   2.692  10.040 -0.5550 -0.1604 -0.2732
 4590SOL     OW25405   3.860   2.836   8.931  0.0036  0.4136 -0.0968
 4590SOL    HW125406   3.918   2.889   8.877  1.9702  1.7559  3.4133
 4590SOL    HW225407   3.920   2.817   9.002  0.1791  1.5237  0.0511
 4591SOL     OW25408   3.886   0.287   5.876  0.3149 -0.0886 -0.1058
 4591SOL    HW125409   3.893   0.274   5.970  0.3274 -0.0402 -0.0998
 4591SOL    HW225410   3.948   0.357   5.855 -0.4588  0.5075 -0.4168
 4592SOL     OW25411   1.941   1.278   5.753  0.4884 -0.2248  0.9740
 4592SOL    HW125412   1.917   1.243   5.666  0.2669  0.7247  0.6555
 4592SOL    HW225413   1.873   1.231   5.802  0.5755 -0.3077  1.0143
 4593SOL     OW25414   4.296   4.038   3.537 -0.2526  0.2748  0.2925
 4593SOL    HW125415   4.256   4.099   3.475  0.1696 -0.8190 -1.0396
 4593SOL    HW225416   4.326   4.092   3.610  0.4727  0.8552 -0.4445
 4594SOL     OW25417   1.222   1.702   1.354 -0.2408  0.1266 -0.1104
 4594SOL    HW125418   1.231   1.721   1.260  3.0667 -3.5154 -0.5086
 4594SOL    HW225419   1.310   1.692   1.389 -0.1283 -1.1265 -0.7507
 4595SOL     OW25420   0.366   3.417   7.988  0.3909 -0.4920 -0.0359
 4595SOL    HW125421   0.366   3.467   7.906  1.3223 -0.3957  0.0259
 4595SOL    HW225422   0.457   3.388   7.992  0.9224  1.4299  1.4628
 4596SOL     OW25423   0.152   2.254   3.316 -0.0846 -0.1167 -0.7745
 4596SOL    HW125424   0.138   2.161   3.297 -1.9756 -0.0956  0.5114
 4596SOL    HW225425   0.123   2.257   3.407  0.0064 -3.0080 -0.6357
 4597SOL     OW25426   3.300   1.689  17.522 -0.1438 -0.0311  0.0468
 4597SOL    HW125427   3.380   1.642  17.543 -0.5957 -0.2738  1.2465
 4597SOL    HW225428   3.302   1.680  17.427 -4.4863  2.9062 -0.3473
 4598SOL     OW25429   1.426   2.389  12.826  0.6652 -0.0406  0.1767
 4598SOL    HW125430   1.483   2.366  12.899 -0.2630 -1.5105  0.4491
 4598SOL    HW225431   1.457   2.479  12.816  1.0747 -0.3266 -1.0924
 4599SOL     OW25432   1.661   3.171  15.031 -0.7306 -0.3526  0.1952
 4599SOL    HW125433   1.567   3.153  15.036 -1.2256  1.8235 -1.7061
 4599SOL    HW225434   1.666   3.212  14.945 -1.4636 -1.4216 -0.3619
 4600SOL     OW25435   3.574   3.780   4.405  0.0402  0.3683  0.5392
 4600SOL    HW125436   3.557   3.852   4.345 -0.4326 -1.7448 -1.8289
 4600SOL    HW225437   3.496   3.727   4.391  0.9298 -0.3140 -1.7734
 4601SOL     OW25438   1.382   1.984   6.724 -0.2010  0.0073  0.2750
 4601SOL    HW125439   1.409   1.992   6.816  1.3061 -1.1833 -0.0702
 4601SOL    HW225440   1.374   1.889   6.718  2.1534 -0.1068 -1.0464
 4602SOL     OW25441   3.204   0.142   2.050 -0.2481 -0.0136 -0.2801
 4602SOL    HW125442   3.257   0.107   1.978 -2.4544 -0.3970 -1.7149
 4602SOL    HW225443   3.128   0.084   2.062 -0.7369  0.3079 -1.8194
 4603SOL     OW25444   2.915   1.578   2.606 -0.2063 -0.2093 -0.1640
 4603SOL    HW125445   3.005   1.582   2.574  0.4278  0.4487  1.6937
 4603SOL    HW225446   2.888   1.664   2.573  2.1722  1.7836  3.0589
 4604SOL     OW25447   0.454   2.370   5.643  0.0755 -0.5011 -0.2531
 4604SOL    HW125448   0.394   2.346   5.572 -0.5018 -0.8873  0.3659
 4604SOL    HW225449   0.419   2.454   5.673 -1.3407 -0.9770 -0.5561
 4605SOL     OW25450   3.945   2.184   8.492 -0.1817 -0.1994  0.1552
 4605SOL    HW125451   3.857   2.166   8.460 -0.8608 -0.3329  2.1054
 4605SOL    HW225452   3.920   2.255   8.551 -0.6402 -1.0932  1.0261
 4606SOL     OW25453   3.970   0.029   0.620 -0.1632 -0.6795 -0.2279
 4606SOL    HW125454   4.055   4.724   0.637 -0.8597 -3.0898 -2.4661
 4606SOL    HW225455   3.966   0.039   0.525  1.9743  1.0302 -0.1177
 4607SOL     OW25456   3.634   3.423  11.000  0.0199  0.3773  0.5239
 4607SOL    HW125457   3.570   3.445  11.068  0.6759  0.2268  1.1821
 4607SOL    HW225458   3.631   3.328  11.014  0.1651  0.3127  0.0989
 4608SOL     OW25459   1.977   4.610   3.019 -0.2962 -0.0074  0.3878
 4608SOL    HW125460   1.965   4.567   2.934 -0.1494 -0.2088  0.4672
 4608SOL    HW225461   2.021   4.690   2.992  1.3567 -1.0393  0.0022
 4609SOL     OW25462   2.856   2.581   4.416 -0.4455  0.1898  0.1187
 4609SOL    HW125463   2.812   2.501   4.388  0.1983 -0.1389  0.0548
 4609SOL    HW225464   2.779   2.624   4.453  1.1735  1.3358  2.1577
 4610SOL     OW25465   3.552   0.140   6.709  0.2701 -1.1378 -0.7506
 4610SOL    HW125466   3.512   0.055   6.729 -0.2505 -0.5419  0.7401
 4610SOL    HW225467   3.485   0.205   6.729 -1.9691 -3.0950 -1.9161
 4611SOL     OW25468   2.817   3.344   6.767 -0.2768 -0.3351  0.1824
 4611SOL    HW125469   2.775   3.305   6.690  0.0564 -1.5493  0.6038
 4611SOL    HW225470   2.807   3.271   6.828 -0.6657 -0.8639 -0.5009
 4612SOL     OW25471   3.927   4.677   7.206  0.3198 -0.0236  0.0830
 4612SOL    HW125472   3.841   4.684   7.165 -0.7062 -1.9853  1.9077
 4612SOL    HW225473   3.936   4.585   7.184  1.6142 -0.0671  0.7842
 4613SOL     OW25474   0.718   1.906   5.910 -0.4472  0.2586 -0.2403
 4613SOL    HW125475   0.776   1.833   5.889 -0.7962 -0.0192 -0.2422
 4613SOL    HW225476   0.778   1.960   5.961 -1.9768  0.8351  0.9543
 4614SOL     OW25477   4.577   0.437   4.853 -0.4120  0.2505  0.0548
 4614SOL    HW125478   4.602   0.458   4.943 -2.5477 -0.0421  0.7127
 4614SOL    HW225479   4.505   0.500   4.851 -0.3122  0.4013  1.3199
 4615SOL     OW25480   4.431   2.428   4.398  0.1716 -0.5983  0.3901
 4615SOL    HW125481   4.431   2.519   4.430  1.1539 -0.9538  1.4179
 4615SOL    HW225482   4.514   2.423   4.352 -0.9653 -3.5266 -1.3122
 4616SOL     OW25483   1.682   3.530   1.981 -0.1787  0.1400 -0.6819
 4616SOL    HW125484   1.684   3.481   1.899 -2.5598 -1.2142  0.0698
 4616SOL    HW225485   1.618   3.478   2.028 -2.2554  2.7666 -0.5645
 4617SOL     OW25486   3.894   3.302   6.439  0.1477  0.4673 -0.3756
 4617SOL    HW125487   3.979   3.257   6.439  1.2054  2.4669  0.4184
 4617SOL    HW225488   3.888   3.337   6.350  0.1904  0.5185 -0.3582
 4618SOL     OW25489   3.337   0.459  10.913 -0.5488 -0.3902 -0.6614
 4618SOL    HW125490   3.309   0.460  11.005  1.7753  1.7362  0.0340
 4618SOL    HW225491   3.394   0.382  10.903 -0.5966 -0.5134 -0.0108
 4619SOL     OW25492   3.212   0.367   4.856  0.1501 -0.1062 -0.5558
 4619SOL    HW125493   3.176   0.305   4.920 -1.8470  1.0532 -0.5360
 4619SOL    HW225494   3.291   0.402   4.897  0.7709  2.6761 -4.1826
 4620SOL     OW25495   4.502   4.489  17.531 -0.2021  0.3332  0.6104
 4620SOL    HW125496   4.570   4.524  17.474 -0.6726 -0.0237 -0.1570
 4620SOL    HW225497   4.447   4.437  17.473 -1.3718  1.8719  0.3165
 4621SOL     OW25498   0.331   0.411   8.229 -0.0756  0.2490  0.4056
 4621SOL    HW125499   0.254   0.372   8.187 -0.3215 -1.5908  2.5665
 4621SOL    HW225500   0.399   0.361   8.183  0.7574  1.1881  0.6088
 4622SOL     OW25501   3.261   2.129   2.021  0.0903 -0.3452  0.2584
 4622SOL    HW125502   3.335   2.069   2.031 -1.0117 -1.6943  0.4753
 4622SOL    HW225503   3.208   2.085   1.954 -0.6236  0.2590  0.4258
 4623SOL     OW25504   0.158   0.431   1.540 -0.0775 -0.2818  0.5388
 4623SOL    HW125505   0.140   0.513   1.587  0.6718 -0.2761  0.8096
 4623SOL    HW225506   0.073   0.398   1.511 -0.5667  2.6429 -1.3407
 4624SOL     OW25507   3.249   0.815   8.570  0.0434  0.0131  0.3602
 4624SOL    HW125508   3.202   0.878   8.517 -1.0243 -0.5368  0.6492
 4624SOL    HW225509   3.344   0.816   8.558 -0.0316 -0.0796 -0.2285
 4625SOL     OW25510   0.631   0.414  14.200  0.3019  0.7101 -0.2042
 4625SOL    HW125511   0.670   0.484  14.147  1.9835  0.4346  0.6816
 4625SOL    HW225512   0.569   0.462  14.255 -0.7486 -1.8809  0.8955
 4626SOL     OW25513   3.341   3.472  11.455  0.0493  0.0211  0.0722
 4626SOL    HW125514   3.263   3.418  11.444 -0.8483  1.4559 -0.6596
 4626SOL    HW225515   3.344   3.484  11.549 -0.3338  0.4276  0.0322
 4627SOL     OW25516   2.362   2.978  13.949  0.0003  0.2407 -0.2012
 4627SOL    HW125517   2.279   2.947  13.913 -0.5673  0.7268  0.6968
 4627SOL    HW225518   2.395   3.035  13.880 -1.6808  0.6604 -0.6524
 4628SOL     OW25519   2.614   3.171   1.018  0.1432  0.1765 -0.4700
 4628SOL    HW125520   2.593   3.262   0.999  0.4478  0.0936 -1.1927
 4628SOL    HW225521   2.705   3.178   1.046 -0.9711  0.9522  3.0399
 4629SOL     OW25522   3.823   0.289   1.803  0.4050  0.0249 -0.4694
 4629SOL    HW125523   3.860   0.377   1.796 -0.1149  0.1505 -1.6020
 4629SOL    HW225524   3.729   0.308   1.795  0.0743 -0.3032  2.3366
 4630SOL     OW25525   2.546   0.472  13.067  0.2100  0.1525 -0.0445
 4630SOL    HW125526   2.568   0.496  13.157  0.6220 -2.5312  0.5836
 4630SOL    HW225527   2.608   0.400  13.053  0.1996  0.3718 -1.2040
 4631SOL     OW25528   0.169   0.764  13.876 -0.0235 -0.4982 -0.0324
 4631SOL    HW125529   0.077   0.763  13.850  0.6361  1.4094 -2.4585
 4631SOL    HW225530   0.196   0.831  13.813 -0.4104 -0.5373 -0.2338
 4632SOL     OW25531   2.059   1.654   6.195  0.0256  0.1492 -0.0761
 4632SOL    HW125532   1.995   1.725   6.187 -1.3283 -1.1240 -0.5362
 4632SOL    HW225533   2.143   1.700   6.189 -0.0831  0.1042 -2.0688
 4633SOL     OW25534   1.399   0.032   6.404  0.3173 -0.1273  0.5698
 4633SOL    HW125535   1.419   0.120   6.371  1.8163 -0.9267 -0.6939
 4633SOL    HW225536   1.358   0.055   6.487  1.2765  2.4747  0.3212
 4634SOL     OW25537   3.529   0.273   1.712 -0.5477  0.4740 -0.0911
 4634SOL    HW125538   3.442   0.307   1.692 -0.1305 -0.2693 -3.2778
 4634SOL    HW225539   3.507   0.197   1.766 -1.5343  1.7577  1.2882
 4635SOL     OW25540   2.595   0.179   0.696  0.7317  0.2547  0.3983
 4635SOL    HW125541   2.643   0.251   0.656  0.1990  0.1410 -0.4472
 4635SOL    HW225542   2.537   0.223   0.758 -1.4979 -0.1530 -1.4359
 4636SOL     OW25543   3.426   1.859   9.060  0.5750 -0.1253  0.0073
 4636SOL    HW125544   3.361   1.839   9.127 -1.0050  3.6652 -0.4170
 4636SOL    HW225545   3.415   1.783   9.002  0.6665  1.6596 -2.3454
 4637SOL     OW25546   3.461   2.304   8.684 -0.3348  0.6343 -0.0737
 4637SOL    HW125547   3.423   2.365   8.748 -0.3283 -0.9766  1.4645
 4637SOL    HW225548   3.525   2.258   8.738 -0.8140  1.1758  0.9669
 4638SOL     OW25549   3.536   1.752  11.185 -0.0590  0.2995  0.3523
 4638SOL    HW125550   3.627   1.763  11.158 -0.1706  2.0364  0.6152
 4638SOL    HW225551   3.542   1.729  11.278 -1.3811 -0.4955  0.2417
 4639SOL     OW25552   0.759   0.583  12.374  0.1178 -0.5293 -0.2038
 4639SOL    HW125553   0.682   0.574  12.431  2.0334 -1.1689  2.2767
 4639SOL    HW225554   0.711   0.618  12.299 -0.8263  0.6857  0.9583
 4640SOL     OW25555   0.538   3.926  15.539  0.4418  0.0932 -0.3714
 4640SOL    HW125556   0.593   3.916  15.617 -2.2937 -2.0299  1.3024
 4640SOL    HW225557   0.603   3.956  15.476  1.1527 -0.3461  0.1419
 4641SOL     OW25558   0.930   2.471   3.889  0.4383  0.4226  0.4208
 4641SOL    HW125559   0.855   2.411   3.883  1.4218 -0.6180 -1.4277
 4641SOL    HW225560   0.897   2.527   3.818 -0.7994 -0.7151  0.1002
 4642SOL     OW25561   3.964   1.883   8.612 -0.4768 -0.3167 -0.6584
 4642SOL    HW125562   3.946   1.969   8.574 -0.0030 -0.0372 -0.2441
 4642SOL    HW225563   3.877   1.846   8.628 -0.6915  0.3517 -0.2751
 4643SOL     OW25564   4.303   3.085  11.854  0.2470 -0.1923  0.1491
 4643SOL    HW125565   4.290   3.168  11.808  1.5995 -0.3422 -0.4831
 4643SOL    HW225566   4.331   3.113  11.941 -0.1371  4.4937 -1.2631
 4644SOL     OW25567   4.007   1.984   2.652 -0.1180 -0.2258  0.6329
 4644SOL    HW125568   3.920   1.986   2.692 -0.6620 -1.7594 -0.5114
 4644SOL    HW225569   4.054   2.036   2.718 -1.9389  1.6931  0.4361
 4645SOL     OW25570   4.561   1.593  14.665 -0.4409  0.6008 -0.4177
 4645SOL    HW125571   4.627   1.660  14.648 -0.2364 -0.0995 -2.3967
 4645SOL    HW225572   4.565   1.586  14.760  0.2049 -0.0611 -0.4987
 4646SOL     OW25573   4.469   2.421   3.226  0.0400  0.4487 -0.1853
 4646SOL    HW125574   4.435   2.361   3.293 -0.4377  0.6422 -0.2527
 4646SOL    HW225575   4.388   2.447   3.181 -0.3485 -0.8554 -0.2439
 4647SOL     OW25576   4.466   4.615   3.732  0.4905 -0.1365 -0.0903
 4647SOL    HW125577   4.501   4.526   3.733  1.4261  0.2403  0.5140
 4647SOL    HW225578   4.512   4.641   3.652  0.6661 -0.0691  0.0326
 4648SOL     OW25579   0.182   3.868  16.904 -0.1016 -1.2385 -0.0851
 4648SOL    HW125580   0.177   3.797  16.968 -1.4922  0.7756  2.0298
 4648SOL    HW225581   0.164   3.942  16.962 -1.5054 -0.6874 -1.2406
 4649SOL     OW25582   1.102   3.245  15.298 -0.6195  0.1849 -0.4371
 4649SOL    HW125583   1.197   3.232  15.306 -0.9017 -1.1810  0.6848
 4649SOL    HW225584   1.084   3.331  15.261  3.8040  1.4361  0.3528
 4650SOL     OW25585   0.950   4.604   3.863  0.2427 -0.3305 -0.0861
 4650SOL    HW125586   0.867   4.587   3.820  0.0374  3.0779 -1.0500
 4650SOL    HW225587   1.011   4.592   3.791 -0.1067  0.6986 -0.5463
 4651SOL     OW25588   0.143   2.391   3.940  0.4847  0.0443 -0.0648
 4651SOL    HW125589   0.191   2.440   4.007 -0.2442  0.9385 -0.1923
 4651SOL    HW225590   0.088   2.337   3.997 -0.2504  0.0971 -0.7219
 4652SOL     OW25591   3.770   2.237   2.348 -0.1929 -0.1639  0.0459
 4652SOL    HW125592   3.849   2.290   2.361  1.1877 -1.8749 -1.2851
 4652SOL    HW225593   3.795   2.175   2.279 -0.0893  0.2445 -0.2868
 4653SOL     OW25594   2.199   2.398   4.909 -0.3550  0.4276  0.3452
 4653SOL    HW125595   2.127   2.364   4.962  1.6459 -1.1142  2.0601
 4653SOL    HW225596   2.246   2.460   4.965 -1.2849 -0.1244  1.7447
 4654SOL     OW25597   2.208   1.479  12.586 -0.4257  0.3390 -0.5598
 4654SOL    HW125598   2.199   1.509  12.676 -1.3887  1.4915 -1.0540
 4654SOL    HW225599   2.260   1.399  12.599 -1.2664 -0.0979  0.0920
 4655SOL     OW25600   1.008   3.964   7.989 -0.3787  0.2620 -0.0991
 4655SOL    HW125601   1.088   4.014   7.971 -2.1505  2.2219 -2.3272
 4655SOL    HW225602   0.964   4.015   8.057 -0.4513  3.1009 -2.2988
 4656SOL     OW25603   0.550   1.764   5.375  0.4470 -0.4162  0.1684
 4656SOL    HW125604   0.591   1.697   5.430  0.5085  0.5074  1.2445
 4656SOL    HW225605   0.455   1.751   5.387  0.1768  1.3335 -0.0620
 4657SOL     OW25606   4.525   3.330  12.455  0.5828 -0.2775  0.3778
 4657SOL    HW125607   4.605   3.381  12.469  0.9093 -1.0665  1.3786
 4657SOL    HW225608   4.521   3.299  12.545  0.1715 -2.1186 -0.2732
 4658SOL     OW25609   3.824   3.573  12.609 -0.3251 -0.0103 -0.8316
 4658SOL    HW125610   3.892   3.608  12.552  1.1003 -0.3003  0.7095
 4658SOL    HW225611   3.764   3.646  12.622 -0.7286 -0.2420 -1.3498
 4659SOL     OW25612   4.216   1.869  17.081  0.5442  0.2536 -0.1861
 4659SOL    HW125613   4.124   1.887  17.062  0.8912  0.0846 -1.9924
 4659SOL    HW225614   4.251   1.854  16.993  2.9793 -0.1748  0.8641
 4660SOL     OW25615   4.709   4.033  11.588  0.6080 -0.2010  0.3876
 4660SOL    HW125616   4.710   4.096  11.516 -0.6265 -1.3587 -0.6521
 4660SOL    HW225617   4.616   4.009  11.588  0.9085 -1.3842  1.0697
 4661SOL     OW25618   0.640   3.837   2.612  0.6741 -0.3468  0.0767
 4661SOL    HW125619   0.604   3.757   2.652 -0.4505 -0.0859 -0.4214
 4661SOL    HW225620   0.599   3.833   2.526  0.9544  0.8739 -0.1088
 4662SOL     OW25621   4.609   2.931   2.340  0.2688 -0.8186 -0.2636
 4662SOL    HW125622   4.678   2.865   2.333 -0.1352 -1.1269 -1.3486
 4662SOL    HW225623   4.559   2.951   2.261 -0.3200 -0.6972  0.1343
 4663SOL     OW25624   2.259   3.203  13.069 -0.8721  0.2201  0.7791
 4663SOL    HW125625   2.339   3.165  13.104 -1.8517 -0.2091  2.5905
 4663SOL    HW225626   2.291   3.277  13.019 -1.7382  0.5373  0.6833
 4664SOL     OW25627   4.076   4.685   9.905  0.4494 -0.5390 -0.1136
 4664SOL    HW125628   4.049   4.658   9.818 -0.9414  0.3817  0.0279
 4664SOL    HW225629   4.017   4.638   9.964  1.5183 -2.9684 -0.9805
 4665SOL     OW25630   3.113   4.693  11.390 -0.4529  0.1394  0.2683
 4665SOL    HW125631   3.056   0.028  11.357  0.3064  0.8992  0.5752
 4665SOL    HW225632   3.053   4.665  11.459 -0.2431 -1.6426 -0.2921
 4666SOL     OW25633   2.541   1.467   6.911  0.1694  0.5379 -0.3354
 4666SOL    HW125634   2.597   1.402   6.869  0.9676  1.9070 -1.3818
 4666SOL    HW225635   2.559   1.547   6.862 -0.5535  1.5054  0.9719
 4667SOL     OW25636   1.300   2.270   9.498 -0.2151 -0.4905  0.7105
 4667SOL    HW125637   1.356   2.251   9.423  0.3150  1.0387  0.7070
 4667SOL    HW225638   1.349   2.219   9.563 -0.9915 -0.0685  1.6387
 4668SOL     OW25639   2.900   3.193   1.022 -0.4946 -0.2970 -1.1867
 4668SOL    HW125640   2.981   3.144   1.036 -0.0050  0.5845 -0.8790
 4668SOL    HW225641   2.930   3.263   0.963 -0.0193  0.3260 -0.1950
 4669SOL     OW25642   4.294   3.575   6.834 -0.0824 -0.1024 -0.5531
 4669SOL    HW125643   4.277   3.518   6.759  0.4330 -0.3096 -0.5138
 4669SOL    HW225644   4.216   3.578   6.888  0.9906 -0.6743  1.0400
 4670SOL     OW25645   0.619   3.543   9.080 -0.2480  0.2766  0.1769
 4670SOL    HW125646   0.637   3.594   9.159 -2.1077  1.1639  0.0135
 4670SOL    HW225647   0.710   3.518   9.061 -1.0871 -1.5381 -1.4106
 4671SOL     OW25648   1.842   4.041  16.558  0.1595  0.1675  0.4473
 4671SOL    HW125649   1.847   4.018  16.465 -0.3221  0.3661  0.3713
 4671SOL    HW225650   1.925   4.005  16.588  2.0145  3.5537 -0.5232
 4672SOL     OW25651   0.369   1.355   8.907  0.2040 -0.0150 -0.0596
 4672SOL    HW125652   0.430   1.381   8.837  1.1224 -1.0784  0.3582
 4672SOL    HW225653   0.297   1.331   8.849 -1.5287  1.5277  1.4266
 4673SOL     OW25654   3.245   0.816  13.995  0.0829  0.3326  0.3026
 4673SOL    HW125655   3.185   0.791  13.925 -0.8158  3.3977 -0.0438
 4673SOL    HW225656   3.271   0.733  14.034  0.7848  0.9356  1.1132
 4674SOL     OW25657   4.215   1.044   4.296  0.2279  0.3224  0.5857
 4674SOL    HW125658   4.232   0.955   4.328 -0.4214 -0.3692 -0.9475
 4674SOL    HW225659   4.304   1.079   4.296 -0.3938  1.9016  1.3912
 4675SOL     OW25660   3.900   0.941  17.045 -0.2424 -0.0362 -0.0148
 4675SOL    HW125661   3.865   0.941  16.956 -0.2865  1.5608 -0.0065
 4675SOL    HW225662   3.907   1.036  17.061 -1.0078 -0.0022  0.1251
 4676SOL     OW25663   2.287   2.451   1.930  0.7130  0.4175  0.0070
 4676SOL    HW125664   2.255   2.465   1.841 -2.0197  1.4761  1.1558
 4676SOL    HW225665   2.240   2.523   1.974 -0.4439  0.3209 -1.0662
 4677SOL     OW25666   4.208   4.692   5.387  0.1924  0.4613 -0.0431
 4677SOL    HW125667   4.235   0.030   5.442 -0.5560  0.6327  0.0909
 4677SOL    HW225668   4.147   0.005   5.331  0.8689  2.8715  1.3123
 4678SOL     OW25669   2.301   3.142   2.578 -0.1118 -0.4964  0.5856
 4678SOL    HW125670   2.259   3.056   2.570 -0.5722 -0.2034 -0.0798
 4678SOL    HW225671   2.243   3.201   2.530 -1.7435 -2.5191  0.0618
 4679SOL     OW25672   2.592   0.029   7.790 -0.1041 -0.3239  0.3703
 4679SOL    HW125673   2.539   0.090   7.841 -1.7760 -1.2999 -0.2021
 4679SOL    HW225674   2.563   4.679   7.824 -1.0788 -0.0495  0.2178
 4680SOL     OW25675   1.208   4.381  17.727  0.3656  0.2621 -0.4030
 4680SOL    HW125676   1.229   4.425   0.070  0.0822  2.1114 -1.3038
 4680SOL    HW225677   1.142   4.436  17.685  0.5478 -0.8196 -2.1095
 4681SOL     OW25678   3.450   2.840   2.864 -0.3103 -0.2270  0.0531
 4681SOL    HW125679   3.501   2.763   2.837 -0.8187  0.3883 -2.6664
 4681SOL    HW225680   3.481   2.898   2.795 -0.3575 -2.2095 -1.6344
 4682SOL     OW25681   3.016   0.847  14.489 -0.2602 -0.2640  0.5906
 4682SOL    HW125682   2.987   0.834  14.399 -1.8700 -0.3096  1.1098
 4682SOL    HW225683   3.020   0.758  14.524  2.4347  1.2991  4.2533
 4683SOL     OW25684   3.083   1.960   4.734 -0.7347 -0.0619  0.2800
 4683SOL    HW125685   3.068   2.053   4.720  0.3221  0.1243  0.4676
 4683SOL    HW225686   3.095   1.925   4.645 -0.5444 -1.3120  0.7955
 4684SOL     OW25687   0.410   4.017   5.558  0.1347  0.1792 -0.2652
 4684SOL    HW125688   0.354   4.084   5.597  0.7999 -0.1829  1.3210
 4684SOL    HW225689   0.485   4.074   5.547  0.4280 -0.5801 -2.2553
 4685SOL     OW25690   4.602   0.583   7.434  0.2939  0.2142  0.7211
 4685SOL    HW125691   4.523   0.617   7.392 -0.5581 -1.2363  1.1566
 4685SOL    HW225692   4.575   0.592   7.526 -1.7315  1.1239  0.0439
 4686SOL     OW25693   3.295   1.308   7.858  0.2578  0.2922  0.4883
 4686SOL    HW125694   3.211   1.354   7.858 -0.5480 -1.1808 -1.4785
 4686SOL    HW225695   3.344   1.390   7.866  0.0886  0.5834 -1.5586
 4687SOL     OW25696   4.334   1.240  13.000  0.3901  0.1118  0.4272
 4687SOL    HW125697   4.279   1.262  12.925 -0.5663 -0.4347  0.9766
 4687SOL    HW225698   4.420   1.266  12.967  1.3872 -2.5408  0.9493
 4688SOL     OW25699   4.390   4.470   1.064  0.3225  0.2863 -0.4472
 4688SOL    HW125700   4.457   4.402   1.063 -1.2905 -1.3670  2.1768
 4688SOL    HW225701   4.373   4.478   0.970 -0.5359  1.1930 -0.2147
 4689SOL     OW25702   3.778   1.586   0.669 -0.3293 -0.0745  0.2940
 4689SOL    HW125703   3.685   1.608   0.660 -0.8031 -1.5570  1.6866
 4689SOL    HW225704   3.789   1.542   0.585  1.5459 -2.1020  1.6253
 4690SOL     OW25705   2.334   2.045  12.626  0.3986 -0.2703  0.6033
 4690SOL    HW125706   2.415   2.084  12.660  0.2989 -0.6552  1.2808
 4690SOL    HW225707   2.275   2.051  12.701  0.5643  1.1493  0.6238
 4691SOL     OW25708   2.863   2.040  17.367  0.5617 -0.3247 -0.5407
 4691SOL    HW125709   2.916   1.961  17.372 -0.8488 -1.2451 -0.0115
 4691SOL    HW225710   2.783   1.997  17.336 -0.6357  2.1455 -0.8929
 4692SOL     OW25711   0.690   4.506  10.212  0.4508 -0.1118  0.6978
 4692SOL    HW125712   0.780   4.475  10.221  0.9758  1.3633  0.4907
 4692SOL    HW225713   0.653   4.462  10.136  0.8753  3.5084 -1.6227
 4693SOL     OW25714   2.889   3.096  10.175 -0.6910 -0.4814 -0.4893
 4693SOL    HW125715   2.824   3.129  10.112  0.2203  2.3445  0.0469
 4693SOL    HW225716   2.903   3.180  10.219 -2.4106 -0.6133  0.3361
 4694SOL     OW25717   0.134   4.442   8.595 -0.0393  0.1300 -0.5253
 4694SOL    HW125718   0.110   4.376   8.529 -1.7976 -0.4166  0.6579
 4694SOL    HW225719   0.077   4.415   8.667  0.6610 -0.4321 -0.1913
 4695SOL     OW25720   4.398   2.472  15.315  0.1995  0.1309 -0.1857
 4695SOL    HW125721   4.423   2.408  15.382  0.4442 -1.2213 -1.5627
 4695SOL    HW225722   4.388   2.420  15.234  1.2295 -0.4018  0.0288
 4696SOL     OW25723   4.470   1.596   1.351 -0.3843  0.1352 -0.3662
 4696SOL    HW125724   4.430   1.682   1.366 -1.5987 -0.6097  0.6218
 4696SOL    HW225725   4.488   1.557   1.436 -1.3143  0.8816  0.1690
 4697SOL     OW25726   4.226   3.049   7.540 -0.4141 -0.1968 -0.5640
 4697SOL    HW125727   4.281   2.994   7.484  1.2236  1.5390 -0.6682
 4697SOL    HW225728   4.199   3.111   7.471 -1.2055 -1.1413 -1.1125
 4698SOL     OW25729   1.032   3.581  17.061 -0.0048  0.0425 -0.3552
 4698SOL    HW125730   1.005   3.608  17.149  1.9574  3.0853 -0.6768
 4698SOL    HW225731   1.116   3.625  17.047  0.0336  0.1149  0.1087
 4699SOL     OW25732   2.500   1.854   6.597  0.0895  0.0624 -0.3452
 4699SOL    HW125733   2.481   1.946   6.578 -0.2012 -0.2024 -1.3018
 4699SOL    HW225734   2.578   1.842   6.543  0.0963  0.6122 -0.4624
 4700SOL     OW25735   3.658   2.155   8.770 -0.1558 -0.1972 -0.6958
 4700SOL    HW125736   3.676   2.063   8.792 -3.1854 -1.6097 -4.1901
 4700SOL    HW225737   3.696   2.185   8.853  2.3560 -0.9218 -1.6007
 4701SOL     OW25738   2.301   1.656   4.117 -0.3583  0.1801 -0.3808
 4701SOL    HW125739   2.343   1.603   4.185  0.1645  0.5831 -0.3897
 4701SOL    HW225740   2.336   1.740   4.147  0.0036  0.8202 -2.5635
 4702SOL     OW25741   0.965   4.730  16.062 -0.2752 -0.2661 -0.4782
 4702SOL    HW125742   0.981   0.088  16.076 -0.3272 -0.3235 -0.0318
 4702SOL    HW225743   0.886   4.733  16.008 -1.0132  1.0134  0.6880
 4703SOL     OW25744   3.611   4.596   3.969 -0.2670  0.0293  0.2213
 4703SOL    HW125745   3.678   4.571   4.033  0.9200 -0.0741 -1.0574
 4703SOL    HW225746   3.671   4.615   3.897 -0.6985 -0.4963 -0.2756
 4704SOL     OW25747   0.272   2.275   2.943 -0.0003  0.5668 -0.1825
 4704SOL    HW125748   0.273   2.337   3.016  0.1038 -0.7192  0.9093
 4704SOL    HW225749   0.215   2.206   2.979 -3.0498  3.0882 -0.1347
 4705SOL     OW25750   3.951   0.186  13.605 -0.1283 -0.3679 -0.2326
 4705SOL    HW125751   3.935   0.279  13.623 -3.2012 -1.4294  2.3837
 4705SOL    HW225752   3.896   0.152  13.675 -1.2782  2.1744  0.0760
 4706SOL     OW25753   1.724   4.231   4.946 -0.1954  0.2778  0.3095
 4706SOL    HW125754   1.765   4.289   4.882 -2.5896  1.0686 -0.5293
 4706SOL    HW225755   1.638   4.274   4.949 -0.4767 -0.2305 -0.6157
 4707SOL     OW25756   2.342   0.214   9.590 -0.9579  0.4674 -0.6252
 4707SOL    HW125757   2.283   0.223   9.665 -1.3690  1.4708 -1.0783
 4707SOL    HW225758   2.402   0.143   9.613  1.9093  2.1876 -2.7447
 4708SOL     OW25759   3.253   1.703   3.860 -0.1429  0.0377 -0.1536
 4708SOL    HW125760   3.301   1.671   3.936  2.5313  2.2238 -0.9038
 4708SOL    HW225761   3.168   1.670   3.890 -0.1714  0.1869 -0.0724
 4709SOL     OW25762   4.515   4.300  16.783 -0.2218  0.3188 -0.1280
 4709SOL    HW125763   4.420   4.296  16.789 -0.2326  0.6834 -0.0589
 4709SOL    HW225764   4.534   4.256  16.700 -1.2688  0.6979 -0.5643
 4710SOL     OW25765   1.574   0.599   4.705  0.2813 -0.1078 -0.2611
 4710SOL    HW125766   1.505   0.664   4.690 -1.2479 -1.3445  1.3610
 4710SOL    HW225767   1.525   0.521   4.680  2.1514 -1.2425 -0.3622
 4711SOL     OW25768   2.469   3.264  11.876  0.4744  0.1762  0.3404
 4711SOL    HW125769   2.555   3.268  11.919 -0.1509  1.0275  1.5129
 4711SOL    HW225770   2.479   3.346  11.827  0.4254  0.7546  1.2885
 4712SOL     OW25771   3.356   1.114   4.915 -0.1432 -0.1138 -0.2164
 4712SOL    HW125772   3.361   1.097   5.009  1.3106 -1.0722 -0.4649
 4712SOL    HW225773   3.261   1.114   4.905 -0.0062 -1.0133 -1.4774
 4713SOL     OW25774   1.349   3.382   3.992 -0.2030 -0.4716 -0.6802
 4713SOL    HW125775   1.317   3.472   4.001 -1.5943 -0.9332 -1.0805
 4713SOL    HW225776   1.443   3.398   3.980 -0.2838  0.1768 -0.4376
 4714SOL     OW25777   2.353   3.909   5.758  0.3103  0.0349  0.1650
 4714SOL    HW125778   2.447   3.921   5.769  0.6219 -1.6748 -0.6927
 4714SOL    HW225779   2.336   3.850   5.685 -1.2671 -0.4522  0.9439
 4715SOL     OW25780   3.859   2.037   6.712  1.2715 -0.6466 -1.1393
 4715SOL    HW125781   3.867   1.946   6.685  0.8952 -0.8841 -0.4417
 4715SOL    HW225782   3.950   2.064   6.729  0.9573  0.5210 -1.3301
 4716SOL     OW25783   0.502   4.003  11.277  0.8364 -0.0471 -0.0361
 4716SOL    HW125784   0.424   4.011  11.222  1.6712 -1.0370 -1.3531
 4716SOL    HW225785   0.576   4.028  11.221  0.4423  2.1983  0.4114
 4717SOL     OW25786   1.700   3.729   8.216  0.3897  0.6462  0.0769
 4717SOL    HW125787   1.669   3.710   8.304  0.5076 -1.1810 -0.2745
 4717SOL    HW225788   1.787   3.689   8.215  0.1224  0.0757 -1.8619
 4718SOL     OW25789   0.922   3.595  17.305  0.2020 -0.2783 -0.1312
 4718SOL    HW125790   0.872   3.657  17.359  2.8813  0.6365  1.3176
 4718SOL    HW225791   1.000   3.575  17.357 -0.3451 -1.0325  0.3988
 4719SOL     OW25792   3.725   0.407  16.230  0.7709 -0.2693  0.1980
 4719SOL    HW125793   3.751   0.441  16.316  1.5378  2.5591 -1.1508
 4719SOL    HW225794   3.682   0.324  16.249  0.1057  0.3706  1.4827
 4720SOL     OW25795   2.286   2.182   1.806 -0.4204  0.5768 -1.1618
 4720SOL    HW125796   2.349   2.189   1.734  1.9411 -0.5340  0.8025
 4720SOL    HW225797   2.290   2.272   1.839 -0.5765 -0.8584  2.8068
 4721SOL     OW25798   2.564   0.092   8.173 -0.2113 -0.6831 -0.5738
 4721SOL    HW125799   2.638   0.142   8.137 -0.4342  2.1486  2.7997
 4721SOL    HW225800   2.525   0.150   8.239  1.5353  0.3234 -0.4140
 4722SOL     OW25801   2.599   0.162  14.118  0.3101  0.3265  0.4555
 4722SOL    HW125802   2.687   0.182  14.149  0.7708 -0.1817 -0.5518
 4722SOL    HW225803   2.560   0.187  14.202  2.4986  1.3200  1.1570
 4723SOL     OW25804   0.700   3.029  13.119  0.0321  0.8488 -0.0795
 4723SOL    HW125805   0.613   2.993  13.103  0.6369 -1.7127  2.3280
 4723SOL    HW225806   0.698   3.115  13.076 -0.5272  1.0796  0.4009
 4724SOL     OW25807   3.409   0.386   2.892  0.1686 -0.1227 -0.5757
 4724SOL    HW125808   3.497   0.364   2.862  1.9663  3.4247  2.0678
 4724SOL    HW225809   3.364   0.307   2.862 -0.6434  0.1178  0.0018
 4725SOL     OW25810   3.671   3.956   5.435  0.1040  0.1615 -0.5098
 4725SOL    HW125811   3.745   3.970   5.493  0.3617  1.9925 -1.2972
 4725SOL    HW225812   3.606   3.995   5.494  2.0384 -2.1941  3.1350
 4726SOL     OW25813   3.146   3.093   0.263 -0.0344  0.6578  0.6973
 4726SOL    HW125814   3.096   3.107   0.344  0.3355 -2.8952  1.5386
 4726SOL    HW225815   3.173   3.001   0.272  0.6124  0.7040 -0.7946
 4727SOL     OW25816   3.531   1.157   3.757 -0.3176 -0.7275 -0.6217
 4727SOL    HW125817   3.466   1.220   3.727  1.2213  0.5348 -1.2653
 4727SOL    HW225818   3.583   1.224   3.801 -1.0886 -0.4453 -0.1415
 4728SOL     OW25819   1.169   3.914  11.841  0.4561 -0.2269 -0.2414
 4728SOL    HW125820   1.157   3.896  11.934 -0.1569  0.7273 -0.1365
 4728SOL    HW225821   1.120   3.996  11.836  1.1456  0.2212  0.4272
 4729SOL     OW25822   0.637   2.444   9.101 -0.3692  0.3479  0.0535
 4729SOL    HW125823   0.662   2.536   9.105 -0.0817  0.3100 -0.8190
 4729SOL    HW225824   0.719   2.400   9.081  0.0178  0.8953  0.4557
 4730SOL     OW25825   4.592   1.384  17.093  0.0660  0.2204  0.1879
 4730SOL    HW125826   4.538   1.333  17.033  1.8332  0.6133 -1.7310
 4730SOL    HW225827   4.537   1.450  17.134 -1.8947 -1.6617  0.5594
 4731SOL     OW25828   1.882   0.125   1.872 -0.2144  0.4654  0.3596
 4731SOL    HW125829   1.944   0.126   1.945 -0.1352  3.7914  0.2272
 4731SOL    HW225830   1.936   0.122   1.793  1.2419  0.4325  1.3506
 4732SOL     OW25831   1.775   2.696  12.543  1.0493 -0.1277 -0.0927
 4732SOL    HW125832   1.794   2.701  12.637  1.1077  0.4117 -0.1309
 4732SOL    HW225833   1.744   2.787  12.539  1.4069  0.0492  1.1193
 4733SOL     OW25834   4.071   0.850   6.586 -0.1624  0.0778 -0.1162
 4733SOL    HW125835   4.017   0.923   6.555  0.8097  0.6270 -0.5322
 4733SOL    HW225836   4.030   0.769   6.556  1.0995 -0.0400 -1.5360
 4734SOL     OW25837   3.218   2.576   6.128  0.0854  0.5281 -0.2335
 4734SOL    HW125838   3.221   2.667   6.097 -1.5490  0.3164 -1.0463
 4734SOL    HW225839   3.151   2.533   6.075  1.0496  1.0883 -1.8802
 4735SOL     OW25840   1.141   0.577  14.712  0.2586 -0.7722 -0.0097
 4735SOL    HW125841   1.127   0.497  14.661 -1.5145 -1.0594  0.9087
 4735SOL    HW225842   1.152   0.635  14.637 -0.4756 -1.1851 -0.4512
 4736SOL     OW25843   0.323   1.542   6.134 -0.5321 -0.6798 -0.1231
 4736SOL    HW125844   0.383   1.514   6.203  0.7423  2.3518 -0.0334
 4736SOL    HW225845   0.378   1.595   6.077 -2.5628  1.6124  0.0299
 4737SOL     OW25846   3.359   3.731   8.696  0.6973 -0.0399 -0.4096
 4737SOL    HW125847   3.349   3.647   8.653  0.4178 -0.1055 -0.2191
 4737SOL    HW225848   3.312   3.782   8.629 -0.4886 -2.7862 -1.6786
 4738SOL     OW25849   3.749   4.610   4.899 -0.0659 -0.2583  0.0600
 4738SOL    HW125850   3.760   4.523   4.937 -2.9835  0.1781  1.9364
 4738SOL    HW225851   3.819   4.659   4.941 -0.2058  0.2096 -0.2524
 4739SOL     OW25852   0.074   4.240   8.002  0.0554  0.1627  0.0499
 4739SOL    HW125853   0.021   4.168   7.968 -0.3028  0.6212 -0.3624
 4739SOL    HW225854   0.009   4.286   8.056  0.3567 -1.0824  1.4603
 4740SOL     OW25855   2.545   1.529   7.371 -0.2528  0.8079 -0.2337
 4740SOL    HW125856   2.562   1.615   7.332 -0.6280  0.1287 -1.9145
 4740SOL    HW225857   2.616   1.539   7.435  0.9744 -2.2306 -1.1529
 4741SOL     OW25858   4.546   1.416  13.734  0.1802 -0.3966  0.5442
 4741SOL    HW125859   4.533   1.510  13.738 -0.7894 -0.4468 -1.3957
 4741SOL    HW225860   4.487   1.396  13.807 -0.9669  1.5840  0.1515
 4742SOL     OW25861   3.988   0.660   6.841 -0.0152 -0.7620  0.5159
 4742SOL    HW125862   3.968   0.730   6.780 -0.9101 -1.7820 -0.3710
 4742SOL    HW225863   3.961   0.705   6.921 -2.8106 -0.3888 -0.6388
 4743SOL     OW25864   1.845   2.564   9.530 -0.3944  0.6280  0.1246
 4743SOL    HW125865   1.820   2.601   9.614 -0.0169  3.6648 -1.0721
 4743SOL    HW225866   1.767   2.596   9.485  0.0069 -1.7674 -2.2784
 4744SOL     OW25867   3.700   2.826   7.944 -0.7178  0.6816  0.4200
 4744SOL    HW125868   3.772   2.763   7.944 -2.2410 -1.1026 -2.9380
 4744SOL    HW225869   3.641   2.789   7.878  0.1792 -0.2316  0.1224
 4745SOL     OW25870   0.873   3.228   3.031 -0.2498  0.3593  0.0575
 4745SOL    HW125871   0.889   3.311   3.076 -2.6949  0.5351  0.6294
 4745SOL    HW225872   0.923   3.163   3.079 -0.0844  1.6621  1.6784
 4746SOL     OW25873   0.335   2.495   2.412  0.1441  0.4393 -0.0385
 4746SOL    HW125874   0.397   2.450   2.354  0.2910  0.4485  0.1115
 4746SOL    HW225875   0.375   2.582   2.425  0.6968 -0.0664  1.5878
 4747SOL     OW25876   3.615   1.049   2.322 -0.6820 -0.6697  0.1683
 4747SOL    HW125877   3.597   1.003   2.404 -0.0927  2.1333  1.8636
 4747SOL    HW225878   3.576   1.136   2.334  0.2456 -0.3589  0.8868
 4748SOL     OW25879   4.187   4.510   3.311  0.0844 -0.1451  0.4534
 4748SOL    HW125880   4.230   4.595   3.315  2.1620 -1.2086  0.9617
 4748SOL    HW225881   4.143   4.529   3.229 -2.3971 -0.9382  1.5932
 4749SOL     OW25882   3.686   2.054   9.403  0.5162  0.1512 -0.0328
 4749SOL    HW125883   3.689   1.989   9.473  1.5044  0.3945  0.1557
 4749SOL    HW225884   3.697   1.987   9.335  1.5105 -0.9464  1.2111
 4750SOL     OW25885   0.848   2.095   3.706 -0.6358  0.5738  0.0079
 4750SOL    HW125886   0.820   2.004   3.702 -1.6780  0.9518 -1.4113
 4750SOL    HW225887   0.854   2.109   3.611  0.3106 -1.8936 -0.3054
 4751SOL     OW25888   3.852   3.209   3.358  0.2476  0.2501 -0.0113
 4751SOL    HW125889   3.891   3.122   3.356  0.6255  0.4114  0.2864
 4751SOL    HW225890   3.807   3.211   3.273  0.5163  0.7020 -0.1434
 4752SOL     OW25891   4.057   2.902   0.339 -0.5412 -0.0479  0.6977
 4752SOL    HW125892   4.113   2.921   0.414  0.1010  0.1660  0.1672
 4752SOL    HW225893   4.122   2.868   0.277 -1.3822  0.1819 -0.3212
 4753SOL     OW25894   0.142   4.084  15.858  0.2975  0.1355 -0.2460
 4753SOL    HW125895   0.061   4.127  15.833  1.7431  2.8695 -0.3103
 4753SOL    HW225896   0.179   4.058  15.774  0.7421 -1.6881  0.5184
 4754SOL     OW25897   1.642   3.783   0.445 -0.2552 -0.2847  0.4232
 4754SOL    HW125898   1.563   3.837   0.453 -0.9479 -1.0669 -1.0390
 4754SOL    HW225899   1.662   3.803   0.354 -1.3427 -2.8455 -0.3881
 4755SOL     OW25900   0.416   2.485   6.645 -0.1928  0.3368  0.2873
 4755SOL    HW125901   0.400   2.392   6.628 -0.7823  0.1048  2.0902
 4755SOL    HW225902   0.472   2.476   6.722  0.7036  1.2325 -0.2540
 4756SOL     OW25903   3.270   0.167   8.682  0.0406 -0.2106  0.2685
 4756SOL    HW125904   3.206   0.176   8.611  1.2733  0.7682 -0.7275
 4756SOL    HW225905   3.252   0.244   8.735 -1.9496 -0.0503 -0.6186
 4757SOL     OW25906   0.743   2.394   4.365 -0.3771 -0.2435 -0.5438
 4757SOL    HW125907   0.771   2.318   4.313  0.6489 -0.2178 -0.0291
 4757SOL    HW225908   0.815   2.455   4.351 -0.0772 -0.4181  0.2442
 4758SOL     OW25909   4.735   3.539  12.512  0.1033 -0.2035  0.5980
 4758SOL    HW125910   0.044   3.623  12.512 -0.4469  0.0872 -0.5693
 4758SOL    HW225911   0.050   3.490  12.447  1.4922  1.0408  0.7520
 4759SOL     OW25912   1.846   0.585   7.180 -0.7023 -0.4697 -0.2114
 4759SOL    HW125913   1.941   0.582   7.174 -0.5869 -0.6987  1.7280
 4759SOL    HW225914   1.821   0.588   7.088  1.7298  0.9063 -0.8114
 4760SOL     OW25915   0.394   1.970   6.155 -0.5076  0.2072 -0.3454
 4760SOL    HW125916   0.458   1.945   6.222  0.0578  2.2416 -0.1334
 4760SOL    HW225917   0.317   1.951   6.209 -0.3416  0.4041 -0.0382
 4761SOL     OW25918   1.805   0.421   6.718 -0.3982  0.1326  0.6519
 4761SOL    HW125919   1.810   0.329   6.743 -0.1144  0.4586  1.7749
 4761SOL    HW225920   1.818   0.433   6.624  0.7555  0.3732  0.8487
 4762SOL     OW25921   1.922   2.250   4.485  0.5712  0.0568  0.3447
 4762SOL    HW125922   1.970   2.295   4.555  0.8473 -1.0080  0.8435
 4762SOL    HW225923   1.849   2.226   4.542 -0.3356 -0.7781 -1.1871
 4763SOL     OW25924   4.029   1.301   7.669  0.3263 -0.0428 -0.2904
 4763SOL    HW125925   3.947   1.297   7.718  1.1723  1.4599  1.2506
 4763SOL    HW225926   4.003   1.294   7.578  2.3144  3.5521 -1.1415
 4764SOL     OW25927   1.347   1.179  12.572 -0.1425  0.2565  0.2710
 4764SOL    HW125928   1.271   1.186  12.514  0.1206 -1.1641 -0.2316
 4764SOL    HW225929   1.368   1.087  12.558 -2.2485 -0.1244 -0.4591
 4765SOL     OW25930   1.043   2.220   9.489  0.1172  0.4044 -0.2485
 4765SOL    HW125931   1.011   2.304   9.523  2.1533  1.6257 -1.3323
 4765SOL    HW225932   1.138   2.232   9.502  0.1501 -1.7513  1.4581
 4766SOL     OW25933   4.458   1.902  11.891  0.2709  0.4177  0.2266
 4766SOL    HW125934   4.522   1.974  11.891  1.9040 -1.0102 -2.0413
 4766SOL    HW225935   4.379   1.955  11.895  0.1291  0.4295 -2.6585
 4767SOL     OW25936   0.463   4.720   0.544 -0.0817  0.0383  0.3916
 4767SOL    HW125937   0.475   0.076   0.573  0.9986 -0.5274  1.7385
 4767SOL    HW225938   0.437   0.012   0.456 -4.0655  0.7481  1.7506
 4768SOL     OW25939   4.139   0.157   8.361 -0.4785 -0.1243 -0.0843
 4768SOL    HW125940   4.123   0.244   8.396 -1.1168  0.0029 -0.7005
 4768SOL    HW225941   4.049   0.129   8.348 -0.4712 -0.4404  0.5551
 4769SOL     OW25942   4.372   1.336   4.063  0.1513 -0.1614 -0.0053
 4769SOL    HW125943   4.302   1.382   4.110  0.5213 -0.2015  0.5839
 4769SOL    HW225944   4.449   1.367   4.110  0.0533  0.0149  0.0380
 4770SOL     OW25945   3.480   2.298   5.280  0.1194 -0.2840 -0.0275
 4770SOL    HW125946   3.476   2.354   5.358  1.5375  0.6014 -0.5780
 4770SOL    HW225947   3.539   2.234   5.320 -0.4948  0.1498  1.5762
 4771SOL     OW25948   3.517   1.170  17.045  0.1438  0.1497  0.0571
 4771SOL    HW125949   3.566   1.190  17.125  1.3706  0.0142 -0.6511
 4771SOL    HW225950   3.510   1.075  17.041 -0.6101  0.2578 -1.1900
 4772SOL     OW25951   3.112   2.499   1.003 -0.1185  0.8580  0.7541
 4772SOL    HW125952   3.156   2.417   1.028 -0.1988  0.0914 -1.7004
 4772SOL    HW225953   3.159   2.510   0.921 -0.4128  2.2999  0.7872
 4773SOL     OW25954   3.587   0.007   7.883 -0.2912  0.0975 -0.3095
 4773SOL    HW125955   3.527   4.698   7.822  0.2427 -0.5248 -0.3867
 4773SOL    HW225956   3.672   4.707   7.857 -0.8050 -0.6376 -0.9910
 4774SOL     OW25957   4.115   4.187   4.451  0.1186 -0.4269 -0.0302
 4774SOL    HW125958   4.144   4.198   4.542 -0.5255 -2.5289  0.4372
 4774SOL    HW225959   4.175   4.117   4.427 -1.7201 -1.9046 -0.3066
 4775SOL     OW25960   4.463   3.581  16.558  0.4369  0.1970  0.2607
 4775SOL    HW125961   4.471   3.548  16.469 -0.4729 -2.9487  1.3602
 4775SOL    HW225962   4.367   3.578  16.565  0.4565 -1.6828 -0.4993
 4776SOL     OW25963   0.108   0.644   4.394  0.4434  0.3071 -0.1544
 4776SOL    HW125964   0.042   0.575   4.402 -1.0348  1.6370 -0.9677
 4776SOL    HW225965   0.168   0.606   4.459 -0.9707 -1.0268  0.3642
 4777SOL     OW25966   2.174   1.798  13.832 -0.7273  0.2160  0.0487
 4777SOL    HW125967   2.240   1.760  13.891 -1.3401 -1.0700 -0.0894
 4777SOL    HW225968   2.231   1.852  13.778  0.1791  0.7679  1.5375
 4778SOL     OW25969   0.662   0.894  14.006 -0.5111 -0.6831  0.1998
 4778SOL    HW125970   0.675   0.934  13.920  0.0693  2.9319  1.9524
 4778SOL    HW225971   0.611   0.968  14.038 -0.8005 -0.0864 -1.6564
 4779SOL     OW25972   1.914   4.419   5.877 -0.4239  0.5792 -0.3573
 4779SOL    HW125973   1.948   4.505   5.901 -0.9593  0.4086  1.0114
 4779SOL    HW225974   1.968   4.357   5.925 -3.1535 -2.5604 -1.3778
 4780SOL     OW25975   3.278   3.789   6.363 -0.3997  0.4793 -0.4767
 4780SOL    HW125976   3.275   3.854   6.293 -1.6117 -1.5091 -2.2830
 4780SOL    HW225977   3.197   3.746   6.334  0.6642 -1.7003 -0.1767
 4781SOL     OW25978   2.116   3.564  12.227  0.0501  0.3010  0.2209
 4781SOL    HW125979   2.191   3.624  12.221  0.6598 -0.4226  0.5752
 4781SOL    HW225980   2.155   3.478  12.211 -1.4605 -0.5975  1.3849
 4782SOL     OW25981   4.720   0.851  15.560 -0.0526 -0.5698  0.2231
 4782SOL    HW125982   0.078   0.830  15.564  0.0600 -0.1382 -0.0519
 4782SOL    HW225983   4.710   0.931  15.613  0.1999 -1.0668  1.0145
 4783SOL     OW25984   4.630   0.544   5.931 -0.2253  0.1689 -0.3304
 4783SOL    HW125985   4.629   0.633   5.897 -2.4033 -0.3445 -1.6075
 4783SOL    HW225986   4.723   0.539   5.954 -0.2748 -1.1327 -0.4242
 4784SOL     OW25987   3.825   2.641   6.251  0.1944  0.2950 -0.1496
 4784SOL    HW125988   3.846   2.642   6.157  2.7197 -2.2511  0.3876
 4784SOL    HW225989   3.751   2.701   6.256  0.6300  0.9042 -1.0529
 4785SOL     OW25990   1.279   1.312   9.493 -0.3751  0.1340 -0.0748
 4785SOL    HW125991   1.330   1.386   9.458 -1.6423  2.0998  2.1862
 4785SOL    HW225992   1.335   1.280   9.564  0.6853  0.9935 -0.5178
 4786SOL     OW25993   3.354   2.503   3.140  0.0964 -0.1781 -0.1745
 4786SOL    HW125994   3.334   2.549   3.058  0.0302  0.2935  0.1053
 4786SOL    HW225995   3.378   2.416   3.109 -0.2492 -0.7274  1.1421
 4787SOL     OW25996   4.421   2.803   7.123  0.3238  0.3082 -0.3669
 4787SOL    HW125997   4.510   2.836   7.115  0.8585 -0.4230  2.3753
 4787SOL    HW225998   4.379   2.830   7.041 -2.4465 -0.3871  0.8263
 4788SOL     OW25999   2.067   3.831   6.809  0.3282 -0.1717  0.0750
 4788SOL    HW126000   2.022   3.907   6.846  1.2659 -0.0548  0.9778
 4788SOL    HW226001   2.002   3.786   6.756 -1.3361 -0.0325  1.9971
 4789SOL     OW26002   1.733   4.079   8.772  0.5834 -0.1336  0.6288
 4789SOL    HW126003   1.741   4.174   8.761 -4.2542 -0.3000 -4.1450
 4789SOL    HW226004   1.733   4.051   8.681 -1.6805 -0.2030  0.6369
 4790SOL     OW26005   2.311   1.408   6.579 -0.1614  0.4230 -0.3001
 4790SOL    HW126006   2.284   1.358   6.656 -0.6187 -0.2246 -0.8777
 4790SOL    HW226007   2.386   1.451   6.620 -1.1252 -0.6771  2.6151
 4791SOL     OW26008   4.418   3.771  14.472 -0.3566  0.5282  0.1558
 4791SOL    HW126009   4.472   3.841  14.510  0.5000  0.0680 -0.1905
 4791SOL    HW226010   4.338   3.818  14.452 -1.2065 -0.7940  0.4460
 4792SOL     OW26011   1.619   4.382   7.909 -0.3965 -0.4910 -0.1875
 4792SOL    HW126012   1.687   4.404   7.846  0.5298 -0.8804  0.6903
 4792SOL    HW226013   1.643   4.291   7.921  0.8786 -0.0873  0.2603
 4793SOL     OW26014   0.865   3.454   8.704  0.3968 -0.1250  0.2605
 4793SOL    HW126015   0.795   3.446   8.769  2.3186 -0.5882  2.2929
 4793SOL    HW226016   0.900   3.366   8.716 -0.8490 -0.5623  0.6566
 4794SOL     OW26017   0.007   1.772   5.544 -0.1864 -0.1946 -0.3382
 4794SOL    HW126018   0.089   1.786   5.498 -0.5910  0.0423 -0.9865
 4794SOL    HW226019   0.024   1.687   5.584 -0.3154  0.4409  1.0537
 4795SOL     OW26020   1.074   2.877   9.104  0.6328 -0.4436  0.2170
 4795SOL    HW126021   1.134   2.930   9.051  0.6607 -0.0698  0.6224
 4795SOL    HW226022   1.010   2.859   9.035  1.4356  0.2126 -0.7177
 4796SOL     OW26023   3.714   1.999   6.270 -0.9521 -0.3650  0.6416
 4796SOL    HW126024   3.633   1.988   6.220  0.2786 -1.4550 -1.1263
 4796SOL    HW226025   3.755   1.919   6.237 -0.5467  0.8281 -1.7763
 4797SOL     OW26026   3.024   2.764   3.092 -0.0362  0.5699  0.1071
 4797SOL    HW126027   3.068   2.847   3.074  1.0483  0.0293  0.2783
 4797SOL    HW226028   3.080   2.734   3.163  0.0911 -0.1466 -0.2941
 4798SOL     OW26029   2.688   2.592   9.754  0.2613  0.0678 -0.3244
 4798SOL    HW126030   2.738   2.620   9.678  2.2543  1.5982  1.5542
 4798SOL    HW226031   2.608   2.632   9.718 -1.4868 -2.4328  0.7569
 4799SOL     OW26032   3.122   2.574  11.775 -0.2654  0.2333  0.2675
 4799SOL    HW126033   3.034   2.560  11.739 -0.0536  0.9221 -0.5302
 4799SOL    HW226034   3.119   2.670  11.769 -0.0731  0.1454 -1.3006
 4800SOL     OW26035   2.001   3.008   5.864  0.3785  0.1566 -0.9094
 4800SOL    HW126036   1.978   2.976   5.951 -0.0332 -2.8427 -2.1159
 4800SOL    HW226037   2.084   3.051   5.883 -0.1652  1.1130 -0.6903
 4801SOL     OW26038   0.739   4.224   6.314  0.0811 -0.6041  0.0191
 4801SOL    HW126039   0.750   4.239   6.408 -0.9329  1.5704 -0.2252
 4801SOL    HW226040   0.807   4.159   6.294  0.4058  0.2252 -1.5441
 4802SOL     OW26041   0.971   0.864   8.652 -0.0394  0.1360 -0.2663
 4802SOL    HW126042   0.944   0.902   8.736  1.0738  0.5258 -0.0908
 4802SOL    HW226043   0.940   0.943   8.607 -2.3997 -0.7121 -0.1211
 4803SOL     OW26044   2.607   0.976   6.753 -0.2805  0.2544  0.0499
 4803SOL    HW126045   2.613   0.884   6.777  1.7164 -0.3246 -2.6707
 4803SOL    HW226046   2.563   0.983   6.669 -0.9848  2.4332  0.5827
 4804SOL     OW26047   3.174   0.485   2.255  0.1937  0.2109  0.3614
 4804SOL    HW126048   3.262   0.492   2.219 -1.0474  1.0081 -2.6142
 4804SOL    HW226049   3.136   0.571   2.276  1.2479  1.1080 -1.3573
 4805SOL     OW26050   0.261   0.550   4.152  0.1571  0.6103  0.2903
 4805SOL    HW126051   0.353   0.560   4.128 -0.2611 -0.5532 -1.8225
 4805SOL    HW226052   0.269   0.569   4.245 -1.1666 -1.3206  0.8151
 4806SOL     OW26053   3.878   1.175  15.676  0.4354 -0.0467 -0.1364
 4806SOL    HW126054   3.900   1.239  15.743  0.7814 -0.7483  0.4228
 4806SOL    HW226055   3.802   1.218  15.637  1.2388  0.3682 -1.2500
 4807SOL     OW26056   3.420   1.815   8.709 -0.1309 -0.2437  0.4270
 4807SOL    HW126057   3.407   1.759   8.785 -1.8539 -0.9034 -0.3713
 4807SOL    HW226058   3.377   1.896   8.738 -0.5357 -0.0422 -0.7570
 4808SOL     OW26059   2.913   3.474  13.148 -0.2616  0.0334  0.0579
 4808SOL    HW126060   2.950   3.506  13.230  0.0123  0.1561 -0.1163
 4808SOL    HW226061   2.850   3.546  13.139 -1.6186 -1.1441 -0.0509
 4809SOL     OW26062   0.627   3.604  14.541  0.1596 -0.3424  0.7624
 4809SOL    HW126063   0.565   3.547  14.495  0.6523 -0.3127  0.0669
 4809SOL    HW226064   0.575   3.678  14.574  0.7011  0.7237 -0.8146
 4810SOL     OW26065   3.173   1.788   3.027  0.6057 -0.1165  0.3206
 4810SOL    HW126066   3.189   1.764   3.118 -2.2692  0.5370  0.9635
 4810SOL    HW226067   3.079   1.790   3.014  0.7673  0.5907 -0.7555
 4811SOL     OW26068   4.445   4.707  14.226  0.1927  0.0284 -0.4768
 4811SOL    HW126069   4.540   4.712  14.230  0.2319  1.1507 -3.4748
 4811SOL    HW226070   4.428   0.017  14.143  2.8756  1.5934 -0.1815
 4812SOL     OW26071   3.078   4.100   9.407 -0.0804  0.2888 -0.3998
 4812SOL    HW126072   3.093   4.192   9.388  0.3485  0.0693 -1.1268
 4812SOL    HW226073   3.004   4.083   9.349 -1.2744  2.5287  0.4891
 4813SOL     OW26074   0.525   4.362   5.941 -0.3702  0.1155 -0.5512
 4813SOL    HW126075   0.608   4.363   5.892 -0.0261  0.5200  0.0328
 4813SOL    HW226076   0.549   4.312   6.018 -0.3981  1.1184  0.1084
 4814SOL     OW26077   1.466   3.404   5.981  0.2470 -0.2759 -0.3598
 4814SOL    HW126078   1.473   3.342   6.053  0.6321  0.6699  0.3996
 4814SOL    HW226079   1.556   3.434   5.969  0.1010  0.3141  0.0548
 4815SOL     OW26080   0.578   1.247  14.054  0.3197  0.2210 -0.2514
 4815SOL    HW126081   0.521   1.171  14.063 -1.0190  0.9436 -2.4874
 4815SOL    HW226082   0.550   1.284  13.970 -0.6763  2.4311  1.0342
 4816SOL     OW26083   0.850   1.028   3.887 -0.0246 -0.0215  0.4453
 4816SOL    HW126084   0.850   0.933   3.899 -1.1271 -0.0381  0.2770
 4816SOL    HW226085   0.761   1.037   3.855  1.0177  1.8824 -1.8782
 4817SOL     OW26086   1.336   3.102   5.849 -0.6042  1.6282 -0.3202
 4817SOL    HW126087   1.330   3.195   5.869 -1.1517  1.3891  0.6092
 4817SOL    HW226088   1.420   3.104   5.802 -2.0317 -0.1407 -2.9238
 4818SOL     OW26089   4.581   4.463   9.017  0.6093  0.4310  0.1446
 4818SOL    HW126090   4.617   4.508   9.094 -1.6412  0.3888  1.2156
 4818SOL    HW226091   4.492   4.493   8.997 -0.9116 -2.5232  2.5314
 4819SOL     OW26092   4.216   2.581   2.341 -0.1147 -0.3181 -0.2569
 4819SOL    HW126093   4.192   2.660   2.390  2.1039 -0.9048  1.7919
 4819SOL    HW226094   4.171   2.595   2.258 -1.7233  2.1260  1.0016
 4820SOL     OW26095   3.042   0.103   4.255  0.4386  0.4375 -0.4157
 4820SOL    HW126096   3.059   0.081   4.347 -1.4350 -1.7891 -0.6081
 4820SOL    HW226097   3.081   0.191   4.255  0.0630  0.6030 -0.0176
 4821SOL     OW26098   2.643   4.489  10.098 -0.2863 -0.2269 -0.1658
 4821SOL    HW126099   2.590   4.566  10.081 -0.3092 -0.1853  0.0894
 4821SOL    HW226100   2.712   4.525  10.153 -0.1926 -2.3097  1.1271
 4822SOL     OW26101   2.383   3.288   7.628 -0.0324 -0.3384  0.3140
 4822SOL    HW126102   2.468   3.330   7.645  0.5009 -0.7050 -1.4859
 4822SOL    HW226103   2.340   3.368   7.598 -0.7398 -1.2690 -1.1324
 4823SOL     OW26104   2.646   3.965   5.747 -0.0278  0.5170 -0.2459
 4823SOL    HW126105   2.687   3.880   5.732  0.2161  0.9474 -2.0295
 4823SOL    HW226106   2.658   3.998   5.658 -0.6064 -0.1922 -0.5831
 4824SOL     OW26107   2.752   4.207  17.307  0.3832  0.4052 -0.4468
 4824SOL    HW126108   2.793   4.288  17.339 -0.9870  1.1549 -0.5828
 4824SOL    HW226109   2.658   4.220  17.311  0.5236  1.2971 -0.0056
 4825SOL     OW26110   0.282   0.042   4.980 -0.5777 -0.6388  0.0749
 4825SOL    HW126111   0.369   0.046   4.939 -0.1174  1.3608  1.2568
 4825SOL    HW226112   0.213   0.062   4.917 -1.4364 -2.0892  0.5583
 4826SOL     OW26113   4.133   0.433   5.319 -0.1207  0.4298  0.3345
 4826SOL    HW126114   4.046   0.464   5.343  0.3698  1.2573  1.0512
 4826SOL    HW226115   4.167   0.516   5.284  2.5751 -0.5028  0.7481
 4827SOL     OW26116   2.179   0.237   8.153  0.2024 -0.3498 -0.4117
 4827SOL    HW126117   2.243   0.307   8.143 -0.2246  0.3178  1.6000
 4827SOL    HW226118   2.144   0.252   8.241  2.9858 -1.4982  0.8587
 4828SOL     OW26119   3.427   2.418   5.041  0.0274  0.2486  0.5910
 4828SOL    HW126120   3.427   2.362   5.118 -0.7919 -0.8206 -0.1870
 4828SOL    HW226121   3.516   2.453   5.038  0.4506 -0.7212  2.0942
 4829SOL     OW26122   2.103   3.919  12.902 -0.4558  0.1998  0.7364
 4829SOL    HW126123   2.088   3.991  12.840  0.3526 -0.9630 -0.8002
 4829SOL    HW226124   2.031   3.924  12.964 -0.4129 -1.3385  0.9042
 4830SOL     OW26125   0.771   0.992   6.978 -0.1281 -0.0123 -0.2222
 4830SOL    HW126126   0.821   1.059   7.026  0.8163 -0.8017 -0.1149
 4830SOL    HW226127   0.819   0.911   6.992 -1.7097 -1.3649 -2.6636
 4831SOL     OW26128   3.470   3.922   9.061 -0.4520 -0.3477  0.0324
 4831SOL    HW126129   3.515   3.979   8.999  0.0621 -0.7001  0.0814
 4831SOL    HW226130   3.466   3.989   9.129 -0.3009 -0.6216  0.3114
 4832SOL     OW26131   2.543   1.058   6.071 -0.4053 -0.4280  0.2132
 4832SOL    HW126132   2.508   0.976   6.106 -0.5121 -0.8395 -0.8793
 4832SOL    HW226133   2.460   1.092   6.038 -1.5306 -1.6344  1.7597
 4833SOL     OW26134   0.625   3.256   6.401 -0.1875 -0.3282  0.3630
 4833SOL    HW126135   0.672   3.231   6.322  0.1739  0.9117  0.1840
 4833SOL    HW226136   0.604   3.349   6.390 -0.9414 -0.4472  0.7658
 4834SOL     OW26137   1.560   1.453  12.877  0.5164 -0.0922 -0.1541
 4834SOL    HW126138   1.498   1.383  12.895 -0.6295  0.8663 -0.3276
 4834SOL    HW226139   1.564   1.441  12.782  3.1210  0.7671 -0.1445
 4835SOL     OW26140   4.085   2.809   2.442 -0.0106 -0.1135 -0.2244
 4835SOL    HW126141   4.042   2.809   2.357  1.1564 -1.9859 -0.8203
 4835SOL    HW226142   4.160   2.865   2.423  0.5781 -0.5523  0.7646
 4836SOL     OW26143   4.679   2.520   5.772  0.2680  0.4838  0.1860
 4836SOL    HW126144   4.703   2.594   5.715 -2.5950  0.9100 -0.4689
 4836SOL    HW226145   4.681   2.453   5.703  0.9762  1.3579 -0.6548
 4837SOL     OW26146   1.872   4.460   5.279  0.3417  0.2127  0.5887
 4837SOL    HW126147   1.930   4.400   5.233 -2.0459 -1.4203 -0.2709
 4837SOL    HW226148   1.790   4.433   5.237  0.8899  1.0864 -1.0401
 4838SOL     OW26149   1.127   1.274   9.241 -0.5587 -0.3623  0.6040
 4838SOL    HW126150   1.051   1.216   9.234 -0.9293  0.2199 -0.1089
 4838SOL    HW226151   1.172   1.247   9.322 -1.5451  1.4396  1.7528
 4839SOL     OW26152   3.407   4.351   3.409  0.2129  0.0445 -0.3519
 4839SOL    HW126153   3.451   4.324   3.329  1.1140  0.5258 -0.0170
 4839SOL    HW226154   3.474   4.404   3.453 -1.3767  1.8235 -0.0486
 4840SOL     OW26155   0.111   3.643  16.794  0.0936  0.0594  0.0023
 4840SOL    HW126156   0.120   3.731  16.831 -0.4345 -0.5742  1.6549
 4840SOL    HW226157   0.134   3.664  16.703  1.8675 -0.0828  0.4228
 4841SOL     OW26158   4.010   1.782  14.077  0.5808 -0.7719  0.3812
 4841SOL    HW126159   3.984   1.830  13.999 -0.2535 -0.1276  1.0643
 4841SOL    HW226160   3.924   1.774  14.118  0.1299  2.4452  0.0627
 4842SOL     OW26161   4.058   4.376   8.060 -0.0154 -0.2104 -0.1574
 4842SOL    HW126162   4.119   4.330   8.118 -1.1232 -0.0356  1.1539
 4842SOL    HW226163   3.997   4.417   8.122 -2.2455 -1.1787 -1.7108
 4843SOL     OW26164   1.828   0.597   6.903  0.1636  0.0286  0.1307
 4843SOL    HW126165   1.807   0.530   6.838  1.7711 -1.9718  1.6515
 4843SOL    HW226166   1.916   0.619   6.873  0.4670  0.4847  1.3688
 4844SOL     OW26167   0.909   3.714   7.913  0.0114  0.2250 -0.1301
 4844SOL    HW126168   0.933   3.786   7.971 -1.8927  0.9026 -0.1668
 4844SOL    HW226169   0.988   3.675   7.875 -0.4849 -1.8743  0.9967
 4845SOL     OW26170   2.460   3.982   9.628 -0.2489 -0.0792  0.4234
 4845SOL    HW126171   2.532   4.034   9.593  0.7779  0.1163  2.8222
 4845SOL    HW226172   2.463   3.968   9.723  1.6591  1.7192  0.6117
 4846SOL     OW26173   1.671   0.296  13.453  0.8140 -0.0791 -0.0310
 4846SOL    HW126174   1.591   0.325  13.408  0.5238 -0.1022  0.4655
 4846SOL    HW226175   1.737   0.353  13.414  0.8795 -0.8856 -1.0990
 4847SOL     OW26176   3.206   2.088   0.810 -0.4695  0.1020  0.1794
 4847SOL    HW126177   3.162   2.075   0.894  1.0941  2.0822  1.3243
 4847SOL    HW226178   3.188   1.999   0.782  0.1803 -0.3310  1.1389
 4848SOL     OW26179   1.532   2.544   8.813  0.4237  0.6257  0.4796
 4848SOL    HW126180   1.627   2.546   8.823  0.6020 -0.3478 -1.1537
 4848SOL    HW226181   1.527   2.604   8.739  1.0757  0.4846  0.3240
 4849SOL     OW26182   3.176   1.638  16.643 -0.2263 -0.1079  0.4041
 4849SOL    HW126183   3.204   1.547  16.633  0.2378  0.0121  0.6204
 4849SOL    HW226184   3.225   1.671  16.567 -0.6209 -1.1414 -0.3089
 4850SOL     OW26185   2.241   3.365   2.109 -0.0432 -0.0043 -0.3094
 4850SOL    HW126186   2.238   3.272   2.130 -1.1638 -0.0259 -0.5733
 4850SOL    HW226187   2.305   3.350   2.041  0.5563 -0.4960  0.3635
 4851SOL     OW26188   2.027   4.623  12.340  0.1363 -0.4133 -0.0420
 4851SOL    HW126189   1.992   4.586  12.259 -1.3295  1.3665 -0.2133
 4851SOL    HW226190   2.061   4.547  12.387 -1.0382 -0.6075  0.4824
 4852SOL     OW26191   4.412   3.878   2.528  0.3565 -0.5277 -0.6170
 4852SOL    HW126192   4.336   3.918   2.485 -0.5806  0.1975  1.7437
 4852SOL    HW226193   4.434   3.811   2.463  2.2270  0.0240 -0.5570
 4853SOL     OW26194   4.067   0.353   7.802  0.5862  0.7017  0.0495
 4853SOL    HW126195   4.014   0.295   7.747  0.7867 -0.9234  1.5509
 4853SOL    HW226196   4.155   0.341   7.766  1.6503  1.0054  2.5675
 4854SOL     OW26197   2.548   3.690   9.786  0.0245 -0.7632 -0.8529
 4854SOL    HW126198   2.643   3.683   9.798  0.0961 -0.3044 -1.1815
 4854SOL    HW226199   2.528   3.605   9.827 -1.1473 -0.0033  0.1661
 4855SOL     OW26200   3.133   2.478   7.729 -0.4605  0.3541  0.2058
 4855SOL    HW126201   3.110   2.431   7.810 -1.3804  1.5893  0.6630
 4855SOL    HW226202   3.199   2.537   7.767  0.3000  1.1682 -2.4367
 4856SOL     OW26203   2.379   3.878  10.733  0.1885 -0.1684  0.4089
 4856SOL    HW126204   2.366   3.972  10.721 -0.7477 -0.3722 -0.2077
 4856SOL    HW226205   2.332   3.860  10.814 -0.2189 -1.5047 -0.1328
 4857SOL     OW26206   1.244   4.094   8.292 -0.2158  0.5446 -0.6197
 4857SOL    HW126207   1.232   4.110   8.386 -0.3680  0.9257 -0.7072
 4857SOL    HW226208   1.156   4.058   8.278  1.0305 -1.7951 -2.5991
 4858SOL     OW26209   2.731   1.421   9.249 -0.2036 -0.0061  0.6817
 4858SOL    HW126210   2.798   1.464   9.303  1.8127 -3.1905  0.7602
 4858SOL    HW226211   2.746   1.336   9.291 -1.4363 -1.2256 -1.3602
 4859SOL     OW26212   4.177   4.256   5.884  0.0839  0.5167  0.0162
 4859SOL    HW126213   4.183   4.227   5.975 -1.0554  0.8866  0.2055
 4859SOL    HW226214   4.092   4.299   5.890 -0.3244 -0.2033 -0.5322
 4860SOL     OW26215   3.560   1.723  11.469  0.1977 -0.2674 -0.2241
 4860SOL    HW126216   3.553   1.743  11.563  0.9133  0.6278 -0.3592
 4860SOL    HW226217   3.655   1.722  11.454  0.4394 -1.7026  1.4025
 4861SOL     OW26218   4.234   0.594   9.218 -0.2333  0.4666 -0.3986
 4861SOL    HW126219   4.142   0.618   9.220  0.5420  3.0780  2.1029
 4861SOL    HW226220   4.239   0.553   9.304  2.4011  2.2063  0.2509
 4862SOL     OW26221   1.661   3.036   9.191  0.2079  0.5402 -0.1674
 4862SOL    HW126222   1.705   2.954   9.216 -2.0109 -0.0400  1.8825
 4862SOL    HW226223   1.586   3.030   9.250  0.8930 -4.2673  0.2323
 4863SOL     OW26224   0.047   1.866  12.601 -0.2041  0.0845  0.6206
 4863SOL    HW126225   0.116   1.800  12.602  0.0230  0.3109 -0.6194
 4863SOL    HW226226   0.001   1.851  12.519 -0.1268 -0.0289  0.5983
 4864SOL     OW26227   3.143   2.301   6.011  0.1952  0.2349  0.1676
 4864SOL    HW126228   3.157   2.276   5.919  1.5157 -0.6958  0.6334
 4864SOL    HW226229   3.048   2.305   6.001  0.1537 -3.1818 -0.6308
 4865SOL     OW26230   4.647   1.044   7.311  0.2181 -0.2956 -0.0471
 4865SOL    HW126231   4.600   1.057   7.393 -0.3597 -0.4250 -0.3526
 4865SOL    HW226232   4.726   1.096   7.324  0.9840 -0.9096 -2.2161
 4866SOL     OW26233   1.623   0.535   3.955  0.2135  0.0431  0.3470
 4866SOL    HW126234   1.693   0.511   4.015  0.7106 -1.1078 -0.6737
 4866SOL    HW226235   1.575   0.601   4.004 -0.8030  0.3150 -1.0080
 4867SOL     OW26236   4.192   2.839  15.182  0.0541 -0.0737  0.0516
 4867SOL    HW126237   4.138   2.861  15.107 -1.2151 -0.8061  0.7448
 4867SOL    HW226238   4.239   2.920  15.198  0.7064 -0.3982 -0.2440
 4868SOL     OW26239   2.799   1.252   6.481  0.3758 -0.2244 -0.2325
 4868SOL    HW126240   2.727   1.206   6.437 -1.4625  2.0512  0.3949
 4868SOL    HW226241   2.876   1.201   6.456  1.8736  2.2943 -0.8157
 4869SOL     OW26242   2.529   4.430   0.071 -0.1723  0.3646  0.2599
 4869SOL    HW126243   2.527   4.335   0.081 -1.0816  0.4568  0.9206
 4869SOL    HW226244   2.436   4.449   0.064  0.2364  2.4329  0.3041
 4870SOL     OW26245   2.550   4.663   5.649 -0.1737 -0.4403  0.1784
 4870SOL    HW126246   2.611   4.594   5.624 -0.4514 -0.5694 -0.1487
 4870SOL    HW226247   2.537   4.708   5.566 -0.0557 -3.8199 -1.6857
 4871SOL     OW26248   2.719   4.195  11.071 -0.0308  0.7871 -0.1398
 4871SOL    HW126249   2.805   4.171  11.105 -0.0084  1.7967  0.5311
 4871SOL    HW226250   2.715   4.291  11.069  1.7701  0.8399 -0.5856
 4872SOL     OW26251   1.474   0.692   8.252 -0.0219  0.9190  0.2072
 4872SOL    HW126252   1.386   0.698   8.215  0.2514 -3.2248 -1.1560
 4872SOL    HW226253   1.461   0.618   8.311  0.3556 -0.4608 -1.4229
 4873SOL     OW26254   0.770   3.281   7.757  0.2906  0.1827  0.2472
 4873SOL    HW126255   0.772   3.249   7.848  1.5601  0.7147  0.4113
 4873SOL    HW226256   0.837   3.224   7.718 -1.1287 -0.5275 -1.0993
 4874SOL     OW26257   3.142   3.339   7.926 -0.1655  0.3159 -0.0251
 4874SOL    HW126258   3.146   3.400   7.852  0.3156 -0.4813 -0.6569
 4874SOL    HW226259   3.224   3.293   7.907  0.2524  1.0125  0.1048
 4875SOL     OW26260   2.947   3.087   3.146  0.3157 -0.2105  0.4921
 4875SOL    HW126261   2.984   3.143   3.077 -0.1106 -0.8694 -0.2809
 4875SOL    HW226262   2.852   3.099   3.141  0.3221 -1.0091 -1.4872
 4876SOL     OW26263   2.221   1.890   1.448 -0.3269 -0.2191 -0.3458
 4876SOL    HW126264   2.207   1.890   1.353  2.3008  2.7663 -0.7357
 4876SOL    HW226265   2.144   1.938   1.480  0.2582  0.2786  0.3002
 4877SOL     OW26266   3.291   2.127   7.561 -0.2363  0.2683 -0.3932
 4877SOL    HW126267   3.220   2.188   7.542 -1.2119 -0.1404  1.9341
 4877SOL    HW226268   3.284   2.110   7.655  0.1640 -0.5177 -0.5047
 4878SOL     OW26269   1.904   3.992   8.984 -0.6937  0.4444 -0.3366
 4878SOL    HW126270   1.859   3.996   9.069  1.4827 -0.4510  0.8603
 4878SOL    HW226271   1.837   4.028   8.926  0.9497  0.9971 -1.8824
 4879SOL     OW26272   1.594   0.402   4.427  0.0310  0.6884  0.0688
 4879SOL    HW126273   1.665   0.466   4.433  0.7015 -0.0270 -0.3529
 4879SOL    HW226274   1.640   0.326   4.393 -0.1566 -0.1859  1.7872
 4880SOL     OW26275   4.208   3.989   1.274 -0.2182  0.4684 -0.0873
 4880SOL    HW126276   4.244   3.906   1.305  0.5689  0.9533  0.2931
 4880SOL    HW226277   4.259   3.983   1.193  2.5833 -0.4017  1.7267
 4881SOL     OW26278   3.221   1.053   1.831  0.0070 -0.1410  0.1952
 4881SOL    HW126279   3.236   1.108   1.754 -2.0889 -0.1971 -0.2426
 4881SOL    HW226280   3.307   1.042   1.871  0.5839 -1.0805 -1.2827
 4882SOL     OW26281   2.250   4.423   7.007 -0.2654 -0.3368  0.3403
 4882SOL    HW126282   2.286   4.414   7.095  0.5622  0.0035  0.0367
 4882SOL    HW226283   2.282   4.508   6.977  2.0163 -1.3782 -0.1553
 4883SOL     OW26284   1.690   1.916   7.883 -0.1139  0.2066 -0.1506
 4883SOL    HW126285   1.701   1.982   7.815  1.9206  0.4186  0.3964
 4883SOL    HW226286   1.658   1.972   7.954 -0.8895  1.3122 -1.3774
 4884SOL     OW26287   3.800   3.880   9.472  0.1651  0.0390  0.3191
 4884SOL    HW126288   3.725   3.938   9.459 -0.6220 -1.4379 -1.6096
 4884SOL    HW226289   3.771   3.828   9.547  0.3496  1.1784  1.1869
 4885SOL     OW26290   4.538   2.660   2.878 -0.4635  0.1967  0.0132
 4885SOL    HW126291   4.583   2.719   2.940 -1.0014 -1.1813  1.7351
 4885SOL    HW226292   4.485   2.601   2.932 -2.7118  2.2559  0.0660
 4886SOL     OW26293   2.359   1.124  10.781  0.0660  0.0951 -0.2056
 4886SOL    HW126294   2.265   1.110  10.766 -0.4607  0.8463  2.2214
 4886SOL    HW226295   2.376   1.187  10.712  0.7025 -0.8196 -0.8782
 4887SOL     OW26296   1.781   0.526  12.420 -0.3234 -0.1224 -0.2111
 4887SOL    HW126297   1.869   0.541  12.453 -0.5534 -0.5003  0.5799
 4887SOL    HW226298   1.793   0.457  12.355  2.9313  0.0521  0.2350
 4888SOL     OW26299   2.371   2.232  15.828 -0.5640 -0.4124 -0.2991
 4888SOL    HW126300   2.328   2.232  15.742 -1.8564 -0.0091  0.3517
 4888SOL    HW226301   2.458   2.197  15.811  0.2977  1.8380 -0.4388
 4889SOL     OW26302   3.697   0.522  16.483 -0.1995  0.1199  0.4736
 4889SOL    HW126303   3.603   0.523  16.465  0.5220  0.4879 -3.3321
 4889SOL    HW226304   3.716   0.612  16.456 -0.1657 -0.7404 -2.4122
 4890SOL     OW26305   2.547   4.417   2.058 -0.5766 -0.3515  0.6095
 4890SOL    HW126306   2.566   4.504   2.024  1.0561 -1.7221 -1.9628
 4890SOL    HW226307   2.618   4.373   2.013  0.0987 -0.7178  2.0487
 4891SOL     OW26308   3.684   4.380   8.483 -1.0034 -0.2412  0.2730
 4891SOL    HW126309   3.609   4.404   8.537 -1.3704 -1.3169  0.2392
 4891SOL    HW226310   3.654   4.367   8.393 -0.0758 -1.2265  0.1098
 4892SOL     OW26311   3.592   0.462   1.408 -0.0630  0.5730  0.7072
 4892SOL    HW126312   3.520   0.444   1.348 -0.1789  1.0332  0.7135
 4892SOL    HW226313   3.660   0.397   1.389 -2.8677 -1.8163 -1.0909
 4893SOL     OW26314   0.695   3.050   2.744  0.0334 -0.0896  0.1076
 4893SOL    HW126315   0.728   3.041   2.834  1.2955 -1.6504 -0.5047
 4893SOL    HW226316   0.774   3.023   2.697 -0.1387 -2.2486  1.0395
 4894SOL     OW26317   0.976   3.338   8.007  0.6713 -0.1042 -0.2802
 4894SOL    HW126318   1.049   3.387   7.969  0.2119 -0.4089 -1.5615
 4894SOL    HW226319   0.959   3.279   7.933  1.1726  1.4334 -1.6147
 4895SOL     OW26320   2.337   0.755   6.780  0.0089 -0.0240 -0.1803
 4895SOL    HW126321   2.410   0.757   6.842  0.9536  0.9556 -1.3357
 4895SOL    HW226322   2.380   0.692   6.723  0.3501 -0.2230  0.2945
 4896SOL     OW26323   1.846   1.080   7.706  0.5592  0.3926  0.0598
 4896SOL    HW126324   1.914   1.015   7.688  1.3362  1.0054  0.8275
 4896SOL    HW226325   1.775   1.052   7.648  2.0101  0.7165 -1.8548
 4897SOL     OW26326   1.958   3.409   2.680 -0.5181  0.2223 -0.0154
 4897SOL    HW126327   1.966   3.417   2.585  0.6988  1.4955  0.1958
 4897SOL    HW226328   2.046   3.377   2.699 -0.4833  0.6351  0.5153
 4898SOL     OW26329   2.342   3.830  10.387  0.3294  0.7252  0.2975
 4898SOL    HW126330   2.309   3.919  10.394 -1.9363 -0.1498  0.8919
 4898SOL    HW226331   2.275   3.784  10.335  2.6731 -3.6264  1.1232
 4899SOL     OW26332   4.051   1.048   1.394  0.1639 -0.0563 -0.8514
 4899SOL    HW126333   3.991   1.105   1.348  0.1362 -0.9881 -1.9686
 4899SOL    HW226334   4.136   1.086   1.373  0.1354  1.7170  2.1922
 4900SOL     OW26335   4.253   4.465   4.567  0.4733 -0.4333  0.7640
 4900SOL    HW126336   4.317   4.478   4.638  0.8007  3.1811 -0.2079
 4900SOL    HW226337   4.171   4.440   4.610 -0.3108  0.3209 -0.3139
 4901SOL     OW26338   1.268   0.786   2.471 -0.3089  0.5485 -0.3506
 4901SOL    HW126339   1.350   0.738   2.460 -0.5628 -0.4465  2.0524
 4901SOL    HW226340   1.296   0.846   2.540  0.3089  1.3857 -1.3362
 4902SOL     OW26341   0.243   2.254   8.557 -0.0248  0.3533 -0.2540
 4902SOL    HW126342   0.176   2.235   8.491  1.8221 -0.8537 -1.7590
 4902SOL    HW226343   0.213   2.335   8.598 -0.2856 -0.0915  0.4439
 4903SOL     OW26344   3.833   2.518   3.174  0.5799 -0.0237  0.0080
 4903SOL    HW126345   3.770   2.486   3.109 -0.2612  4.1785 -1.2197
 4903SOL    HW226346   3.907   2.471   3.135  0.2856 -0.1708 -0.3707
 4904SOL     OW26347   2.027   4.164   8.124 -0.2080  0.4159  0.0604
 4904SOL    HW126348   2.117   4.151   8.094  0.2461  1.8386  0.8044
 4904SOL    HW226349   1.996   4.079   8.155  2.1917  0.3770  2.4420
 4905SOL     OW26350   2.008   2.348   9.724  0.5453 -0.2994  0.1272
 4905SOL    HW126351   1.972   2.312   9.805 -2.2245  0.1991 -0.8881
 4905SOL    HW226352   1.962   2.431   9.716  0.8150 -0.0643  1.0467
 4906SOL     OW26353   4.091   4.329   1.805  0.0529 -0.3481 -0.2726
 4906SOL    HW126354   4.160   4.277   1.845 -0.2484  1.0532  2.0528
 4906SOL    HW226355   4.110   4.416   1.840  0.6466 -0.1988 -0.9605
 4907SOL     OW26356   3.708   1.318   4.806  0.2666  0.2029 -0.2512
 4907SOL    HW126357   3.754   1.268   4.738  0.9292  0.9037 -0.3143
 4907SOL    HW226358   3.616   1.301   4.787  0.0948  1.6407 -0.7121
 4908SOL     OW26359   2.478   0.480   9.214 -0.4824  1.0513  0.1478
 4908SOL    HW126360   2.549   0.417   9.199  1.4717  2.5539  3.0826
 4908SOL    HW226361   2.457   0.477   9.308 -2.0411 -2.4709 -0.3083
 4909SOL     OW26362   2.275   3.927  10.104  0.4124 -0.1024  0.3670
 4909SOL    HW126363   2.214   3.989  10.143 -0.7632 -1.0610  0.0692
 4909SOL    HW226364   2.237   3.845  10.137 -0.5642  0.7057  1.2231
 4910SOL     OW26365   2.116   1.689   0.367  0.2521  0.5293 -0.1252
 4910SOL    HW126366   2.092   1.765   0.421 -0.9372 -0.1624  0.3303
 4910SOL    HW226367   2.173   1.642   0.428  0.1221  0.5643  0.0239
 4911SOL     OW26368   3.929   0.647   8.618  0.3684 -0.3685 -0.2254
 4911SOL    HW126369   3.876   0.660   8.697  2.2262  2.9869  0.4677
 4911SOL    HW226370   4.011   0.682   8.652 -1.2043  2.6309  0.5057
 4912SOL     OW26371   2.491   2.824   7.464 -0.7976  0.3318 -0.3202
 4912SOL    HW126372   2.436   2.858   7.393  1.9932 -0.5668 -2.8973
 4912SOL    HW226373   2.530   2.743   7.430  0.0003 -0.6628  2.9065
 4913SOL     OW26374   2.833   3.300   7.298  0.1215  0.4339 -0.0705
 4913SOL    HW126375   2.831   3.205   7.287 -0.5147  0.5272 -0.8091
 4913SOL    HW226376   2.742   3.309   7.326 -0.2281 -2.4423 -0.2427
 4914SOL     OW26377   3.446   2.206   9.480 -0.3093 -0.0221  0.0102
 4914SOL    HW126378   3.424   2.223   9.571 -1.4958 -1.1276 -0.0787
 4914SOL    HW226379   3.529   2.158   9.479 -0.3998 -0.1621 -0.6003
 4915SOL     OW26380   2.567   1.269   1.216 -1.0224 -0.0884 -0.0538
 4915SOL    HW126381   2.504   1.202   1.191 -0.7261 -0.0380 -0.9287
 4915SOL    HW226382   2.529   1.341   1.164 -1.4984 -0.7496 -0.6170
 4916SOL     OW26383   0.385   3.003   7.808  0.1015 -0.0490  0.1112
 4916SOL    HW126384   0.306   2.968   7.768  0.1660  0.8319 -0.7979
 4916SOL    HW226385   0.432   2.922   7.830  0.7171  0.5346  0.9123
 4917SOL     OW26386   3.626   3.823   2.073 -0.0433 -0.2710  0.6973
 4917SOL    HW126387   3.611   3.916   2.086  1.5321  0.1838 -0.7553
 4917SOL    HW226388   3.706   3.826   2.125  0.0544 -1.3611  0.6137
 4918SOL     OW26389   1.199   2.490   7.201  0.2660 -0.2736 -0.1458
 4918SOL    HW126390   1.162   2.508   7.287 -0.4095 -4.1519  0.3650
 4918SOL    HW226391   1.179   2.398   7.183  3.1035 -0.9451  0.0132
 4919SOL     OW26392   0.083   0.921   6.249  0.3669  0.2941  0.4852
 4919SOL    HW126393   0.128   0.985   6.194  1.5144 -0.4233  0.5697
 4919SOL    HW226394   0.009   0.972   6.282 -0.0610 -0.2605  0.3676
 4920SOL     OW26395   0.207   1.007   0.974 -0.3361 -0.0328 -0.0145
 4920SOL    HW126396   0.177   1.048   1.055  0.9784 -2.3146  1.6358
 4920SOL    HW226397   0.302   1.013   0.984 -0.3529  3.0103 -1.7224
 4921SOL     OW26398   0.429   1.064   1.625 -0.4072 -0.3992 -0.2211
 4921SOL    HW126399   0.435   1.121   1.548  1.2487 -1.2231 -0.7148
 4921SOL    HW226400   0.498   1.001   1.601 -1.1233 -1.0633 -0.5446
 4922SOL     OW26401   3.769   0.641  13.782 -0.2080 -0.4709  0.6500
 4922SOL    HW126402   3.831   0.568  13.785  2.7577  2.1186  2.1029
 4922SOL    HW226403   3.744   0.636  13.874 -1.1432  1.1006  0.4926
 4923SOL     OW26404   1.628   3.800   3.669  0.0260 -0.0204  0.3419
 4923SOL    HW126405   1.658   3.885   3.637 -2.2069  0.1725 -1.2097
 4923SOL    HW226406   1.579   3.765   3.595  0.2108  0.3081  0.0653
 4924SOL     OW26407   4.691   2.384   3.730  0.2857  0.4152 -0.9584
 4924SOL    HW126408   4.730   2.303   3.697  0.9339  0.2304  0.2693
 4924SOL    HW226409   0.011   2.379   3.808 -2.8048 -1.3079  1.1552
 4925SOL     OW26410   3.025   1.387  16.054 -0.1702  0.4348 -0.4281
 4925SOL    HW126411   3.066   1.450  16.114  0.8122  0.2872 -0.9311
 4925SOL    HW226412   3.049   1.433  15.973 -0.2271  1.0551 -0.0871
 4926SOL     OW26413   0.563   3.735   3.262 -0.2150 -0.5625 -0.2983
 4926SOL    HW126414   0.516   3.818   3.272  0.2079 -0.3451 -0.0912
 4926SOL    HW226415   0.490   3.675   3.249 -0.8645 -0.0544  0.9905
 4927SOL     OW26416   0.599   3.108   8.837 -0.1824 -0.0617  0.5802
 4927SOL    HW126417   0.562   3.069   8.917 -1.7713 -0.6499 -0.4502
 4927SOL    HW226418   0.619   3.025   8.795  0.1152  1.0794 -1.5018
 4928SOL     OW26419   1.990   1.667   8.945 -0.1524  0.6109 -0.1007
 4928SOL    HW126420   1.960   1.650   9.034  0.4299  2.5155  0.4577
 4928SOL    HW226421   1.938   1.743   8.920  2.5302  2.7096  0.7848
 4929SOL     OW26422   2.172   3.036   8.746  0.2567  0.2504  0.0261
 4929SOL    HW126423   2.227   3.114   8.738 -1.1378  1.1796 -0.6074
 4929SOL    HW226424   2.157   3.044   8.841 -0.2625 -0.2343 -0.0159
 4930SOL     OW26425   2.433   4.532   6.650 -0.0143  0.5791 -0.0374
 4930SOL    HW126426   2.486   4.581   6.713  3.5566 -1.5013 -1.3877
 4930SOL    HW226427   2.509   4.496   6.603 -0.9692  1.8726 -2.5443
 4931SOL     OW26428   2.680   1.842   6.390  0.2418  0.8702  0.2961
 4931SOL    HW126429   2.751   1.786   6.422 -0.1719 -0.2024 -0.6610
 4931SOL    HW226430   2.734   1.903   6.339  1.0743  0.2489  0.4346
 4932SOL     OW26431   1.314   2.716   3.701 -0.0973  0.1067  0.0416
 4932SOL    HW126432   1.290   2.641   3.756 -2.0103  0.3687 -0.4556
 4932SOL    HW226433   1.354   2.679   3.623 -0.2560 -0.3423  0.1736
 4933SOL     OW26434   2.176   0.740  11.436 -0.5921 -0.0326  0.0025
 4933SOL    HW126435   2.116   0.812  11.457  2.3259  2.7499 -1.1140
 4933SOL    HW226436   2.210   0.734  11.525  1.4215  0.8496 -0.7186
 4934SOL     OW26437   2.682   4.120   5.977 -0.2614  0.4759 -0.1335
 4934SOL    HW126438   2.670   4.083   5.890  1.3853  0.4662 -0.3549
 4934SOL    HW226439   2.643   4.061   6.042 -1.8010 -1.1646 -2.5587
 4935SOL     OW26440   0.781   2.109   8.868 -0.2791  0.3486  0.4774
 4935SOL    HW126441   0.762   2.084   8.959  1.6481 -0.6915  0.6123
 4935SOL    HW226442   0.700   2.077   8.829  0.8153 -1.6150 -0.1995
 4936SOL     OW26443   1.859   4.102   9.976 -0.2424  0.0055  0.3773
 4936SOL    HW126444   1.771   4.135   9.996  0.3144  1.0302  1.1030
 4936SOL    HW226445   1.894   4.190   9.962 -3.3770  1.0205 -1.0419
 4937SOL     OW26446   3.870   0.037   1.715 -0.0578  0.5888  0.1599
 4937SOL    HW126447   3.925   4.735   1.785 -1.2696  1.6775  1.6970
 4937SOL    HW226448   3.858   0.119   1.762 -0.3251 -0.1120  1.3238
 4938SOL     OW26449   0.259   0.241   6.266  0.5663 -0.5313 -0.3250
 4938SOL    HW126450   0.275   0.333   6.245  3.4329 -0.6780  1.2057
 4938SOL    HW226451   0.341   0.192   6.258  0.5162 -0.9005  1.4739
 4939SOL     OW26452   0.401   1.924  14.919  0.0012  0.6772 -0.1043
 4939SOL    HW126453   0.342   1.989  14.883 -1.1031 -0.8815 -1.0879
 4939SOL    HW226454   0.445   1.888  14.842 -0.0418  1.3213 -0.4269
 4940SOL     OW26455   4.158   0.886  16.296  0.5397  0.3277 -0.7348
 4940SOL    HW126456   4.110   0.811  16.260  1.5330  0.6615 -2.7202
 4940SOL    HW226457   4.135   0.877  16.389 -0.7349 -1.0371 -1.1859
 4941SOL     OW26458   3.398   2.869   4.563  0.2133 -0.4992 -0.2547
 4941SOL    HW126459   3.468   2.877   4.498  0.0429 -0.4447 -0.4307
 4941SOL    HW226460   3.330   2.838   4.503  0.2234 -0.3818 -0.3266
 4942SOL     OW26461   3.550   3.332   8.850 -1.2408  0.1373  0.4261
 4942SOL    HW126462   3.494   3.306   8.777  1.2363  0.1968 -1.4784
 4942SOL    HW226463   3.488   3.397   8.884 -3.2762 -1.3010 -0.5103
 4943SOL     OW26464   3.472   3.758  15.571 -0.3066  0.1965  0.0740
 4943SOL    HW126465   3.423   3.746  15.652 -1.1079  1.0486 -0.2812
 4943SOL    HW226466   3.401   3.741  15.510  1.2633 -2.0702 -1.0997
 4944SOL     OW26467   3.951   1.278   4.093 -0.0179  0.4378 -0.0090
 4944SOL    HW126468   4.009   1.205   4.073  0.7936  1.0726  0.0081
 4944SOL    HW226469   3.903   1.220   4.151 -1.1390  2.0665  0.7171
 4945SOL     OW26470   4.621   0.220   7.548  0.3419 -0.5718 -0.2687
 4945SOL    HW126471   4.677   0.161   7.599  1.4843  0.7587  0.0286
 4945SOL    HW226472   4.653   0.296   7.597  1.6470 -2.3629  1.6384
 4946SOL     OW26473   0.393   0.636   3.091 -0.0161  0.0486  0.0486
 4946SOL    HW126474   0.431   0.685   3.164  0.0750  0.7016 -0.4332
 4946SOL    HW226475   0.452   0.675   3.026  0.7988  0.8790  1.2877
 4947SOL     OW26476   1.911   4.297  12.761  0.2255  0.1048  0.1046
 4947SOL    HW126477   1.975   4.301  12.832  0.0661  2.0799  0.1489
 4947SOL    HW226478   1.833   4.266  12.808 -0.7998 -0.6471 -2.1239
 4948SOL     OW26479   1.313   4.577   2.942  0.2511  0.1652  0.0264
 4948SOL    HW126480   1.399   4.616   2.951 -0.4841  1.8566 -0.2645
 4948SOL    HW226481   1.312   4.535   2.856  2.6704  1.5907 -0.7128
 4949SOL     OW26482   3.232   3.062   9.268 -0.0287  0.3449 -0.2856
 4949SOL    HW126483   3.286   2.994   9.228  1.5301  0.2714  1.9456
 4949SOL    HW226484   3.160   3.018   9.314 -2.2564  0.7998 -3.3766
 4950SOL     OW26485   3.820   2.691  13.893  0.5080 -0.1540 -0.6093
 4950SOL    HW126486   3.769   2.670  13.815  2.4497  0.0380 -1.9222
 4950SOL    HW226487   3.781   2.772  13.927 -1.3883 -1.6962  0.8589
 4951SOL     OW26488   4.374   2.026   1.688  0.0785  0.6473 -0.7282
 4951SOL    HW126489   4.384   1.931   1.685  1.3203  0.8174 -2.0074
 4951SOL    HW226490   4.280   2.027   1.709  0.5850  0.4489  1.5623
 4952SOL     OW26491   3.405   0.697  12.635 -0.0188  0.0855  0.4585
 4952SOL    HW126492   3.366   0.744  12.709 -0.7958  1.0176 -0.5565
 4952SOL    HW226493   3.350   0.728  12.563  2.0535 -0.7641 -1.4863
 4953SOL     OW26494   0.615   0.038  16.055  0.1175 -0.4389 -0.7109
 4953SOL    HW126495   0.585   0.032  15.965 -0.3499  2.1845 -0.7124
 4953SOL    HW226496   0.658   4.688  16.067 -0.5595 -0.7354 -0.3838
 4954SOL     OW26497   0.842   1.665   8.620 -0.3341  0.8812 -0.7047
 4954SOL    HW126498   0.789   1.743   8.634  1.4511  1.6769  1.7266
 4954SOL    HW226499   0.831   1.609   8.697 -1.0302 -0.6898 -1.9591
 4955SOL     OW26500   4.265   3.541   7.980  0.1372  0.1547  0.4838
 4955SOL    HW126501   4.217   3.610   8.027  1.6704  1.0462  0.7436
 4955SOL    HW226502   4.340   3.522   8.036  0.7149  2.2536  0.4431
 4956SOL     OW26503   1.488   0.437  12.421  0.0706 -0.8294  0.0915
 4956SOL    HW126504   1.506   0.352  12.381  0.6299 -1.0666  0.8445
 4956SOL    HW226505   1.535   0.502  12.368  0.9510 -1.7754 -0.2991
 4957SOL     OW26506   2.455   3.465   5.607  0.1485  0.1133  0.0978
 4957SOL    HW126507   2.457   3.434   5.697 -0.3312  1.5561  0.6049
 4957SOL    HW226508   2.532   3.424   5.567  1.4683  1.2820  1.4058
 4958SOL     OW26509   0.723   2.369  10.578  0.5970  0.0803 -0.4066
 4958SOL    HW126510   0.649   2.389  10.522  2.2418  3.6151 -1.3519
 4958SOL    HW226511   0.684   2.329  10.656 -0.5965 -2.3671 -2.2705
 4959SOL     OW26512   2.313   1.207  12.253 -0.8548 -0.2949 -0.2144
 4959SOL    HW126513   2.365   1.177  12.328 -1.3964  0.8454  0.6328
 4959SOL    HW226514   2.343   1.145  12.187  3.9476  2.1543 -0.3654
 4960SOL     OW26515   2.623   4.065   2.319 -0.0484 -0.2010 -0.3096
 4960SOL    HW126516   2.597   4.110   2.399  6.8063  1.1619  1.1370
 4960SOL    HW226517   2.596   3.974   2.333  0.3542 -0.4185 -0.9200
 4961SOL     OW26518   0.258   3.697   3.192 -0.2717 -0.2516  0.3331
 4961SOL    HW126519   0.258   3.603   3.175 -0.3023 -0.1407 -0.2689
 4961SOL    HW226520   0.193   3.700   3.263 -0.9709 -0.2443 -0.3127
 4962SOL     OW26521   4.355   0.433   5.497 -0.0782  0.1230 -0.3199
 4962SOL    HW126522   4.313   0.494   5.558 -0.9736 -0.5825 -0.2301
 4962SOL    HW226523   4.285   0.427   5.432  0.1479 -2.6538 -0.2864
 4963SOL     OW26524   3.509   3.452   8.015  0.0940  0.4620 -0.3108
 4963SOL    HW126525   3.589   3.504   8.013 -0.7563  1.7942  1.0420
 4963SOL    HW226526   3.444   3.522   8.002  1.1905  1.3442 -1.0165
 4964SOL     OW26527   4.015   3.867   7.991  0.7951 -0.3414 -0.1065
 4964SOL    HW126528   4.011   3.870   7.896  1.4130  0.6434 -0.1067
 4964SOL    HW226529   4.043   3.957   8.006  1.9204 -0.9480  1.4486
 4965SOL     OW26530   0.139   2.461   6.445 -0.5827 -0.6387 -0.3323
 4965SOL    HW126531   0.101   2.411   6.517  0.5162 -2.2279 -0.8705
 4965SOL    HW226532   0.195   2.399   6.399  0.0577 -0.2793 -0.0432
 4966SOL     OW26533   2.845   1.596   5.937 -0.5582  0.3903 -0.3937
 4966SOL    HW126534   2.769   1.538   5.945 -0.6425  0.7477  1.4515
 4966SOL    HW226535   2.813   1.679   5.973  0.1018 -1.2467  3.9059
 4967SOL     OW26536   0.261   4.141   2.316  0.1466  0.6211  0.4990
 4967SOL    HW126537   0.313   4.114   2.241 -0.7833 -2.0340  0.7797
 4967SOL    HW226538   0.169   4.116   2.303  0.8602 -1.1520 -1.1656
 4968SOL     OW26539   1.421   0.384   2.598  0.2473 -0.3120  0.2334
 4968SOL    HW126540   1.406   0.440   2.521  0.4463  1.6325  1.6038
 4968SOL    HW226541   1.411   0.302   2.549  0.2610  0.7112 -1.4887
 4969SOL     OW26542   3.502   3.638   2.431  0.1774  0.1573 -0.2903
 4969SOL    HW126543   3.595   3.628   2.409 -0.5071 -3.3996 -1.6736
 4969SOL    HW226544   3.513   3.704   2.499 -1.1419 -0.0898  0.1653
 4970SOL     OW26545   0.050   3.918   4.656 -0.1642 -0.0541  0.1312
 4970SOL    HW126546   0.075   3.849   4.717 -2.3610 -0.6530  0.3533
 4970SOL    HW226547   0.126   3.973   4.675  1.1717 -1.6569 -0.5643
 4971SOL     OW26548   0.053   1.774  15.178 -0.1019 -0.4988  0.0514
 4971SOL    HW126549   0.009   1.692  15.200 -1.4116 -0.1917 -1.4474
 4971SOL    HW226550   0.054   1.822  15.261  2.3123  0.0897 -0.3020
 4972SOL     OW26551   0.862   4.693   5.477 -0.1024  0.6655  0.2661
 4972SOL    HW126552   0.821   4.725   5.396 -0.6860  0.6967  0.5689
 4972SOL    HW226553   0.831   0.032   5.530 -1.4382  0.5429 -0.3332
 4973SOL     OW26554   2.601   0.749   5.097 -0.0623 -0.1417  0.5740
 4973SOL    HW126555   2.612   0.665   5.051  3.3101 -0.4450  1.9506
 4973SOL    HW226556   2.527   0.793   5.054  0.8690  1.6015  0.7694
 4974SOL     OW26557   2.161   4.045   8.606 -0.1635 -0.3738  0.5668
 4974SOL    HW126558   2.116   4.124   8.637 -1.4467  0.6323 -3.9140
 4974SOL    HW226559   2.228   4.032   8.673  0.0428 -1.8476  0.0721
 4975SOL     OW26560   1.815   0.017   8.095  0.1528  0.0126  0.3944
 4975SOL    HW126561   1.732   0.059   8.073  0.4316  1.1295  1.4945
 4975SOL    HW226562   1.883   0.064   8.047 -0.1049 -0.5036 -0.4871
 4976SOL     OW26563   3.995   4.463   4.450 -0.5221  0.3025 -0.1166
 4976SOL    HW126564   3.945   4.405   4.507 -1.0723  2.0266  1.1773
 4976SOL    HW226565   4.054   4.399   4.410 -0.0995  1.2811 -1.0732
 4977SOL     OW26566   1.690   0.159   4.347 -0.1188  0.1864 -0.2986
 4977SOL    HW126567   1.778   0.177   4.380  0.9861 -2.3921 -1.7869
 4977SOL    HW226568   1.704   0.128   4.257  1.9423 -0.9956  0.4393
 4978SOL     OW26569   2.054   1.947  10.005 -0.7457  0.9015 -0.3226
 4978SOL    HW126570   2.012   1.938   9.920  2.0240 -1.5461 -1.4276
 4978SOL    HW226571   2.038   2.041  10.012  1.5036  1.3342 -1.1537
 4979SOL     OW26572   0.431   0.430   3.495 -0.2409  0.0243  0.0481
 4979SOL    HW126573   0.446   0.525   3.500  0.2009 -0.1230  1.4707
 4979SOL    HW226574   0.422   0.418   3.401  0.3541 -1.5713  0.1973
 4980SOL     OW26575   0.548   4.389   2.766 -1.0224 -0.4807  0.0126
 4980SOL    HW126576   0.529   4.415   2.856 -1.0848 -2.2497  0.5092
 4980SOL    HW226577   0.572   4.298   2.782  2.1205  0.2642 -0.4323
 4981SOL     OW26578   2.626   4.598   0.844 -0.5498  0.4596 -0.4898
 4981SOL    HW126579   2.595   4.579   0.756 -3.1350  0.6856  0.3882
 4981SOL    HW226580   2.606   4.691   0.856 -1.8598  0.1997 -0.6950
 4982SOL     OW26581   0.410   2.672  12.992 -0.1432 -0.1429 -0.0780
 4982SOL    HW126582   0.493   2.649  13.035  0.1740  3.5546  1.2627
 4982SOL    HW226583   0.405   2.612  12.917  2.3362 -0.6126  0.1152
 4983SOL     OW26584   1.068   1.856   8.894  0.4136 -0.3904  0.0403
 4983SOL    HW126585   0.988   1.837   8.844 -0.0199 -2.8527  1.6603
 4983SOL    HW226586   1.053   1.793   8.965  0.7923  1.0029  1.3401
 4984SOL     OW26587   0.734   0.435   1.768  0.3274 -0.3714 -0.0524
 4984SOL    HW126588   0.642   0.454   1.748  0.4460  0.6289  0.3415
 4984SOL    HW226589   0.764   0.419   1.678  0.6485  0.4440 -0.0886
 4985SOL     OW26590   4.596   1.324   7.063  0.4921  0.0925  0.2654
 4985SOL    HW126591   4.589   1.351   7.155 -0.0431  1.0157 -0.0462
 4985SOL    HW226592   4.682   1.359   7.041  1.9952 -2.7635  1.5195
 4986SOL     OW26593   0.020   3.013   8.017  0.2123  0.1604 -0.0403
 4986SOL    HW126594   4.669   3.050   8.001  0.0414 -0.1131  0.2341
 4986SOL    HW226595   0.071   3.094   8.014 -0.5223  0.5497 -2.2021
 4987SOL     OW26596   2.775   3.575   0.750  0.3969  0.3883 -0.0597
 4987SOL    HW126597   2.840   3.535   0.808 -0.0828 -2.1917 -1.3017
 4987SOL    HW226598   2.790   3.663   0.785 -0.2964  0.3300  0.3787
 4988SOL     OW26599   2.506   2.086   2.227 -0.0247 -0.2545 -0.3246
 4988SOL    HW126600   2.546   2.001   2.245  0.2124 -0.0109  0.2880
 4988SOL    HW226601   2.502   2.080   2.132 -1.9083  0.2605 -0.2963
 4989SOL     OW26602   2.030   3.472   1.721  0.3768  0.6670  0.0860
 4989SOL    HW126603   2.077   3.556   1.727 -4.0405  3.2043 -0.7426
 4989SOL    HW226604   1.985   3.475   1.806 -1.7595 -1.5089 -1.0053
 4990SOL     OW26605   0.515   0.973   6.966  0.1047 -0.0941 -0.7811
 4990SOL    HW126606   0.513   0.903   6.902  1.5821 -3.4986  2.8936
 4990SOL    HW226607   0.607   0.998   6.956  0.1079 -0.0753 -0.7093
 4991SOL     OW26608   2.169   0.275   3.732  0.4089  0.1713  0.1282
 4991SOL    HW126609   2.207   0.328   3.803 -0.2686 -0.3365  0.8674
 4991SOL    HW226610   2.100   0.330   3.694 -1.7944 -1.4358  1.8382
 4992SOL     OW26611   1.188   1.502   2.949 -0.0165 -0.2734 -0.2215
 4992SOL    HW126612   1.240   1.450   2.888 -0.0277  0.3495 -0.7619
 4992SOL    HW226613   1.132   1.436   2.990  0.4286 -1.1264 -1.0082
 4993SOL     OW26614   2.897   4.250   7.094 -0.1308 -0.4207 -0.0323
 4993SOL    HW126615   2.814   4.202   7.104 -1.3404  1.3981 -1.2634
 4993SOL    HW226616   2.867   4.340   7.081  0.2221 -0.2036  0.6763
 4994SOL     OW26617   1.218   0.510   6.016  0.0730 -0.3007  0.3705
 4994SOL    HW126618   1.186   0.449   6.082 -0.5512  0.6248  0.9325
 4994SOL    HW226619   1.209   0.450   5.942  0.1283  0.3083 -0.1313
 4995SOL     OW26620   2.066   1.756   2.696 -0.3302  0.0500  0.1847
 4995SOL    HW126621   2.072   1.776   2.790 -0.2872  3.7995 -0.6021
 4995SOL    HW226622   2.130   1.812   2.652  2.4634 -1.1076  2.7698
 4996SOL     OW26623   3.950   1.957   5.823 -0.4055  0.6771 -0.1296
 4996SOL    HW126624   4.025   1.899   5.833  0.5375  1.8944 -0.2577
 4996SOL    HW226625   3.964   2.013   5.899  1.4235  0.0520 -0.0136
 4997SOL     OW26626   1.651   4.086   6.287 -0.4658 -0.0502 -0.3178
 4997SOL    HW126627   1.702   4.107   6.365 -0.6486 -0.8617  0.0153
 4997SOL    HW226628   1.638   4.170   6.243  0.3643 -0.3039 -1.0425
 4998SOL     OW26629   0.517   2.633   8.052 -0.0465  0.3260  0.4989
 4998SOL    HW126630   0.475   2.571   8.112 -1.0995  1.2814  0.7427
 4998SOL    HW226631   0.605   2.604   8.075 -0.5712 -0.6721  1.2401
 4999SOL     OW26632   1.014   0.229  16.183  0.5871 -0.1974  0.1316
 4999SOL    HW126633   0.982   0.282  16.257 -0.0573  0.0533 -0.3261
 4999SOL    HW226634   1.074   0.295  16.148 -0.6531  1.2382  0.6651
 5000SOL     OW26635   4.061   1.139  15.421  0.3344 -0.7598  0.6454
 5000SOL    HW126636   4.003   1.110  15.492 -1.6821  2.7905  0.4340
 5000SOL    HW226637   4.120   1.200  15.465 -0.1573 -0.6564  1.1674
 5001SOL     OW26638   2.317   1.825   7.519  0.4838  1.0550  0.0994
 5001SOL    HW126639   2.269   1.743   7.527  0.3780  1.2607  1.7392
 5001SOL    HW226640   2.297   1.870   7.602 -1.2855 -0.5136  0.5296
 5002SOL     OW26641   0.049   1.607   5.178 -0.1204 -0.1961 -0.2868
 5002SOL    HW126642   0.045   1.517   5.148  4.3605 -0.4675 -0.0522
 5002SOL    HW226643   0.000   1.603   5.260  4.1156  3.6439  2.4232
 5003SOL     OW26644   3.359   4.336   7.473  0.4119  0.1470  0.7285
 5003SOL    HW126645   3.328   4.279   7.403  2.2882  1.3767 -1.1076
 5003SOL    HW226646   3.405   4.398   7.416 -0.0207 -0.3232 -0.1351
 5004SOL     OW26647   4.234   3.916  17.003 -0.5130  0.4232 -0.4568
 5004SOL    HW126648   4.258   3.917  16.911 -0.9664  1.8752 -0.5634
 5004SOL    HW226649   4.239   3.823  17.025 -0.7842  0.3478 -0.7262
 5005SOL     OW26650   1.402   3.768   7.613 -0.0019  0.8361  0.3361
 5005SOL    HW126651   1.339   3.725   7.554  1.9869 -1.1866 -0.3071
 5005SOL    HW226652   1.353   3.848   7.629 -1.2731 -0.3743  2.5017
 5006SOL     OW26653   0.840   1.234   3.448  0.8482  0.4506  0.0889
 5006SOL    HW126654   0.908   1.279   3.498  0.0746  2.2089 -0.4592
 5006SOL    HW226655   0.760   1.261   3.492 -0.9040  0.3556 -3.0280
 5007SOL     OW26656   2.832   0.911   6.402  0.6275  0.4775  0.2258
 5007SOL    HW126657   2.871   0.919   6.315  0.2171 -2.3656 -0.2145
 5007SOL    HW226658   2.896   0.942   6.466  1.2448 -1.9163  0.7710
 5008SOL     OW26659   3.892   2.376  15.320  0.3354 -0.1270 -0.3487
 5008SOL    HW126660   3.931   2.458  15.289  1.6204 -0.0040  1.5837
 5008SOL    HW226661   3.936   2.356  15.402 -0.0132 -2.4371 -0.7220
 5009SOL     OW26662   2.627   4.029   1.277 -0.4764  0.0624  0.1993
 5009SOL    HW126663   2.638   3.957   1.339  1.1673 -0.2453 -0.4728
 5009SOL    HW226664   2.660   4.101   1.331  0.6909 -0.4011  0.0869
 5010SOL     OW26665   0.792   3.438   5.380 -0.4261 -0.6214 -0.4444
 5010SOL    HW126666   0.709   3.480   5.406 -0.4806 -2.5203  2.4802
 5010SOL    HW226667   0.790   3.371   5.448 -0.3554  0.2404  0.4188
 5011SOL     OW26668   1.008   4.616   2.621  0.2420 -0.5042  0.0897
 5011SOL    HW126669   1.053   4.533   2.634 -1.1589 -1.2038  0.4195
 5011SOL    HW226670   1.082   4.678   2.621 -0.1985  0.0208  1.6258
 5012SOL     OW26671   3.509   2.879   3.141 -0.1986 -0.8330 -0.0194
 5012SOL    HW126672   3.588   2.932   3.146 -0.2016 -0.9396  1.0109
 5012SOL    HW226673   3.482   2.859   3.051  0.0830  1.1559 -0.5452
 5013SOL     OW26674   4.311   1.508  14.550  0.0950 -0.0770 -0.1356
 5013SOL    HW126675   4.300   1.414  14.560  0.0216  0.1787  2.0889
 5013SOL    HW226676   4.402   1.520  14.577 -0.1560 -2.6743  1.8324
 5014SOL     OW26677   2.202   2.596   9.902 -0.4082 -0.4091 -0.0060
 5014SOL    HW126678   2.259   2.520   9.890 -0.3704 -0.2877 -0.6015
 5014SOL    HW226679   2.265   2.666   9.888  1.1630 -1.3707  2.2673
 5015SOL     OW26680   2.351   1.479   8.823  0.1923 -0.4646 -0.1261
 5015SOL    HW126681   2.325   1.550   8.881 -0.0247 -0.1739 -0.5787
 5015SOL    HW226682   2.445   1.474   8.842  0.0332  0.6156  0.9533
 5016SOL     OW26683   1.945   0.392   9.495  0.1458  0.0591  0.1863
 5016SOL    HW126684   1.859   0.433   9.478 -1.7131 -3.1518  1.8533
 5016SOL    HW226685   2.002   0.469   9.490 -2.8138  2.1798 -1.5240
 5017SOL     OW26686   2.787   2.270   8.455 -0.2413  0.0144  0.4650
 5017SOL    HW126687   2.703   2.265   8.501 -1.9984  0.6928 -2.7126
 5017SOL    HW226688   2.798   2.356   8.416 -0.2927 -0.1259  0.1363
 5018SOL     OW26689   0.304   2.549   2.805  0.0046 -0.0739 -0.1491
 5018SOL    HW126690   0.295   2.458   2.831 -1.0864 -0.1338 -0.7528
 5018SOL    HW226691   0.399   2.563   2.807 -0.0517  0.2319  0.3702
 5019SOL     OW26692   0.585   2.334   5.030  0.2018  0.4296 -0.2268
 5019SOL    HW126693   0.659   2.342   5.091 -0.1469  0.1839  0.2272
 5019SOL    HW226694   0.610   2.264   4.969 -2.9509 -0.1272 -0.8794
 5020SOL     OW26695   3.056   3.154   6.270  0.1947 -0.0006 -0.7452
 5020SOL    HW126696   3.077   3.061   6.273  1.7124  0.3135 -1.1963
 5020SOL    HW226697   3.092   3.193   6.349  1.6287 -2.1651 -0.3448
 5021SOL     OW26698   3.556   4.575   5.926  0.8602  0.1291  0.2402
 5021SOL    HW126699   3.584   4.531   5.845 -1.3310 -0.2088 -0.3412
 5021SOL    HW226700   3.644   4.609   5.941  0.4376 -0.1712  3.3817
 5022SOL     OW26701   3.645   1.170  17.549 -0.1918  0.1161 -0.3422
 5022SOL    HW126702   3.631   1.092  17.603  0.8328 -0.5466 -1.0311
 5022SOL    HW226703   3.651   1.248  17.604 -2.2817  1.4792 -2.0576
 5023SOL     OW26704   1.127   4.613   3.605 -0.0632  0.3343  0.0720
 5023SOL    HW126705   1.042   4.604   3.561  0.2200  1.0683 -0.6240
 5023SOL    HW226706   1.162   4.692   3.563  2.7318 -2.4040 -2.7140
 5024SOL     OW26707   0.504   0.514  12.978  0.4230 -0.4843 -0.3193
 5024SOL    HW126708   0.548   0.541  13.058 -0.7995  2.5322 -0.6529
 5024SOL    HW226709   0.436   0.581  12.986  0.1636 -0.6950 -0.7409
 5025SOL     OW26710   3.496   2.634   8.823  0.1516 -0.0617 -0.0939
 5025SOL    HW126711   3.433   2.615   8.893 -2.3158  0.0365 -2.2805
 5025SOL    HW226712   3.448   2.666   8.747 -2.0572 -1.0789  0.8644
 5026SOL     OW26713   3.044   1.982   4.453 -0.6387  0.2428  0.8223
 5026SOL    HW126714   3.091   1.982   4.369 -0.2585  0.3649  1.0335
 5026SOL    HW226715   2.988   2.060   4.450 -2.0929 -0.9893 -3.2201
 5027SOL     OW26716   4.413   3.305  14.404  0.0995 -0.6576 -0.4603
 5027SOL    HW126717   4.346   3.328  14.340 -2.4755 -3.5923  1.1642
 5027SOL    HW226718   4.483   3.364  14.380  0.0781  0.0834  1.2776
 5028SOL     OW26719   2.444   0.012   5.991  0.7075  0.1227  0.1062
 5028SOL    HW126720   2.526   4.716   6.030 -0.6855 -1.8514  1.4515
 5028SOL    HW226721   2.419   4.667   5.944  0.5713  0.7961 -0.9780
 5029SOL     OW26722   4.114   2.803  11.171  0.3115  0.1771  0.4488
 5029SOL    HW126723   4.184   2.738  11.174 -0.5196 -0.6804  1.6474
 5029SOL    HW226724   4.167   2.880  11.191 -0.0632  1.0086 -1.7544
 5030SOL     OW26725   2.938   2.704  15.571 -0.7101  0.7903  0.2945
 5030SOL    HW126726   2.969   2.779  15.520 -0.9211  0.1781 -0.7414
 5030SOL    HW226727   2.973   2.630  15.521  2.4686  2.2241  0.4388
 5031SOL     OW26728   2.339   3.938   4.690 -0.1524 -0.2468  0.3496
 5031SOL    HW126729   2.392   4.004   4.735  1.2625 -1.0670 -0.1075
 5031SOL    HW226730   2.362   3.870   4.753  0.5208 -0.0987  0.2701
 5032SOL     OW26731   2.701   3.542   2.219 -0.1116  0.2112  0.5400
 5032SOL    HW126732   2.679   3.634   2.205 -0.6494  0.1910  1.2795
 5032SOL    HW226733   2.643   3.526   2.293 -2.2131  0.6581 -0.9892
 5033SOL     OW26734   2.149   3.694  10.191  0.1635 -0.4936 -0.5491
 5033SOL    HW126735   2.079   3.629  10.196  0.0147 -0.2899  0.0586
 5033SOL    HW226736   2.229   3.644  10.206  1.0645  1.0204 -0.2785
 5034SOL     OW26737   2.838   1.257   7.376 -0.0504 -0.7161 -0.3761
 5034SOL    HW126738   2.821   1.163   7.372 -1.9040 -0.4083  0.4659
 5034SOL    HW226739   2.854   1.274   7.283 -2.9775  2.2146 -0.3452
 5035SOL     OW26740   2.121   1.348  17.725 -0.3089  0.2675 -0.3181
 5035SOL    HW126741   2.108   1.402   0.063  0.8806  1.5861 -1.0273
 5035SOL    HW226742   2.167   1.268   0.013 -0.3471 -0.3039 -1.9197
 5036SOL     OW26743   0.556   3.009   1.597  0.2177  0.2477  0.4040
 5036SOL    HW126744   0.618   2.968   1.536 -0.8864  0.5217 -0.9138
 5036SOL    HW226745   0.597   3.094   1.608  2.7622 -0.9803  0.3329
 5037SOL     OW26746   4.041   3.246   6.739 -0.1315 -0.6820 -0.0532
 5037SOL    HW126747   4.094   3.322   6.715  0.7869 -0.4578  2.7888
 5037SOL    HW226748   4.041   3.203   6.653 -0.0934  0.3829 -0.5913
 5038SOL     OW26749   1.887   0.905  14.007 -0.1655 -0.3708 -0.3381
 5038SOL    HW126750   1.983   0.898  14.008 -0.0724  0.8888 -0.7007
 5038SOL    HW226751   1.881   0.988  13.960 -0.8135 -1.4415 -2.1698
 5039SOL     OW26752   1.527   3.448   8.740 -0.1297 -0.0803 -0.3708
 5039SOL    HW126753   1.470   3.524   8.728  0.7601  0.5387 -0.7024
 5039SOL    HW226754   1.613   3.486   8.760 -0.6306  0.4057  0.8481
 5040SOL     OW26755   3.930   2.058   2.939  0.5194 -0.1078  0.6082
 5040SOL    HW126756   3.843   2.056   2.901  2.1662 -0.6483 -3.0986
 5040SOL    HW226757   3.916   2.130   3.001 -0.3805  0.1851  0.0563
 5041SOL     OW26758   4.095   4.566   1.923 -0.1947 -0.0781  0.0647
 5041SOL    HW126759   4.050   4.566   2.008 -1.3772  0.0276 -0.5633
 5041SOL    HW226760   4.099   4.659   1.903 -1.8218 -0.2755 -1.1780
 5042SOL     OW26761   0.962   0.844   0.232  0.1598 -0.3533 -0.0580
 5042SOL    HW126762   0.936   0.891   0.153  0.2833  0.6872  0.5184
 5042SOL    HW226763   0.927   0.756   0.218  3.2756 -1.8026  1.0983
 5043SOL     OW26764   4.213   2.631   8.268 -0.0825 -0.1569  0.3925
 5043SOL    HW126765   4.299   2.646   8.230 -0.8275  1.7509 -0.5585
 5043SOL    HW226766   4.183   2.720   8.247 -0.0086 -0.0291  0.8348
 5044SOL     OW26767   0.208   3.051   5.156  0.5827  0.0659 -0.1038
 5044SOL    HW126768   0.284   3.084   5.109  1.4071 -1.4759  0.1316
 5044SOL    HW226769   0.242   3.020   5.240 -1.1071  2.4118  1.4523
 5045SOL     OW26770   0.796   0.281  11.948  0.0657 -0.6064 -0.5085
 5045SOL    HW126771   0.814   0.221  12.020 -0.3765  2.1387  1.8680
 5045SOL    HW226772   0.886   0.310  11.931 -0.7962  1.7703 -1.0221
 5046SOL     OW26773   0.827   3.103   4.137  0.1654  0.8334 -0.3289
 5046SOL    HW126774   0.896   3.160   4.103  0.1591  1.6276  0.9581
 5046SOL    HW226775   0.791   3.151   4.212 -0.5062  0.3187 -0.3214
 5047SOL     OW26776   0.077   1.915   6.885 -0.2371 -0.3924  0.5854
 5047SOL    HW126777   0.136   1.840   6.897 -0.3921 -0.5772  0.1944
 5047SOL    HW226778   0.095   1.924   6.791  1.6532 -0.1239  0.9729
 5048SOL     OW26779   0.267   2.763  11.528 -0.6504 -0.0301  0.3297
 5048SOL    HW126780   0.311   2.816  11.461  3.7432 -1.8328  1.8170
 5048SOL    HW226781   0.299   2.676  11.503  0.0256  0.6042 -1.0290
 5049SOL     OW26782   1.999   4.041  12.657 -0.3856 -0.3927  0.5598
 5049SOL    HW126783   1.948   4.120  12.677  1.0246 -0.1725  3.2767
 5049SOL    HW226784   1.941   3.975  12.693 -0.7168 -0.0058  0.7365
 5050SOL     OW26785   0.252   0.285  14.421  0.2341 -0.2444 -0.3698
 5050SOL    HW126786   0.185   0.256  14.483  2.5628  0.3623  2.4207
 5050SOL    HW226787   0.320   0.310  14.483 -1.2871  3.0255  0.0461
 5051SOL     OW26788   2.323   4.118   7.509  0.3735  0.2305  0.4101
 5051SOL    HW126789   2.332   4.180   7.581 -0.1134  0.9962 -0.1890
 5051SOL    HW226790   2.240   4.155   7.478  0.3940  2.1403  2.6115
 5052SOL     OW26791   1.221   1.753   4.339 -0.0968  0.0769 -0.0115
 5052SOL    HW126792   1.284   1.714   4.279  1.2966  1.2874  0.6595
 5052SOL    HW226793   1.245   1.846   4.344 -1.3660  0.2709  2.7021
 5053SOL     OW26794   3.008   1.059  11.198 -0.8509  0.6729  0.5735
 5053SOL    HW126795   2.994   1.139  11.148 -0.8730  0.6426  0.5316
 5053SOL    HW226796   3.011   1.098  11.286 -2.8321  0.8777  0.5686
 5054SOL     OW26797   2.446   4.341   9.628  0.5976  0.3234 -0.1189
 5054SOL    HW126798   2.484   4.349   9.715  0.5176  0.8862 -0.1396
 5054SOL    HW226799   2.520   4.373   9.578 -0.9289  2.3489 -1.0771
 5055SOL     OW26800   2.172   2.497   1.697 -0.2038  0.5237  0.6237
 5055SOL    HW126801   2.104   2.450   1.648  2.2737 -1.4270 -0.9386
 5055SOL    HW226802   2.243   2.487   1.634 -0.6565  2.5088 -0.2171
 5056SOL     OW26803   1.087   0.375   8.472 -0.1601 -0.4435 -0.4594
 5056SOL    HW126804   1.054   0.463   8.453  1.0178  0.2974  0.9082
 5056SOL    HW226805   1.125   0.392   8.558 -0.1625  0.1282 -0.5708
 5057SOL     OW26806   3.747   3.002   7.703 -0.4777  0.1335  0.2156
 5057SOL    HW126807   3.721   3.083   7.748  0.6154 -0.6088  2.1658
 5057SOL    HW226808   3.767   2.955   7.783 -0.3306  4.0730  2.5089
 5058SOL     OW26809   2.537   1.340   2.581  0.5928 -0.0821 -0.1131
 5058SOL    HW126810   2.541   1.407   2.649  1.4912  2.5889 -2.7972
 5058SOL    HW226811   2.632   1.334   2.569  0.6219  0.4969 -0.1541
 5059SOL     OW26812   1.856   2.515   3.818  0.0853  0.2437  0.0137
 5059SOL    HW126813   1.780   2.530   3.874 -0.5338 -1.3906 -0.3889
 5059SOL    HW226814   1.895   2.603   3.817  1.0456 -0.1773  0.8081
 5060SOL     OW26815   0.494   1.114   1.894  0.5958  0.0259  0.1767
 5060SOL    HW126816   0.483   1.105   1.800 -1.5193  3.0024  0.1065
 5060SOL    HW226817   0.573   1.168   1.895  0.2972  0.4463  0.8521
 5061SOL     OW26818   0.361   1.744   2.793 -0.2043 -0.3603  0.0794
 5061SOL    HW126819   0.317   1.659   2.801  1.4605 -1.1037  1.2602
 5061SOL    HW226820   0.287   1.804   2.804  0.9839  1.2677 -0.7397
 5062SOL     OW26821   2.237   1.836   6.243 -0.8984  0.2178 -0.4970
 5062SOL    HW126822   2.303   1.894   6.205 -0.5439  1.6838  2.3543
 5062SOL    HW226823   2.267   1.811   6.330  2.0826  1.8267 -1.0438
 5063SOL     OW26824   1.947   4.431  11.625  0.0904  0.5859  0.0855
 5063SOL    HW126825   1.877   4.456  11.564  0.8543  2.3879 -0.0653
 5063SOL    HW226826   2.026   4.480  11.603 -0.2874  2.2930  2.5004
 5064SOL     OW26827   3.704   4.523   7.681  0.0918 -0.1007  0.2530
 5064SOL    HW126828   3.638   4.478   7.734 -0.5836  0.4548 -0.1114
 5064SOL    HW226829   3.785   4.495   7.723 -0.8320 -1.2775  1.2518
 5065SOL     OW26830   3.165   1.038   8.229  0.7776  0.4667  0.0136
 5065SOL    HW126831   3.186   1.103   8.296  0.1346  1.6463 -0.9298
 5065SOL    HW226832   3.119   0.980   8.290 -0.6772  2.5876  0.9386
 5066SOL     OW26833   4.567   0.982   2.058 -0.5680  0.6994 -0.4559
 5066SOL    HW126834   4.630   1.041   2.017  0.6039 -0.2733 -0.0368
 5066SOL    HW226835   4.626   0.953   2.128 -1.7456 -1.4018 -0.3277
 5067SOL     OW26836   4.517   0.258  14.729  0.0594  1.1037 -0.1970
 5067SOL    HW126837   4.556   0.267  14.642 -0.0298  1.6890 -0.1783
 5067SOL    HW226838   4.495   0.348  14.753  0.8718  0.7930  1.7709
 5068SOL     OW26839   1.879   2.958  15.660  0.1767  0.4025 -0.3061
 5068SOL    HW126840   1.972   2.940  15.649  0.1456  0.8220 -1.1994
 5068SOL    HW226841   1.871   3.048  15.629  2.9612  0.4408 -0.8453
 5069SOL     OW26842   3.743   3.701  10.622  0.7492 -0.2323 -0.1577
 5069SOL    HW126843   3.720   3.675  10.711 -0.1198  3.1842  0.6151
 5069SOL    HW226844   3.787   3.786  10.632  1.5092 -0.6114 -0.2619
 5070SOL     OW26845   2.513   1.772  15.241  0.0252 -0.6130  0.3796
 5070SOL    HW126846   2.457   1.749  15.315 -0.6820  0.9789  0.3430
 5070SOL    HW226847   2.458   1.821  15.179  0.4483 -0.7411 -0.0980
 5071SOL     OW26848   0.523   4.056   3.878  0.4528 -1.2234  0.4381
 5071SOL    HW126849   0.598   4.006   3.909 -0.0898 -1.3935  1.4673
 5071SOL    HW226850   0.545   4.048   3.785  1.4188 -1.3015  0.6715
 5072SOL     OW26851   3.970   2.658   6.037 -0.7179 -0.9922  0.0775
 5072SOL    HW126852   4.048   2.613   6.004  0.1304  1.5737 -1.4589
 5072SOL    HW226853   4.002   2.745   6.063  0.5649 -1.5280  0.2868
 5073SOL     OW26854   3.817   2.365   5.360 -0.3373  0.2800  0.2005
 5073SOL    HW126855   3.803   2.440   5.417  2.9218  1.1832 -0.1788
 5073SOL    HW226856   3.737   2.319   5.386  0.7363 -1.6704  0.0946
 5074SOL     OW26857   2.018   3.884  14.023  0.2365 -0.0150  0.2318
 5074SOL    HW126858   2.004   3.831  14.102  2.1191 -0.7442  0.0829
 5074SOL    HW226859   2.054   3.965  14.060  1.4950 -0.9804  1.1202
 5075SOL     OW26860   0.626   1.539   7.518 -0.5253 -0.0882  0.2331
 5075SOL    HW126861   0.711   1.554   7.559 -0.0256  0.8371 -1.1478
 5075SOL    HW226862   0.620   1.443   7.516  0.4460 -0.1529  0.4025
 5076SOL     OW26863   3.095   2.682   5.866  0.4462 -0.5100 -0.0567
 5076SOL    HW126864   3.167   2.728   5.908  3.5506 -2.4215 -3.2462
 5076SOL    HW226865   3.022   2.709   5.921  0.9087  2.3858 -0.8598
 5077SOL     OW26866   2.530   2.903   4.722  0.2847 -0.0248  0.2343
 5077SOL    HW126867   2.443   2.909   4.763  1.2142 -0.5027  2.2720
 5077SOL    HW226868   2.572   2.977   4.766 -0.5145 -0.5620  1.9291
 5078SOL     OW26869   2.386   4.537   5.840  0.0220 -0.4353  0.1389
 5078SOL    HW126870   2.401   4.443   5.830 -0.5603 -0.7407  2.2491
 5078SOL    HW226871   2.444   4.576   5.774 -0.0481  2.0160  1.5009
 5079SOL     OW26872   4.569   4.130   1.358  0.2700 -0.2387 -0.5098
 5079SOL    HW126873   4.478   4.156   1.347  0.0962 -0.1579  1.1042
 5079SOL    HW226874   4.622   4.210   1.364 -1.3938  0.8238 -0.1653
 5080SOL     OW26875   3.433   1.372   8.874 -0.0726  0.1131  0.2625
 5080SOL    HW126876   3.415   1.294   8.925 -3.2163 -0.1207 -1.1439
 5080SOL    HW226877   3.527   1.386   8.875 -0.0318 -0.0327 -2.2985
 5081SOL     OW26878   4.480   1.700   0.685  0.1468  0.5361  0.0968
 5081SOL    HW126879   4.537   1.732   0.755  0.5052 -0.8238  0.4278
 5081SOL    HW226880   4.483   1.607   0.707  2.4589  1.2324  2.7456
 5082SOL     OW26881   2.021   0.293   6.104  0.7316 -0.2768  0.3924
 5082SOL    HW126882   2.007   0.290   6.010 -1.1926 -1.0000  0.7036
 5082SOL    HW226883   2.116   0.279   6.102  0.6902 -0.5677  0.3439
 5083SOL     OW26884   1.556   0.895   4.103  0.1816 -0.1046  0.0481
 5083SOL    HW126885   1.508   0.822   4.142  0.6308 -0.0462  0.7251
 5083SOL    HW226886   1.493   0.967   4.103 -0.8182 -0.9811 -1.1828
 5084SOL     OW26887   2.514   2.407   4.582 -0.2452 -0.0281 -0.2837
 5084SOL    HW126888   2.596   2.424   4.628  0.3001 -0.2198 -1.1921
 5084SOL    HW226889   2.471   2.342   4.638 -1.2466  0.1023 -0.8983
 5085SOL     OW26890   4.175   4.653   3.713  0.1629  0.6629  0.2673
 5085SOL    HW126891   4.268   4.658   3.733  0.0089  0.9395  0.9175
 5085SOL    HW226892   4.165   0.005   3.675 -1.0335  0.7813  0.8580
 5086SOL     OW26893   0.613   0.639  16.755 -0.1800  0.1632  0.0991
 5086SOL    HW126894   0.518   0.653  16.750 -0.2167  0.1557  0.6956
 5086SOL    HW226895   0.633   0.686  16.836 -0.3370 -2.1357  1.4811
 5087SOL     OW26896   1.829   0.027  11.216  0.1540  0.3550 -0.6246
 5087SOL    HW126897   1.793   0.073  11.291  0.0435  0.6560 -0.8628
 5087SOL    HW226898   1.781   4.679  11.225  0.4906 -0.0352 -2.4203
 5088SOL     OW26899   1.388   3.243   3.031  0.2812 -0.3484  0.2070
 5088SOL    HW126900   1.346   3.328   3.023  1.0486  0.0776  0.7005
 5088SOL    HW226901   1.358   3.198   2.952  0.3957  0.1120 -0.0931
 5089SOL     OW26902   2.782   0.288  12.577  0.3451 -0.3358  0.0335
 5089SOL    HW126903   2.850   0.242  12.527  1.1998  0.8485  0.1165
 5089SOL    HW226904   2.806   0.377  12.552  0.9814 -0.7728 -0.9129
 5090SOL     OW26905   1.090   3.895  17.393  0.5790 -0.1430  0.0162
 5090SOL    HW126906   1.166   3.935  17.352 -0.0196  1.7977  0.7870
 5090SOL    HW226907   1.130   3.815  17.429  1.1638 -0.3900 -1.1618
 5091SOL     OW26908   2.290   3.363   3.390  0.1325 -0.3457  0.1714
 5091SOL    HW126909   2.245   3.285   3.360 -1.2459  0.5683 -0.1192
 5091SOL    HW226910   2.220   3.427   3.380  0.3699 -0.0382  0.4615
 5092SOL     OW26911   0.743   0.491   6.478  0.1064 -0.4550  0.4008
 5092SOL    HW126912   0.744   0.461   6.387 -1.5946 -0.3395  0.3537
 5092SOL    HW226913   0.662   0.454   6.513 -0.1162  0.7804  1.2041
 5093SOL     OW26914   1.878   4.663   8.585  0.0047 -0.2072 -0.2817
 5093SOL    HW126915   1.913   4.677   8.673  0.0501 -1.5810 -0.0703
 5093SOL    HW226916   1.887   0.021   8.565 -0.7538 -0.1059 -0.1461
 5094SOL     OW26917   1.126   3.314   4.590  0.0724 -0.3339 -0.3883
 5094SOL    HW126918   1.084   3.249   4.534  0.7586  0.8970 -2.3470
 5094SOL    HW226919   1.194   3.255   4.623  1.7235  1.1999 -1.0081
 5095SOL     OW26920   3.258   1.114   4.234  0.6206  0.5219 -0.2546
 5095SOL    HW126921   3.306   1.177   4.288 -3.0609  1.2265  2.2003
 5095SOL    HW226922   3.284   1.031   4.274 -0.4720  0.1625 -0.2973
 5096SOL     OW26923   0.509   0.843   4.160 -0.6142 -0.0030 -0.2233
 5096SOL    HW126924   0.570   0.916   4.175 -1.0069  0.1047  0.8363
 5096SOL    HW226925   0.429   0.878   4.199 -0.1652  0.4768  0.2663
 5097SOL     OW26926   3.738   2.957  15.201 -0.6845 -0.0861  0.7531
 5097SOL    HW126927   3.729   3.032  15.260 -0.6045 -0.1971  0.9061
 5097SOL    HW226928   3.727   3.001  15.117  0.6502  1.8910  1.6137
 5098SOL     OW26929   2.927   2.643   5.640 -0.0153 -0.1363 -0.4544
 5098SOL    HW126930   2.990   2.652   5.711  0.1030  0.1337 -0.5937
 5098SOL    HW226931   2.965   2.685   5.563  1.1787 -0.8454 -0.2482
 5099SOL     OW26932   1.672   4.023  13.738 -0.0281  0.3800  0.0381
 5099SOL    HW126933   1.647   4.091  13.801 -0.4397 -1.0756  1.4195
 5099SOL    HW226934   1.682   4.068  13.654 -1.0934 -0.2381 -0.4240
 5100SOL     OW26935   4.405   2.622   5.745 -0.0749 -0.6052  0.1419
 5100SOL    HW126936   4.489   2.591   5.777  0.2289  0.6700  0.5552
 5100SOL    HW226937   4.399   2.562   5.670  1.7421 -1.4870  0.6932
 5101SOL     OW26938   4.400   0.400   6.545 -0.5303  0.0951  0.1313
 5101SOL    HW126939   4.488   0.431   6.523  0.3816 -2.2268  0.5000
 5101SOL    HW226940   4.398   0.434   6.635 -0.2771  1.2299 -0.2899
 5102SOL     OW26941   0.073   1.445   2.348  0.0233 -0.6515  0.2275
 5102SOL    HW126942   0.149   1.419   2.399  0.8776  3.4194  1.0235
 5102SOL    HW226943   0.065   1.538   2.368  0.2898 -0.7938  0.9847
 5103SOL     OW26944   4.210   3.754  11.461  0.2653 -0.5766 -0.6074
 5103SOL    HW126945   4.268   3.821  11.499 -0.3138  1.5515 -3.5040
 5103SOL    HW226946   4.143   3.814  11.429  0.1828 -1.0724 -1.3408
 5104SOL     OW26947   2.088   2.804   9.735 -0.1586 -0.3093  0.4616
 5104SOL    HW126948   2.106   2.731   9.795 -2.3884  0.2294  1.7400
 5104SOL    HW226949   1.993   2.811   9.737  0.0298  2.0388  1.4366
 5105SOL     OW26950   4.597   1.089   4.987  0.6080 -0.1833 -0.0515
 5105SOL    HW126951   4.651   1.073   5.065 -0.2447 -1.6836  0.2321
 5105SOL    HW226952   4.514   1.107   5.031  0.7368 -1.1709  0.5996
 5106SOL     OW26953   2.591   2.267   9.166  0.1385  0.6752 -0.4691
 5106SOL    HW126954   2.556   2.341   9.116  1.2276  0.7878 -1.0607
 5106SOL    HW226955   2.559   2.294   9.253 -1.1608  1.2013 -1.1149
 5107SOL     OW26956   1.892   3.735   7.275 -0.4236  0.1163  0.2084
 5107SOL    HW126957   1.876   3.828   7.296  0.9228  0.1270  1.1695
 5107SOL    HW226958   1.842   3.730   7.194  0.2494  0.2760 -0.2096
 5108SOL     OW26959   1.215   1.227   2.263  0.8927 -0.1403 -0.0251
 5108SOL    HW126960   1.226   1.143   2.218 -0.6912 -0.2512 -0.2076
 5108SOL    HW226961   1.290   1.230   2.322  1.6147 -0.0995 -0.9412
 5109SOL     OW26962   4.026   2.392   3.037 -0.0976 -0.0980  0.3105
 5109SOL    HW126963   4.121   2.382   3.040 -0.0414  0.4887  0.4258
 5109SOL    HW226964   4.006   2.313   3.088  2.3508 -0.4596  0.7162
 5110SOL     OW26965   1.815   0.680   5.810  0.1395  0.9085  0.0530
 5110SOL    HW126966   1.825   0.585   5.809  1.0841  1.0083  0.2928
 5110SOL    HW226967   1.896   0.701   5.855 -0.2081  0.9714  0.6537
 5111SOL     OW26968   0.439   3.285   5.167  0.1896 -0.1529 -0.3989
 5111SOL    HW126969   0.430   3.191   5.182 -1.7873 -0.1713 -1.7307
 5111SOL    HW226970   0.419   3.284   5.074  1.0711  2.8334 -0.6228
 5112SOL     OW26971   4.114   1.613   3.870 -0.2331  0.6460  0.6641
 5112SOL    HW126972   4.074   1.686   3.823 -0.4341  0.1370  0.0567
 5112SOL    HW226973   4.111   1.636   3.963  0.6389 -1.5603  1.2428
 5113SOL     OW26974   2.359   3.484  12.493 -0.4769  0.1017 -0.9357
 5113SOL    HW126975   2.359   3.547  12.420 -2.0880 -0.9062 -1.8129
 5113SOL    HW226976   2.411   3.418  12.446  2.9671  0.8991  1.7238
 5114SOL     OW26977   4.360   2.515   7.968 -0.7130 -0.5779  0.1050
 5114SOL    HW126978   4.400   2.530   7.883 -1.1304 -1.7605 -0.3108
 5114SOL    HW226979   4.294   2.584   7.960 -0.7429 -0.4667  1.2513
 5115SOL     OW26980   1.847   2.233  12.824  0.1762  0.3711  0.3863
 5115SOL    HW126981   1.778   2.217  12.759  0.3912  1.8909 -0.2178
 5115SOL    HW226982   1.883   2.312  12.785 -1.4427 -0.0189 -1.9077
 5116SOL     OW26983   2.761   2.878   3.267 -0.2593 -0.2120  0.2016
 5116SOL    HW126984   2.807   2.890   3.184 -0.3974 -1.0452  0.0052
 5116SOL    HW226985   2.712   2.795   3.263 -0.6996 -0.1058  2.7982
 5117SOL     OW26986   3.332   4.471   5.735  0.3000  0.8617 -0.0699
 5117SOL    HW126987   3.329   4.412   5.810  1.9306 -0.9553 -1.4484
 5117SOL    HW226988   3.368   4.556   5.759  2.9052  0.7932 -3.7418
 5118SOL     OW26989   0.025   3.491   5.204  0.2928 -0.0060 -0.1015
 5118SOL    HW126990   0.096   3.496   5.139 -0.4186 -0.4547 -0.9196
 5118SOL    HW226991   0.039   3.565   5.263  1.4381 -1.0357  0.9198
 5119SOL     OW26992   2.915   3.763   4.844 -0.2873 -0.6841  0.1041
 5119SOL    HW126993   2.983   3.830   4.833 -0.6203  0.1839  3.1923
 5119SOL    HW226994   2.933   3.742   4.936 -0.3232 -1.0830  0.0172
 5120SOL     OW26995   0.136   1.669  11.942 -0.0148  0.1637  0.0866
 5120SOL    HW126996   0.208   1.703  11.889 -1.9929  1.8190 -1.5327
 5120SOL    HW226997   0.101   1.605  11.879  1.2919  0.3362 -0.8073
 5121SOL     OW26998   0.017   1.146   1.927  0.5064 -0.3430 -0.2993
 5121SOL    HW126999   0.111   1.153   1.911  0.4574  1.8178  0.3261
 5121SOL    HW227000   0.022   1.184   2.015 -1.3336  0.8599 -0.7250
 5122SOL     OW27001   4.700   0.028  12.597 -0.0815 -0.3078  0.1921
 5122SOL    HW127002   0.016   0.026  12.677  0.0630 -2.2141  0.0551
 5122SOL    HW227003   4.729   0.115  12.570  0.5952 -0.2166  1.2347
 5123SOL     OW27004   2.240   2.962  10.628  0.2270  0.2564  0.2272
 5123SOL    HW127005   2.315   2.919  10.668 -0.6811 -1.4933  0.0335
 5123SOL    HW227006   2.199   3.010  10.700 -0.5858  0.7584 -0.5614
 5124SOL     OW27007   2.229   0.385  14.799 -0.1854  0.0990  0.1444
 5124SOL    HW127008   2.147   0.339  14.818  0.5238 -0.5487  1.5173
 5124SOL    HW227009   2.238   0.449  14.869  0.6409  1.2748 -1.0332
 5125SOL     OW27010   0.624   0.765   7.237 -0.2102  0.1261  0.2667
 5125SOL    HW127011   0.717   0.775   7.217 -0.2228  0.3424  0.3164
 5125SOL    HW227012   0.594   0.696   7.179 -1.1563  1.1040 -0.3890
 5126SOL     OW27013   0.884   1.096   2.005 -0.0545  0.6669  0.2878
 5126SOL    HW127014   0.955   1.065   1.949  0.5469 -1.1093  2.0362
 5126SOL    HW227015   0.876   1.021   2.064 -1.0999  1.1097  0.7180
 5127SOL     OW27016   2.426   4.289   6.381  0.3056 -1.1157  0.3197
 5127SOL    HW127017   2.408   4.262   6.291 -1.2371  2.1324 -0.3464
 5127SOL    HW227018   2.477   4.368   6.363 -2.1428  0.4083  0.0551
 5128SOL     OW27019   3.924   2.408   4.828  0.1454 -0.2742  0.3370
 5128SOL    HW127020   3.903   2.315   4.819 -1.8460  0.0821  1.2602
 5128SOL    HW227021   3.915   2.442   4.739 -1.1986  2.7234  1.6471
 5129SOL     OW27022   0.796   1.418   7.233 -0.1539 -0.1619  1.4193
 5129SOL    HW127023   0.705   1.391   7.218  0.8013 -1.8399 -1.3217
 5129SOL    HW227024   0.820   1.443   7.144 -2.3453 -0.0633  0.8582
 5130SOL     OW27025   0.532   1.160   8.196  0.0649  0.3030  0.0396
 5130SOL    HW127026   0.470   1.224   8.162 -0.1535 -0.1643 -0.4524
 5130SOL    HW227027   0.526   1.090   8.130 -0.7320  2.0773 -1.7785
 5131SOL     OW27028   2.100   0.710   7.172 -0.2588 -0.3118  0.7057
 5131SOL    HW127029   2.140   0.730   7.256  1.7479  1.7121 -0.7320
 5131SOL    HW227030   2.063   0.794   7.146 -0.0997 -0.7458 -0.9427
 5132SOL     OW27031   4.444   1.948   6.772 -0.5257 -0.7566 -0.3822
 5132SOL    HW127032   4.411   2.020   6.719  0.3696  0.7807  1.1408
 5132SOL    HW227033   4.415   1.975   6.860  0.3803  1.7796 -0.8733
 5133SOL     OW27034   0.766   1.967   6.617 -0.0064  0.3650  0.4178
 5133SOL    HW127035   0.805   1.928   6.695 -1.4530  0.6392  1.2750
 5133SOL    HW227036   0.673   1.958   6.634  0.0057 -1.3115 -0.3929
 5134SOL     OW27037   0.806   3.017  13.420  0.2347 -0.5441  0.1415
 5134SOL    HW127038   0.768   3.028  13.333 -1.2044 -1.4363  0.6580
 5134SOL    HW227039   0.898   3.043  13.419  0.5763 -1.6882  0.8573
 5135SOL     OW27040   3.141   2.849   5.143  0.0528  0.0643  0.2314
 5135SOL    HW127041   3.186   2.765   5.130 -0.3315  0.1578 -1.7361
 5135SOL    HW227042   3.131   2.871   5.050 -1.8673  0.3911  0.5150
 5136SOL     OW27043   2.814   4.568  12.484 -0.6355  0.4640 -0.2720
 5136SOL    HW127044   2.889   4.516  12.515  0.3301  1.4979 -0.8518
 5136SOL    HW227045   2.785   4.615  12.563  0.2743 -0.1735  0.4387
 5137SOL     OW27046   0.873   2.413   2.246 -0.4644 -0.1388 -1.0746
 5137SOL    HW127047   0.934   2.472   2.289 -1.1691 -0.3020  0.1267
 5137SOL    HW227048   0.855   2.338   2.302  2.0515  0.4591  0.5391
 5138SOL     OW27049   3.933   1.504  17.465  0.2007  0.0650 -0.3012
 5138SOL    HW127050   3.906   1.596  17.464 -2.0925 -0.5781  1.5829
 5138SOL    HW227051   3.936   1.491  17.560 -1.1123  0.1395 -0.2477
 5139SOL     OW27052   0.054   0.113   6.378  0.7867 -0.1902  0.3048
 5139SOL    HW127053   0.097   0.189   6.339 -0.7697  0.9200  0.7906
 5139SOL    HW227054   0.136   0.076   6.411  0.8061 -0.1404  0.3127
 5140SOL     OW27055   0.431   4.234   4.267 -0.7546  0.7362 -0.0258
 5140SOL    HW127056   0.392   4.146   4.263 -1.5215  0.9171  2.9357
 5140SOL    HW227057   0.356   4.294   4.261 -3.1217 -2.0852  1.0781
 5141SOL     OW27058   1.208   1.922  10.844 -0.2569 -0.3483 -0.1831
 5141SOL    HW127059   1.127   1.892  10.885 -1.0550  0.4238 -1.2104
 5141SOL    HW227060   1.240   1.977  10.916 -0.6307  0.8753 -0.9542
 5142SOL     OW27061   0.067   4.199  13.502  0.0793 -0.1248  0.1484
 5142SOL    HW127062   4.729   4.138  13.495 -0.7593  0.8283  0.6945
 5142SOL    HW227063   0.028   4.283  13.476 -1.9716 -1.1921 -0.2380
 5143SOL     OW27064   2.430   1.347   7.545  1.0573  0.0053  0.2480
 5143SOL    HW127065   2.481   1.421   7.511  0.4660  0.5644  0.5939
 5143SOL    HW227066   2.443   1.360   7.639  1.2428 -0.2708  0.2610
 5144SOL     OW27067   4.065   1.905   7.826  0.1690  0.0630  0.9318
 5144SOL    HW127068   4.108   1.842   7.768 -1.4051  0.2850 -0.4871
 5144SOL    HW227069   4.046   1.861   7.908 -2.4067 -0.7389 -0.0979
 5145SOL     OW27070   1.651   1.497   0.676  1.1523 -0.2931 -0.0834
 5145SOL    HW127071   1.718   1.466   0.616 -0.3544  0.6762 -2.2885
 5145SOL    HW227072   1.659   1.427   0.741 -1.1082 -1.9304 -1.5769
 5146SOL     OW27073   4.485   1.292   1.573  0.3787 -0.6756 -0.2308
 5146SOL    HW127074   4.490   1.279   1.667  0.8627  1.7696  0.0849
 5146SOL    HW227075   4.516   1.383   1.571 -1.0734 -0.2361 -2.8619
 5147SOL     OW27076   4.697   4.007   7.861  0.1294  0.1396  0.2334
 5147SOL    HW127077   4.710   3.948   7.787 -0.6966 -1.3434  1.2604
 5147SOL    HW227078   4.613   4.044   7.835  0.1043  1.2513  1.8839
 5148SOL     OW27079   4.433   0.702   5.309 -0.3212 -0.2972  0.1026
 5148SOL    HW127080   4.433   0.620   5.359 -2.2332 -0.8994 -0.8610
 5148SOL    HW227081   4.456   0.771   5.370 -1.1543  0.3140 -0.2763
 5149SOL     OW27082   1.358   2.730   3.256 -0.6616 -0.7777  0.3025
 5149SOL    HW127083   1.319   2.811   3.225  1.5953  0.4658  0.6904
 5149SOL    HW227084   1.404   2.764   3.333  1.8055 -0.7686 -1.1697
 5150SOL     OW27085   2.594   1.136   6.318  0.0371 -0.2910  0.0704
 5150SOL    HW127086   2.597   1.129   6.223  1.1618  2.0954 -0.0941
 5150SOL    HW227087   2.512   1.184   6.333  0.8198  1.5591 -1.5207
 5151SOL     OW27088   3.000   1.244   9.293 -0.2251  0.3496 -0.1710
 5151SOL    HW127089   3.073   1.190   9.262  1.3422  2.7435 -0.6587
 5151SOL    HW227090   3.040   1.301   9.359 -0.6066  0.7173 -0.2586
 5152SOL     OW27091   4.459   3.795   2.888  0.6345 -0.1559  0.4170
 5152SOL    HW127092   4.489   3.832   2.805 -1.1174 -1.4636 -0.8056
 5152SOL    HW227093   4.491   3.705   2.890  0.4184 -0.2509 -0.3818
 5153SOL     OW27094   0.958   3.168   7.033 -0.6288 -0.0369 -0.1978
 5153SOL    HW127095   0.921   3.240   6.983 -0.6210  0.8565  1.0928
 5153SOL    HW227096   0.946   3.104   6.963 -0.0831  1.5239 -1.6977
 5154SOL     OW27097   3.791   1.735  11.072 -0.0028 -0.0864  0.9999
 5154SOL    HW127098   3.863   1.731  11.009 -0.6280  0.5944  0.2208
 5154SOL    HW227099   3.829   1.697  11.151 -0.7724 -1.2094  0.8213
 5155SOL     OW27100   0.570   0.142  12.651 -0.6224 -0.4206  0.0623
 5155SOL    HW127101   0.616   0.163  12.570  2.8501 -1.3689  1.8003
 5155SOL    HW227102   0.599   0.224  12.693 -0.4137 -0.4579 -0.0092
 5156SOL     OW27103   1.099   1.140  12.408 -0.2576 -0.2079  0.7768
 5156SOL    HW127104   1.035   1.211  12.405  0.0160  0.0396  0.7812
 5156SOL    HW227105   1.052   1.062  12.437 -0.0234  0.1286  2.0275
 5157SOL     OW27106   3.466   2.251  14.438 -0.2336 -0.3784 -0.2126
 5157SOL    HW127107   3.486   2.171  14.389  0.5826  0.7277 -1.6690
 5157SOL    HW227108   3.532   2.236  14.505 -1.1365  0.0627  0.7884
 5158SOL     OW27109   3.994   0.550  14.122  0.0230 -0.0758  0.1376
 5158SOL    HW127110   4.032   0.475  14.076 -1.7721  0.2815 -1.9415
 5158SOL    HW227111   3.911   0.543  14.075 -1.4284 -1.7956  2.9228
 5159SOL     OW27112   1.248   2.801  13.158 -0.7231  0.2411  0.5272
 5159SOL    HW127113   1.178   2.755  13.205  0.2768  1.7314  3.4230
 5159SOL    HW227114   1.307   2.725  13.155 -0.4999  0.4496 -0.6002
 5160SOL     OW27115   0.627   2.302  10.810  0.1651 -0.0483  0.0688
 5160SOL    HW127116   0.591   2.379  10.855 -0.6649 -0.8444  0.7796
 5160SOL    HW227117   0.564   2.235  10.835 -1.1007  1.2641  0.4018
 5161SOL     OW27118   4.403   0.953  14.621  0.4947  0.1485  0.5916
 5161SOL    HW127119   4.332   0.890  14.613 -0.1679  0.9789 -0.1269
 5161SOL    HW227120   4.480   0.900  14.642  0.6299 -0.5080 -1.4701
 5162SOL     OW27121   3.512   1.532  17.557  0.4140  0.1997  0.4243
 5162SOL    HW127122   3.517   1.447  17.601  1.0919  0.6435  1.1978
 5162SOL    HW227123   3.498   1.510  17.465  0.2129 -0.6789  0.6587
 5163SOL     OW27124   0.190   1.197   1.658 -0.2745 -0.3901 -0.1244
 5163SOL    HW127125   0.274   1.151   1.662 -0.0414  0.0179 -0.2996
 5163SOL    HW227126   0.135   1.122   1.681 -0.6727  0.8034  2.8698
 5164SOL     OW27127   3.542   2.161   7.459 -0.2085 -0.1534  0.2254
 5164SOL    HW127128   3.538   2.211   7.378 -1.7519 -0.6827 -0.0296
 5164SOL    HW227129   3.453   2.132   7.478 -0.2882  0.8724  1.4857
 5165SOL     OW27130   2.009   3.884   8.121  0.2933  0.5981 -0.5137
 5165SOL    HW127131   1.953   3.842   8.056 -0.6479 -1.6481  1.7986
 5165SOL    HW227132   2.014   3.805   8.173  2.1494  0.2760 -1.1774
 5166SOL     OW27133   0.594   1.493   5.270  0.1689  0.5251  0.5419
 5166SOL    HW127134   0.526   1.551   5.235  0.4667 -0.5889 -1.8542
 5166SOL    HW227135   0.670   1.545   5.243 -1.0651  1.7049 -0.7015
 5167SOL     OW27136   0.556   3.092   3.750  0.4260  0.0074  0.1878
 5167SOL    HW127137   0.576   3.122   3.839 -2.5431 -0.2418  0.9369
 5167SOL    HW227138   0.461   3.098   3.759  0.3774  2.1946 -1.8172
 5168SOL     OW27139   0.733   2.242   5.509  0.1064 -0.1780 -0.2305
 5168SOL    HW127140   0.678   2.166   5.528  1.0467 -0.7189  0.3492
 5168SOL    HW227141   0.803   2.234   5.574 -0.5965 -0.6193  0.4820
 5169SOL     OW27142   3.187   0.146   2.569 -0.7359  0.1730  0.8424
 5169SOL    HW127143   3.228   0.125   2.485 -0.8155 -0.7553  1.0422
 5169SOL    HW227144   3.222   0.234   2.583  0.4498 -0.2303  0.4395
 5170SOL     OW27145   0.243   1.241   4.268  0.1904  0.2668  0.5131
 5170SOL    HW127146   0.276   1.324   4.234 -0.9299  0.1856 -0.8080
 5170SOL    HW227147   0.255   1.182   4.194  0.1656  0.9222 -0.0173
 5171SOL     OW27148   1.607   3.952   7.448  0.0747 -0.1332 -0.4293
 5171SOL    HW127149   1.679   3.949   7.385  1.8327  3.0940  1.4632
 5171SOL    HW227150   1.642   3.926   7.533  0.6424 -0.3761 -0.7409
 5172SOL     OW27151   4.370   3.820   5.596 -0.2775 -0.4236 -0.2264
 5172SOL    HW127152   4.291   3.849   5.549 -0.1236  0.8137  0.2725
 5172SOL    HW227153   4.364   3.725   5.588 -2.3086 -0.3284  0.1813
 5173SOL     OW27154   4.240   1.934   6.505  0.2818  0.8833 -0.0677
 5173SOL    HW127155   4.309   1.908   6.566  0.1159  0.5492 -0.0234
 5173SOL    HW227156   4.256   2.027   6.489  0.3847  0.6124 -1.5047
 5174SOL     OW27157   2.738   2.205   7.698  0.2633 -0.1006  0.3393
 5174SOL    HW127158   2.690   2.129   7.664  1.2792 -0.3272 -0.5911
 5174SOL    HW227159   2.658   2.253   7.719 -0.3491 -0.4593 -1.1502
 5175SOL     OW27160   1.475   4.148  17.377 -0.3322  0.2672 -0.9172
 5175SOL    HW127161   1.468   4.230  17.424 -1.0597 -0.7896  0.8250
 5175SOL    HW227162   1.470   4.178  17.287 -1.6377  2.0228 -0.2433
 5176SOL     OW27163   2.398   3.550   3.037 -0.8639  0.4767  0.2815
 5176SOL    HW127164   2.391   3.548   2.941 -2.0709 -0.4276  0.3916
 5176SOL    HW227165   2.436   3.466   3.064  1.4837  1.6011  0.4638
 5177SOL     OW27166   4.274   3.415   3.071 -0.5963 -0.3274 -0.0574
 5177SOL    HW127167   4.342   3.369   3.023  1.9906 -0.5053  3.7603
 5177SOL    HW227168   4.292   3.505   3.046  0.7507 -0.4483  0.4917
 5178SOL     OW27169   4.266   3.681   2.248 -0.2663 -0.0612 -0.1391
 5178SOL    HW127170   4.224   3.640   2.172 -2.1043  2.8016 -0.6713
 5178SOL    HW227171   4.227   3.768   2.251  0.1063  0.0721  0.8940
 5179SOL     OW27172   2.805   2.445   5.181  0.3483 -0.0024  0.0384
 5179SOL    HW127173   2.860   2.371   5.207 -0.6299 -1.2370 -1.4315
 5179SOL    HW227174   2.730   2.414   5.131 -1.2869  0.7507  2.0101
 5180SOL     OW27175   2.082   2.021   1.810 -0.8435 -0.8209  0.0400
 5180SOL    HW127176   2.154   2.084   1.818  1.5178 -3.4403 -0.5620
 5180SOL    HW227177   2.015   2.079   1.846 -0.4433 -1.2434  1.4664
 5181SOL     OW27178   2.605   1.713  14.396  0.4015  0.4691  0.2821
 5181SOL    HW127179   2.668   1.755  14.454  0.6916 -0.5708  0.7301
 5181SOL    HW227180   2.550   1.683  14.469  0.2157 -2.1806 -0.9639
 5182SOL     OW27181   1.188   4.618   7.384  0.0735 -0.0325  0.3056
 5182SOL    HW127182   1.218   4.580   7.301 -0.7659 -0.8372  0.3773
 5182SOL    HW227183   1.248   4.693   7.386 -0.0338  0.0447  0.6177
 5183SOL     OW27184   4.012   0.826  11.945  0.0377 -0.4627 -0.2630
 5183SOL    HW127185   3.987   0.830  11.853 -1.8690 -1.1357  0.2327
 5183SOL    HW227186   3.923   0.829  11.980 -0.1112 -1.8560 -0.5295
 5184SOL     OW27187   3.416   1.113  10.167 -0.2536 -0.3352 -0.0116
 5184SOL    HW127188   3.441   1.206  10.166  0.1941 -0.4576 -0.2703
 5184SOL    HW227189   3.445   1.074  10.249  2.9376  2.9785  0.4267
 5185SOL     OW27190   2.090   0.014  14.509  0.1651  0.3712 -0.0044
 5185SOL    HW127191   2.021   0.030  14.445  1.2022  1.6537 -0.7972
 5185SOL    HW227192   2.139   0.095  14.519  0.6765 -0.3032  3.0970
 5186SOL     OW27193   3.755   0.963   8.467 -0.0470 -0.1968  0.0332
 5186SOL    HW127194   3.764   0.983   8.560 -0.1443  1.9571 -0.4269
 5186SOL    HW227195   3.842   0.939   8.434 -0.3065  0.1855 -0.9510
 5187SOL     OW27196   3.427   0.576   8.560  0.3145 -0.2837  0.0235
 5187SOL    HW127197   3.498   0.522   8.596 -0.2818 -0.6784  0.6203
 5187SOL    HW227198   3.475   0.642   8.511  0.5697 -1.7294 -1.6875
 5188SOL     OW27199   1.281   2.705   1.964 -0.0811 -0.4977 -0.5157
 5188SOL    HW127200   1.333   2.771   1.919  1.2353 -1.1240  0.0958
 5188SOL    HW227201   1.312   2.620   1.934  1.9005 -0.3973  1.2344
 5189SOL     OW27202   4.512   3.366   4.443 -0.1886  0.6482  0.4309
 5189SOL    HW127203   4.576   3.303   4.408 -0.2919  0.7838  0.0081
 5189SOL    HW227204   4.454   3.308   4.492 -1.0472  0.4559 -0.8158
 5190SOL     OW27205   3.695   1.125  15.087  0.1535 -0.7764 -0.1942
 5190SOL    HW127206   3.724   1.048  15.038 -1.5168 -1.0964 -0.6785
 5190SOL    HW227207   3.770   1.157  15.137  2.0255 -3.8254 -1.0286
 5191SOL     OW27208   0.218   3.553   5.999  0.1704 -0.5210 -0.2318
 5191SOL    HW127209   0.275   3.627   6.019 -1.0631  1.0868 -2.7978
 5191SOL    HW227210   0.201   3.576   5.908 -0.8090 -0.7785 -0.1111
 5192SOL     OW27211   2.309   3.612   8.067 -0.3454  0.2146  0.4297
 5192SOL    HW127212   2.328   3.664   8.145  2.3978 -0.5148  0.2619
 5192SOL    HW227213   2.268   3.533   8.104 -2.4116  0.2762 -1.8011
 5193SOL     OW27214   0.542   2.755  13.469  0.5718 -0.7094  0.5469
 5193SOL    HW127215   0.545   2.696  13.545 -1.1606 -1.7409 -0.1784
 5193SOL    HW227216   0.590   2.832  13.498  0.3412 -0.3423 -0.0633
 5194SOL     OW27217   2.000   2.429   5.761 -0.2424  0.1944 -1.0766
 5194SOL    HW127218   1.977   2.337   5.757 -0.2826  0.1947 -0.8294
 5194SOL    HW227219   2.092   2.422   5.735 -0.3174 -1.4228 -0.8973
 5195SOL     OW27220   2.288   3.036   6.246  0.1739  0.7126  0.3536
 5195SOL    HW127221   2.256   2.969   6.306 -0.9303 -0.3354 -1.3886
 5195SOL    HW227222   2.299   2.987   6.165 -3.4437 -0.6425  0.6745
 5196SOL     OW27223   4.323   4.507   0.792  0.3681 -0.7387  1.0402
 5196SOL    HW127224   4.256   4.520   0.725 -0.5393  0.6596  2.1985
 5196SOL    HW227225   4.326   4.412   0.786 -0.7637 -0.7353  0.4461
 5197SOL     OW27226   3.436   2.176  16.864  0.4414 -0.1718  0.6440
 5197SOL    HW127227   3.525   2.204  16.885  0.0920  3.0577 -2.0870
 5197SOL    HW227228   3.390   2.163  16.947 -0.4913 -0.4994  0.0667
 5198SOL     OW27229   3.422   2.217   4.434 -0.0735 -0.5939  0.5515
 5198SOL    HW127230   3.338   2.262   4.429  0.5302  0.4667 -0.1740
 5198SOL    HW227231   3.470   2.270   4.370  1.1107 -0.0422  1.9088
 5199SOL     OW27232   2.141   0.711   1.004 -0.3670 -0.2585 -0.1821
 5199SOL    HW127233   2.184   0.797   0.998  1.1000 -0.7006  3.7333
 5199SOL    HW227234   2.049   0.724   0.983 -0.4900 -0.7408  0.0725
 5200SOL     OW27235   3.042   0.646   0.960  0.2293 -0.1384  0.0115
 5200SOL    HW127236   3.036   0.684   0.873  1.7806  0.9310  0.3551
 5200SOL    HW227237   3.107   0.577   0.950  0.8892  0.6403 -0.9946
 5201SOL     OW27238   4.358   1.975   4.513  0.3441 -0.1704 -0.1857
 5201SOL    HW127239   4.395   1.954   4.427 -1.2136 -1.7415 -0.4773
 5201SOL    HW227240   4.291   2.041   4.494 -0.2795 -0.9522 -0.6862
 5202SOL     OW27241   4.563   1.522   4.564  0.2665 -0.2694  0.1164
 5202SOL    HW127242   4.564   1.613   4.593 -2.6091 -0.0930 -0.2753
 5202SOL    HW227243   4.586   1.471   4.641  1.7408 -1.6763 -1.2575
 5203SOL     OW27244   2.744   4.286   2.729  0.0467 -0.3660  0.4396
 5203SOL    HW127245   2.707   4.291   2.817 -0.3043  0.9593  0.2201
 5203SOL    HW227246   2.833   4.270   2.760 -0.0411  1.1591  1.4860
 5204SOL     OW27247   0.220   0.787   2.813  0.5310  0.0496  0.0371
 5204SOL    HW127248   0.165   0.863   2.834  0.6808 -0.2219  1.4362
 5204SOL    HW227249   0.167   0.719   2.771  1.3888  0.8462 -2.3171
 5205SOL     OW27250   3.413   1.319   4.725 -0.1523 -0.6785 -0.6567
 5205SOL    HW127251   3.369   1.268   4.793 -0.3553  1.5815  0.9019
 5205SOL    HW227252   3.402   1.413   4.736 -3.2413 -1.0891 -0.3225
 5206SOL     OW27253   4.216   4.068  10.671 -0.1324  0.0013 -0.1794
 5206SOL    HW127254   4.226   4.136  10.739  1.1971  1.2729 -1.6296
 5206SOL    HW227255   4.122   4.054  10.670  0.3415 -3.1889  1.1330
 5207SOL     OW27256   1.823   2.387   2.755  0.0037  0.7598  0.1971
 5207SOL    HW127257   1.869   2.403   2.673  0.7443 -1.7076  0.1194
 5207SOL    HW227258   1.738   2.371   2.714 -0.2950  1.9424  0.3682
 5208SOL     OW27259   4.251   2.928   0.531  0.2120  0.4322  0.5232
 5208SOL    HW127260   4.214   2.930   0.619  0.2767 -0.3202  0.5695
 5208SOL    HW227261   4.346   2.922   0.539  0.1996  2.4199  2.1671
 5209SOL     OW27262   1.137   3.496   4.283  0.1925  0.1202  0.6385
 5209SOL    HW127263   1.180   3.579   4.304 -0.4207  0.6095 -0.0650
 5209SOL    HW227264   1.187   3.441   4.344  0.2967 -3.0442 -2.3336
 5210SOL     OW27265   0.151   0.542   6.019  0.4692 -0.5122 -0.1424
 5210SOL    HW127266   0.199   0.598   6.079 -0.1295 -0.4085  0.2470
 5210SOL    HW227267   0.224   0.491   5.984 -0.8466 -0.3503 -3.0704
 5211SOL     OW27268   1.524   3.068   7.433  0.0910 -0.9988  0.5374
 5211SOL    HW127269   1.553   2.996   7.376  0.4061  1.4590 -2.4345
 5211SOL    HW227270   1.607   3.101   7.468 -0.0411 -0.4507  0.3392
 5212SOL     OW27271   3.989   4.392   9.176 -0.6260  0.1625  0.0139
 5212SOL    HW127272   3.968   4.364   9.087 -0.7862  0.7176 -0.1214
 5212SOL    HW227273   4.060   4.337   9.210 -1.1686 -0.7223 -0.2720
 5213SOL     OW27274   3.755   4.152   3.355  0.2934  0.2522 -0.1341
 5213SOL    HW127275   3.833   4.097   3.343  0.7207  1.1315 -1.3968
 5213SOL    HW227276   3.805   4.231   3.376 -1.0032  0.1596  3.2579
 5214SOL     OW27277   4.352   1.293   2.092  0.1681  0.2957 -0.3137
 5214SOL    HW127278   4.395   1.243   2.161  0.5590  2.3585  0.9526
 5214SOL    HW227279   4.305   1.232   2.035  0.6480 -1.0444  0.7335
 5215SOL     OW27280   1.004   4.726   2.950 -0.2730 -0.8906 -0.1109
 5215SOL    HW127281   0.936   0.039   2.903  1.4371  1.4266 -0.1895
 5215SOL    HW227282   1.013   4.641   2.906  3.4685 -1.7736  2.3338
 5216SOL     OW27283   1.363   4.098   3.698  0.5007 -0.0561 -0.8811
 5216SOL    HW127284   1.353   4.167   3.633 -4.4481  0.1889  0.1131
 5216SOL    HW227285   1.442   4.118   3.749  0.5783  0.3322 -1.1583
 5217SOL     OW27286   1.975   2.357   1.573  0.3842 -0.1647 -0.0177
 5217SOL    HW127287   1.901   2.307   1.605  0.0900 -0.7796 -1.6672
 5217SOL    HW227288   1.927   2.396   1.499 -0.0159  1.0878  0.9078
 5218SOL     OW27289   0.354   1.802   5.705 -0.6450  0.8412 -0.0075
 5218SOL    HW127290   0.421   1.865   5.732 -1.3918 -0.2876  4.3638
 5218SOL    HW227291   0.356   1.745   5.782 -1.9309  1.1879  0.2924
 5219SOL     OW27292   3.002   2.942  15.413  0.2624 -0.0163 -0.0548
 5219SOL    HW127293   2.957   2.927  15.330  0.5756 -1.4393  0.0402
 5219SOL    HW227294   3.092   2.956  15.383  0.2037  0.5935  0.0516
 5220SOL     OW27295   3.834   1.699  11.454  0.1009 -0.2271  0.0920
 5220SOL    HW127296   3.856   1.792  11.455  1.8945 -0.6172 -1.5142
 5220SOL    HW227297   3.905   1.670  11.396 -0.6633  0.2072 -1.0612
 5221SOL     OW27298   2.828   3.593   3.090 -0.0819 -0.5553 -0.0501
 5221SOL    HW127299   2.783   3.595   3.006  0.6084  1.3475 -0.3729
 5221SOL    HW227300   2.768   3.540   3.143 -0.3847 -0.0626  0.1051
 5222SOL     OW27301   0.851   1.933   3.088 -0.1551  0.4815  1.0684
 5222SOL    HW127302   0.918   1.865   3.086 -1.6288 -0.8525 -2.2342
 5222SOL    HW227303   0.771   1.895   3.123  0.1778 -1.0863  0.1459
 5223SOL     OW27304   1.076   1.070   6.081  0.1864 -0.4490  0.3725
 5223SOL    HW127305   1.106   1.021   6.005  3.4056 -1.5790  2.3323
 5223SOL    HW227306   0.983   1.082   6.065 -0.0055 -0.4623  1.4293
 5224SOL     OW27307   0.480   4.098   8.753  0.1840  0.0407 -0.2167
 5224SOL    HW127308   0.474   4.188   8.783 -0.5146 -0.3774  0.9091
 5224SOL    HW227309   0.431   4.061   8.827  3.1119 -0.5513  1.4499
 5225SOL     OW27310   4.361   4.335   7.525  0.5791  0.6100 -0.2253
 5225SOL    HW127311   4.395   4.386   7.452  0.0223 -1.5288 -1.9718
 5225SOL    HW227312   4.284   4.293   7.486  1.4501 -1.5346  0.3575
 5226SOL     OW27313   2.197   1.469  11.292 -0.3352  0.2548 -0.5278
 5226SOL    HW127314   2.106   1.474  11.322 -0.4401 -0.4396 -0.7243
 5226SOL    HW227315   2.237   1.421  11.365  0.6203  2.2330  0.2332
 5227SOL     OW27316   3.810   3.849   3.870  0.0338  0.2701  0.1095
 5227SOL    HW127317   3.768   3.809   3.945  0.3432 -0.5296 -0.1461
 5227SOL    HW227318   3.765   3.932   3.885 -0.0810  0.2724 -0.2562
 5228SOL     OW27319   4.656   2.627   7.327  0.5438  0.5174 -0.5381
 5228SOL    HW127320   0.011   2.635   7.358 -0.9349  1.9400  3.5649
 5228SOL    HW227321   4.656   2.539   7.291 -0.3114  0.1482  0.3578
 5229SOL     OW27322   0.954   3.731   4.532 -0.2519  0.4309  0.3130
 5229SOL    HW127323   0.993   3.806   4.486  0.0510  1.1405  1.7389
 5229SOL    HW227324   0.920   3.674   4.462  1.1591 -1.8854  1.5131
 5230SOL     OW27325   3.331   2.874   0.694 -0.3929  0.4189  0.5993
 5230SOL    HW127326   3.378   2.825   0.761  1.9342 -0.2149 -1.4698
 5230SOL    HW227327   3.384   2.851   0.617 -0.5692  3.2335 -0.3732
 5231SOL     OW27328   4.689   0.691   6.714 -0.4951 -0.2279  0.5828
 5231SOL    HW127329   4.716   0.756   6.780  0.2606  1.4862 -1.4092
 5231SOL    HW227330   4.716   0.740   6.636 -1.4646 -0.1747  0.2766
 5232SOL     OW27331   3.320   0.185   2.321 -0.2730  0.0663 -0.1577
 5232SOL    HW127332   3.254   0.224   2.263  0.8670  0.3503 -1.2558
 5232SOL    HW227333   3.390   0.248   2.306  0.6016 -1.1895 -1.3206
 5233SOL     OW27334   0.764   0.219  14.387 -0.6715 -0.0627 -0.2016
 5233SOL    HW127335   0.692   0.156  14.390  0.0833 -0.9520 -0.5577
 5233SOL    HW227336   0.720   0.287  14.337  1.6335  0.8962 -0.9023
 5234SOL     OW27337   1.724   1.710   5.369  0.4493  0.1905 -0.0915
 5234SOL    HW127338   1.678   1.704   5.284  2.0089 -1.3573 -0.8255
 5234SOL    HW227339   1.686   1.787   5.411  1.7135  1.3118 -0.9950
 5235SOL     OW27340   0.792   3.539   4.063 -0.1208 -0.8187  0.6232
 5235SOL    HW127341   0.868   3.595   4.047 -0.7946  0.5521  2.2231
 5235SOL    HW227342   0.782   3.486   3.984 -0.1902  0.6888 -0.3798
 5236SOL     OW27343   1.831   1.883   2.150 -0.2060 -0.1747  0.0741
 5236SOL    HW127344   1.869   1.815   2.206 -0.5888 -0.3745  0.0871
 5236SOL    HW227345   1.884   1.871   2.071  1.8712  0.1190  1.4115
 5237SOL     OW27346   0.333   1.658   3.519 -0.7293  0.6417  0.5272
 5237SOL    HW127347   0.293   1.744   3.530  0.1613  1.2556 -1.0371
 5237SOL    HW227348   0.420   1.675   3.556  0.4870 -0.3288 -1.8943
 5238SOL     OW27349   0.701   2.093   9.138  0.1913  0.1312  0.1465
 5238SOL    HW127350   0.644   2.162   9.171 -0.0870 -0.7002  1.4296
 5238SOL    HW227351   0.751   2.075   9.218  0.6233 -0.1158 -0.1765
 5239SOL     OW27352   1.143   3.275   7.446 -0.4029 -0.2072 -0.1266
 5239SOL    HW127353   1.147   3.206   7.512  0.0840 -1.1713 -1.1594
 5239SOL    HW227354   1.105   3.232   7.370  0.2404  0.2806 -0.7228
 5240SOL     OW27355   4.202   4.222   2.207  0.3864 -0.8390 -0.5364
 5240SOL    HW127356   4.257   4.145   2.191  1.0464 -0.0301 -2.1270
 5240SOL    HW227357   4.241   4.291   2.154  2.1200 -2.5361 -1.4632
 5241SOL     OW27358   0.158   2.570  13.173  0.3978 -0.2055  0.5168
 5241SOL    HW127359   0.243   2.538  13.203  0.5815  0.8816  1.1911
 5241SOL    HW227360   0.144   2.518  13.094  0.6990  0.8487 -0.2417
 5242SOL     OW27361   0.306   2.938   1.414 -0.3387  0.4466 -0.2392
 5242SOL    HW127362   0.312   2.915   1.506 -1.1351 -0.7380 -0.4953
 5242SOL    HW227363   0.385   2.898   1.377 -0.0363  0.4615  0.4054
 5243SOL     OW27364   0.118   0.259   3.017  0.6394 -0.1214 -0.0523
 5243SOL    HW127365   0.111   0.354   3.026 -1.3810 -0.0470 -2.2796
 5243SOL    HW227366   0.212   0.249   3.000  0.5402 -2.0758  0.4337
 5244SOL     OW27367   0.810   1.353   1.586 -0.7501 -0.3257 -0.8071
 5244SOL    HW127368   0.826   1.391   1.500 -1.1074 -0.7726 -1.0722
 5244SOL    HW227369   0.728   1.392   1.617  0.6837  0.4317  2.0642
 5245SOL     OW27370   0.356   3.634   4.279 -0.5632 -0.2278 -0.2420
 5245SOL    HW127371   0.418   3.659   4.211  0.2787  0.9396  0.9615
 5245SOL    HW227372   0.421   3.608   4.344 -0.5255 -1.8772 -0.9295
 5246SOL     OW27373   0.554   3.297   7.538  0.6383  0.4660 -0.2018
 5246SOL    HW127374   0.496   3.220   7.542 -0.2272  1.2144  1.5183
 5246SOL    HW227375   0.605   3.306   7.619  1.0886 -0.5838 -0.3624
 5247SOL     OW27376   0.658   0.773   6.104 -0.0298 -0.2521  0.1607
 5247SOL    HW127377   0.593   0.823   6.055 -1.3204 -1.2832  0.8096
 5247SOL    HW227378   0.640   0.683   6.078  1.2446 -0.4999  0.1237
 5248SOL     OW27379   4.156   0.555   5.655  0.6077 -0.3367 -0.1503
 5248SOL    HW127380   4.069   0.591   5.635 -0.2466 -2.2974 -0.0294
 5248SOL    HW227381   4.147   0.521   5.744 -0.7302  3.3873  1.1546
 5249SOL     OW27382   3.535   3.934  16.225  0.8740 -0.6146 -0.5587
 5249SOL    HW127383   3.589   3.948  16.303 -2.2822  1.0881  1.3261
 5249SOL    HW227384   3.451   3.969  16.253  1.0184 -0.3607 -0.4351
 5250SOL     OW27385   4.570   0.216   8.042  0.3430  0.6577  0.1683
 5250SOL    HW127386   4.640   0.258   7.992  1.6863 -1.1886  0.5041
 5250SOL    HW227387   4.587   0.122   8.037  0.2165  0.6960 -1.0274
 5251SOL     OW27388   0.682   3.762   8.051 -0.1955 -0.1239  0.4601
 5251SOL    HW127389   0.746   3.753   7.980  0.8463 -0.3241  1.4262
 5251SOL    HW227390   0.739   3.749   8.127  1.5125 -0.2413 -0.8543
 5252SOL     OW27391   2.111   1.282   5.384 -0.0361 -0.1685  0.5012
 5252SOL    HW127392   2.018   1.272   5.401 -0.1200 -0.8818 -0.3862
 5252SOL    HW227393   2.121   1.243   5.297 -3.3119 -1.4417  0.6863
 5253SOL     OW27394   3.861   1.255   1.628 -0.1740  0.1539  0.1316
 5253SOL    HW127395   3.951   1.249   1.597 -0.2286  0.5194 -0.1008
 5253SOL    HW227396   3.871   1.258   1.723  0.2661 -1.6193  0.1330
 5254SOL     OW27397   2.748   1.164   9.369 -0.0050  0.0513 -0.1336
 5254SOL    HW127398   2.753   1.069   9.375  0.9064  0.2426  2.3065
 5254SOL    HW227399   2.837   1.182   9.338  0.0432 -0.8192 -0.5004
 5255SOL     OW27400   0.012   0.519  15.992 -0.2536 -0.3385 -0.3103
 5255SOL    HW127401   4.729   0.447  15.931  0.4190  0.3791 -1.3748
 5255SOL    HW227402   4.735   0.477  16.076  2.0206  0.3093  0.3546
 5256SOL     OW27403   4.427   1.990   3.289 -0.0105 -0.6770 -0.2165
 5256SOL    HW127404   4.354   1.939   3.322 -1.9943  2.0004 -0.4978
 5256SOL    HW227405   4.400   2.080   3.271 -0.9655 -0.6657  1.3156
 5257SOL     OW27406   2.039   0.411   4.306  0.4776 -0.3492 -0.1204
 5257SOL    HW127407   2.060   0.356   4.230 -1.8157 -0.2087 -0.8541
 5257SOL    HW227408   1.982   0.353   4.357  0.4038  1.5357  1.9390
 5258SOL     OW27409   4.401   2.817   3.989  0.0946 -0.3044 -0.1240
 5258SOL    HW127410   4.465   2.751   3.962  1.0165  1.4404 -2.2776
 5258SOL    HW227411   4.408   2.805   4.084 -0.6797 -4.3500 -0.6068
 5259SOL     OW27412   1.373   0.407   3.839  0.5429  0.4707 -0.3497
 5259SOL    HW127413   1.302   0.418   3.903  1.0822 -0.5318  0.4189
 5259SOL    HW227414   1.445   0.450   3.885  1.8629 -0.6078 -1.4271
 5260SOL     OW27415   1.150   1.282   3.569  0.2578 -0.1912  0.0488
 5260SOL    HW127416   1.129   1.372   3.594 -1.1073 -0.5328  0.0925
 5260SOL    HW227417   1.215   1.254   3.634  0.3160  0.6359  0.3498
 5261SOL     OW27418   4.523   3.397   8.789  0.3229 -0.0211 -0.0517
 5261SOL    HW127419   4.520   3.330   8.858 -1.0819 -0.3433 -0.4137
 5261SOL    HW227420   4.447   3.372   8.737  0.2719  2.7589 -1.2997
 5262SOL     OW27421   2.188   0.640   8.702 -0.4487  0.3974 -0.3352
 5262SOL    HW127422   2.260   0.589   8.739  0.3113  1.3422 -0.4965
 5262SOL    HW227423   2.124   0.575   8.673  0.8643 -1.3129  0.6018
 5263SOL     OW27424   1.274   3.608   8.614 -0.5091 -0.2311  0.0771
 5263SOL    HW127425   1.195   3.647   8.576 -0.6767  1.4841  2.1942
 5263SOL    HW227426   1.322   3.688   8.635  1.1320 -0.8206 -1.3818
 5264SOL     OW27427   2.074   2.708   7.214 -0.0899 -0.0439  0.6634
 5264SOL    HW127428   1.992   2.671   7.247  1.0937 -0.9197  2.6118
 5264SOL    HW227429   2.079   2.781   7.276  2.9279  0.2120  0.1169
 5265SOL     OW27430   4.355   0.761  15.693  0.2544  0.0580  0.1078
 5265SOL    HW127431   4.272   0.716  15.674 -0.3341  1.3378 -0.3803
 5265SOL    HW227432   4.327   0.848  15.665 -0.2754 -0.8110 -2.0733
 5266SOL     OW27433   2.412   1.409   5.676 -0.1400  0.4201  0.0080
 5266SOL    HW127434   2.463   1.464   5.617  0.9987 -1.5569 -0.8539
 5266SOL    HW227435   2.321   1.418   5.646 -0.0394 -0.6772 -0.6677
 5267SOL     OW27436   1.724   2.474   6.528  0.1508  0.4423  0.2475
 5267SOL    HW127437   1.677   2.555   6.504 -0.2484  0.2918  0.5215
 5267SOL    HW227438   1.811   2.509   6.508  0.5833  0.7639  2.7689
 5268SOL     OW27439   1.798   2.577   1.547 -0.3327  0.2653  0.1885
 5268SOL    HW127440   1.885   2.614   1.534 -0.5129  0.6855  0.1735
 5268SOL    HW227441   1.758   2.602   1.464  0.1848 -2.2871 -0.8059
 5269SOL     OW27442   1.205   0.349   0.336 -0.2065  0.0210 -0.1531
 5269SOL    HW127443   1.189   0.350   0.430  2.0919 -1.2075  0.2540
 5269SOL    HW227444   1.211   0.255   0.319  0.9760  0.3525 -1.6237
 5270SOL     OW27445   4.197   4.212  14.927  0.3292  0.5055 -0.6630
 5270SOL    HW127446   4.126   4.184  14.870  0.0304  0.2087 -0.1431
 5270SOL    HW227447   4.269   4.161  14.889 -1.4989 -0.9072 -2.2222
 5271SOL     OW27448   4.530   4.685   0.826  0.0697 -0.2479 -0.0624
 5271SOL    HW127449   4.506   4.731   0.745  0.1440  1.6030  0.9628
 5271SOL    HW227450   4.457   4.625   0.844 -1.3499  1.2291 -0.7946
 5272SOL     OW27451   1.916   3.835  10.378  0.1360  0.1107  0.4389
 5272SOL    HW127452   1.877   3.780  10.310  0.0459  0.3868  0.2675
 5272SOL    HW227453   1.965   3.763  10.419  1.0549 -0.1950 -1.2021
 5273SOL     OW27454   3.357   0.435   5.524 -0.1691 -0.0607 -0.5569
 5273SOL    HW127455   3.286   0.436   5.588  0.7066 -1.5401  0.4486
 5273SOL    HW227456   3.307   0.468   5.450  1.2882  1.2710 -0.9514
 5274SOL     OW27457   4.317   3.509  14.625  0.0792  0.2988  0.4303
 5274SOL    HW127458   4.341   3.572  14.694 -2.6075  0.8290  0.8680
 5274SOL    HW227459   4.400   3.461  14.621  0.1374  0.1344  3.3782
 5275SOL     OW27460   1.761   3.208   7.114  0.0757 -0.2946 -0.1457
 5275SOL    HW127461   1.721   3.285   7.154  2.2236 -0.0923  1.5866
 5275SOL    HW227462   1.701   3.187   7.043  0.7259  2.1064 -1.3924
 5276SOL     OW27463   4.524   1.127   7.523  0.4117  0.0864 -0.6489
 5276SOL    HW127464   4.439   1.087   7.543  0.1487  0.9503 -0.0500
 5276SOL    HW227465   4.508   1.221   7.533 -0.3038 -0.2305  1.2372
 5277SOL     OW27466   4.027   0.164   5.245  0.0979  0.1324 -0.4950
 5277SOL    HW127467   4.073   0.235   5.291  2.3302 -0.9042 -1.0863
 5277SOL    HW227468   4.064   0.172   5.157 -0.7521  0.1091 -0.8445
 5278SOL     OW27469   0.855   1.449   6.955 -0.6319 -0.2855  0.5298
 5278SOL    HW127470   0.798   1.431   6.881 -3.0990  2.4265  1.7791
 5278SOL    HW227471   0.926   1.474   6.896 -0.2865  2.7984  2.2384
 5279SOL     OW27472   2.166   0.479   0.562  0.4668 -0.1434  0.6989
 5279SOL    HW127473   2.236   0.484   0.496  0.8465  0.8264  1.1719
 5279SOL    HW227474   2.159   0.385   0.577  0.6775 -0.5210 -1.6296
 5280SOL     OW27475   1.858   3.726   7.947 -0.0103  0.2249 -0.0443
 5280SOL    HW127476   1.879   3.688   8.032 -0.7848 -0.8990 -0.3570
 5280SOL    HW227477   1.879   3.650   7.893  0.0488  0.8671 -0.9320
 5281SOL     OW27478   4.550   0.449   3.915  0.4969 -0.3380  0.1914
 5281SOL    HW127479   4.605   0.495   3.978  1.0414  1.3092 -1.4846
 5281SOL    HW227480   4.556   0.355   3.932  0.0124 -0.4557 -0.2744
 5282SOL     OW27481   0.683   1.898   8.640 -0.4179  0.2538 -0.1171
 5282SOL    HW127482   0.685   1.972   8.579  2.1557  0.2038 -0.0865
 5282SOL    HW227483   0.596   1.858   8.635 -0.1208 -0.4855  0.6516
 5283SOL     OW27484   1.273   2.358   3.642 -0.5231  0.0886  0.4264
 5283SOL    HW127485   1.281   2.391   3.732  1.7312 -0.8758  0.5751
 5283SOL    HW227486   1.214   2.418   3.597 -2.1344 -1.1092  0.9202
 5284SOL     OW27487   2.688   1.472   8.026  0.5054  0.4058  0.4248
 5284SOL    HW127488   2.740   1.549   8.051 -1.0933  1.1912  1.3064
 5284SOL    HW227489   2.606   1.489   8.072  1.2947  1.1181  1.5578
 5285SOL     OW27490   0.089   2.478   2.634  0.1453 -0.5712  0.1296
 5285SOL    HW127491   0.051   2.462   2.720  1.4307 -1.2835  0.5745
 5285SOL    HW227492   0.169   2.523   2.664 -0.0424  0.4331 -0.8860
 5286SOL     OW27493   2.492   0.817   1.328  0.8928 -0.2178  0.5787
 5286SOL    HW127494   2.418   0.768   1.364  0.3727 -0.0049 -0.2005
 5286SOL    HW227495   2.572   0.784   1.369  1.3270 -0.1401 -0.2173
 5287SOL     OW27496   0.604   1.946   0.820 -0.3106 -0.1318 -0.0907
 5287SOL    HW127497   0.656   2.018   0.856  0.0984 -0.9117  0.8705
 5287SOL    HW227498   0.561   1.924   0.903 -1.1877 -0.3302 -0.5979
 5288SOL     OW27499   0.446   4.526   7.791  0.0041 -0.1047 -0.5166
 5288SOL    HW127500   0.503   4.524   7.715 -0.6049 -0.7335 -0.9601
 5288SOL    HW227501   0.378   4.459   7.789  0.4374 -0.4759 -2.3381
 5289SOL     OW27502   2.524   4.199  13.280  0.1309 -0.1242 -0.3369
 5289SOL    HW127503   2.617   4.199  13.302 -0.5522  3.1293  2.3951
 5289SOL    HW227504   2.484   4.178  13.364  1.8176 -1.5288  0.1145
 5290SOL     OW27505   2.254   1.020   3.439 -0.3539  0.3153  0.1853
 5290SOL    HW127506   2.169   0.975   3.440  0.1600 -0.6713 -0.0336
 5290SOL    HW227507   2.258   1.054   3.528  2.2357  0.4665 -0.0025
 5291SOL     OW27508   3.504   2.196  15.203  0.3412  0.5138 -0.2033
 5291SOL    HW127509   3.562   2.268  15.178 -0.1757  1.1334  0.3735
 5291SOL    HW227510   3.464   2.176  15.118 -2.0013  0.7249  0.8601
 5292SOL     OW27511   0.199   2.719   7.440 -0.0675  0.6140  0.2196
 5292SOL    HW127512   0.157   2.798   7.473  0.3217  0.6252  0.6889
 5292SOL    HW227513   0.253   2.740   7.363  0.9940 -0.1374  0.7500
 5293SOL     OW27514   1.695   2.501  17.596  0.0975 -0.7887  0.2356
 5293SOL    HW127515   1.780   2.458  17.609  0.2374 -0.8244 -0.7385
 5293SOL    HW227516   1.721   2.576  17.542  1.5295 -0.5065  1.3062
 5294SOL     OW27517   0.225   0.331   7.306 -0.4684  0.5647 -0.5323
 5294SOL    HW127518   0.200   0.414   7.266 -1.6151  0.9540  0.9996
 5294SOL    HW227519   0.296   0.364   7.360 -0.1291  0.8280 -1.1396
 5295SOL     OW27520   4.157   1.853  15.176 -0.3080 -0.6112  0.2842
 5295SOL    HW127521   4.070   1.885  15.151  0.1053  1.2126  1.2163
 5295SOL    HW227522   4.149   1.774  15.121  0.7886 -2.2445  2.4751
 5296SOL     OW27523   1.166   3.377   8.796 -0.3053 -0.8178  0.3246
 5296SOL    HW127524   1.229   3.346   8.731  0.4922 -1.3065  1.3245
 5296SOL    HW227525   1.163   3.469   8.771  0.0363 -0.3878  1.8536
 5297SOL     OW27526   0.561   4.321  13.078  0.2105 -0.6113 -0.4662
 5297SOL    HW127527   0.487   4.341  13.136  0.8313  2.4697 -0.7026
 5297SOL    HW227528   0.638   4.344  13.130  0.4849  1.1095 -1.6294
 5298SOL     OW27529   3.884   1.491   3.298  0.0412  0.5435  0.1352
 5298SOL    HW127530   3.789   1.482   3.296  0.1352 -0.0950 -1.8299
 5298SOL    HW227531   3.894   1.571   3.349  1.2725  0.0249  0.7032
 5299SOL     OW27532   2.848   4.468   7.375 -0.4977 -0.0719  0.0704
 5299SOL    HW127533   2.774   4.437   7.426 -2.1890  2.7245 -0.7033
 5299SOL    HW227534   2.842   4.559   7.405 -1.5926 -0.0325 -0.2875
 5300SOL     OW27535   3.242   1.724   6.287  0.5859  0.8505 -0.3077
 5300SOL    HW127536   3.239   1.759   6.198  1.2627  0.5769 -0.4420
 5300SOL    HW227537   3.240   1.808   6.332  0.5893  0.2192  0.8866
 5301SOL     OW27538   3.640   2.816   2.140  0.2838  0.3450  0.3384
 5301SOL    HW127539   3.546   2.804   2.150  0.3576  0.7593  1.5192
 5301SOL    HW227540   3.676   2.751   2.200  0.5713  1.3917  1.2914
 5302SOL     OW27541   0.430   2.177   2.733  0.9953  0.1716  0.0214
 5302SOL    HW127542   0.445   2.095   2.781 -1.2439  0.0576  0.5305
 5302SOL    HW227543   0.348   2.208   2.770  0.2462 -1.6403 -0.1378
 5303SOL     OW27544   4.205   1.853   6.232 -0.1824  0.3601  0.9789
 5303SOL    HW127545   4.146   1.928   6.243 -2.0884 -1.0474  0.4634
 5303SOL    HW227546   4.236   1.834   6.321 -2.5209 -1.5735  1.4127
 5304SOL     OW27547   2.364   0.439   4.385 -0.1472  0.0843  0.6083
 5304SOL    HW127548   2.426   0.435   4.312 -0.4267 -0.0325  0.3799
 5304SOL    HW227549   2.364   0.534   4.398  3.1252  0.1424  0.3714
 5305SOL     OW27550   1.864   2.763  17.195 -0.1258 -0.3323 -0.3862
 5305SOL    HW127551   1.911   2.828  17.143  0.6721 -0.1529  0.5464
 5305SOL    HW227552   1.772   2.770  17.170 -0.3649  0.7668  0.7546
 5306SOL     OW27553   2.518   1.782  12.610 -0.2506  0.2985 -0.5925
 5306SOL    HW127554   2.455   1.720  12.575 -1.5427  0.4585  1.4347
 5306SOL    HW227555   2.463   1.844  12.658 -0.9084  0.0110 -0.9839
 5307SOL     OW27556   4.380   2.683   4.480 -0.5241  0.4611  0.1310
 5307SOL    HW127557   4.339   2.701   4.564 -2.6897 -0.1794 -0.7967
 5307SOL    HW227558   4.330   2.741   4.423 -0.8571  0.4048  0.3676
 5308SOL     OW27559   2.653   3.747   8.631  0.6201 -0.3910 -0.5782
 5308SOL    HW127560   2.706   3.824   8.609  0.4750  1.0501  4.0624
 5308SOL    HW227561   2.695   3.703   8.706  0.0888  1.0108  0.5290
 5309SOL     OW27562   1.131   3.142  16.172 -0.2999  0.5179  0.0536
 5309SOL    HW127563   1.220   3.111  16.188 -0.8991 -1.0368  0.3730
 5309SOL    HW227564   1.146   3.202  16.099  1.0915  0.8625  0.6170
 5310SOL     OW27565   0.325   1.708  11.718  0.2845 -0.0358  0.0816
 5310SOL    HW127566   0.378   1.635  11.686  0.2219  0.9038 -2.1285
 5310SOL    HW227567   0.399   1.751  11.761  0.5263 -0.2308 -0.1398
 5311SOL     OW27568   1.090   0.630   7.964  0.2452 -0.0617 -0.1882
 5311SOL    HW127569   1.009   0.681   7.953  2.0183  2.8910  0.4402
 5311SOL    HW227570   1.057   0.556   8.014  0.5216 -0.0252  0.0486
 5312SOL     OW27571   0.124   1.389   6.969  0.1256  0.6405 -0.1890
 5312SOL    HW127572   0.144   1.363   7.059  1.7262 -2.5474 -1.4594
 5312SOL    HW227573   0.201   1.359   6.920 -1.8434 -1.0784 -2.2403
 5313SOL     OW27574   2.396   0.101   3.852 -0.9018  0.3786  0.0233
 5313SOL    HW127575   2.432   0.024   3.896 -1.4437  1.1449  1.8090
 5313SOL    HW227576   2.380   0.056   3.769  0.4542  0.9511 -0.5558
 5314SOL     OW27577   2.492   1.894  12.910  0.4101 -0.1374  0.1505
 5314SOL    HW127578   2.427   1.904  12.979  0.6591  3.6270 -0.1964
 5314SOL    HW227579   2.436   1.855  12.843  0.2312  0.6516 -0.1505
 5315SOL     OW27580   0.059   4.319  13.139 -0.2878  0.5826 -0.6753
 5315SOL    HW127581   0.077   4.225  13.134 -0.7904  0.5201 -1.2428
 5315SOL    HW227582   4.725   4.327  13.204  0.5686 -0.0028  0.3153
 5316SOL     OW27583   1.969   1.879   1.587 -0.5195 -0.2898  0.2277
 5316SOL    HW127584   1.901   1.842   1.642  0.2020 -1.1160  0.5592
 5316SOL    HW227585   2.002   1.942   1.652 -2.7200  1.0248  0.0500
 5317SOL     OW27586   1.411   1.737   9.480 -0.1602 -0.2400  0.1969
 5317SOL    HW127587   1.455   1.652   9.479 -0.4407 -0.3870  0.3657
 5317SOL    HW227588   1.319   1.717   9.463  0.2545 -2.5246  0.6550
 5318SOL     OW27589   4.179   2.635   4.148  0.0995  0.0845 -0.1081
 5318SOL    HW127590   4.239   2.701   4.182  0.3467  0.5199 -1.3973
 5318SOL    HW227591   4.235   2.606   4.077  0.1999 -1.5927  0.6335
 5319SOL     OW27592   0.638   2.452   2.485  0.5609 -0.8238 -0.3339
 5319SOL    HW127593   0.699   2.414   2.547  1.3473  1.3293  0.2054
 5319SOL    HW227594   0.563   2.464   2.544  1.9051  3.3541  0.5420
 5320SOL     OW27595   3.873   0.014   7.857  0.2881 -0.0081 -0.2702
 5320SOL    HW127596   3.915   0.009   7.943 -1.7371  0.4409  0.7387
 5320SOL    HW227597   3.926   4.683   7.813 -1.6109 -0.3788 -2.0204
 5321SOL     OW27598   0.666   0.231   3.128  0.1135  0.2660 -0.3471
 5321SOL    HW127599   0.657   0.276   3.212  0.0556  0.3853 -0.4169
 5321SOL    HW227600   0.606   0.157   3.135  0.2114  0.0243 -2.1033
 5322SOL     OW27601   2.578   3.156  14.498 -0.2252  0.3219  0.2613
 5322SOL    HW127602   2.519   3.103  14.551 -1.7816 -0.3195 -2.1186
 5322SOL    HW227603   2.546   3.241  14.527  1.1371  1.1678 -0.7436
 5323SOL     OW27604   4.322   1.470   8.307 -0.1935  0.5351  0.1415
 5323SOL    HW127605   4.388   1.449   8.241 -1.2102 -3.4823  0.4289
 5323SOL    HW227606   4.364   1.508   8.384 -1.9460  1.7898  0.4896
 5324SOL     OW27607   0.714   2.923   6.676  0.2510 -0.4364 -1.1033
 5324SOL    HW127608   0.643   2.863   6.652  0.3160 -1.0315  0.1407
 5324SOL    HW227609   0.756   2.882   6.752  1.2141  1.4528 -0.6278
 5325SOL     OW27610   4.253   1.812  16.524 -0.6452 -0.5088 -0.1437
 5325SOL    HW127611   4.271   1.835  16.616  0.0923 -1.4959 -0.0473
 5325SOL    HW227612   4.159   1.793  16.520 -0.3096 -1.9551 -0.8599
 5326SOL     OW27613   4.170   1.393  15.334 -0.3499  0.2398 -0.1930
 5326SOL    HW127614   4.168   1.489  15.337  1.8568  0.2833 -0.2310
 5326SOL    HW227615   4.178   1.370  15.241  0.9136 -0.7916  0.1770
 5327SOL     OW27616   0.025   3.279  15.722  0.1715  0.1473 -0.5840
 5327SOL    HW127617   0.064   3.254  15.806  0.1262  2.6190  0.1818
 5327SOL    HW227618   0.063   3.218  15.659  1.2581 -0.7992  0.9906
 5328SOL     OW27619   1.401   3.230   5.232 -0.3054 -0.4404  0.2132
 5328SOL    HW127620   1.343   3.200   5.302 -1.3213 -0.1585 -0.5077
 5328SOL    HW227621   1.411   3.323   5.253  0.9814 -1.2597  3.2380
 5329SOL     OW27622   1.005   2.181   7.650 -0.8608 -0.2780 -0.2426
 5329SOL    HW127623   1.091   2.139   7.646 -0.0253  1.4627 -0.5732
 5329SOL    HW227624   0.970   2.128   7.721  1.3939 -0.0589  1.0462
 5330SOL     OW27625   2.557   2.453   8.125 -0.1143  0.3597  0.0156
 5330SOL    HW127626   2.519   2.536   8.152 -2.8849 -1.0805  0.5620
 5330SOL    HW227627   2.484   2.423   8.070 -1.1622  1.4261  0.8328
 5331SOL     OW27628   1.836   3.731   4.777  0.1483  0.2605 -0.4223
 5331SOL    HW127629   1.916   3.767   4.738 -0.4649  0.1385 -1.7939
 5331SOL    HW227630   1.766   3.763   4.721  1.5662 -0.1178 -2.4082
 5332SOL     OW27631   1.280   1.052   2.050 -0.4699  0.2034 -0.3107
 5332SOL    HW127632   1.240   1.050   1.964  0.1211 -2.2789 -0.5171
 5332SOL    HW227633   1.303   1.145   2.042 -0.6326  0.2755  0.0360
 5333SOL     OW27634   1.681   0.158   8.797  0.0496 -0.2047  0.1515
 5333SOL    HW127635   1.736   0.136   8.872 -0.6158 -2.0334  0.0838
 5333SOL    HW227636   1.628   0.233   8.827 -0.0231  0.5054 -1.7477
 5334SOL     OW27637   3.686   2.128  11.263 -0.1014  0.1275 -0.0194
 5334SOL    HW127638   3.696   2.210  11.311  0.1178  0.1771 -0.1452
 5334SOL    HW227639   3.607   2.084  11.292 -1.1023  1.1333 -1.2383
 5335SOL     OW27640   3.842   4.733  10.693 -0.3702 -0.1858 -0.0851
 5335SOL    HW127641   3.791   0.040  10.763  1.8369 -0.8877  1.9480
 5335SOL    HW227642   3.795   4.651  10.678  1.6586 -1.0959 -1.4984
 5336SOL     OW27643   0.329   2.197   7.842 -0.7882 -0.4362  0.1160
 5336SOL    HW127644   0.261   2.213   7.908 -0.1899 -2.2540  1.1813
 5336SOL    HW227645   0.354   2.106   7.857 -1.6197 -0.8152 -0.7326
 5337SOL     OW27646   3.845   1.787   1.767 -0.4213 -0.3504 -1.0254
 5337SOL    HW127647   3.864   1.760   1.677  0.6335  0.7599 -1.1328
 5337SOL    HW227648   3.903   1.732   1.820  0.7989  0.0923 -1.9182
 5338SOL     OW27649   3.087   2.764   5.420  0.4115 -0.0911 -0.0607
 5338SOL    HW127650   3.164   2.709   5.435  1.2389  0.9609 -0.4417
 5338SOL    HW227651   3.114   2.800   5.335  2.5036  1.3244  1.2004
 5339SOL     OW27652   1.988   3.806   3.852  0.2864 -0.6703  0.2559
 5339SOL    HW127653   1.962   3.876   3.913  1.1477  0.4283 -0.6373
 5339SOL    HW227654   2.079   3.808   3.880  0.6452  0.6803 -1.0015
 5340SOL     OW27655   4.182   0.625  14.648 -0.1358  0.1426 -0.0396
 5340SOL    HW127656   4.149   0.631  14.737  1.0021  0.8952  0.3377
 5340SOL    HW227657   4.109   0.597  14.593  1.2756 -1.5363 -1.0798
 5341SOL     OW27658   4.037   1.289   0.527  0.0558  0.2343 -0.5589
 5341SOL    HW127659   4.045   1.194   0.527 -1.9264  0.0890  1.2173
 5341SOL    HW227660   4.045   1.307   0.620  1.0354 -0.3621 -0.5178
 5342SOL     OW27661   4.249   2.840   5.827 -0.1248  0.5806 -0.1099
 5342SOL    HW127662   4.289   2.757   5.800 -1.8392 -0.7562  1.4368
 5342SOL    HW227663   4.330   2.890   5.814 -0.3463  0.9567 -0.0131
 5343SOL     OW27664   1.536   0.927   1.916  0.1246 -0.3828 -0.0235
 5343SOL    HW127665   1.475   0.883   1.976 -0.0746 -0.1888 -0.0815
 5343SOL    HW227666   1.572   0.987   1.982  0.9512 -0.7224 -0.1724
 5344SOL     OW27667   3.732   1.520   1.272  0.6094 -0.4787  0.1414
 5344SOL    HW127668   3.811   1.528   1.218 -0.0511  0.6436 -0.6592
 5344SOL    HW227669   3.670   1.577   1.226 -0.5694 -1.2213  0.8346
 5345SOL     OW27670   1.907   0.639   3.368  0.2231  0.4250 -0.1685
 5345SOL    HW127671   1.833   0.578   3.368  1.2587 -0.8201 -1.7931
 5345SOL    HW227672   1.977   0.584   3.403  0.3921 -0.2165 -1.5031
 5346SOL     OW27673   0.467   1.658   2.301 -0.1402  0.1927  0.5776
 5346SOL    HW127674   0.397   1.649   2.236  1.3723 -0.8306 -0.9177
 5346SOL    HW227675   0.424   1.648   2.386 -0.9421 -0.2708  0.1221
 5347SOL     OW27676   1.005   2.084   5.525  0.5456 -0.3300 -0.1634
 5347SOL    HW127677   0.943   2.011   5.520 -0.2702  0.3669 -0.3961
 5347SOL    HW227678   0.977   2.127   5.606  0.7216 -1.9466  0.7624
 5348SOL     OW27679   2.099   1.846  10.541  0.2275  0.2691 -0.1189
 5348SOL    HW127680   2.161   1.791  10.492 -0.2335  2.2145 -2.9044
 5348SOL    HW227681   2.133   1.847  10.630  0.2216  0.3755 -0.1184
 5349SOL     OW27682   4.369   1.688   7.601  0.0230 -0.1253  0.2165
 5349SOL    HW127683   4.419   1.675   7.520 -2.2974  2.3804 -1.6494
 5349SOL    HW227684   4.400   1.777   7.618 -1.3704  0.4722 -0.2971
 5350SOL     OW27685   1.349   4.295   9.168  0.0915 -0.0827 -0.0787
 5350SOL    HW127686   1.282   4.301   9.100  1.5924  3.4545 -1.2157
 5350SOL    HW227687   1.296   4.263   9.241 -3.6414  1.2833 -2.1714
 5351SOL     OW27688   3.914   1.217   1.180 -0.0012  0.3000  0.4015
 5351SOL    HW127689   3.944   1.305   1.158  0.2392  0.4443  1.3201
 5351SOL    HW227690   3.825   1.228   1.147 -0.3164  2.2433  1.9412
 5352SOL     OW27691   3.292   3.068  16.470 -0.1124 -0.5217 -0.0794
 5352SOL    HW127692   3.296   3.097  16.561  2.8760 -0.7102 -0.1682
 5352SOL    HW227693   3.383   3.063  16.442  0.1111 -1.3814  0.7867
 5353SOL     OW27694   4.376   1.068  14.368  0.5050 -0.5486 -0.5445
 5353SOL    HW127695   4.348   1.011  14.296  0.1359  0.8932 -1.5298
 5353SOL    HW227696   4.415   1.010  14.433  0.6678  0.3356  0.1418
 5354SOL     OW27697   4.341   1.080   8.690 -0.4516 -0.4612  0.4079
 5354SOL    HW127698   4.399   1.155   8.679 -0.3002 -0.8780 -1.6938
 5354SOL    HW227699   4.320   1.075   8.596  1.2313  0.6390 -0.0290
 5355SOL     OW27700   0.081   1.947   5.812 -0.3867 -0.4389  0.5698
 5355SOL    HW127701   0.161   1.928   5.861 -0.1982 -1.6770 -0.2388
 5355SOL    HW227702   0.120   1.976   5.730  1.9750 -0.8134  1.5623
 5356SOL     OW27703   4.455   2.569  13.413  0.6265  0.5819 -0.0805
 5356SOL    HW127704   4.549   2.560  13.399  0.3636 -1.4588 -0.5569
 5356SOL    HW227705   4.436   2.641  13.354  4.1355  1.8504  0.3485
 5357SOL     OW27706   0.220   3.295   6.073  0.6635  0.1169  0.3813
 5357SOL    HW127707   0.235   3.384   6.041 -0.5963  0.1820 -0.0178
 5357SOL    HW227708   0.289   3.242   6.034  2.2915  1.7960  0.9659
 5358SOL     OW27709   1.592   2.086   6.544 -0.0178  0.1822 -0.2050
 5358SOL    HW127710   1.667   2.076   6.603  0.9266 -2.0248 -1.7647
 5358SOL    HW227711   1.528   2.046   6.603 -1.3219  1.8830 -0.4619
 5359SOL     OW27712   3.820   3.775   5.225  0.1238 -0.3722 -0.1842
 5359SOL    HW127713   3.848   3.821   5.146  0.9890 -0.8432 -0.1596
 5359SOL    HW227714   3.729   3.800   5.236 -0.4601 -2.8452  0.6564
 5360SOL     OW27715   2.930   2.185   6.525 -0.5251  0.3054  0.3599
 5360SOL    HW127716   3.017   2.194   6.566 -0.1352 -0.9009 -0.1970
 5360SOL    HW227717   2.954   2.139   6.444 -2.0037 -0.2118  0.2273
 5361SOL     OW27718   1.282   3.032   7.521  0.2106 -0.1419  0.1331
 5361SOL    HW127719   1.370   3.063   7.500 -0.8404  2.4115 -0.5144
 5361SOL    HW227720   1.261   2.979   7.445 -2.4744  1.2295 -0.0738
 5362SOL     OW27721   2.068   1.285   2.657 -0.3640 -0.2796  0.2291
 5362SOL    HW127722   1.995   1.332   2.615 -1.0862 -2.7381 -1.2198
 5362SOL    HW227723   2.139   1.342   2.628 -0.9782  1.1083  1.4298
 5363SOL     OW27724   2.630   3.502  15.040 -0.6047  0.9369 -0.7005
 5363SOL    HW127725   2.607   3.595  15.033 -0.4264  1.1683  1.7001
 5363SOL    HW227726   2.575   3.460  15.105  1.1092 -0.6166 -0.2472
 5364SOL     OW27727   4.486   1.957  10.406 -0.3047  0.1643  0.1327
 5364SOL    HW127728   4.391   1.966  10.408 -0.3061  0.4621 -1.5998
 5364SOL    HW227729   4.510   2.023  10.471 -1.5851 -0.7389  1.5372
 5365SOL     OW27730   2.358   0.209  16.773  0.0284  0.6389  0.4786
 5365SOL    HW127731   2.392   0.160  16.698 -0.2013  1.8960 -0.4568
 5365SOL    HW227732   2.293   0.267  16.734  0.6574 -0.7078 -2.5838
 5366SOL     OW27733   0.364   1.433   3.394 -0.2721 -0.0774 -0.0178
 5366SOL    HW127734   0.295   1.389   3.344  1.4516 -2.3940 -0.3887
 5366SOL    HW227735   0.343   1.526   3.401  1.0712  0.2153  0.0447
 5367SOL     OW27736   2.032   3.824   5.361 -0.2614 -0.2948  0.5141
 5367SOL    HW127737   1.963   3.770   5.401  0.1325 -1.0240  0.2201
 5367SOL    HW227738   1.994   3.848   5.277  0.1077  2.4456  1.1425
 5368SOL     OW27739   0.041   1.560   8.737 -0.1792  0.4659 -0.2038
 5368SOL    HW127740   0.080   1.641   8.772  0.5541 -0.8541  2.0230
 5368SOL    HW227741   4.684   1.573   8.758 -0.4023 -1.8903  0.2782
 5369SOL     OW27742   0.546   2.562   7.608  0.0852 -0.5803  0.7970
 5369SOL    HW127743   0.628   2.546   7.654  0.6611 -1.1934 -0.4603
 5369SOL    HW227744   0.486   2.553   7.682 -1.6551 -1.4555 -0.7167
 5370SOL     OW27745   0.706   3.720   9.274  0.0130 -0.2188 -0.3602
 5370SOL    HW127746   0.796   3.739   9.251  0.0649  1.4107  1.1655
 5370SOL    HW227747   0.679   3.793   9.330 -1.3983 -0.4890 -0.6907
 5371SOL     OW27748   4.123   1.596   5.242 -0.1316 -0.0106  0.1696
 5371SOL    HW127749   4.195   1.624   5.186 -0.1175  0.3112  0.3538
 5371SOL    HW227750   4.074   1.677   5.244  0.9537  0.6511  0.0873
 5372SOL     OW27751   2.582   0.544  13.541  0.6785  0.1715  0.3582
 5372SOL    HW127752   2.518   0.489  13.586  1.3905 -0.8669  0.1312
 5372SOL    HW227753   2.552   0.633  13.559 -0.7910 -0.9824  3.6274
 5373SOL     OW27754   3.306   4.143   3.220 -0.1398 -0.1138  0.3856
 5373SOL    HW127755   3.299   4.130   3.315 -1.6982  0.3508  0.3450
 5373SOL    HW227756   3.384   4.195   3.203 -1.6066  2.2106  0.6542
 5374SOL     OW27757   0.319   1.506   7.636  0.6682  0.2923 -0.5082
 5374SOL    HW127758   0.315   1.574   7.570  2.2402  1.3393  0.4675
 5374SOL    HW227759   0.413   1.514   7.655  0.7715  2.4345 -1.9933
 5375SOL     OW27760   4.672   0.092  14.868  0.0651 -0.2117  0.3205
 5375SOL    HW127761   4.615   0.023  14.901  1.1789 -1.5274 -0.4812
 5375SOL    HW227762   4.606   0.143  14.822 -0.8690 -1.3113  0.4603
 5376SOL     OW27763   1.678   2.089   2.827 -0.4378  0.2053  0.1701
 5376SOL    HW127764   1.670   2.108   2.734  2.5567  0.1524 -0.0945
 5376SOL    HW227765   1.734   2.012   2.815  0.1264  0.8064 -0.9416
 5377SOL     OW27766   4.499   3.185   1.292 -0.4454  0.2872 -0.5609
 5377SOL    HW127767   4.481   3.091   1.302 -0.3867  0.1651 -1.6855
 5377SOL    HW227768   4.580   3.183   1.242  0.0058 -1.7255  0.2283
 5378SOL     OW27769   4.007   4.643   2.163 -0.6120  0.0208 -0.3008
 5378SOL    HW127770   4.019   4.731   2.199  1.0221 -1.1537  2.0111
 5378SOL    HW227771   3.994   4.590   2.242  0.3624  1.2685  0.6959
 5379SOL     OW27772   4.359   0.171   3.556 -0.9471 -0.0112  0.5685
 5379SOL    HW127773   4.371   0.266   3.561 -3.0164  0.2250  0.9405
 5379SOL    HW227774   4.422   0.138   3.621 -0.5952  0.6260  0.5534
 5380SOL     OW27775   1.178   3.583  17.420  0.3691 -0.2321 -0.2659
 5380SOL    HW127776   1.229   3.585  17.339 -1.2045  2.0583 -1.1932
 5380SOL    HW227777   1.236   3.617  17.488  0.1627 -3.5195  1.5270
 5381SOL     OW27778   3.861   0.428   9.140  0.3138 -0.3943 -0.7088
 5381SOL    HW127779   3.897   0.494   9.199 -1.6780  0.0119  0.0563
 5381SOL    HW227780   3.865   0.348   9.192  0.4994  0.3679  0.4527
 5382SOL     OW27781   2.512   4.447   8.414  0.1883 -0.1940 -0.0369
 5382SOL    HW127782   2.541   4.412   8.330 -1.4123 -0.2315 -0.5675
 5382SOL    HW227783   2.601   4.447   8.450  0.2692 -2.2209 -0.2733
 5383SOL     OW27784   0.625   0.762   6.567  0.1855  0.3925  0.0360
 5383SOL    HW127785   0.660   0.761   6.656  0.8207 -0.4662 -0.2318
 5383SOL    HW227786   0.660   0.680   6.532 -2.1915 -1.0116  0.9125
 5384SOL     OW27787   3.031   2.947  11.980 -0.6026 -0.2658  0.2028
 5384SOL    HW127788   2.972   2.879  11.947 -0.1245 -0.9004  0.6568
 5384SOL    HW227789   3.039   2.990  11.895 -1.0987 -2.3879 -0.9163
 5385SOL     OW27790   4.009   1.574   6.238 -0.0069 -0.5728 -0.2649
 5385SOL    HW127791   4.055   1.575   6.322 -0.9689 -1.5032  0.2691
 5385SOL    HW227792   3.961   1.492   6.250 -1.3303 -0.1640 -2.5860
 5386SOL     OW27793   0.805   2.900   2.970  0.5089 -0.2360  0.7026
 5386SOL    HW127794   0.737   2.908   3.037  0.8266 -1.3344  1.1552
 5386SOL    HW227795   0.851   2.832   3.020 -0.5901 -1.4465  0.0836
 5387SOL     OW27796   0.364   2.416   3.184 -0.0625  0.4973 -0.0991
 5387SOL    HW127797   0.435   2.366   3.225 -0.5936  0.0882  0.3146
 5387SOL    HW227798   0.322   2.436   3.268  1.2018  0.7334  0.4910
 5388SOL     OW27799   2.600   2.909   9.599 -0.2970  0.0755  0.4799
 5388SOL    HW127800   2.668   2.845   9.579 -0.1919  0.1386  0.6368
 5388SOL    HW227801   2.553   2.901   9.515  3.9830 -0.2161 -1.8677
 5389SOL     OW27802   3.349   3.303   9.323 -0.5411 -0.6613  0.4057
 5389SOL    HW127803   3.307   3.218   9.310  0.2440 -0.6800 -1.7985
 5389SOL    HW227804   3.343   3.311   9.419  2.1324  1.3948  0.3949
 5390SOL     OW27805   2.120   4.021   5.104  0.0315  1.0204 -0.0253
 5390SOL    HW127806   2.053   4.050   5.042 -0.5597 -2.1181 -0.8477
 5390SOL    HW227807   2.154   3.945   5.057  1.5219  2.2244 -0.8885
 5391SOL     OW27808   1.536   1.474   9.491 -0.0702 -0.3321  0.8579
 5391SOL    HW127809   1.566   1.399   9.439 -1.0809  1.2556 -2.0478
 5391SOL    HW227810   1.608   1.509   9.543 -0.8709  1.1974  0.9263
 5392SOL     OW27811   3.349   3.160  16.718 -0.5370 -0.4375 -0.3173
 5392SOL    HW127812   3.441   3.159  16.743 -0.6635 -0.7409  0.1504
 5392SOL    HW227813   3.316   3.222  16.783 -1.7077  0.8436 -2.1506
 5393SOL     OW27814   1.536   4.166   2.678 -0.1487  0.1373 -0.4070
 5393SOL    HW127815   1.498   4.251   2.656  1.1206  0.9956  0.6697
 5393SOL    HW227816   1.610   4.203   2.727  0.1110 -2.7365  1.3207
 5394SOL     OW27817   3.483   4.699   8.151 -0.3823  0.0104 -0.0474
 5394SOL    HW127818   3.574   4.726   8.139 -0.3877  0.8655  1.8346
 5394SOL    HW227819   3.442   0.010   8.078  0.7981 -0.4450 -0.9950
 5395SOL     OW27820   3.274   1.535   0.972  0.2300 -0.3764  0.0062
 5395SOL    HW127821   3.266   1.493   0.887  0.6574 -0.2705 -0.0908
 5395SOL    HW227822   3.204   1.489   1.017 -0.1141  0.3513  0.2206
 5396SOL     OW27823   2.393   1.218   8.699  0.0361 -0.2144 -0.0255
 5396SOL    HW127824   2.312   1.248   8.659 -0.4439 -0.0656  1.0924
 5396SOL    HW227825   2.391   1.285   8.766 -2.2348 -1.8675  1.5506
 5397SOL     OW27826   2.864   1.034   6.856  0.1333  0.2463 -0.1296
 5397SOL    HW127827   2.801   1.053   6.926 -0.2211  1.8384 -0.8727
 5397SOL    HW227828   2.790   0.999   6.806  0.9946 -1.0556 -0.4791
 5398SOL     OW27829   4.161   0.616   2.937  0.0282  0.0297  0.1645
 5398SOL    HW127830   4.221   0.630   2.864  2.2218 -0.4825  1.8543
 5398SOL    HW227831   4.163   0.701   2.983 -0.6360  0.1889 -0.0951
 5399SOL     OW27832   3.517   1.982   2.376  0.1122  0.2839 -0.3199
 5399SOL    HW127833   3.552   1.910   2.429 -0.5464  1.1054  1.2061
 5399SOL    HW227834   3.579   1.993   2.304 -0.3323 -2.1523 -1.0960
 5400SOL     OW27835   1.119   2.969  13.379 -0.7604 -0.4454 -0.6317
 5400SOL    HW127836   1.208   2.994  13.354 -0.5217  1.6019  2.3005
 5400SOL    HW227837   1.086   2.968  13.289 -3.1221 -0.0557  0.2299
 5401SOL     OW27838   1.443   2.561   2.578 -0.4240  0.2985 -0.2480
 5401SOL    HW127839   1.390   2.639   2.596  1.3183  1.5377 -0.5576
 5401SOL    HW227840   1.450   2.583   2.485  1.1733  0.4153 -0.0912
 5402SOL     OW27841   2.752   1.571   1.230  0.1995 -0.1483  0.3033
 5402SOL    HW127842   2.746   1.590   1.136  0.5136  0.4880  0.4073
 5402SOL    HW227843   2.832   1.612   1.262  1.1137 -1.9778  0.3660
 5403SOL     OW27844   4.202   1.703  13.765  0.5554  0.2097  0.4579
 5403SOL    HW127845   4.144   1.731  13.836  1.6170 -0.3657  1.5629
 5403SOL    HW227846   4.147   1.634  13.728 -1.1787  1.6448  0.3627
 5404SOL     OW27847   2.258   3.016  13.642  0.1024 -0.1296 -0.1275
 5404SOL    HW127848   2.206   3.097  13.637  0.0645 -0.3794 -3.8208
 5404SOL    HW227849   2.193   2.951  13.670  0.4423 -0.8125 -0.9244
 5405SOL     OW27850   2.935   4.121   9.690 -0.1060 -0.1655 -0.3098
 5405SOL    HW127851   3.014   4.106   9.638  1.4945  0.1207  2.0477
 5405SOL    HW227852   2.971   4.159   9.770 -0.6675 -4.2331  1.9226
 5406SOL     OW27853   3.434   1.246   9.411  0.4403 -0.2941 -0.5455
 5406SOL    HW127854   3.465   1.336   9.400  0.5662 -0.3033 -0.2792
 5406SOL    HW227855   3.509   1.207   9.457  1.0863  0.9027 -0.5799
 5407SOL     OW27856   3.167   3.933  10.092  0.4061 -0.2202  0.1458
 5407SOL    HW127857   3.214   4.016  10.105  1.7066 -0.4882 -2.7943
 5407SOL    HW227858   3.082   3.940  10.135  1.2445 -0.1949  1.7978
 5408SOL     OW27859   1.164   2.669   5.136 -0.3576 -0.0069 -0.1312
 5408SOL    HW127860   1.145   2.763   5.137 -0.8850 -0.1388  1.2776
 5408SOL    HW227861   1.259   2.672   5.121 -0.3566  0.7069  0.0378
 5409SOL     OW27862   0.230   2.160  13.223 -0.0189  0.2103  0.3749
 5409SOL    HW127863   0.158   2.199  13.273 -1.0857 -0.3955 -0.6852
 5409SOL    HW227864   0.300   2.225  13.221  1.0432 -1.0583 -2.8269
 5410SOL     OW27865   4.580   1.630   1.850 -0.0652  0.5533 -0.4842
 5410SOL    HW127866   4.634   1.707   1.834 -2.0698  1.8485 -1.0668
 5410SOL    HW227867   4.644   1.563   1.874 -0.2479 -0.2370 -2.2040
 5411SOL     OW27868   3.819   1.921  16.667  0.5990  0.1205  0.1025
 5411SOL    HW127869   3.882   1.920  16.739 -2.9042  0.9795  3.1482
 5411SOL    HW227870   3.804   2.016  16.659  0.3234  0.0885  0.2435
 5412SOL     OW27871   2.085   0.460   7.363 -0.4492 -0.2323 -0.1846
 5412SOL    HW127872   2.142   0.406   7.307 -0.1072  1.2293 -1.2234
 5412SOL    HW227873   2.145   0.526   7.396 -0.9746  0.3087 -0.3079
 5413SOL     OW27874   3.575   2.252  12.124  0.0019 -0.1539  0.2956
 5413SOL    HW127875   3.503   2.292  12.173 -0.1857  1.4515 -1.2722
 5413SOL    HW227876   3.552   2.283  12.037  1.2303 -1.1139 -0.3713
 5414SOL     OW27877   2.427   1.048   1.182  0.2222  0.2400 -0.1752
 5414SOL    HW127878   2.413   0.976   1.121  0.5058  0.4167 -0.4543
 5414SOL    HW227879   2.453   1.001   1.261 -0.6736 -2.3748 -1.4365
 5415SOL     OW27880   3.645   4.665   1.250 -0.1140  0.2554 -0.0443
 5415SOL    HW127881   3.716   4.715   1.290  0.3387 -1.7142  1.5755
 5415SOL    HW227882   3.686   4.591   1.205 -0.8267 -0.4339  0.4359
 5416SOL     OW27883   3.563   2.641   8.498 -0.4676 -0.1402 -0.0109
 5416SOL    HW127884   3.496   2.698   8.536 -0.2489  0.0692  0.0657
 5416SOL    HW227885   3.647   2.687   8.511  0.1336 -0.7235 -1.8045
 5417SOL     OW27886   2.066   1.785   3.304  0.4901  0.3014 -0.1611
 5417SOL    HW127887   2.132   1.837   3.258  0.3892  1.5198  1.0677
 5417SOL    HW227888   1.987   1.826   3.268  0.8321  1.0025 -0.1095
 5418SOL     OW27889   2.024   0.082  12.919  0.2181  0.1915 -0.3467
 5418SOL    HW127890   2.115   0.059  12.942 -0.2172  0.1736  1.3722
 5418SOL    HW227891   2.031   0.176  12.933  1.9341  0.3218 -2.0822
 5419SOL     OW27892   0.620   1.891   7.101  0.2035  0.1405 -0.3045
 5419SOL    HW127893   0.562   1.846   7.038  0.4429 -1.4759  0.6087
 5419SOL    HW227894   0.556   1.890   7.172 -1.0861 -1.8094 -1.4638
 5420SOL     OW27895   2.764   4.617  10.335  0.0143  0.2928 -0.1392
 5420SOL    HW127896   2.816   4.689  10.301 -0.8368  1.1515  0.3950
 5420SOL    HW227897   2.689   4.661  10.375  1.2700  3.3110 -1.1197
 5421SOL     OW27898   2.861   4.422   9.616 -1.0221 -0.2805 -0.4790
 5421SOL    HW127899   2.869   4.516   9.632  0.9179 -0.4659 -0.3706
 5421SOL    HW227900   2.945   4.392   9.650 -0.2583  0.2412 -1.9322
 5422SOL     OW27901   2.687   4.456   6.957  0.2459  0.2988  0.2552
 5422SOL    HW127902   2.647   4.530   7.003  0.2017  1.1193 -1.0842
 5422SOL    HW227903   2.614   4.414   6.911  1.5374  0.2628 -1.7558
 5423SOL     OW27904   1.113   0.404  12.421  0.9582  0.6035  1.2554
 5423SOL    HW127905   1.096   0.312  12.439 -0.5259  0.4877 -0.6814
 5423SOL    HW227906   1.152   0.394  12.334  0.7051  0.5482  1.1470
 5424SOL     OW27907   2.584   0.311  14.897  0.1245 -0.1652 -0.9341
 5424SOL    HW127908   2.512   0.344  14.950 -0.1283 -0.9682 -0.7934
 5424SOL    HW227909   2.663   0.311  14.952 -1.6425  4.0640  1.6170
 5425SOL     OW27910   3.014   0.522  17.686 -0.1948  0.0563 -0.1748
 5425SOL    HW127911   3.081   0.465  17.723  0.0393 -0.0507 -0.7705
 5425SOL    HW227912   2.940   0.508   0.006 -0.1006 -2.6203 -0.7037
 5426SOL     OW27913   4.589   4.242  10.388 -0.7646  0.3259 -0.2123
 5426SOL    HW127914   4.532   4.181  10.342  0.5680 -1.2718  0.2839
 5426SOL    HW227915   4.677   4.208  10.372 -0.6490  0.0295  1.0029
 5427SOL     OW27916   1.795   3.144   9.791  0.5034  0.0485 -0.1139
 5427SOL    HW127917   1.853   3.218   9.810  0.7928 -0.8122  2.3122
 5427SOL    HW227918   1.741   3.138   9.869 -0.5821  0.1896 -0.8557
 5428SOL     OW27919   1.080   0.517   2.504 -0.4912 -0.1426 -0.4488
 5428SOL    HW127920   1.037   0.592   2.547 -3.7120 -1.0687 -2.0335
 5428SOL    HW227921   1.173   0.537   2.498 -0.1493 -0.9948  2.0486
 5429SOL     OW27922   0.017   1.246   1.421  0.0026  0.1934 -0.6629
 5429SOL    HW127923   0.074   1.202   1.484 -0.5493 -0.6873 -0.7661
 5429SOL    HW227924   4.677   1.250   1.480  0.3634 -0.9033 -0.1178
 5430SOL     OW27925   4.609   4.327   9.538  0.4871  0.5376 -0.3103
 5430SOL    HW127926   4.516   4.314   9.519  0.7842 -0.2852 -1.2159
 5430SOL    HW227927   4.643   4.327   9.449 -0.7066  2.5810 -0.7668
 5431SOL     OW27928   3.181   2.538  13.893 -0.1739 -0.0689  0.1900
 5431SOL    HW127929   3.154   2.451  13.863 -0.6612 -0.4835  1.8405
 5431SOL    HW227930   3.254   2.558  13.834  0.2498  0.8648  1.0209
 5432SOL     OW27931   0.590   2.222   0.921 -0.6273 -0.4588  1.0543
 5432SOL    HW127932   0.549   2.216   0.835  2.0856  1.7354 -0.3563
 5432SOL    HW227933   0.575   2.313   0.947  1.1172 -0.2557  1.3006
 5433SOL     OW27934   1.911   3.306   5.778  0.4214 -0.4592  0.1596
 5433SOL    HW127935   1.885   3.307   5.870  0.7164 -0.7499  0.2459
 5433SOL    HW227936   1.839   3.261   5.734  2.7509 -3.7894 -0.2307
 5434SOL     OW27937   1.301   2.582   5.736 -0.3969  0.6914 -0.1685
 5434SOL    HW127938   1.274   2.507   5.790  0.6814  0.6968  0.3798
 5434SOL    HW227939   1.396   2.587   5.743 -0.2236 -0.2052 -1.9885
 5435SOL     OW27940   0.043   4.593   9.857 -0.0392  0.2709 -0.1949
 5435SOL    HW127941   4.703   4.548   9.818 -0.4934 -0.0364  1.0207
 5435SOL    HW227942   0.110   4.524   9.862 -0.4552 -0.1242 -0.0004
 5436SOL     OW27943   0.144   3.834   6.510 -0.7209 -0.5061 -0.0563
 5436SOL    HW127944   0.049   3.827   6.514 -0.7375 -0.7523 -0.8497
 5436SOL    HW227945   0.166   3.864   6.599 -2.2588  0.2927  0.0506
 5437SOL     OW27946   3.793   2.024  12.045 -0.0107  0.1191 -0.2559
 5437SOL    HW127947   3.867   1.978  12.083  0.9793  0.5677 -1.6659
 5437SOL    HW227948   3.799   2.110  12.087 -1.1491 -1.3162  2.8811
 5438SOL     OW27949   1.322   0.071   5.129 -0.2063  0.0187  0.0099
 5438SOL    HW127950   1.390   0.005   5.145  0.4194  0.5187 -0.6172
 5438SOL    HW227951   1.243   0.029   5.163 -0.5500  2.3211  2.0341
 5439SOL     OW27952   0.360   3.255  12.604 -0.4501 -0.1695 -0.1460
 5439SOL    HW127953   0.317   3.316  12.664  1.1532  0.3256  0.5070
 5439SOL    HW227954   0.397   3.196  12.670 -2.4822  0.0770  1.2291
 5440SOL     OW27955   3.713   2.896   2.459 -0.2142  0.2904 -0.1308
 5440SOL    HW127956   3.741   2.812   2.494 -2.1243  0.0525  0.8502
 5440SOL    HW227957   3.766   2.902   2.380 -0.3632  0.7551 -0.1958
 5441SOL     OW27958   4.302   2.854   4.279 -0.4176  0.0883 -0.4145
 5441SOL    HW127959   4.387   2.894   4.260 -0.1840  0.6685  1.8025
 5441SOL    HW227960   4.261   2.930   4.321 -0.8052 -1.4705  2.0264
 5442SOL     OW27961   0.754   2.730  17.307  0.4772 -0.4363 -0.7723
 5442SOL    HW127962   0.758   2.796  17.238  1.1108  0.8195  0.4656
 5442SOL    HW227963   0.660   2.724  17.323  0.8343  0.1026  1.5548
 5443SOL     OW27964   0.168   2.627   3.030  0.7617  0.2810 -0.1016
 5443SOL    HW127965   0.135   2.543   3.062 -2.6943  2.4736  2.1561
 5443SOL    HW227966   0.223   2.593   2.959  0.5970 -0.7514  0.2738
 5444SOL     OW27967   0.119   1.201   3.506 -0.0878  0.3534 -0.1755
 5444SOL    HW127968   0.166   1.118   3.494  0.0979  0.1909  1.6575
 5444SOL    HW227969   0.039   1.168   3.549 -0.8641  1.3270 -0.8805
 5445SOL     OW27970   1.651   2.814   1.036  0.2836 -0.7646  0.1306
 5445SOL    HW127971   1.571   2.765   1.054 -0.7129  0.0110 -2.1505
 5445SOL    HW227972   1.707   2.775   1.103  1.6442 -0.0061 -0.5496
 5446SOL     OW27973   3.480   3.292  17.432 -0.5683 -0.0051 -0.5410
 5446SOL    HW127974   3.397   3.322  17.470 -0.1946 -0.0784  0.3384
 5446SOL    HW227975   3.496   3.217  17.489  0.4772  0.0412 -0.7875
 5447SOL     OW27976   2.031   2.939   2.261 -0.1706  0.4188 -0.5183
 5447SOL    HW127977   1.972   2.965   2.331 -1.0549  1.9581 -1.8589
 5447SOL    HW227978   2.036   2.843   2.268 -0.3382  0.3687 -1.1137
 5448SOL     OW27979   0.202   2.466   7.524 -0.3806  0.1943  0.7108
 5448SOL    HW127980   0.190   2.559   7.504 -1.1986 -0.2891 -1.0084
 5448SOL    HW227981   0.291   2.453   7.490  0.4127  3.5400  1.5144
 5449SOL     OW27982   4.436   1.184  11.904  0.4808  0.4182 -0.1472
 5449SOL    HW127983   4.353   1.139  11.886 -1.3053  3.8432 -0.5224
 5449SOL    HW227984   4.415   1.277  11.899 -2.5816 -0.1819  1.0076
 5450SOL     OW27985   0.922   3.127  16.369  0.5207  0.6775  0.1768
 5450SOL    HW127986   0.899   3.049  16.320  0.6465  1.7945 -1.6763
 5450SOL    HW227987   1.004   3.149  16.324 -0.3765 -0.9512 -2.2722
 5451SOL     OW27988   0.400   3.449   5.375 -0.1604 -0.1381  0.6736
 5451SOL    HW127989   0.473   3.457   5.438  0.0904  2.5710  0.0300
 5451SOL    HW227990   0.438   3.392   5.309 -0.7789  1.0317 -0.6924
 5452SOL     OW27991   1.713   0.435  12.706 -0.1876 -0.3001 -0.0481
 5452SOL    HW127992   1.729   0.487  12.627  0.0317 -1.7106 -0.9336
 5452SOL    HW227993   1.727   0.504  12.771  3.1221 -1.9466  1.0336
 5453SOL     OW27994   2.556   4.728   6.808 -0.1316 -0.4241 -0.4077
 5453SOL    HW127995   2.583   0.059   6.745 -2.2786  3.6722  2.9694
 5453SOL    HW227996   2.592   0.038   6.884 -0.4544 -1.4320  0.3594
 5454SOL     OW27997   2.031   0.645  13.814 -0.1146  0.2682  0.4916
 5454SOL    HW127998   1.983   0.665  13.734 -3.0416 -0.5912  2.0364
 5454SOL    HW227999   2.013   0.552  13.825  2.8679 -0.3572  0.1463
 5455SOL     OW28000   4.188   1.078  15.018 -0.4635  0.5399  0.4132
 5455SOL    HW128001   4.195   1.117  14.931  2.5690 -0.8702  0.0213
 5455SOL    HW228002   4.265   1.020  15.023  1.9249  3.7523  1.1723
 5456SOL     OW28003   1.923   2.082   4.006 -0.3818 -0.0018 -0.3813
 5456SOL    HW128004   1.963   2.169   3.996  0.4327 -0.4083 -0.7114
 5456SOL    HW228005   1.903   2.080   4.099  0.2845 -1.0246 -0.2622
 5457SOL     OW28006   3.454   0.055   4.051  0.7912 -0.3142  0.0041
 5457SOL    HW128007   3.386   0.052   3.984  0.6215 -2.7275  0.3025
 5457SOL    HW228008   3.496   4.708   4.027 -1.3082 -0.8184 -2.0086
 5458SOL     OW28009   4.354   0.696   2.734  0.1964 -0.0678 -0.4176
 5458SOL    HW128010   4.381   0.786   2.716  1.7959 -0.0691  2.0215
 5458SOL    HW228011   4.430   0.644   2.705  1.1508  0.3173  1.3906
 5459SOL     OW28012   0.307   3.923   3.008 -0.0838  0.6232  0.2034
 5459SOL    HW128013   0.269   3.849   3.056  0.3209  0.3138  0.0517
 5459SOL    HW228014   0.350   3.973   3.077  0.1532 -0.3295  0.7502
 5460SOL     OW28015   0.615   0.143   7.908  0.0415 -0.0639 -0.0865
 5460SOL    HW128016   0.635   0.056   7.944 -0.0050  0.2820  0.7805
 5460SOL    HW228017   0.530   0.124   7.867  1.8306 -2.2206 -2.7834
 5461SOL     OW28018   0.251   1.446   5.450 -0.1740 -0.2056 -0.3669
 5461SOL    HW128019   0.286   1.535   5.452 -1.8897  0.4266  1.8284
 5461SOL    HW228020   0.182   1.445   5.516  0.5890  2.7790  0.4774
 5462SOL     OW28021   4.517   0.332   0.335  0.0787  0.0804  0.2914
 5462SOL    HW128022   4.527   0.324   0.240 -1.0370  1.2071  0.0861
 5462SOL    HW228023   4.591   0.284   0.372  0.1137  2.3748  3.1816
 5463SOL     OW28024   3.573   1.297   1.872 -0.4243  0.0215  0.0595
 5463SOL    HW128025   3.508   1.366   1.860  1.8411  2.1078 -0.3321
 5463SOL    HW228026   3.646   1.346   1.833 -0.4107  0.3183  0.4596
 5464SOL     OW28027   1.790   0.970   1.556 -0.2434 -0.1168 -0.4373
 5464SOL    HW128028   1.720   0.923   1.602 -1.2593  1.1989 -0.6446
 5464SOL    HW228029   1.852   0.979   1.629  0.1164  0.9456 -0.8801
 5465SOL     OW28030   0.422   4.535   0.723  0.1596 -0.0400 -0.1472
 5465SOL    HW128031   0.433   4.610   0.665  0.0274  0.2039  0.1444
 5465SOL    HW228032   0.419   4.584   0.806  1.3896 -0.1648 -0.0213
 5466SOL     OW28033   1.046   2.792   3.567  0.1762 -0.3045 -0.2532
 5466SOL    HW128034   0.963   2.817   3.527  0.3732  1.8378  0.7048
 5466SOL    HW228035   1.054   2.857   3.636  2.6657 -1.1817  0.2832
 5467SOL     OW28036   2.637   0.136   5.777  0.2294  0.2321 -0.2226
 5467SOL    HW128037   2.676   0.161   5.693  2.0552  1.8859  1.1351
 5467SOL    HW228038   2.596   0.056   5.744 -0.6887  0.5847  0.0831
 5468SOL     OW28039   2.318   1.692   6.481  0.3647  0.7610 -1.2691
 5468SOL    HW128040   2.296   1.622   6.542  0.4183 -0.1242 -2.2735
 5468SOL    HW228041   2.388   1.741   6.524 -0.2426 -1.2172  1.9501
 5469SOL     OW28042   4.536   3.179   7.403  0.3423 -0.0226 -0.6394
 5469SOL    HW128043   4.450   3.137   7.406  1.0938 -1.2478  3.5875
 5469SOL    HW228044   4.519   3.252   7.344  1.6522  0.7428 -0.0874
 5470SOL     OW28045   3.035   2.591  13.074  0.1603 -0.1401 -0.4054
 5470SOL    HW128046   3.072   2.678  13.058 -1.2639  0.4635 -0.4112
 5470SOL    HW228047   3.049   2.586  13.168  1.1015  0.0075 -0.5276
 5471SOL     OW28048   2.296   3.335  13.577  0.0295  0.2711 -0.4839
 5471SOL    HW128049   2.359   3.344  13.505  0.9838 -0.8293  0.2060
 5471SOL    HW228050   2.288   3.424  13.612  2.1594  1.1974 -2.2829
 5472SOL     OW28051   3.953   3.052   8.390 -0.4380 -0.3108 -0.0135
 5472SOL    HW128052   4.023   3.104   8.351  0.1570 -0.6173  0.6480
 5472SOL    HW228053   3.874   3.075   8.341 -0.1871 -1.3158 -0.8978
 5473SOL     OW28054   3.706   1.021  10.557 -0.3298  0.5891 -0.4845
 5473SOL    HW128055   3.792   0.981  10.567 -0.1147  1.0997 -0.3436
 5473SOL    HW228056   3.703   1.081  10.632  0.3786 -0.8400  0.6929
 5474SOL     OW28057   1.759   3.996   1.999 -0.4733 -0.1898 -0.7267
 5474SOL    HW128058   1.837   3.942   2.011  1.1108  2.4881  1.0732
 5474SOL    HW228059   1.738   4.015   2.091  0.4839  0.9932 -0.7499
 5475SOL     OW28060   0.772   3.708   7.395 -0.0102  0.8207  0.0085
 5475SOL    HW128061   0.772   3.701   7.491 -0.0675 -1.6280 -0.1745
 5475SOL    HW228062   0.817   3.626   7.376 -1.0170  0.7262 -1.8895
 5476SOL     OW28063   3.602   2.661   5.375  0.0311 -0.0631 -0.4362
 5476SOL    HW128064   3.643   2.592   5.427  2.1098  0.0620 -1.8953
 5476SOL    HW228065   3.631   2.743   5.414  0.8415 -0.7208  0.3529
 5477SOL     OW28066   4.223   0.218   8.062  0.3013 -0.0840 -0.4237
 5477SOL    HW128067   4.168   0.292   8.036 -0.9263 -0.0199  2.3205
 5477SOL    HW228068   4.297   0.258   8.108  0.2357 -0.3782 -0.0500
 5478SOL     OW28069   3.451   2.105   6.219  0.3824 -0.1757 -0.3264
 5478SOL    HW128070   3.434   2.121   6.312 -0.6818  0.0862 -0.5688
 5478SOL    HW228071   3.409   2.180   6.176 -1.4002 -1.7572 -1.3015
 5479SOL     OW28072   3.601   1.006   1.060  0.2547  0.0936  0.5964
 5479SOL    HW128073   3.649   1.087   1.072 -1.8887  1.6406 -1.2209
 5479SOL    HW228074   3.509   1.028   1.078 -0.1709 -2.4170  1.5132
 5480SOL     OW28075   3.777   4.524   1.578  0.2695  0.6832  0.7585
 5480SOL    HW128076   3.704   4.584   1.565 -1.2207 -1.2932 -0.0550
 5480SOL    HW228077   3.806   4.566   1.659  1.1522  0.9377  0.3086
 5481SOL     OW28078   0.599   4.195   5.509 -1.0250  0.4261  0.3391
 5481SOL    HW128079   0.596   4.208   5.414 -0.0237  1.9680  0.5147
 5481SOL    HW228080   0.647   4.273   5.537 -0.8379 -0.2125  1.7784
 5482SOL     OW28081   2.474   2.091   6.457  0.3001  0.1880  0.3056
 5482SOL    HW128082   2.515   2.099   6.371 -0.0681 -1.2953 -0.0147
 5482SOL    HW228083   2.534   2.137   6.515 -0.6615  1.6787  0.1253
 5483SOL     OW28084   0.606   0.127  17.063 -0.3622 -0.3153 -0.5165
 5483SOL    HW128085   0.573   0.038  17.074  0.0794 -0.1955  1.8878
 5483SOL    HW228086   0.600   0.163  17.152 -0.8017 -0.1572 -0.6072
 5484SOL     OW28087   4.259   1.578   7.850 -0.4192 -0.4443 -0.5480
 5484SOL    HW128088   4.281   1.485   7.848  3.2281  0.4006  0.0757
 5484SOL    HW228089   4.265   1.602   7.758  0.3551  4.7535  0.8057
 5485SOL     OW28090   4.490   4.003   4.199 -0.5662 -0.2213  0.1658
 5485SOL    HW128091   4.478   3.970   4.288 -1.6234 -2.0856 -0.6767
 5485SOL    HW228092   4.552   3.936   4.170 -0.0396 -0.6812  2.3744
 5486SOL     OW28093   1.440   2.701   1.165  0.1798 -0.0872  0.3518
 5486SOL    HW128094   1.391   2.767   1.215  0.9621  1.6394 -1.1526
 5486SOL    HW228095   1.464   2.636   1.231 -0.0334 -0.7030 -0.1755
 5487SOL     OW28096   3.579   3.055   0.381  0.3133  0.1435 -0.5382
 5487SOL    HW128097   3.589   3.114   0.307  1.0554 -2.2200 -2.3058
 5487SOL    HW228098   3.652   2.996   0.361  0.8491  0.8607 -0.6907
 5488SOL     OW28099   3.877   4.369   3.441 -0.4170  0.2900  0.5066
 5488SOL    HW128100   3.889   4.352   3.534  2.2838  1.3349  0.3457
 5488SOL    HW228101   3.873   4.464   3.427 -0.4264  0.1259 -0.6219
 5489SOL     OW28102   4.689   1.522  12.473  0.1473 -0.2017 -0.7582
 5489SOL    HW128103   4.723   1.483  12.392  0.4981  2.4132 -1.8676
 5489SOL    HW228104   4.644   1.456  12.525 -0.0699  1.2636  0.9004
 5490SOL     OW28105   0.808   0.826  13.707 -0.2208 -0.0262  0.2475
 5490SOL    HW128106   0.795   0.733  13.723  1.6880 -0.8119 -2.7558
 5490SOL    HW228107   0.833   0.860  13.793  0.2222 -0.6917  0.3804
 5491SOL     OW28108   0.133   0.125   1.873 -0.6018 -0.0868 -0.3019
 5491SOL    HW128109   0.196   0.192   1.899 -1.4644  0.3792  0.5582
 5491SOL    HW228110   0.159   0.115   1.782  2.0555 -0.4963  0.4771
 5492SOL     OW28111   3.655   2.004   2.136  0.0401  0.0708 -0.4252
 5492SOL    HW128112   3.722   1.990   2.069 -0.6224 -1.9410 -0.6746
 5492SOL    HW228113   3.576   1.977   2.088 -0.8008  0.8443  0.5368
 5493SOL     OW28114   0.125   3.193   5.647 -0.5686 -0.3008  0.8654
 5493SOL    HW128115   0.049   3.174   5.702 -1.3334 -0.5424 -0.2612
 5493SOL    HW228116   0.182   3.116   5.657 -1.5188 -1.3578 -2.0008
 5494SOL     OW28117   0.479   0.767   4.614  0.0981  0.6190 -0.5403
 5494SOL    HW128118   0.554   0.824   4.626  1.1079 -0.5483 -1.2075
 5494SOL    HW228119   0.433   0.831   4.560 -0.8759 -0.7745 -1.3955
 5495SOL     OW28120   3.687   3.938   7.572 -0.2495  0.7967  0.6433
 5495SOL    HW128121   3.724   4.026   7.579 -0.6025  0.8743  1.4847
 5495SOL    HW228122   3.690   3.931   7.476 -1.8854  2.2985  0.4736
 5496SOL     OW28123   1.715   1.153   8.268 -0.0499 -0.1425  0.0380
 5496SOL    HW128124   1.678   1.073   8.230 -0.1913 -1.2012  2.4032
 5496SOL    HW228125   1.785   1.116   8.321  1.0086  1.3938 -0.2772
 5497SOL     OW28126   3.185   2.543   6.791  0.1453  0.3973  0.1411
 5497SOL    HW128127   3.191   2.623   6.841  2.4869  0.2142  0.1486
 5497SOL    HW228128   3.175   2.470   6.853  0.0991 -2.2638 -2.9762
 5498SOL     OW28129   1.277   3.728   8.239 -0.3281 -0.1367  0.4161
 5498SOL    HW128130   1.221   3.653   8.222 -0.7137  0.1821  0.2832
 5498SOL    HW228131   1.214   3.774   8.295  0.2527 -0.0738  1.0200
 5499SOL     OW28132   4.124   2.225   7.619 -0.3286  0.7837 -0.3858
 5499SOL    HW128133   4.052   2.163   7.613  0.3219  0.2956 -3.2789
 5499SOL    HW228134   4.106   2.260   7.706  0.9110 -1.4868  0.7793
 5500SOL     OW28135   2.532   2.640   4.039  0.1039 -0.3722  0.3168
 5500SOL    HW128136   2.482   2.688   4.105  0.1360  2.5474 -1.8056
 5500SOL    HW228137   2.542   2.554   4.080 -0.5827  0.2172  1.7342
 5501SOL     OW28138   3.527   0.242   5.476 -0.1018 -0.3094  0.0678
 5501SOL    HW128139   3.594   0.272   5.537  0.6362 -0.2939 -0.7458
 5501SOL    HW228140   3.468   0.316   5.490  1.0618  0.9283 -1.5608
 5502SOL     OW28141   4.570   4.688   5.576  0.0695  0.1970  0.0628
 5502SOL    HW128142   4.641   4.726   5.627  0.7462 -0.7371 -0.1826
 5502SOL    HW228143   4.559   0.015   5.504 -0.0705  2.2468  1.8388
 5503SOL     OW28144   0.187   2.599  14.743  0.7742  0.2550  0.2110
 5503SOL    HW128145   0.158   2.518  14.700 -0.0446  0.8717 -0.4025
 5503SOL    HW228146   0.224   2.640  14.665 -0.8341  1.0650 -0.1412
 5504SOL     OW28147   3.648   0.172  14.525 -0.3821  0.4254  0.3169
 5504SOL    HW128148   3.592   0.102  14.492  0.1334 -0.7083  1.8553
 5504SOL    HW228149   3.598   0.210  14.597  0.8874  1.3450  0.7181
 5505SOL     OW28150   1.154   2.764   7.092  0.1506  0.4193  0.4108
 5505SOL    HW128151   1.150   2.673   7.123  1.9751  0.2966  0.2701
 5505SOL    HW228152   1.063   2.784   7.070  0.1389  0.4019  0.4418
 5506SOL     OW28153   2.309   2.560   3.886 -0.7262  0.6450 -0.3600
 5506SOL    HW128154   2.368   2.624   3.926 -0.7416  0.7499 -0.5031
 5506SOL    HW228155   2.312   2.487   3.948  5.8120  3.2370  2.4022
 5507SOL     OW28156   2.288   1.940   9.228  0.7128 -0.0088 -0.7438
 5507SOL    HW128157   2.324   1.994   9.299  1.5771 -1.0522 -0.3893
 5507SOL    HW228158   2.354   1.957   9.161  1.5990 -0.5109 -0.0110
 5508SOL     OW28159   3.346   0.224   4.620  0.2182 -0.2505 -0.5573
 5508SOL    HW128160   3.307   0.168   4.552 -1.5045 -0.0947  0.3131
 5508SOL    HW228161   3.381   0.153   4.674 -1.7254 -0.7325  0.0405
 5509SOL     OW28162   1.774   4.608   6.613  0.0708 -0.2002  0.1232
 5509SOL    HW128163   1.688   4.616   6.573  0.1432 -0.5566 -0.1009
 5509SOL    HW228164   1.828   4.571   6.544 -0.1879 -1.8763  0.8190
 5510SOL     OW28165   4.129   2.556   6.746  0.6864 -0.1449  0.0986
 5510SOL    HW128166   4.121   2.611   6.824  1.0805 -0.9901  0.7311
 5510SOL    HW228167   4.040   2.574   6.714  1.6051  2.8930 -0.7497
 5511SOL     OW28168   2.669   1.110   7.927 -0.3313 -0.2816 -0.0973
 5511SOL    HW128169   2.728   1.161   7.870  0.0459  1.6588  2.0256
 5511SOL    HW228170   2.725   1.077   7.998 -1.8370 -0.1332  1.1530
 5512SOL     OW28171   4.566   3.843   3.449 -0.2591 -0.3626  0.1297
 5512SOL    HW128172   4.522   3.808   3.371  0.9462  1.1860 -1.2525
 5512SOL    HW228173   4.503   3.905   3.484 -1.6568 -0.8965 -1.4655
 5513SOL     OW28174   0.948   2.580   4.335  0.2931  0.0791 -0.0257
 5513SOL    HW128175   0.888   2.653   4.322  0.4257 -0.1835 -2.2058
 5513SOL    HW228176   1.002   2.584   4.256 -0.4303 -2.0978 -0.6290
 5514SOL     OW28177   0.168   3.772   4.853  0.3063 -0.5728  0.2233
 5514SOL    HW128178   0.257   3.781   4.818 -0.3499 -1.7425 -1.7227
 5514SOL    HW228179   0.149   3.678   4.859 -0.5849 -0.3868  0.1857
 5515SOL     OW28180   1.964   3.618  16.615 -0.7630  0.1396  0.7239
 5515SOL    HW128181   1.895   3.633  16.680 -2.1099  3.8595 -1.5924
 5515SOL    HW228182   2.032   3.676  16.650 -0.9271  0.7474  0.0294
 5516SOL     OW28183   0.417   1.469   3.735 -0.4707  0.3828  0.4067
 5516SOL    HW128184   0.348   1.491   3.672 -0.3989 -0.8465 -0.0926
 5516SOL    HW228185   0.467   1.401   3.690  0.0648  0.8075  0.3631
 5517SOL     OW28186   2.032   1.668   7.846 -0.1836 -0.5121  0.2425
 5517SOL    HW128187   2.066   1.593   7.895  2.6564 -0.3196 -1.4165
 5517SOL    HW228188   2.074   1.735   7.900  0.1901 -1.2426  0.8561
 5518SOL     OW28189   1.884   2.007   4.726  0.2148 -0.1775 -0.1138
 5518SOL    HW128190   1.867   2.013   4.820 -0.5111  2.1606 -0.3960
 5518SOL    HW228191   1.962   2.063   4.721 -1.0033  1.2409 -2.9974
 5519SOL     OW28192   2.515   0.952  11.397 -0.0049  0.1890  0.3533
 5519SOL    HW128193   2.552   1.040  11.396 -1.5011  0.8344  0.6685
 5519SOL    HW228194   2.593   0.905  11.369 -0.5478 -1.1829  1.1002
 5520SOL     OW28195   2.524   1.433   3.042  0.1192 -0.2351  0.5484
 5520SOL    HW128196   2.452   1.401   2.989  0.5352  0.3656 -0.3865
 5520SOL    HW228197   2.483   1.504   3.092 -2.0739 -0.3993 -1.0771
 5521SOL     OW28198   3.366   0.999   3.934 -0.5945  0.1125  0.5412
 5521SOL    HW128199   3.423   1.047   3.874 -0.1904 -0.6022  0.3537
 5521SOL    HW228200   3.388   1.036   4.019  0.8600 -0.4227  0.4101
 5522SOL     OW28201   0.483   4.330   6.665  0.4067  0.1400 -0.2147
 5522SOL    HW128202   0.569   4.330   6.623  0.8293 -1.0961  0.6474
 5522SOL    HW228203   0.439   4.248   6.639  0.2495  0.0375  0.3915
 5523SOL     OW28204   0.020   0.528  13.774  0.0949 -0.7279 -0.1505
 5523SOL    HW128205   4.723   0.617  13.761  0.1327 -0.6133  0.5477
 5523SOL    HW228206   0.006   0.528  13.869  0.8335  1.4533 -0.0403
 5524SOL     OW28207   2.839   0.648   4.853 -0.1092  0.0954  0.1644
 5524SOL    HW128208   2.903   0.634   4.784  0.4260 -1.4997  0.9890
 5524SOL    HW228209   2.797   0.562   4.853  1.6972 -0.8056  1.6816
 5525SOL     OW28210   3.527   0.358   2.238  0.5031  0.4781 -0.0691
 5525SOL    HW128211   3.509   0.446   2.205  1.4091  0.8647  0.4834
 5525SOL    HW228212   3.589   0.325   2.174 -2.1566 -2.1961 -1.2963
 5526SOL     OW28213   0.714   2.853   5.589  0.0474 -0.1155  0.1972
 5526SOL    HW128214   0.716   2.758   5.573 -1.3916  0.1721 -1.6206
 5526SOL    HW228215   0.655   2.859   5.664 -0.4711 -4.2945  0.1713
 5527SOL     OW28216   4.270   1.800   2.935  0.0035 -0.0709  0.1452
 5527SOL    HW128217   4.240   1.855   2.863  3.3362  0.5967 -0.7496
 5527SOL    HW228218   4.230   1.857   3.001 -1.4888 -2.0512  0.9554
 5528SOL     OW28219   2.742   1.122   7.100 -0.7271  0.5162  0.0564
 5528SOL    HW128220   2.741   1.032   7.134  1.2431  0.7613  0.7169
 5528SOL    HW228221   2.669   1.156   7.152 -1.5652 -0.0341 -0.7396
 5529SOL     OW28222   3.712   4.543   3.107 -0.1259 -0.0485 -0.4569
 5529SOL    HW128223   3.709   4.520   3.200  1.3739 -2.4908 -1.0089
 5529SOL    HW228224   3.638   4.603   3.099  1.5262  2.1566  0.6486
 5530SOL     OW28225   2.076   4.446   8.937 -0.4120 -0.1406 -0.2450
 5530SOL    HW128226   2.153   4.410   8.983 -0.1351 -0.4131 -0.9234
 5530SOL    HW228227   2.071   4.384   8.865  3.0356 -0.7699  0.0458
 5531SOL     OW28228   4.303   0.236   8.663 -0.0899 -0.3173  0.3193
 5531SOL    HW128229   4.212   0.265   8.672 -0.2483 -0.7242  0.0347
 5531SOL    HW228230   4.304   0.141   8.652 -0.2753 -0.4497  1.4735
 5532SOL     OW28231   1.671   1.865   7.520  0.7166  0.6191 -0.3979
 5532SOL    HW128232   1.590   1.871   7.571  0.9690  1.2953 -0.0863
 5532SOL    HW228233   1.722   1.810   7.579 -0.2577  0.9931  0.8016
 5533SOL     OW28234   4.102   0.800   3.719 -0.5434  0.2438 -0.1378
 5533SOL    HW128235   4.049   0.853   3.779 -0.8991  1.4032 -1.4869
 5533SOL    HW228236   4.055   0.812   3.637 -1.7665  0.3969  0.5754
 5534SOL     OW28237   1.191   3.012   4.772  0.1241 -0.4095  0.2303
 5534SOL    HW128238   1.157   3.042   4.856 -1.9845  0.8544 -1.0847
 5534SOL    HW228239   1.275   3.058   4.762 -0.3454  0.4317  0.1870
 5535SOL     OW28240   3.507   3.081   7.142  0.1764 -0.6533 -0.1116
 5535SOL    HW128241   3.533   3.023   7.070  0.0901 -2.1367  1.0422
 5535SOL    HW228242   3.487   3.158   7.089  1.3612  0.5286  1.1569
 5536SOL     OW28243   1.577   3.923   5.006  0.8511 -0.0025  0.0798
 5536SOL    HW128244   1.543   3.846   4.961  0.1795 -0.7438  1.8244
 5536SOL    HW228245   1.670   3.923   4.984  1.0063 -1.3440  0.7013
 5537SOL     OW28246   0.072   0.376   0.412  0.1522 -0.2065  0.3523
 5537SOL    HW128247   0.085   0.466   0.441  1.6284  0.0227 -1.0026
 5537SOL    HW228248   0.119   0.330   0.481 -0.4625 -3.1734 -1.2107
 5538SOL     OW28249   2.319   0.302   2.679 -0.5399 -0.5578  0.6004
 5538SOL    HW128250   2.396   0.352   2.708 -0.6832 -0.8172  1.4377
 5538SOL    HW228251   2.258   0.376   2.685  0.8956  0.5805  1.3331
 5539SOL     OW28252   0.514   2.530  11.232  0.2645  0.2716 -0.4467
 5539SOL    HW128253   0.475   2.492  11.312  0.2394 -1.4538 -1.2728
 5539SOL    HW228254   0.542   2.617  11.259  0.5168  0.3666 -1.0208
 5540SOL     OW28255   1.834   2.936   8.298  0.4168 -0.3925  0.3309
 5540SOL    HW128256   1.913   2.982   8.325  1.3624 -0.8796 -1.5527
 5540SOL    HW228257   1.864   2.846   8.284  0.5472 -0.4802  1.1624
 5541SOL     OW28258   0.992   1.778   3.530  0.0713  0.3763 -0.1835
 5541SOL    HW128259   1.056   1.845   3.506  0.8352  0.0314  0.8587
 5541SOL    HW228260   1.033   1.706   3.482 -0.5609 -0.3865  0.4243
 5542SOL     OW28261   1.444   0.839   4.366  0.1594  0.3403 -0.3857
 5542SOL    HW128262   1.470   0.759   4.321 -0.3658 -0.7226  1.1749
 5542SOL    HW228263   1.502   0.839   4.442 -2.0981  0.4699  1.3646
 5543SOL     OW28264   3.312   1.557   8.195  0.1538  0.2220 -0.2743
 5543SOL    HW128265   3.318   1.466   8.166 -2.8344  0.1228 -0.5580
 5543SOL    HW228266   3.360   1.540   8.276 -0.4425  0.6578  0.1664
 5544SOL     OW28267   3.116   3.816   3.936  0.1632  0.3034 -0.0262
 5544SOL    HW128268   3.162   3.837   4.017  0.5976 -2.0233  0.3216
 5544SOL    HW228269   3.109   3.723   3.956 -2.1736 -0.1356 -2.9716
 5545SOL     OW28270   3.491   2.863   5.809  0.1194  0.2813 -0.0993
 5545SOL    HW128271   3.578   2.903   5.812 -0.9476  2.7242 -2.1522
 5545SOL    HW228272   3.440   2.930   5.765  2.4469  2.5240  0.6396
 5546SOL     OW28273   0.906   1.669   2.111  0.5058  0.1965  0.3702
 5546SOL    HW128274   0.947   1.582   2.115 -3.5258 -1.7106  0.1606
 5546SOL    HW228275   0.855   1.652   2.032  1.2652 -0.8846  0.1082
 5547SOL     OW28276   4.083   2.462   0.561  0.3717  0.1156 -0.3375
 5547SOL    HW128277   4.141   2.471   0.636 -1.5301 -0.4675  1.1890
 5547SOL    HW228278   4.018   2.399   0.593  0.9274  0.7366  1.9849
 5548SOL     OW28279   2.785   3.946   8.497  0.4890 -0.1507  0.1972
 5548SOL    HW128280   2.863   3.899   8.467 -0.6370 -0.8727 -1.5644
 5548SOL    HW228281   2.719   3.933   8.430  1.8434 -2.0604 -0.7688
 5549SOL     OW28282   4.565   1.398   3.625 -0.2274  0.4437 -0.2668
 5549SOL    HW128283   4.561   1.303   3.629  3.6218  0.2966  0.9282
 5549SOL    HW228284   4.478   1.414   3.661  0.5387  1.5503  1.1261
 5550SOL     OW28285   3.378   2.340   6.111  0.6146  0.0013  0.1627
 5550SOL    HW128286   3.378   2.435   6.120  0.3191  0.2399 -2.5526
 5550SOL    HW228287   3.292   2.319   6.075  1.2335  0.3949 -1.5298
 5551SOL     OW28288   1.775   4.182   7.580  0.4019  0.5801  0.4649
 5551SOL    HW128289   1.721   4.132   7.641  1.1890 -0.0186  0.6873
 5551SOL    HW228290   1.847   4.198   7.642  0.4418  1.5721  0.1595
 5552SOL     OW28291   2.621   1.524   2.788 -0.1314 -0.0752 -0.3122
 5552SOL    HW128292   2.630   1.592   2.854 -0.2710  0.6423 -1.0371
 5552SOL    HW228293   2.596   1.449   2.842 -0.4738  0.5957  0.4676
 5553SOL     OW28294   2.923   2.608  17.594 -0.1426 -0.0448  0.0695
 5553SOL    HW128295   2.866   2.546  17.640 -0.2030  0.6671  0.9357
 5553SOL    HW228296   2.873   2.656  17.528 -1.4123 -0.7037  0.5564
 5554SOL     OW28297   0.443   0.452   9.326 -0.3451 -0.6860  0.5499
 5554SOL    HW128298   0.412   0.516   9.263  0.6220 -0.4429  0.3145
 5554SOL    HW228299   0.435   0.370   9.277 -0.3778 -0.9826  1.0510
 5555SOL     OW28300   3.796   1.354   5.296  0.2025 -0.0708 -0.0326
 5555SOL    HW128301   3.772   1.264   5.271 -2.8901  0.1935  1.9503
 5555SOL    HW228302   3.776   1.396   5.212  1.0370  1.2021  0.4122
 5556SOL     OW28303   4.079   1.072   8.734 -0.1506 -0.2981  0.8605
 5556SOL    HW128304   4.090   0.986   8.692  1.3362  0.5498 -0.4907
 5556SOL    HW228305   4.166   1.091   8.769  0.1453  1.9105 -1.0800
 5557SOL     OW28306   4.318   1.177   6.035 -0.1881  0.3562  0.2117
 5557SOL    HW128307   4.292   1.213   6.120  0.2122  1.6551 -0.2056
 5557SOL    HW228308   4.245   1.121   6.010  0.0592 -0.4579  1.3123
 5558SOL     OW28309   4.631   2.198  13.870 -0.0629 -0.3645 -0.8485
 5558SOL    HW128310   4.569   2.132  13.839  0.5849 -1.7381  0.7914
 5558SOL    HW228311   4.693   2.137  13.910 -0.1512 -0.4494 -0.8421
 5559SOL     OW28312   0.764   0.436   5.080  0.1282 -0.2294 -0.0664
 5559SOL    HW128313   0.709   0.437   5.158  1.7190  2.9792  1.0257
 5559SOL    HW228314   0.735   0.352   5.045 -1.1728 -0.2695  1.1417
 5560SOL     OW28315   2.248   0.601   3.270 -0.0512 -0.1845  0.5231
 5560SOL    HW128316   2.230   0.520   3.222 -2.1612 -0.7195  2.1951
 5560SOL    HW228317   2.167   0.647   3.249  0.0619 -0.6180 -0.8399
 5561SOL     OW28318   3.578   0.708   7.510 -0.3595 -0.1932  0.2939
 5561SOL    HW128319   3.545   0.625   7.546 -0.5593  0.2284  1.0788
 5561SOL    HW228320   3.505   0.769   7.509  1.0487  1.5102  0.6414
 5562SOL     OW28321   4.550   1.960   5.543  0.5563  0.0296  0.2170
 5562SOL    HW128322   4.601   1.879   5.546  1.0279  0.3743  1.2814
 5562SOL    HW228323   4.616   2.029   5.533  0.8023 -0.7292 -3.5163
 5563SOL     OW28324   0.540   0.265  11.797  0.3787 -0.0603  0.0725
 5563SOL    HW128325   0.612   0.264  11.861 -1.0041 -2.9112  1.5704
 5563SOL    HW228326   0.573   0.188  11.750  2.5193  0.7518  0.2054
 5564SOL     OW28327   1.535   0.311   7.834  0.2708 -0.1829 -0.2266
 5564SOL    HW128328   1.584   0.381   7.791 -0.6798  0.3983 -0.3577
 5564SOL    HW228329   1.513   0.362   7.912  0.2890  2.2691 -1.8254
 5565SOL     OW28330   1.553   3.356   7.812  0.7602  0.5067  0.2420
 5565SOL    HW128331   1.533   3.384   7.723  4.0635  0.1334 -0.5942
 5565SOL    HW228332   1.588   3.438   7.847  0.2985  0.6646  0.3350
 5566SOL     OW28333   0.510   1.608  10.311  0.3407 -0.3484 -0.2196
 5566SOL    HW128334   0.546   1.580  10.395  1.9362  0.3720 -0.6774
 5566SOL    HW228335   0.456   1.677  10.350  1.2660 -0.1775  0.7402
 5567SOL     OW28336   2.006   1.090   3.737 -0.6496  0.0686  0.4044
 5567SOL    HW128337   2.100   1.079   3.753 -1.0318 -0.2896  2.4023
 5567SOL    HW228338   2.017   1.179   3.704  2.1932  0.4252  2.1861
 5568SOL     OW28339   4.461   2.541   7.728 -0.2215  0.2702  0.0213
 5568SOL    HW128340   4.556   2.542   7.742 -0.0772  2.4148 -1.1600
 5568SOL    HW228341   4.450   2.542   7.633 -0.5587 -1.1702  0.0429
 5569SOL     OW28342   3.948   4.006   6.077 -0.3938  0.4075  0.0105
 5569SOL    HW128343   4.031   3.961   6.089  0.3004  1.7943  0.4140
 5569SOL    HW228344   3.966   4.099   6.093 -0.5281  0.6440 -1.2084
 5570SOL     OW28345   0.763   1.282   9.950 -0.0972  0.4864  0.0312
 5570SOL    HW128346   0.836   1.248   9.898 -1.9198  0.7549 -2.6647
 5570SOL    HW228347   0.784   1.375   9.954 -0.2769  0.6193 -2.2260
 5571SOL     OW28348   3.908   1.489  11.609  0.1061  0.2171  0.0583
 5571SOL    HW128349   3.824   1.449  11.635  0.2848 -0.5618 -0.5874
 5571SOL    HW228350   3.880   1.563  11.556 -1.0423  0.2975  0.7611
 5572SOL     OW28351   2.875   1.689   8.096 -0.3930 -0.3234 -0.1021
 5572SOL    HW128352   2.841   1.778   8.101 -0.0706 -0.3036  1.5940
 5572SOL    HW228353   2.930   1.691   8.017  0.6225  0.0233  0.6015
 5573SOL     OW28354   0.462   2.444   8.889 -0.0427 -0.4636  0.0120
 5573SOL    HW128355   0.507   2.442   8.973 -1.9686  1.5196  1.1045
 5573SOL    HW228356   0.400   2.517   8.901  0.5519 -0.2948  2.0060
 5574SOL     OW28357   1.806   1.707   7.701  0.2956 -0.2381  0.2147
 5574SOL    HW128358   1.886   1.688   7.749  1.3509 -1.9027 -2.2134
 5574SOL    HW228359   1.774   1.773   7.762  1.5514  1.3720 -0.8836
 5575SOL     OW28360   1.257   0.027   2.634 -0.1539  0.1855 -0.2460
 5575SOL    HW128361   1.296   0.100   2.586 -0.3024  0.4909  0.0933
 5575SOL    HW228362   1.331   4.708   2.658  0.7382  0.8799 -1.4594
 5576SOL     OW28363   0.246   2.224   2.176 -0.8308 -0.0137  0.1503
 5576SOL    HW128364   0.329   2.270   2.165 -0.9125  0.3652  1.1897
 5576SOL    HW228365   0.219   2.240   2.266 -1.7095 -1.2881  0.1234
 5577SOL     OW28366   3.845   1.312   0.196  0.4109  0.3243  0.3290
 5577SOL    HW128367   3.878   1.227   0.227  0.3571 -0.1039 -0.7551
 5577SOL    HW228368   3.760   1.278   0.168 -0.0717 -0.0764  2.2903
 5578SOL     OW28369   3.561   0.432   6.614  0.3394 -0.1799  0.5894
 5578SOL    HW128370   3.468   0.448   6.629 -0.3743 -2.7701 -1.1958
 5578SOL    HW228371   3.598   0.460   6.698  3.0639  0.4969 -0.8342
 5579SOL     OW28372   1.792   2.151   1.659  0.1758  0.2133 -0.3756
 5579SOL    HW128373   1.784   2.060   1.687 -1.4115  1.7391  4.0516
 5579SOL    HW228374   1.828   2.189   1.739 -0.8086  0.6192 -0.1227
 5580SOL     OW28375   3.582   2.762  14.620 -0.4327 -0.4127  0.9085
 5580SOL    HW128376   3.659   2.708  14.633  0.4902  1.4081  2.9909
 5580SOL    HW228377   3.514   2.695  14.608 -0.5931 -0.1635  0.4535
 5581SOL     OW28378   2.217   3.904   3.947 -0.4261  0.2274 -0.0604
 5581SOL    HW128379   2.298   3.893   3.897  0.1259  0.7340  0.7049
 5581SOL    HW228380   2.247   3.976   4.003  0.7967  0.1913 -0.6525
 5582SOL     OW28381   1.776   3.767   5.896  0.1441 -0.0126  0.0627
 5582SOL    HW128382   1.809   3.740   5.810 -0.4825 -2.3467  0.5483
 5582SOL    HW228383   1.712   3.834   5.872 -0.9852 -0.7505  0.9764
 5583SOL     OW28384   1.055   1.225   0.157  0.2441 -0.0560  0.5242
 5583SOL    HW128385   0.970   1.231   0.200 -0.3538  1.8732 -0.9257
 5583SOL    HW228386   1.053   1.133   0.133 -0.5377  1.2332 -4.2138
 5584SOL     OW28387   0.318   0.216   9.197 -0.0146 -0.1490  0.5876
 5584SOL    HW128388   0.250   0.158   9.163 -1.7870  2.0185  0.4066
 5584SOL    HW228389   0.273   0.236   9.280  0.9401 -1.0822  1.3351
 5585SOL     OW28390   1.498   2.986  12.174  0.1546 -0.1869 -0.8782
 5585SOL    HW128391   1.506   2.965  12.081  0.3936  1.4464 -1.2270
 5585SOL    HW228392   1.419   2.942  12.204  0.5218  0.8053  1.5543
 5586SOL     OW28393   1.125   2.512   0.930 -0.1949 -0.0205 -0.0858
 5586SOL    HW128394   1.138   2.418   0.941  0.6489  0.3237  1.9028
 5586SOL    HW228395   1.052   2.529   0.989  2.0687 -0.7486  2.9032
 5587SOL     OW28396   3.916   0.300   6.157  0.6924  0.4479  0.5084
 5587SOL    HW128397   3.826   0.332   6.161  0.3822 -0.7063  2.3762
 5587SOL    HW228398   3.919   0.229   6.220 -0.9972  1.7187  2.0337
 5588SOL     OW28399   3.907   3.583   8.589 -0.1275  0.7661  0.5730
 5588SOL    HW128400   3.934   3.559   8.501  1.7335  1.2212  1.0222
 5588SOL    HW228401   3.814   3.606   8.580  0.9624  3.1892 -4.2931
 5589SOL     OW28402   0.397   0.227   2.990  0.3271 -0.6099  0.2724
 5589SOL    HW128403   0.413   0.152   3.047  1.3888 -1.3684 -1.0317
 5589SOL    HW228404   0.485   0.260   2.972 -0.8277  2.4052  0.0395
 5590SOL     OW28405   3.016   1.855   3.335 -0.0337  0.0540 -0.4623
 5590SOL    HW128406   3.034   1.902   3.417 -1.8608  0.3343 -0.2261
 5590SOL    HW228407   3.087   1.792   3.326 -1.0870 -1.4097  1.5135
 5591SOL     OW28408   2.892   1.868   8.552 -0.3178 -0.1060  0.0593
 5591SOL    HW128409   2.982   1.838   8.536 -0.9157 -1.4049 -0.8581
 5591SOL    HW228410   2.899   1.938   8.617  0.2987  0.7466 -0.9188
 5592SOL     OW28411   1.745   2.595   1.976 -0.1879 -0.0009  0.7451
 5592SOL    HW128412   1.826   2.622   1.934  0.1173 -3.1267 -0.6128
 5592SOL    HW228413   1.774   2.560   2.060 -0.1709  4.7574  2.7385
 5593SOL     OW28414   0.213   4.409   9.765 -0.1109  0.2937 -0.5606
 5593SOL    HW128415   0.305   4.396   9.741 -0.8359 -3.0273 -1.5786
 5593SOL    HW228416   0.182   4.325   9.730 -1.7258  0.5256  0.2909
 5594SOL     OW28417   4.226   4.132   7.905 -0.0168 -0.0470 -0.0314
 5594SOL    HW128418   4.170   4.095   7.836  2.0328 -1.3893 -0.9570
 5594SOL    HW228419   4.191   4.221   7.895  0.9161  0.5745  2.4770
 5595SOL     OW28420   1.993   3.511   2.940  0.5022 -0.1651 -0.1057
 5595SOL    HW128421   1.990   3.465   2.856 -0.5246 -0.3826  0.0524
 5595SOL    HW228422   1.906   3.553   2.940  0.8031  0.4546  0.8748
 5596SOL     OW28423   3.210   2.112   7.180 -0.0194 -0.1156 -0.0363
 5596SOL    HW128424   3.247   2.026   7.202 -0.0867 -0.8479 -2.8015
 5596SOL    HW228425   3.135   2.118   7.239 -0.1163 -1.7803  0.0237
 5597SOL     OW28426   2.399   4.320  10.169 -0.0503  0.0730 -0.5517
 5597SOL    HW128427   2.447   4.244  10.203 -1.9267 -0.0453  1.8910
 5597SOL    HW228428   2.469   4.384  10.176  0.2279 -0.4163  1.2190
 5598SOL     OW28429   0.144   0.131  14.713 -0.1983  0.5139  0.0844
 5598SOL    HW128430   0.080   0.106  14.780  0.4189  1.9984  1.2205
 5598SOL    HW228431   0.118   0.223  14.703 -0.8615  0.3260  0.0805
 5599SOL     OW28432   0.017   2.002   3.585 -0.1280 -0.3284  0.1586
 5599SOL    HW128433   0.049   1.922   3.626  0.6923 -0.4421 -0.6990
 5599SOL    HW228434   0.070   2.064   3.635 -1.4422  0.8091  0.1578
 5600SOL     OW28435   1.173   2.824  13.803  0.1119  0.4411  0.3058
 5600SOL    HW128436   1.193   2.900  13.747  0.0952 -0.1300 -0.4778
 5600SOL    HW228437   1.081   2.837  13.827 -0.0727 -0.3175 -0.0029
 5601SOL     OW28438   2.261   3.334   3.779 -0.3936 -0.1040  0.0837
 5601SOL    HW128439   2.329   3.288   3.730 -3.3124 -1.5811 -2.4935
 5601SOL    HW228440   2.197   3.265   3.797  1.7302 -1.8703  0.8737
 5602SOL     OW28441   4.489   4.416  14.147 -0.2019 -0.1534 -0.2001
 5602SOL    HW128442   4.477   4.506  14.178  1.6571  0.0698 -0.1727
 5602SOL    HW228443   4.411   4.418  14.091 -0.1384 -0.7640 -0.3057
 5603SOL     OW28444   4.029   3.083   8.051 -0.2939  0.3477 -0.4522
 5603SOL    HW128445   4.087   3.156   8.033  0.8071 -0.1769  0.9893
 5603SOL    HW228446   4.029   3.051   7.960  1.2982 -2.5827  0.5894
 5604SOL     OW28447   0.671   3.838   4.305 -0.6364  0.4642 -0.9030
 5604SOL    HW128448   0.735   3.870   4.241  0.4980  2.2384  1.1138
 5604SOL    HW228449   0.589   3.837   4.255  0.2162 -1.9563 -2.2332
 5605SOL     OW28450   4.643   4.653   8.196  0.2856  0.4574  0.3064
 5605SOL    HW128451   4.675   4.703   8.272 -1.6795  1.1745  0.6551
 5605SOL    HW228452   4.555   4.687   8.183  0.7728  2.1792  1.5078
 5606SOL     OW28453   2.312   0.113  17.023 -0.0257 -0.1542 -0.1772
 5606SOL    HW128454   2.343   0.170  16.953  1.9191  0.6679  1.3787
 5606SOL    HW228455   2.357   0.041  16.978  0.5727  0.6244 -0.8089
 5607SOL     OW28456   4.648   2.920  17.107  0.6138 -0.8890  0.1183
 5607SOL    HW128457   4.624   2.828  17.098 -3.1079 -0.0443  1.1502
 5607SOL    HW228458   0.002   2.919  17.141  0.2399 -2.0132  1.0428
 5608SOL     OW28459   0.019   0.164   2.452 -0.1825  0.4697 -0.2166
 5608SOL    HW128460   4.706   0.096   2.404  0.1901  0.3924 -0.4796
 5608SOL    HW228461   4.687   0.196   2.513  1.5469  1.6884  1.0335
 5609SOL     OW28462   1.612   2.371   1.660  0.6323 -0.1776 -0.0222
 5609SOL    HW128463   1.683   2.428   1.629 -1.2005  2.9339  1.4801
 5609SOL    HW228464   1.639   2.280   1.655  0.9257 -0.1137  0.4167
 5610SOL     OW28465   3.941   0.426   6.736  0.3182  0.7736 -0.2856
 5610SOL    HW128466   4.023   0.418   6.687 -1.7807 -3.7192 -3.0746
 5610SOL    HW228467   3.952   0.516   6.768 -0.6257  0.8057 -0.0506
 5611SOL     OW28468   4.046   2.190   0.048 -0.0801 -0.2853 -0.3155
 5611SOL    HW128469   4.028   2.242   0.126 -0.2431  1.0043 -1.2125
 5611SOL    HW228470   3.982   2.218  17.722  1.0106 -0.2656 -1.3845
 5612SOL     OW28471   4.694   4.420  11.153  0.4465  0.7650 -1.0992
 5612SOL    HW128472   4.632   4.491  11.137 -0.3745  0.2410 -0.2709
 5612SOL    HW228473   4.641   4.384  11.224  0.6318  2.1528 -0.2616
 5613SOL     OW28474   4.017   3.948   1.868  0.3712  0.0131 -0.5905
 5613SOL    HW128475   4.046   4.031   1.907 -0.4775 -0.3879  0.8671
 5613SOL    HW228476   4.073   3.953   1.791  0.2592  0.3873 -0.6520
 5614SOL     OW28477   4.571   2.757   5.982 -0.0315 -0.1039 -0.1627
 5614SOL    HW128478   4.512   2.808   5.926 -1.4747  0.6279  2.0390
 5614SOL    HW228479   4.643   2.817   6.001 -0.2850  0.4449 -0.8930
 5615SOL     OW28480   1.702   3.815   0.180  0.4624 -0.0499  0.4212
 5615SOL    HW128481   1.663   3.727   0.178  0.1407  0.1068 -0.7562
 5615SOL    HW228482   1.748   3.806   0.096  1.1801  2.2912  0.5748
 5616SOL     OW28483   0.021   3.706   3.983 -0.8282  0.0678 -0.4041
 5616SOL    HW128484   4.687   3.711   4.050  0.4759  1.3458  0.8544
 5616SOL    HW228485   4.710   3.739   3.906  0.6830  0.9379 -0.9366
 5617SOL     OW28486   3.811   1.458   6.857  0.0777  0.1090  0.7897
 5617SOL    HW128487   3.807   1.376   6.807  2.8687  0.0451  0.6965
 5617SOL    HW228488   3.778   1.528   6.801 -0.9637  2.1770  4.0134
 5618SOL     OW28489   3.064   3.607   7.823  0.4349  0.1574 -0.1773
 5618SOL    HW128490   3.138   3.576   7.769 -0.4112 -0.6424 -0.8740
 5618SOL    HW228491   3.102   3.692   7.847  1.2170 -0.5015  0.9026
 5619SOL     OW28492   0.020   4.185   2.022 -0.2335  0.4855  0.0936
 5619SOL    HW128493   0.091   4.236   1.984 -0.5802  0.3826 -0.6930
 5619SOL    HW228494   4.677   4.222   1.980 -0.5977 -0.2650  0.1016
 5620SOL     OW28495   3.924   3.952   4.326  0.0360 -0.1439  0.0176
 5620SOL    HW128496   3.833   3.962   4.300  1.0218  0.5910 -3.0988
 5620SOL    HW228497   3.964   4.038   4.311  0.7008 -0.1988  1.4429
 5621SOL     OW28498   2.431   3.584   4.728  0.1034 -0.2767  0.8532
 5621SOL    HW128499   2.412   3.621   4.642 -0.6610 -0.2913  1.0171
 5621SOL    HW228500   2.525   3.570   4.716 -0.0669  0.0016 -0.7542
 5622SOL     OW28501   0.545   0.988  16.126  0.2013  0.7037  0.1038
 5622SOL    HW128502   0.523   1.025  16.211  1.1581  0.2994  0.5251
 5622SOL    HW228503   0.513   1.053  16.064 -0.0106  1.8688  1.4468
 5623SOL     OW28504   3.293   0.757   7.321 -0.7997 -0.3332 -0.2697
 5623SOL    HW128505   3.325   0.825   7.262 -0.2846  0.7409  1.2414
 5623SOL    HW228506   3.295   0.799   7.407  0.2265  2.4551 -1.6725
 5624SOL     OW28507   3.999   4.182  10.413  0.2181 -0.0589  0.2231
 5624SOL    HW128508   4.090   4.200  10.391  0.5183 -1.0350  0.6621
 5624SOL    HW228509   3.985   4.223  10.498  1.7980  0.1074  0.4053
 5625SOL     OW28510   4.226   4.193   6.328  0.0920  0.5022  0.4132
 5625SOL    HW128511   4.183   4.151   6.402 -1.0651 -1.7013 -1.5309
 5625SOL    HW228512   4.316   4.183   6.358  0.9728  1.2643 -1.9977
 5626SOL     OW28513   1.196   1.384   0.323 -0.3706  0.3335 -0.1448
 5626SOL    HW128514   1.190   1.323   0.397 -1.1490 -0.0031 -0.4832
 5626SOL    HW228515   1.145   1.340   0.256 -1.6788 -1.1843  1.8352
 5627SOL     OW28516   3.294   4.110   4.546  0.1248  0.1389 -0.0165
 5627SOL    HW128517   3.390   4.110   4.550 -0.0388 -1.7248  3.3381
 5627SOL    HW228518   3.271   4.156   4.627 -1.7993  0.7941 -0.9353
 5628SOL     OW28519   4.328   0.928  10.461  0.6865 -0.7923 -0.0999
 5628SOL    HW128520   4.355   1.004  10.411  0.8264  0.7243  2.2631
 5628SOL    HW228521   4.269   0.972  10.522  0.1152 -2.2003  0.3620
 5629SOL     OW28522   3.098   4.362   0.717 -0.2711  0.0963 -0.4221
 5629SOL    HW128523   3.053   4.447   0.712  2.1395  1.2828 -1.5854
 5629SOL    HW228524   3.029   4.297   0.731 -0.4858  0.8288  1.9846
 5630SOL     OW28525   0.259   2.893   6.182  0.8618 -0.3785  0.1582
 5630SOL    HW128526   0.298   2.963   6.234  2.1561 -0.7656 -0.2920
 5630SOL    HW228527   0.317   2.818   6.194 -0.8253 -1.3140  2.3776
 5631SOL     OW28528   1.523   0.739   6.422 -0.2461  0.2120 -0.7682
 5631SOL    HW128529   1.600   0.689   6.395 -0.3512 -0.6615  0.5240
 5631SOL    HW228530   1.561   0.823   6.446 -0.4273 -0.4704  1.9391
 5632SOL     OW28531   3.692   0.031   4.668 -0.8193  0.3522  0.4062
 5632SOL    HW128532   3.688   4.696   4.734  1.8617 -1.0976 -0.9578
 5632SOL    HW228533   3.782   0.025   4.635 -1.0275  1.7299 -0.4188
 5633SOL     OW28534   2.704   2.480   8.752  0.2624  0.7273 -0.0382
 5633SOL    HW128535   2.649   2.485   8.830  2.6813  0.9129  1.6156
 5633SOL    HW228536   2.656   2.415   8.700 -0.7625  0.4961  1.1803
 5634SOL     OW28537   1.993   1.078   4.172 -0.3406 -0.2773 -0.2936
 5634SOL    HW128538   1.909   1.064   4.216 -1.9084 -0.5441 -3.3728
 5634SOL    HW228539   1.952   1.100   4.089  2.7677  1.9539 -1.2231
 5635SOL     OW28540   0.954   4.114   3.303  0.2392  0.3225  0.1730
 5635SOL    HW128541   0.944   4.136   3.211 -0.0674  0.2330  0.1832
 5635SOL    HW228542   0.999   4.030   3.293  1.0557  0.8106 -0.1658
 5636SOL     OW28543   1.847   3.287   0.610  0.3044 -0.1091 -0.0521
 5636SOL    HW128544   1.806   3.320   0.530  0.8337 -2.9273 -1.4698
 5636SOL    HW228545   1.761   3.266   0.647 -0.6794  0.0560 -2.2410
 5637SOL     OW28546   0.437   3.390  10.854 -0.6289  0.5710  0.2438
 5637SOL    HW128547   0.421   3.403  10.948  0.1941 -1.8912  0.7234
 5637SOL    HW228548   0.422   3.481  10.828 -0.4460  0.4082 -0.4133
 5638SOL     OW28549   1.621   1.638   9.124  0.1793  0.0309 -0.0791
 5638SOL    HW128550   1.580   1.623   9.039 -0.6254 -0.1992  0.3434
 5638SOL    HW228551   1.571   1.711   9.161 -0.2161  0.3828 -1.3198
 5639SOL     OW28552   2.077   0.847  12.550  0.3910 -0.2719 -0.1661
 5639SOL    HW128553   2.019   0.871  12.478  0.2831  3.0287  1.0096
 5639SOL    HW228554   2.152   0.807  12.506  2.9083  4.0710  0.1353
 5640SOL     OW28555   1.318   2.603   9.168  0.3502 -0.5921 -0.2529
 5640SOL    HW128556   1.241   2.546   9.171  0.8231 -1.1595  1.4675
 5640SOL    HW228557   1.332   2.611   9.263  2.3636  0.2125 -0.6202
 5641SOL     OW28558   3.922   1.434   3.743  0.1990 -0.1242 -0.4597
 5641SOL    HW128559   3.968   1.353   3.722 -0.6051 -0.5437 -0.6012
 5641SOL    HW228560   3.986   1.464   3.807 -0.8773 -0.9168  1.0043
 5642SOL     OW28561   2.641   1.640   4.799  0.2375 -0.3449 -0.2653
 5642SOL    HW128562   2.683   1.565   4.757 -1.7728 -1.9298  0.6403
 5642SOL    HW228563   2.554   1.628   4.763 -1.0673 -0.2205  2.8833
 5643SOL     OW28564   4.069   3.161  13.276  0.0469  0.0470  0.0472
 5643SOL    HW128565   4.032   3.093  13.331 -1.9370 -0.2367 -1.6442
 5643SOL    HW228566   4.159   3.164  13.309 -0.3425  2.5896  0.8803
 5644SOL     OW28567   0.387   4.406  13.291  0.0864 -0.5344  0.1554
 5644SOL    HW128568   0.293   4.425  13.293  0.0746 -0.7608  1.6945
 5644SOL    HW228569   0.419   4.494  13.312 -0.3636  0.0081 -1.3733
 5645SOL     OW28570   4.120   1.804  13.511  0.0821  0.1162  0.3140
 5645SOL    HW128571   4.209   1.770  13.519  0.4625  0.6582 -1.5845
 5645SOL    HW228572   4.073   1.774  13.590 -2.1590 -1.7235 -1.6962
 5646SOL     OW28573   2.129   3.344  11.623  0.3572  0.1328  0.5077
 5646SOL    HW128574   2.046   3.364  11.580  1.6521  1.4316 -1.4057
 5646SOL    HW228575   2.137   3.425  11.674  0.8523  0.5533 -0.2323
 5647SOL     OW28576   0.430   3.645   7.010  0.0998 -0.3970 -0.1184
 5647SOL    HW128577   0.470   3.566   7.047 -0.6438 -0.3735  0.7497
 5647SOL    HW228578   0.436   3.699   7.089 -0.3925 -0.0813 -0.3000
 5648SOL     OW28579   1.308   4.349   0.827  0.5478  0.4584 -0.0088
 5648SOL    HW128580   1.239   4.312   0.772  0.5792 -0.7890  0.8016
 5648SOL    HW228581   1.375   4.281   0.830  1.1656  1.1484  1.7107
 5649SOL     OW28582   0.678   0.314  12.464  0.5137  0.4224  0.2187
 5649SOL    HW128583   0.610   0.327  12.398 -0.0389 -2.3090  0.2118
 5649SOL    HW228584   0.753   0.356  12.423 -0.0693 -0.3630 -1.6683
 5650SOL     OW28585   1.962   3.923   1.673 -0.8026  0.3225  0.0195
 5650SOL    HW128586   1.939   4.014   1.687 -0.1707  0.0966  2.5738
 5650SOL    HW228587   1.929   3.901   1.586  0.6462 -0.3460 -0.3749
 5651SOL     OW28588   1.975   2.721   8.913 -0.4839  0.1866  0.2870
 5651SOL    HW128589   2.052   2.701   8.860  0.1618  0.0478  1.2822
 5651SOL    HW228590   2.018   2.740   8.996 -4.8639  1.5987  2.2618
 5652SOL     OW28591   2.442   0.085   4.968 -0.7649  0.4834 -0.5755
 5652SOL    HW128592   2.432   0.014   4.905 -0.5408 -1.6698  1.8013
 5652SOL    HW228593   2.371   0.143   4.941 -0.5692  0.6445 -0.7410
 5653SOL     OW28594   0.170   3.178   0.674 -0.0892 -0.2287  0.0311
 5653SOL    HW128595   0.163   3.240   0.747 -1.3747  0.4666 -0.6849
 5653SOL    HW228596   0.170   3.238   0.600  1.2083 -1.4708 -0.9720
 5654SOL     OW28597   1.214   0.447  16.221  0.5737  0.0340  0.3217
 5654SOL    HW128598   1.130   0.484  16.193  1.0058 -0.2168 -1.2883
 5654SOL    HW228599   1.231   0.495  16.303 -1.4586  0.9068  0.2405
 5655SOL     OW28600   3.294   0.654   3.065  0.1408 -0.5612  0.1567
 5655SOL    HW128601   3.375   0.642   3.114 -0.1543  2.3982  1.3485
 5655SOL    HW228602   3.261   0.564   3.063 -0.7605 -0.2555  1.1805
 5656SOL     OW28603   2.824   2.689   2.895 -0.8409  0.5288 -0.0409
 5656SOL    HW128604   2.900   2.700   2.952 -1.6387  0.6444  0.9937
 5656SOL    HW228605   2.789   2.778   2.887  1.3509  1.4978  1.2887
 5657SOL     OW28606   4.556   2.293   6.847  0.2996 -0.9468  0.1809
 5657SOL    HW128607   4.532   2.372   6.895  0.5396 -0.7243 -0.0661
 5657SOL    HW228608   4.609   2.246   6.912 -0.4834  1.3350  2.4566
 5658SOL     OW28609   1.279   3.140   9.193 -0.2753 -0.1730 -0.1372
 5658SOL    HW128610   1.338   3.212   9.215 -1.5831  1.1985 -1.1405
 5658SOL    HW228611   1.311   3.065   9.243 -1.4455  1.1807  2.6302
 5659SOL     OW28612   0.481   2.809   2.780  0.0328  0.1752  0.2734
 5659SOL    HW128613   0.522   2.895   2.774 -1.6658  1.0160  0.7014
 5659SOL    HW228614   0.412   2.831   2.843 -0.7940 -0.5416 -0.3791
 5660SOL     OW28615   4.330   2.940   2.424  0.1729 -0.3902 -0.1382
 5660SOL    HW128616   4.308   2.933   2.331  0.0620  0.4400 -0.1727
 5660SOL    HW228617   4.425   2.953   2.418 -0.2489  2.3890 -0.7547
 5661SOL     OW28618   2.830   3.600   4.074 -0.2707 -0.3947 -0.4940
 5661SOL    HW128619   2.788   3.607   3.988 -0.2562  2.9761 -0.1932
 5661SOL    HW228620   2.755   3.595   4.132 -0.0967  1.3880 -0.1171
 5662SOL     OW28621   1.373   2.089  16.287  0.3279 -0.2251 -0.3383
 5662SOL    HW128622   1.419   2.025  16.341 -1.0630  0.1017  1.2356
 5662SOL    HW228623   1.290   2.041  16.285  0.3235 -0.1789 -1.2979
 5663SOL     OW28624   3.176   4.099   5.893 -0.2437  0.2013  0.0173
 5663SOL    HW128625   3.089   4.061   5.906 -0.0037 -0.9582 -1.6982
 5663SOL    HW228626   3.222   4.015   5.898  0.2022  0.7236  4.4345
 5664SOL     OW28627   2.354   3.445   6.244 -0.2969  0.6758 -0.8753
 5664SOL    HW128628   2.346   3.535   6.212 -2.7869  1.1124  0.9929
 5664SOL    HW228629   2.346   3.400   6.160  0.9949 -1.8645  0.3526
 5665SOL     OW28630   2.474   3.130   2.361  0.0715  0.1102 -0.2976
 5665SOL    HW128631   2.404   3.107   2.301 -1.6472  4.2245  0.1368
 5665SOL    HW228632   2.424   3.160   2.437 -2.2626  2.3589 -2.7028
 5666SOL     OW28633   1.741   1.556   4.322  0.1202 -0.1021  0.3878
 5666SOL    HW128634   1.760   1.467   4.349  0.1706 -0.5769 -1.2607
 5666SOL    HW228635   1.678   1.542   4.251 -0.1212  3.0025 -0.0152
 5667SOL     OW28636   2.043   3.794   9.227 -0.2425  0.3876 -0.2829
 5667SOL    HW128637   2.019   3.882   9.197 -0.1827  0.4288 -0.2100
 5667SOL    HW228638   2.077   3.801   9.316  0.4538  1.5102 -0.6277
 5668SOL     OW28639   4.217   3.782   9.133  0.1006  0.2394  0.1107
 5668SOL    HW128640   4.141   3.840   9.132  1.0712  1.4872 -1.5545
 5668SOL    HW228641   4.272   3.847   9.177 -0.5892 -0.5932  2.1867
 5669SOL     OW28642   4.543   1.958  15.414  0.1338 -0.1471  0.4716
 5669SOL    HW128643   4.513   1.869  15.431 -0.7863  0.9701  4.8212
 5669SOL    HW228644   4.616   1.965  15.476 -0.0860 -2.0941  0.9473
 5670SOL     OW28645   0.860   2.882  16.569 -0.0083  0.1800 -0.1836
 5670SOL    HW128646   0.925   2.847  16.507  2.1387 -0.6547  2.5499
 5670SOL    HW228647   0.779   2.874  16.520 -0.9379  0.6396  1.2891
 5671SOL     OW28648   3.287   4.089   7.339  0.3300 -0.7986  0.2148
 5671SOL    HW128649   3.329   4.007   7.311 -0.2299 -0.6576 -1.0586
 5671SOL    HW228650   3.197   4.062   7.354 -0.1831 -1.3516 -3.8608
 5672SOL     OW28651   0.967   0.115   8.487 -0.2541 -0.5714 -0.1836
 5672SOL    HW128652   0.879   0.140   8.512 -0.3432  0.5673 -1.6258
 5672SOL    HW228653   1.023   0.190   8.506  0.6061 -1.7680  2.0510
 5673SOL     OW28654   2.106   2.131   1.490  0.3957  0.4298  0.6074
 5673SOL    HW128655   2.069   2.188   1.558  0.4111  2.1408 -0.7964
 5673SOL    HW228656   2.038   2.143   1.424  1.0612  0.7636 -0.0227
 5674SOL     OW28657   1.848   1.190   5.466  0.5521  0.4652 -0.3435
 5674SOL    HW128658   1.791   1.267   5.456  0.9692  0.9522  1.0266
 5674SOL    HW228659   1.799   1.120   5.423 -0.9249  1.2903 -0.0442
 5675SOL     OW28660   1.433   4.270   6.530  0.0558  0.6785  0.1216
 5675SOL    HW128661   1.442   4.320   6.449  0.0665  0.6195  0.0865
 5675SOL    HW228662   1.399   4.332   6.595 -2.2717 -2.4010  1.8490
 5676SOL     OW28663   2.337   3.472   2.638  0.1810 -0.8424  0.0243
 5676SOL    HW128664   2.292   3.440   2.560  0.7724  2.0198 -1.4937
 5676SOL    HW228665   2.304   3.406   2.699 -0.0181 -0.3130  0.4810
 5677SOL     OW28666   2.765   4.442   9.237 -0.1768 -0.1001 -0.0110
 5677SOL    HW128667   2.693   4.412   9.181 -0.4518  2.4029 -1.0043
 5677SOL    HW228668   2.811   4.500   9.177  0.4482  0.7609  1.3064
 5678SOL     OW28669   1.122   0.727  15.143  0.3302 -0.0056  0.3810
 5678SOL    HW128670   1.064   0.683  15.082  2.4018 -4.0818  1.3620
 5678SOL    HW228671   1.209   0.732  15.103 -0.5495  0.4053 -1.4526
 5679SOL     OW28672   2.925   1.109   8.603  0.6217 -0.4695 -0.2668
 5679SOL    HW128673   2.874   1.137   8.679  0.0171  1.1005 -1.2397
 5679SOL    HW228674   2.977   1.187   8.585 -0.6227  0.1344 -1.2811
 5680SOL     OW28675   1.970   2.831   6.601 -0.3907  0.6864  0.3837
 5680SOL    HW128676   1.934   2.871   6.680 -2.6955  1.6512 -1.1437
 5680SOL    HW228677   2.065   2.844   6.603  0.2009 -3.4692 -1.9176
 5681SOL     OW28678   3.519   1.706   3.469 -0.5584  0.0681  0.1680
 5681SOL    HW128679   3.456   1.661   3.525 -0.0991 -2.6889 -1.5379
 5681SOL    HW228680   3.556   1.774   3.525 -0.0160  1.5532 -1.9885
 5682SOL     OW28681   1.624   2.286   5.281  0.2514 -0.1268 -0.4737
 5682SOL    HW128682   1.591   2.375   5.291  1.3695  0.2924 -0.5051
 5682SOL    HW228683   1.705   2.282   5.331 -0.8704 -0.4651  1.3003
 5683SOL     OW28684   2.272   1.633   3.420 -0.2964 -0.0780 -0.5618
 5683SOL    HW128685   2.352   1.685   3.425 -0.7344  0.3886  1.9794
 5683SOL    HW228686   2.198   1.693   3.429  0.0004  0.0633  0.9316
 5684SOL     OW28687   0.903   4.628   2.255 -0.1243  0.3050 -0.3301
 5684SOL    HW128688   0.840   4.687   2.297 -0.6304 -0.3106 -0.2264
 5684SOL    HW228689   0.851   4.565   2.205  1.8972 -0.3410 -1.6148
 5685SOL     OW28690   4.680   3.548   6.753 -0.3360 -0.2356 -0.4222
 5685SOL    HW128691   4.662   3.562   6.660 -1.5957 -5.1733 -0.9081
 5685SOL    HW228692   4.639   3.463   6.765 -2.7608  1.1276  0.9015
 5686SOL     OW28693   1.981   1.022   9.135 -0.4651 -0.0757 -0.3620
 5686SOL    HW128694   2.023   1.107   9.117  0.9227 -1.0063 -1.5421
 5686SOL    HW228695   2.029   0.963   9.076  2.1249  3.0704 -1.4037
 5687SOL     OW28696   2.319   0.444   9.990 -0.4570 -0.0330 -0.0435
 5687SOL    HW128697   2.356   0.493   9.917  0.6231 -1.2319 -0.3061
 5687SOL    HW228698   2.290   0.518  10.042 -1.2603 -0.2029 -0.2600
 5688SOL     OW28699   2.151   1.286   8.594  0.1955 -0.0485 -0.2706
 5688SOL    HW128700   2.111   1.372   8.599  2.1907  0.9026 -0.8751
 5688SOL    HW228701   2.111   1.263   8.678  1.2839  1.9351  0.7909
 5689SOL     OW28702   3.220   2.146   4.973 -0.0378  0.2967  0.6039
 5689SOL    HW128703   3.240   2.178   4.885  1.3665 -0.5101  0.6253
 5689SOL    HW228704   3.146   2.087   4.960  1.5445 -2.0146  1.9415
 5690SOL     OW28705   2.786   4.417   8.484 -0.3243 -0.0318 -0.3031
 5690SOL    HW128706   2.785   4.361   8.562 -1.9369  0.1824 -0.1794
 5690SOL    HW228707   2.817   4.357   8.416  1.7592 -2.2594  2.6010
 5691SOL     OW28708   3.131   0.564   8.431 -0.5496  0.1116 -0.3522
 5691SOL    HW128709   3.049   0.611   8.414 -1.1118 -1.2683 -1.5572
 5691SOL    HW228710   3.150   0.542   8.339 -0.1545 -0.0756 -0.2239
 5692SOL     OW28711   4.185   1.568   4.254 -0.3022  0.5010  0.3299
 5692SOL    HW128712   4.144   1.634   4.198  3.2448  0.2969 -2.5812
 5692SOL    HW228713   4.279   1.585   4.256 -0.6973  2.8318 -1.3835
 5693SOL     OW28714   4.465   2.371   7.317  0.1374  0.2824  0.1072
 5693SOL    HW128715   4.425   2.425   7.386  0.0361  0.9881 -0.4959
 5693SOL    HW228716   4.431   2.285   7.342 -0.8367  0.5060 -0.4297
 5694SOL     OW28717   4.352   2.472  14.378  0.3453  0.0747  0.7562
 5694SOL    HW128718   4.322   2.479  14.287 -1.7629  2.6654  1.6305
 5694SOL    HW228719   4.416   2.543  14.383 -0.0663  0.4380  0.9067
 5695SOL     OW28720   4.482   1.007  14.956  0.4569 -0.3059  0.2637
 5695SOL    HW128721   4.573   0.986  14.936  0.5646 -0.6066  1.0667
 5695SOL    HW228722   4.482   0.988  15.050 -1.4262  2.2859  0.8218
 5696SOL     OW28723   0.964   3.938   4.709 -0.3956 -0.1097  0.1365
 5696SOL    HW128724   0.941   3.888   4.787 -1.7474 -1.5047 -1.1621
 5696SOL    HW228725   0.974   3.868   4.645  0.8533  1.0026 -0.8644
 5697SOL     OW28726   0.198   0.581   8.426 -0.0836 -0.1815 -0.0382
 5697SOL    HW128727   0.104   0.594   8.439  0.2410  3.3053 -1.2477
 5697SOL    HW228728   0.194   0.526   8.347 -3.9064 -0.8323  0.6036
 5698SOL     OW28729   3.571   2.195  17.699 -0.5897  0.2598  0.2303
 5698SOL    HW128730   3.524   2.260  17.647  1.0557  2.3587  1.3537
 5698SOL    HW228731   3.572   2.110  17.656  0.1428  0.3021  0.1536
 5699SOL     OW28732   3.105   4.625   5.322 -0.4317  0.5123 -0.3255
 5699SOL    HW128733   3.133   4.716   5.311  0.8588  0.0555 -0.7446
 5699SOL    HW228734   3.190   4.585   5.338 -1.6612 -2.7322 -2.0494
 5700SOL     OW28735   2.741   0.774   7.582  1.0022 -0.2422 -0.4168
 5700SOL    HW128736   2.744   0.708   7.651  2.6509  0.9132  0.6132
 5700SOL    HW228737   2.675   0.826   7.627  1.5797  0.5518 -0.4991
 5701SOL     OW28738   4.599   1.831   3.813 -0.5314  0.7355  0.1616
 5701SOL    HW128739   4.602   1.918   3.852  3.8406  1.3932 -1.6395
 5701SOL    HW228740   4.536   1.846   3.742 -0.0611  1.1069 -0.1746
 5702SOL     OW28741   3.111   0.629   6.439 -0.2913  0.1030  0.0461
 5702SOL    HW128742   3.160   0.702   6.403 -2.2969  0.3250 -2.1587
 5702SOL    HW228743   3.036   0.672   6.480  1.2531  1.7983  1.0763
 5703SOL     OW28744   1.002   4.383  11.361 -0.2775 -0.2621 -0.0171
 5703SOL    HW128745   1.094   4.380  11.338 -0.2616 -0.3741  0.0596
 5703SOL    HW228746   0.969   4.455  11.308 -0.2538 -0.3827 -0.1975
 5704SOL     OW28747   2.304   0.124   2.443  0.0949  0.4591 -0.5887
 5704SOL    HW128748   2.309   0.180   2.521  1.8129  1.4774 -1.4453
 5704SOL    HW228749   2.209   0.135   2.433 -0.1173 -2.3699 -1.7896
 5705SOL     OW28750   3.099   2.783   3.648 -0.0511  0.7002 -0.3602
 5705SOL    HW128751   3.017   2.824   3.619  0.6587  1.8789 -0.7094
 5705SOL    HW228752   3.129   2.845   3.714 -1.0909  1.2568 -0.4073
 5706SOL     OW28753   0.892   2.915  16.205 -0.1591  0.0330  0.0728
 5706SOL    HW128754   0.971   2.945  16.160 -1.0581 -0.9723 -2.1611
 5706SOL    HW228755   0.843   2.894  16.125 -0.3926  0.0119  0.2213
 5707SOL     OW28756   1.535   1.442  11.946  0.0258  0.1305 -0.6669
 5707SOL    HW128757   1.592   1.425  11.870 -2.6217 -2.3229 -2.1164
 5707SOL    HW228758   1.503   1.527  11.918  3.1797  0.8911 -2.0324
 5708SOL     OW28759   1.280   0.035   0.212  0.1856 -0.0316 -0.1383
 5708SOL    HW128760   1.242   4.683   0.223 -0.4309  0.1144 -1.0504
 5708SOL    HW228761   1.368   0.014   0.181 -0.0885  1.6011 -2.0779
 5709SOL     OW28762   2.989   4.486   1.788  0.1281  0.2016 -0.4781
 5709SOL    HW128763   3.002   4.581   1.800 -1.7149  0.4244 -0.2938
 5709SOL    HW228764   2.937   4.470   1.867  1.1909  0.5397  0.3019
 5710SOL     OW28765   0.650   2.531   5.448  0.2086 -0.1640  0.1282
 5710SOL    HW128766   0.630   2.438   5.457  2.3692 -0.7604 -1.2956
 5710SOL    HW228767   0.569   2.559   5.404 -0.2780 -1.9532 -0.1107
 5711SOL     OW28768   1.661   2.858   3.294 -0.5997 -0.1915 -0.2868
 5711SOL    HW128769   1.669   2.947   3.259 -0.1230  0.0982  0.5619
 5711SOL    HW228770   1.728   2.819   3.239 -0.0227  1.3657 -0.6772
 5712SOL     OW28771   2.135   4.320  14.552 -0.2184  0.9647 -0.7215
 5712SOL    HW128772   2.147   4.371  14.473  0.8123  3.0575  0.7829
 5712SOL    HW228773   2.220   4.280  14.569  0.3832  3.1045  1.3234
 5713SOL     OW28774   4.382   3.944   8.806  0.3506  0.1816  0.0934
 5713SOL    HW128775   4.416   3.856   8.819  0.7249  0.0371 -1.8793
 5713SOL    HW228776   4.290   3.922   8.791 -0.3412  1.2055  2.7609
 5714SOL     OW28777   2.045   1.606   7.209  0.5737 -0.3779 -0.2445
 5714SOL    HW128778   1.967   1.633   7.257  1.3507  0.5804  0.4632
 5714SOL    HW228779   2.092   1.565   7.282  0.0858  2.4956  1.6737
 5715SOL     OW28780   4.439   4.543   2.553 -0.3731 -0.3582 -0.2635
 5715SOL    HW128781   4.516   4.574   2.601 -0.3603 -0.7557 -0.0317
 5715SOL    HW228782   4.399   4.504   2.631  3.2147  0.5209  2.0183
 5716SOL     OW28783   1.325   0.549   7.764  0.5806  0.5699 -0.0892
 5716SOL    HW128784   1.349   0.639   7.742  2.5306  0.1086  0.1325
 5716SOL    HW228785   1.264   0.562   7.836  0.1516  2.4168 -0.7994
 5717SOL     OW28786   2.032   2.342   3.645 -0.3717 -0.0123 -0.1599
 5717SOL    HW128787   1.993   2.372   3.564 -1.6828  0.2247  0.5620
 5717SOL    HW228788   1.960   2.375   3.699 -0.5528 -1.0777  0.2537
 5718SOL     OW28789   3.635   2.784   4.926  0.6413  0.0070 -0.5770
 5718SOL    HW128790   3.593   2.754   4.846 -0.1604 -0.0530 -0.1349
 5718SOL    HW228791   3.725   2.751   4.924  0.1089 -1.6989  2.5483
 5719SOL     OW28792   0.954   4.590   8.490 -0.2662 -0.5316  0.3561
 5719SOL    HW128793   0.983   4.586   8.581 -2.6208  5.3377  1.3754
 5719SOL    HW228794   0.964   4.685   8.481  0.0767 -0.6801 -0.9756
 5720SOL     OW28795   4.538   2.436   5.996 -0.5386 -0.1276 -0.1374
 5720SOL    HW128796   4.585   2.481   5.926 -1.7976 -0.9356 -1.5082
 5720SOL    HW228797   4.586   2.353   5.998  0.2241  0.2820 -1.4682
 5721SOL     OW28798   1.853   1.179   3.961  0.3850  0.5601 -0.2148
 5721SOL    HW128799   1.927   1.156   3.905 -0.6855  1.7825 -2.1043
 5721SOL    HW228800   1.780   1.156   3.904 -1.2363 -0.7243  2.3749
 5722SOL     OW28801   4.158   1.966   3.113 -0.4214  0.0518 -0.2513
 5722SOL    HW128802   4.065   1.987   3.118 -0.6135 -0.3067 -2.3901
 5722SOL    HW228803   4.179   1.949   3.205 -0.6470 -1.2832 -0.4461
 5723SOL     OW28804   3.202   2.792   9.362 -0.0814  0.3579 -0.2535
 5723SOL    HW128805   3.241   2.760   9.443 -1.3803 -2.2782 -0.6929
 5723SOL    HW228806   3.285   2.796   9.315 -1.1788 -1.2584 -2.2924
 5724SOL     OW28807   2.391   0.710   8.001  0.5675  0.6682 -0.8384
 5724SOL    HW128808   2.321   0.775   7.987  0.1426 -0.2652 -2.9915
 5724SOL    HW228809   2.433   0.755   8.074 -1.3218  0.6389  0.2786
 5725SOL     OW28810   3.531   2.049  10.101 -0.3295 -0.3818 -0.1609
 5725SOL    HW128811   3.575   2.058  10.186  2.1272  2.4003 -1.7650
 5725SOL    HW228812   3.606   2.061  10.043  0.4332 -1.4797  0.5932
 5726SOL     OW28813   2.559   2.065   2.604  0.2008  0.0463 -0.2913
 5726SOL    HW128814   2.535   2.065   2.696  0.5119 -0.5061 -0.2061
 5726SOL    HW228815   2.614   2.144   2.602 -1.8132  1.4564  0.6509
 5727SOL     OW28816   3.065   1.380   1.071 -0.3526  0.1284  0.0724
 5727SOL    HW128817   2.992   1.356   1.128  0.1981 -1.1437  0.2457
 5727SOL    HW228818   3.028   1.354   0.986  0.1369 -1.5203  0.3559
 5728SOL     OW28819   2.512   0.268  14.619 -0.4762  0.6447 -0.1261
 5728SOL    HW128820   2.455   0.198  14.651 -0.5572 -0.0746 -1.8240
 5728SOL    HW228821   2.554   0.297  14.700 -0.7969  3.8244 -1.1107
 5729SOL     OW28822   1.458   0.039  16.776 -0.1867 -0.2231  0.3563
 5729SOL    HW128823   1.519   0.007  16.843  0.2862  0.9039  0.4611
 5729SOL    HW228824   1.404   4.696  16.765 -0.2152 -0.3109  1.1337
 5730SOL     OW28825   3.878   1.775   4.376  0.8070 -0.3146  0.2797
 5730SOL    HW128826   3.878   1.681   4.359 -0.1246 -0.3900  0.7067
 5730SOL    HW228827   3.788   1.795   4.348  1.1619  2.4844  1.1725
 5731SOL     OW28828   1.242   0.640   4.935 -0.3982 -0.7212  0.8001
 5731SOL    HW128829   1.183   0.575   4.897 -0.2800 -0.2551 -0.1802
 5731SOL    HW228830   1.280   0.689   4.863 -1.6515 -1.9253 -0.6619
 5732SOL     OW28831   0.549   0.545  11.696  0.6279 -0.1462  0.2565
 5732SOL    HW128832   0.501   0.522  11.616 -0.7078  1.4173  0.6147
 5732SOL    HW228833   0.601   0.465  11.710 -1.3067 -1.3686  0.4944
 5733SOL     OW28834   1.774   0.645   6.311  0.1229 -0.1533 -0.3624
 5733SOL    HW128835   1.838   0.700   6.358  0.1214 -0.2271 -0.2739
 5733SOL    HW228836   1.815   0.559   6.310  3.5294  1.4863 -2.0063
 5734SOL     OW28837   1.484   2.941   9.365  0.2989 -0.4841  0.0667
 5734SOL    HW128838   1.553   2.892   9.409 -1.5167 -3.2287 -0.1186
 5734SOL    HW228839   1.412   2.945   9.428  1.2241  2.4847  0.9312
 5735SOL     OW28840   2.222   1.895  13.446  0.2816 -0.1070  0.6017
 5735SOL    HW128841   2.137   1.937  13.459  0.2224 -0.2534  0.6852
 5735SOL    HW228842   2.283   1.967  13.463 -2.2967  1.8686  1.4666
 5736SOL     OW28843   2.634   0.030   3.423 -0.1830  0.0699  0.1660
 5736SOL    HW128844   2.555   0.014   3.371 -0.4266 -1.3320  0.9845
 5736SOL    HW228845   2.617   0.125   3.428 -3.8442 -0.6665  1.9348
 5737SOL     OW28846   0.950   1.258   0.593 -0.3013 -0.1938 -0.2619
 5737SOL    HW128847   0.956   1.354   0.599  0.1561 -0.2407  0.0386
 5737SOL    HW228848   1.042   1.231   0.600 -0.8936 -2.7937 -2.3084
 5738SOL     OW28849   3.328   1.940   8.492  0.4674 -0.4961 -0.2728
 5738SOL    HW128850   3.341   1.878   8.564 -0.1017 -1.1157 -0.7079
 5738SOL    HW228851   3.368   1.889   8.421 -0.2883 -1.3239 -0.1086
 5739SOL     OW28852   0.613   3.930   9.419  0.0470 -0.0122  0.0972
 5739SOL    HW128853   0.604   3.906   9.511 -2.1580 -2.2067 -0.6893
 5739SOL    HW228854   0.534   3.984   9.415 -0.8819 -1.3414  0.5210
 5740SOL     OW28855   1.649   0.126   3.253 -0.0687 -0.6347 -0.9760
 5740SOL    HW128856   1.627   0.039   3.286  0.1588 -0.3388 -0.0354
 5740SOL    HW228857   1.561   0.159   3.235 -0.8540 -3.5991 -2.6110
 5741SOL     OW28858   3.111   1.238   0.474  0.5020 -0.1929 -0.0217
 5741SOL    HW128859   3.022   1.261   0.447  0.8818 -0.1622 -1.2305
 5741SOL    HW228860   3.110   1.146   0.451  0.6787  0.1682 -1.4775
 5742SOL     OW28861   1.152   4.661   9.034 -0.2754  0.4510  0.2909
 5742SOL    HW128862   1.242   4.633   9.051 -1.0095 -1.1673  1.5043
 5742SOL    HW228863   1.131   4.694   9.121  0.0532  1.8674 -0.1610
 5743SOL     OW28864   3.067   0.663   9.688 -0.0047  0.0333  0.5046
 5743SOL    HW128865   3.090   0.664   9.781  1.3289  3.7485  0.1284
 5743SOL    HW228866   3.152   0.633   9.656  0.1189 -0.9481  1.7442
 5744SOL     OW28867   2.834   1.573   6.585  0.1632  1.4662 -0.2699
 5744SOL    HW128868   2.859   1.532   6.502 -0.4526 -1.3116  0.9375
 5744SOL    HW228869   2.872   1.661   6.583  2.5082  0.4431 -1.1270
 5745SOL     OW28870   0.159   0.663  15.307  0.5323  0.0125 -0.3743
 5745SOL    HW128871   0.247   0.684  15.338  0.3973 -1.0205  0.7122
 5745SOL    HW228872   0.135   0.750  15.275  1.1044  0.2708 -0.1084
 5746SOL     OW28873   2.008   3.332   6.120 -0.3254 -0.3822  0.1389
 5746SOL    HW128874   1.933   3.311   6.065 -0.1637 -0.2895 -0.1168
 5746SOL    HW228875   1.980   3.306   6.208 -1.1433 -0.8750 -0.2729
 5747SOL     OW28876   3.937   0.306  11.715 -0.1259 -0.6374 -0.3056
 5747SOL    HW128877   3.865   0.283  11.657 -0.1742 -0.0840 -0.4648
 5747SOL    HW228878   3.988   0.225  11.710  1.6461  0.4293  0.5691
 5748SOL     OW28879   0.376   2.556  13.329 -0.0271  0.4170  0.1062
 5748SOL    HW128880   0.305   2.574  13.391 -0.8221  0.0510 -0.7005
 5748SOL    HW228881   0.431   2.629  13.356 -0.4073 -0.2413  2.6582
 5749SOL     OW28882   1.807   2.777  10.194  0.1050 -0.4524  0.2818
 5749SOL    HW128883   1.773   2.692  10.166 -0.7699 -0.2628  0.7780
 5749SOL    HW228884   1.883   2.784  10.136  0.2024 -0.1101  0.4522
 5750SOL     OW28885   2.723   3.701   8.060  0.3133  0.2469 -0.0111
 5750SOL    HW128886   2.779   3.625   8.047  0.3416  0.5424 -1.5834
 5750SOL    HW228887   2.775   3.768   8.104 -1.7532  1.3580  0.7535
 5751SOL     OW28888   3.942   1.271   1.900 -0.0694  0.0533  0.5260
 5751SOL    HW128889   4.013   1.208   1.912  0.8123  0.7553 -1.0299
 5751SOL    HW228890   3.888   1.269   1.979 -0.3539  1.6073  0.3689
 5752SOL     OW28891   2.362   0.098  10.194 -0.0726 -0.2353 -0.1226
 5752SOL    HW128892   2.331   0.059  10.112 -1.5418  1.1163 -0.2188
 5752SOL    HW228893   2.275   0.106  10.234  0.1791  1.6719  0.0280
 5753SOL     OW28894   1.857   0.825   3.764  0.0345 -0.1116  0.3363
 5753SOL    HW128895   1.941   0.782   3.777  0.0348 -0.7837 -1.9406
 5753SOL    HW228896   1.846   0.890   3.833  1.5805  0.5774 -0.0780
 5754SOL     OW28897   1.602   1.436  11.684  0.3003  0.1916  0.2411
 5754SOL    HW128898   1.632   1.499  11.617  1.1215 -0.5359 -0.0797
 5754SOL    HW228899   1.532   1.389  11.638  0.4428  1.0826 -0.9116
 5755SOL     OW28900   2.034   3.269   7.052 -0.0029 -0.3093 -0.6305
 5755SOL    HW128901   1.947   3.231   7.065 -1.0750  2.2120 -0.5613
 5755SOL    HW228902   2.019   3.326   6.977  0.2748 -0.2735 -0.6592
 5756SOL     OW28903   3.404   2.588   4.468 -0.1075 -0.6036  0.1378
 5756SOL    HW128904   3.476   2.537   4.431 -3.0672 -2.7642 -2.6185
 5756SOL    HW228905   3.392   2.652   4.398  0.4912 -1.1366 -0.4523
 5757SOL     OW28906   1.468   3.907   2.616  0.4555 -0.7402 -0.1091
 5757SOL    HW128907   1.471   4.002   2.630  0.0157 -0.7424 -0.0157
 5757SOL    HW228908   1.419   3.892   2.535 -1.1560 -0.0236  0.7385
 5758SOL     OW28909   3.225   0.466   1.447 -0.0611  0.0606  0.0777
 5758SOL    HW128910   3.242   0.438   1.357  1.2829  0.5181  0.1951
 5758SOL    HW228911   3.129   0.460   1.442  0.2563 -2.0161 -3.3450
 5759SOL     OW28912   0.266   0.811   1.393  0.6546  0.0023  0.1394
 5759SOL    HW128913   0.187   0.797   1.445 -0.7036  0.8844 -1.7240
 5759SOL    HW228914   0.318   0.876   1.441  0.9148  0.1419 -0.3312
 5760SOL     OW28915   2.320   4.022   8.388  0.1868  0.1817 -0.8495
 5760SOL    HW128916   2.277   4.092   8.337 -0.4789  0.2556 -0.1841
 5760SOL    HW228917   2.287   4.039   8.476 -0.0209 -0.9281 -0.7207
 5761SOL     OW28918   0.866   0.692  13.049 -0.7757 -0.1664 -0.2348
 5761SOL    HW128919   0.837   0.673  12.960 -1.0371 -1.8464  0.2077
 5761SOL    HW228920   0.815   0.770  13.070  1.5239  1.5778 -1.1062
 5762SOL     OW28921   3.700   1.012   6.038  0.1210 -0.0660  0.5543
 5762SOL    HW128922   3.714   0.994   5.944  0.3176 -1.7440  0.9088
 5762SOL    HW228923   3.777   1.065   6.057  0.7189 -0.5785 -0.3972
 5763SOL     OW28924   4.441   1.011  16.033  0.1584  0.4896 -0.0699
 5763SOL    HW128925   4.535   1.029  16.036 -0.2218  2.7193 -0.9582
 5763SOL    HW228926   4.402   1.056  16.108  1.4941  0.7396  0.4801
 5764SOL     OW28927   2.485   2.283   5.305 -0.3032 -0.7509 -0.6683
 5764SOL    HW128928   2.515   2.368   5.339 -0.5012 -0.0955 -2.1344
 5764SOL    HW228929   2.496   2.301   5.212 -1.8613  0.6596 -0.5666
 5765SOL     OW28930   3.666   0.892   3.823  0.4993 -0.2796  1.2763
 5765SOL    HW128931   3.729   0.961   3.843  0.3700  0.0525  0.5518
 5765SOL    HW228932   3.608   0.941   3.765 -0.5646 -0.5233  2.1374
 5766SOL     OW28933   0.089   2.287   4.987  0.1921  0.5321  1.1934
 5766SOL    HW128934   0.097   2.222   4.918  0.8711 -0.8489  2.5856
 5766SOL    HW228935   0.043   2.228   5.048  1.3454 -0.6831  0.8761
 5767SOL     OW28936   4.507   2.882  15.518  0.2007  0.5990  0.0801
 5767SOL    HW128937   4.582   2.822  15.524 -0.5828 -0.3971 -0.0661
 5767SOL    HW228938   4.435   2.823  15.494  0.7788  0.5150 -1.4748
 5768SOL     OW28939   3.051   3.603   3.262  0.5244 -0.5042 -0.0696
 5768SOL    HW128940   2.986   3.586   3.194  0.6855 -2.5258  0.2812
 5768SOL    HW228941   3.123   3.546   3.235  2.5671  0.4970  3.1694
 5769SOL     OW28942   0.483   2.316   8.421 -0.2014 -0.0548  0.2130
 5769SOL    HW128943   0.500   2.324   8.514  0.3018 -1.7941  0.2674
 5769SOL    HW228944   0.387   2.310   8.419 -0.4362  4.2061  0.4225
 5770SOL     OW28945   1.990   3.270  13.064 -0.4378  0.3272 -0.7560
 5770SOL    HW128946   1.958   3.192  13.018 -0.7827 -0.9368  1.6308
 5770SOL    HW228947   2.081   3.252  13.087 -0.7246  0.5184  0.5197
 5771SOL     OW28948   0.398   0.722  15.412 -0.5437 -0.2190 -0.2157
 5771SOL    HW128949   0.363   0.794  15.464 -1.1101  0.6633 -1.8010
 5771SOL    HW228950   0.469   0.768  15.367  1.3325 -2.5383  0.3673
 5772SOL     OW28951   0.822   4.259   4.374 -0.1479 -0.2760 -0.2404
 5772SOL    HW128952   0.789   4.349   4.386  3.3814  0.9245  0.3368
 5772SOL    HW228953   0.795   4.212   4.453  0.3186 -1.8141 -0.9982
 5773SOL     OW28954   4.434   0.169   3.000  0.7974 -0.1896 -0.2433
 5773SOL    HW128955   4.468   0.179   3.089  0.3098  2.0844 -0.3157
 5773SOL    HW228956   4.437   0.254   2.957  0.3622 -0.5393 -0.9659
 5774SOL     OW28957   3.589   1.512   3.265  0.3906 -0.1698  0.5602
 5774SOL    HW128958   3.499   1.507   3.233  0.0873 -1.6796  1.6291
 5774SOL    HW228959   3.577   1.588   3.323  1.8397  0.7815 -0.3657
 5775SOL     OW28960   1.736   0.209   6.410  0.5338  0.1359  0.3855
 5775SOL    HW128961   1.809   0.147   6.400 -0.5634 -1.4911  2.4179
 5775SOL    HW228962   1.771   0.289   6.372  1.3676 -0.2345  0.3644
 5776SOL     OW28963   4.504   0.162  16.697  0.2317  0.1941  0.6412
 5776SOL    HW128964   4.509   0.200  16.785  2.2707  1.9105 -0.2172
 5776SOL    HW228965   4.451   0.083  16.705 -1.0736  0.6844 -3.0902
 5777SOL     OW28966   2.038   2.712  16.206  0.1343 -0.0952  0.8548
 5777SOL    HW128967   2.058   2.714  16.113 -0.6575 -1.7845  0.6389
 5777SOL    HW228968   2.045   2.617  16.217 -2.3383 -0.4135 -0.4669
 5778SOL     OW28969   2.981   3.980   4.601 -0.0532 -0.7029 -0.3510
 5778SOL    HW128970   2.912   4.046   4.612  2.5480  1.4304  3.3963
 5778SOL    HW228971   3.036   3.999   4.677 -0.6744 -2.2421  0.4688
 5779SOL     OW28972   1.564   1.735   2.860  0.2062  0.0726  0.3508
 5779SOL    HW128973   1.641   1.769   2.814  0.5725  0.2227  1.0913
 5779SOL    HW228974   1.519   1.690   2.789  1.1339  0.7423 -0.6684
 5780SOL     OW28975   0.649   2.997   4.946  0.5411  1.0367 -0.0100
 5780SOL    HW128976   0.635   3.092   4.955  0.5788  1.1632 -1.2737
 5780SOL    HW228977   0.739   2.997   4.913  0.5684  0.1322  0.0740
 5781SOL     OW28978   4.638   4.395   3.726  0.0281 -0.0486 -0.0975
 5781SOL    HW128979   4.726   4.421   3.698 -0.1505  0.0887 -0.5377
 5781SOL    HW228980   4.658   4.349   3.807  1.4704 -0.6723 -0.8054
 5782SOL     OW28981   3.508   3.898   6.847 -0.0889 -0.2919  0.4265
 5782SOL    HW128982   3.452   3.888   6.771  1.6551 -1.1276 -0.7403
 5782SOL    HW228983   3.442   3.927   6.910 -0.1524  1.0584 -0.2668
 5783SOL     OW28984   0.406   0.639   5.505  0.0222 -0.3803  0.4677
 5783SOL    HW128985   0.375   0.575   5.571 -2.3688 -0.7256 -0.9876
 5783SOL    HW228986   0.332   0.676   5.458  0.8271 -0.0592 -0.5433
 5784SOL     OW28987   2.124   0.185   2.061  0.0738  0.2039 -0.1526
 5784SOL    HW128988   2.065   0.255   2.089  0.9485  1.1070 -0.5729
 5784SOL    HW228989   2.212   0.223   2.063  1.8193 -3.9131  2.1019
 5785SOL     OW28990   4.263   3.644  17.074 -0.1299  0.1738 -0.0477
 5785SOL    HW128991   4.188   3.618  17.128  1.9527 -1.8062  1.8848
 5785SOL    HW228992   4.269   3.569  17.015  2.0433 -0.6051  1.1682
 5786SOL     OW28993   3.590   1.383   5.479  0.0351  0.1030 -0.2272
 5786SOL    HW128994   3.660   1.391   5.544 -1.4780  0.8843  1.2729
 5786SOL    HW228995   3.630   1.368   5.393 -1.3613  0.4329 -0.9197
 5787SOL     OW28996   0.841   3.765   2.355  0.1148 -0.0857  0.0234
 5787SOL    HW128997   0.790   3.830   2.306  0.3778 -1.4101 -2.0152
 5787SOL    HW228998   0.777   3.707   2.396  0.0929 -0.9457 -1.2069
 5788SOL     OW28999   4.129   0.437   5.891 -0.6792 -0.1112 -0.1740
 5788SOL    HW129000   4.102   0.464   5.979  1.5088 -3.2893  1.4573
 5788SOL    HW229001   4.220   0.409   5.893  0.2114  2.5691 -2.4915
 5789SOL     OW29002   2.248   1.463   7.325  0.0838 -0.0355  0.1923
 5789SOL    HW129003   2.342   1.470   7.342 -0.1295  0.8041  1.0284
 5789SOL    HW229004   2.220   1.508   7.404 -0.3086 -0.7207  0.4467
 5790SOL     OW29005   1.842   4.391   8.524  0.0803 -0.3748 -0.3500
 5790SOL    HW129006   1.883   4.366   8.442 -1.2054  0.3470 -1.2066
 5790SOL    HW229007   1.892   4.468   8.550 -0.8199 -0.7251  2.4289
 5791SOL     OW29008   0.282   4.133   3.417  0.4781 -0.2695  0.8279
 5791SOL    HW129009   0.267   4.039   3.430 -0.6197 -0.1840  0.1662
 5791SOL    HW229010   0.192   4.165   3.421  1.0108  1.3773 -0.4413
 5792SOL     OW29011   3.965   4.732  11.616 -0.0989  0.0456  0.1840
 5792SOL    HW129012   3.939   4.655  11.666  1.4321 -1.1033 -0.7962
 5792SOL    HW229013   4.029   0.028  11.680 -0.6931  0.5600  0.5258
 5793SOL     OW29014   3.437   2.713   8.227 -0.5645  0.0108  0.2181
 5793SOL    HW129015   3.369   2.648   8.240 -0.6615 -0.0518 -0.5911
 5793SOL    HW229016   3.502   2.681   8.289  0.5437 -1.9509 -1.9552
 5794SOL     OW29017   0.311   4.271   8.147  0.5177 -0.1629  0.1448
 5794SOL    HW129018   0.228   4.254   8.103  0.5846  1.5978 -0.6683
 5794SOL    HW229019   0.367   4.203   8.110 -1.1280 -0.7777 -1.2178
 5795SOL     OW29020   3.114   1.098   5.367 -0.2454 -0.1089 -0.9588
 5795SOL    HW129021   3.132   1.172   5.425  1.0073 -2.3165  1.4871
 5795SOL    HW229022   3.021   1.081   5.382 -0.2221  0.0287 -0.6571
 5796SOL     OW29023   4.084   4.007   8.940  0.1004  0.3269  0.6851
 5796SOL    HW129024   4.109   3.985   8.850  0.1466 -2.6763  1.4448
 5796SOL    HW229025   4.012   3.945   8.956  1.2079 -1.0662  0.3157
 5797SOL     OW29026   2.910   4.500   4.802 -0.0377 -0.2431  0.4728
 5797SOL    HW129027   2.969   4.500   4.727  1.4322 -0.3549  1.6131
 5797SOL    HW229028   2.839   4.465   4.749 -0.1169  1.5882 -0.6170
 5798SOL     OW29029   3.182   2.432   4.538  0.4721 -0.5503  0.1208
 5798SOL    HW129030   3.262   2.482   4.523 -0.4226  1.0840  0.7502
 5798SOL    HW229031   3.138   2.502   4.587  0.1648 -0.8608  0.2911
 5799SOL     OW29032   0.136   0.855  16.810 -0.3666  0.4747  0.4886
 5799SOL    HW129033   0.129   0.780  16.869 -1.8203  0.0005 -0.2793
 5799SOL    HW229034   0.221   0.848  16.766 -1.6937  0.7428 -2.1325
 5800SOL     OW29035   2.621   2.082  11.663  0.2321 -0.0133 -0.3365
 5800SOL    HW129036   2.662   2.040  11.587 -1.4844  0.5427 -1.5784
 5800SOL    HW229037   2.607   2.164  11.616  0.7848  0.3675  0.1775
 5801SOL     OW29038   1.210   3.287   6.206  0.6580 -0.3790  0.5003
 5801SOL    HW129039   1.156   3.209   6.215  2.4612 -1.6041  0.8796
 5801SOL    HW229040   1.296   3.251   6.227  0.9839  0.7962  1.2032
 5802SOL     OW29041   3.563   1.840   3.703  0.1693 -0.8781 -0.1366
 5802SOL    HW129042   3.609   1.767   3.745 -0.3598 -0.1506  1.6764
 5802SOL    HW229043   3.506   1.873   3.773  2.0411  0.3974  0.7690
 5803SOL     OW29044   1.574   0.194   8.346 -0.3327  0.0506 -0.1416
 5803SOL    HW129045   1.598   0.107   8.377 -1.9599 -0.6835 -0.9363
 5803SOL    HW229046   1.572   0.178   8.252  0.3979  0.5563 -0.2413
 5804SOL     OW29047   3.863   0.415   3.826  0.2877  0.2632  0.2958
 5804SOL    HW129048   3.821   0.498   3.850  1.0088  0.3849  1.0956
 5804SOL    HW229049   3.792   0.359   3.794  0.9860 -0.6931  0.4259
 5805SOL     OW29050   3.664   3.999   4.223  0.6110  0.3321  0.0297
 5805SOL    HW129051   3.600   4.005   4.152  2.4958  2.0297 -1.4956
 5805SOL    HW229052   3.675   4.090   4.251  2.6180 -0.2017  0.9423
 5806SOL     OW29053   3.618   3.835   5.812  0.8192 -0.3995 -0.0265
 5806SOL    HW129054   3.697   3.840   5.867  1.7129  1.3328 -1.4702
 5806SOL    HW229055   3.637   3.751   5.769 -0.4946  0.4731 -2.2781
 5807SOL     OW29056   2.323   4.504  10.342 -0.3189  0.6741 -0.1583
 5807SOL    HW129057   2.349   4.439  10.278 -0.2154  0.8808 -0.3266
 5807SOL    HW229058   2.231   4.478  10.352  0.1872 -0.6873  0.9368
 5808SOL     OW29059   4.616   1.290   7.787 -0.0420 -0.2029 -0.4252
 5808SOL    HW129060   4.560   1.230   7.837  0.8627  0.5547  1.5286
 5808SOL    HW229061   4.703   1.272   7.825 -0.0877 -0.3089 -0.3706
 5809SOL     OW29062   2.380   3.210   8.140 -0.3249  0.4471  0.1622
 5809SOL    HW129063   2.436   3.257   8.203 -0.4397 -0.2368  0.7703
 5809SOL    HW229064   2.413   3.121   8.146 -1.0662  0.0386 -2.0620
 5810SOL     OW29065   1.937   3.941   3.607  0.2857  0.3983  0.3947
 5810SOL    HW129066   2.030   3.960   3.593  0.4107 -0.1405  0.5145
 5810SOL    HW229067   1.943   3.878   3.679 -1.7054 -1.8881 -1.4614
 5811SOL     OW29068   0.897   0.225   8.829 -0.3841  0.1512 -0.2011
 5811SOL    HW129069   0.884   0.312   8.867 -0.6067 -0.7320  1.7327
 5811SOL    HW229070   0.991   0.209   8.824 -0.3030  1.3731 -2.3169
 5812SOL     OW29071   3.142   3.577   3.724 -0.0295  0.4746 -0.0230
 5812SOL    HW129072   3.132   3.564   3.818 -1.3353 -0.1198 -0.2349
 5812SOL    HW229073   3.138   3.490   3.684  0.1196  0.4719 -0.0295
 5813SOL     OW29074   0.958   2.970   9.428 -0.2266 -0.2502 -0.0874
 5813SOL    HW129075   0.869   2.997   9.446  0.1460  1.1836 -0.3747
 5813SOL    HW229076   0.967   3.022   9.348 -1.7425 -0.5121 -0.4259
 5814SOL     OW29077   1.141   0.554   9.698  0.5057  0.3955 -0.6848
 5814SOL    HW129078   1.143   0.495   9.774 -0.0533  0.2709 -0.7675
 5814SOL    HW229079   1.092   0.630   9.727 -0.5282 -0.0291 -1.3296
 5815SOL     OW29080   0.518   1.440  12.567 -0.1776 -0.3622  0.4696
 5815SOL    HW129081   0.532   1.424  12.473  0.0757 -1.0769  0.6276
 5815SOL    HW229082   0.460   1.516  12.565  1.0029  0.5158 -0.6581
 5816SOL     OW29083   3.510   2.351  11.860  0.3928 -0.1344  0.8028
 5816SOL    HW129084   3.561   2.276  11.830  1.0961  0.2417  1.0494
 5816SOL    HW229085   3.530   2.420  11.797 -0.8750 -0.6218 -0.1424
 5817SOL     OW29086   0.640   3.420   6.078  0.2313  0.0504 -0.1102
 5817SOL    HW129087   0.606   3.447   6.163  3.2927  1.9063  0.5058
 5817SOL    HW229088   0.725   3.384   6.103  0.6007 -0.9873 -2.8851
 5818SOL     OW29089   1.020   1.533   4.106 -0.2116 -0.0637 -0.5651
 5818SOL    HW129090   0.940   1.585   4.118  1.0016  1.7198 -0.2718
 5818SOL    HW229091   1.070   1.590   4.049  1.6951 -1.6938 -0.5439
 5819SOL     OW29092   0.393   1.919   8.133  0.0359 -0.3462 -0.1786
 5819SOL    HW129093   0.470   1.863   8.146 -0.3131 -0.0130  3.4460
 5819SOL    HW229094   0.324   1.867   8.092  0.9671 -1.3475 -0.5007
 5820SOL     OW29095   0.612   1.385   4.391 -0.6441  0.1146 -0.1508
 5820SOL    HW129096   0.616   1.420   4.302 -0.5067 -1.2651 -0.6887
 5820SOL    HW229097   0.685   1.429   4.434  0.2720 -1.9565  0.4014
 5821SOL     OW29098   3.629   3.648  14.233 -0.3152  0.1621  0.3641
 5821SOL    HW129099   3.709   3.648  14.284 -0.6713  3.0719  0.9437
 5821SOL    HW229100   3.570   3.680  14.301  1.1284  2.8837  0.3403
 5822SOL     OW29101   4.244   3.678   2.981 -0.1588  0.5320  0.2077
 5822SOL    HW129102   4.309   3.741   2.952 -1.0009  1.0908 -0.4509
 5822SOL    HW229103   4.181   3.731   3.029  0.5394 -0.0673  1.7973
 5823SOL     OW29104   2.845   3.407   6.416 -0.0004 -0.1754 -0.4324
 5823SOL    HW129105   2.937   3.380   6.415  0.2430  0.6357 -0.1126
 5823SOL    HW229106   2.799   3.334   6.457 -1.9713  1.9995  1.1897
 5824SOL     OW29107   1.145   2.948   4.165  0.1480  0.1243 -0.1159
 5824SOL    HW129108   1.180   3.008   4.099  1.4144  0.2125  0.6319
 5824SOL    HW229109   1.225   2.899   4.183  0.6750  1.1184  0.2529
 5825SOL     OW29110   4.211   3.089   8.325  0.2728  0.0119  0.4067
 5825SOL    HW129111   4.269   3.045   8.386  0.7615 -2.0424 -1.5378
 5825SOL    HW229112   4.239   3.049   8.242 -0.1747  2.5863 -0.9835
 5826SOL     OW29113   1.505   3.483   3.637  0.1924  0.4402  0.1386
 5826SOL    HW129114   1.444   3.556   3.635  2.2571  2.1953  1.8287
 5826SOL    HW229115   1.499   3.453   3.728 -0.1775 -1.6492 -0.5686
 5827SOL     OW29116   3.370   0.343  15.208 -0.2999  0.4264 -0.4474
 5827SOL    HW129117   3.426   0.415  15.178 -2.0384  2.0264  0.1355
 5827SOL    HW229118   3.309   0.329  15.136 -0.5683 -0.4643 -0.0423
 5828SOL     OW29119   4.535   3.637   5.854  0.0885 -0.4098  0.1224
 5828SOL    HW129120   4.581   3.553   5.860 -0.7404 -0.8421  0.3735
 5828SOL    HW229121   4.547   3.651   5.760 -1.2329  0.4488  0.0797
 5829SOL     OW29122   4.411   0.688   2.110  0.8387 -0.1275 -0.0029
 5829SOL    HW129123   4.428   0.732   2.193 -1.4078  0.3077  0.2083
 5829SOL    HW229124   4.492   0.711   2.065  0.9742 -0.5751  0.0093
 5830SOL     OW29125   0.342   4.477   2.583 -0.4901  0.1060 -0.8133
 5830SOL    HW129126   0.421   4.450   2.630 -1.7374  0.1453  1.2873
 5830SOL    HW229127   0.377   4.547   2.528  1.0528 -0.0030  0.0185
 5831SOL     OW29128   2.586   4.102   8.614  0.4070 -0.4163 -0.5451
 5831SOL    HW129129   2.649   4.041   8.577  0.3571  0.1414 -1.5534
 5831SOL    HW229130   2.652   4.163   8.645  1.8238 -0.1640 -4.0741
 5832SOL     OW29131   2.600   0.554   1.067  0.4518 -0.2154  0.0722
 5832SOL    HW129132   2.654   0.565   1.145  0.7950  3.0356 -0.6150
 5832SOL    HW229133   2.632   0.468   1.042  1.0486  0.0908 -0.2343
 5833SOL     OW29134   1.248   3.138   6.906  0.5092  0.7125  0.7675
 5833SOL    HW129135   1.208   3.057   6.873  0.5823  0.6894  0.7360
 5833SOL    HW229136   1.194   3.216   6.893 -1.4868 -0.8403 -0.2139
 5834SOL     OW29137   0.597   1.545   6.408 -0.4592  0.2649  0.0910
 5834SOL    HW129138   0.608   1.640   6.403 -1.4914  0.3640 -0.1353
 5834SOL    HW229139   0.653   1.524   6.333 -2.7056  0.9532 -1.7516
 5835SOL     OW29140   2.725   0.752   1.478  0.1530  0.2897 -0.2173
 5835SOL    HW129141   2.792   0.767   1.545  0.2525 -0.2815 -0.1892
 5835SOL    HW229142   2.778   0.694   1.423  0.5282 -1.2232  1.7794
 5836SOL     OW29143   3.214   0.196   7.738  0.3528  0.3899  0.4027
 5836SOL    HW129144   3.294   0.243   7.763  0.0631  1.6137 -0.9509
 5836SOL    HW229145   3.211   0.126   7.802  0.2313  1.1943  1.2739
 5837SOL     OW29146   2.191   2.060   6.525 -0.0480 -0.6378  0.1613
 5837SOL    HW129147   2.272   2.066   6.474 -0.7182 -2.5473 -1.1022
 5837SOL    HW229148   2.175   1.966   6.535 -2.3444 -0.5179 -2.5714
 5838SOL     OW29149   3.503   4.549   2.617  0.5146  0.0382  0.6410
 5838SOL    HW129150   3.477   4.621   2.675 -0.8950  0.0139  0.0416
 5838SOL    HW229151   3.418   4.517   2.588  1.2579 -2.3125  1.1072
 5839SOL     OW29152   0.180   1.624  12.583  0.7733 -0.2619  0.2334
 5839SOL    HW129153   0.090   1.603  12.559  0.5021 -0.0135  1.0559
 5839SOL    HW229154   0.209   1.537  12.608 -2.0959 -1.2305  0.1904
 5840SOL     OW29155   3.403   1.314   4.348 -0.1859  0.2235  0.0725
 5840SOL    HW129156   3.416   1.371   4.272 -1.0671  0.3870  0.0506
 5840SOL    HW229157   3.487   1.272   4.369  0.5496  1.4388 -0.3879
 5841SOL     OW29158   3.652   3.252   4.740  0.6451  0.1402  0.0857
 5841SOL    HW129159   3.575   3.217   4.785  0.8013  3.6854  3.1365
 5841SOL    HW229160   3.723   3.220   4.795  0.9756  0.9292  0.1163
 5842SOL     OW29161   4.724   2.777   7.912  0.1940 -0.6300  0.1294
 5842SOL    HW129162   0.027   2.858   7.944  0.3740 -1.5586  2.2407
 5842SOL    HW229163   4.632   2.802   7.897 -0.4357 -2.7277  0.4576
 5843SOL     OW29164   1.698   2.675   6.906 -0.1271 -0.7185  0.5815
 5843SOL    HW129165   1.741   2.731   6.970 -0.7101  2.9694 -2.2463
 5843SOL    HW229166   1.666   2.749   6.854 -1.2536 -1.6067  0.0139
 5844SOL     OW29167   0.230   2.719   6.529  0.1529 -0.0861 -0.2637
 5844SOL    HW129168   0.235   2.626   6.551  1.7428  0.4172  1.5227
 5844SOL    HW229169   0.181   2.722   6.447 -1.7181  0.7778  0.8901
 5845SOL     OW29170   1.269   2.818  10.666 -0.1393  0.2285  0.8298
 5845SOL    HW129171   1.177   2.796  10.652 -0.3292  1.6376 -0.2497
 5845SOL    HW229172   1.268   2.827  10.761  1.7630 -3.6339  1.2035
 5846SOL     OW29173   0.439   2.654   8.413 -0.2969 -0.1214  0.0140
 5846SOL    HW129174   0.437   2.563   8.384  1.7413 -0.6399  1.4322
 5846SOL    HW229175   0.354   2.667   8.454 -0.4608  1.3010 -0.7886
 5847SOL     OW29176   0.584   3.872  15.813  0.6065  0.1810  0.1457
 5847SOL    HW129177   0.679   3.873  15.799  0.8741  1.8974  2.1327
 5847SOL    HW229178   0.565   3.804  15.878  3.2557 -0.2605  0.4815
 5848SOL     OW29179   1.881   2.041   6.607  0.4397  0.2323  0.6188
 5848SOL    HW129180   1.960   2.030   6.555  1.8490 -0.2859  2.9014
 5848SOL    HW229181   1.871   1.952   6.642  1.2835 -0.1708 -0.1723
 5849SOL     OW29182   1.808   0.706   1.795  0.1021 -0.0384 -0.6013
 5849SOL    HW129183   1.778   0.692   1.885 -1.0147 -1.2933 -1.1719
 5849SOL    HW229184   1.878   0.768   1.814  1.5975 -1.5407 -1.3201
 5850SOL     OW29185   0.387   0.872   6.459 -0.0761 -0.6414 -0.0945
 5850SOL    HW129186   0.327   0.830   6.521  1.2519 -1.8831  0.3693
 5850SOL    HW229187   0.471   0.835   6.489  0.7744  0.6545 -0.9021
 5851SOL     OW29188   2.394   0.893   7.312  0.1465 -0.5235 -0.2396
 5851SOL    HW129189   2.341   0.972   7.321  1.8990  0.5715  0.6164
 5851SOL    HW229190   2.450   0.901   7.389  1.5802  1.7423 -1.5094
 5852SOL     OW29191   0.809   2.603   3.635  0.0876 -0.2616 -0.3003
 5852SOL    HW129192   0.739   2.662   3.662 -0.6592 -1.4715  0.3710
 5852SOL    HW229193   0.789   2.593   3.542  1.5627  0.6298 -0.7146
 5853SOL     OW29194   3.397   0.047   5.798  0.1507 -0.2536  0.2265
 5853SOL    HW129195   3.385   0.141   5.782 -0.4655 -0.4474 -0.4220
 5853SOL    HW229196   3.480   0.034   5.845 -0.0025  1.0018  0.8357
 5854SOL     OW29197   1.494   2.413   4.960  0.5338 -0.6781  0.2811
 5854SOL    HW129198   1.425   2.403   5.025 -1.3976 -1.1841 -1.8431
 5854SOL    HW229199   1.523   2.504   4.970 -4.6768  0.7971  2.0408
 5855SOL     OW29200   1.487   3.750   8.406 -0.2210 -0.0415 -0.0887
 5855SOL    HW129201   1.438   3.757   8.324 -0.3640 -0.5166 -0.0445
 5855SOL    HW229202   1.504   3.656   8.415  0.4026 -0.0877 -1.6964
 5856SOL     OW29203   0.482   2.190   3.307  0.6185 -0.4197 -0.2066
 5856SOL    HW129204   0.444   2.182   3.219  1.3849  2.0189 -0.7490
 5856SOL    HW229205   0.557   2.134   3.285 -0.3925 -1.2134 -1.6950
 5857SOL     OW29206   4.013   2.985   5.564 -0.2349  0.1311  0.2011
 5857SOL    HW129207   4.074   2.926   5.521 -1.5994 -1.0685 -0.0750
 5857SOL    HW229208   4.069   3.062   5.568 -0.6033  0.4211 -0.2483
 5858SOL     OW29209   1.645   1.587  10.746  0.2130 -0.1499  0.2121
 5858SOL    HW129210   1.726   1.548  10.712 -0.3658  0.3352 -1.7333
 5858SOL    HW229211   1.580   1.524  10.715  0.6715 -0.3257 -0.3755
 5859SOL     OW29212   1.270   1.241  11.794 -0.2997 -0.2871  0.3051
 5859SOL    HW129213   1.334   1.236  11.723 -0.9112 -0.6435 -0.2170
 5859SOL    HW229214   1.324   1.241  11.874 -1.6338 -1.1097  1.2042
 5860SOL     OW29215   1.423   0.443   8.078 -0.1084 -0.0008 -0.4208
 5860SOL    HW129216   1.338   0.401   8.083 -0.6625  1.1361 -0.3196
 5860SOL    HW229217   1.463   0.433   8.164  0.1373 -2.2008 -0.7909
 5861SOL     OW29218   2.842   0.948   9.122  0.2617 -0.3874  0.5397
 5861SOL    HW129219   2.761   0.911   9.087  0.0320 -0.6376  1.3415
 5861SOL    HW229220   2.831   0.917   9.212 -0.5115  0.1813  0.6414
 5862SOL     OW29221   2.503   1.553   8.200  0.5564 -0.3890  0.3986
 5862SOL    HW129222   2.526   1.550   8.293  0.4550  1.6411  0.5054
 5862SOL    HW229223   2.444   1.478   8.195 -1.5493  1.4029 -1.7242
 5863SOL     OW29224   4.225   1.814  16.127 -0.7681  0.0277  0.0602
 5863SOL    HW129225   4.277   1.889  16.157 -2.7095  2.3340 -2.3112
 5863SOL    HW229226   4.172   1.847  16.055 -2.9390 -0.3211  1.5194
 5864SOL     OW29227   1.637   1.632   8.500 -0.0915 -0.3132  0.0241
 5864SOL    HW129228   1.603   1.721   8.515  2.0861  0.5303 -0.1055
 5864SOL    HW229229   1.651   1.634   8.405  2.0471 -4.1482  0.2760
 5865SOL     OW29230   0.602   1.116   4.798  0.2580 -0.4366 -0.0845
 5865SOL    HW129231   0.522   1.098   4.848 -0.0265  0.2667 -0.2696
 5865SOL    HW229232   0.656   1.048   4.837  0.3927 -1.0691 -1.3894
 5866SOL     OW29233   0.202   3.381   8.348 -0.0525  0.3681 -0.1842
 5866SOL    HW129234   0.236   3.463   8.385  0.9638 -0.1764  0.0881
 5866SOL    HW229235   0.162   3.409   8.266  0.7624 -0.1372 -0.7574
 5867SOL     OW29236   2.739   0.322   0.975  0.0687  0.4081  0.4314
 5867SOL    HW129237   2.806   0.306   0.908 -1.3232 -0.7112 -0.6925
 5867SOL    HW229238   2.660   0.333   0.922  0.9465  0.0335 -0.9665
 5868SOL     OW29239   0.097   4.536  10.746  0.2461 -0.6113  0.0113
 5868SOL    HW129240   0.074   4.618  10.789  2.2709  0.1957 -0.4484
 5868SOL    HW229241   0.134   4.564  10.662 -0.7440  1.0296  0.1136
 5869SOL     OW29242   3.470   2.699   2.376 -0.4399 -0.0493 -0.4234
 5869SOL    HW129243   3.421   2.691   2.294  0.2924  1.5642 -1.0168
 5869SOL    HW229244   3.465   2.612   2.416  1.2157 -0.2733 -0.6936
 5870SOL     OW29245   1.224   0.231   7.000  0.1732  0.9350  0.3560
 5870SOL    HW129246   1.248   0.258   6.911 -0.5642 -2.1023 -0.7554
 5870SOL    HW229247   1.249   0.310   7.048  1.3506  0.1365  1.0357
 5871SOL     OW29248   2.579   0.379   4.213  0.3838  0.0622  0.1559
 5871SOL    HW129249   2.671   0.373   4.239  0.2754  0.0467  0.5243
 5871SOL    HW229250   2.574   0.459   4.161  1.8887 -1.2364 -2.0252
 5872SOL     OW29251   2.925   1.739   6.350 -0.0395  0.5681 -0.0853
 5872SOL    HW129252   2.911   1.645   6.336 -1.2152  0.6494  0.6335
 5872SOL    HW229253   2.986   1.756   6.278 -0.3913  1.4818 -0.1642
 5873SOL     OW29254   4.627   0.658  17.659 -0.0958  0.2602 -0.0433
 5873SOL    HW129255   4.558   0.601  17.694  0.2972  0.2735  0.7507
 5873SOL    HW229256   4.629   0.731  17.721 -2.2962 -0.5219  0.9753
 5874SOL     OW29257   0.583   1.676   0.519 -0.1552 -0.0021  0.3280
 5874SOL    HW129258   0.504   1.725   0.541  1.5900  2.2028  1.6498
 5874SOL    HW229259   0.597   1.693   0.425 -0.3566 -0.2532  0.2530
 5875SOL     OW29260   0.014   0.819  16.296 -0.4509  0.0730 -0.4503
 5875SOL    HW129261   0.010   0.913  16.281 -0.2890  0.3697  1.3801
 5875SOL    HW229262   4.678   0.809  16.359 -0.5083  0.4268 -0.4586
 5876SOL     OW29263   2.133   0.856  13.949 -0.1732 -0.2399  0.2767
 5876SOL    HW129264   2.119   0.919  13.878 -2.8247 -3.1015 -1.7403
 5876SOL    HW229265   2.126   0.772  13.902  1.1666  0.4136 -1.1009
 5877SOL     OW29266   0.571   2.582   2.866  0.6126 -0.1543 -0.0048
 5877SOL    HW129267   0.642   2.564   2.804  0.4975 -0.5488 -0.0212
 5877SOL    HW229268   0.563   2.677   2.854  0.5619 -0.3277 -1.3172
 5878SOL     OW29269   4.525   3.452   6.210 -0.0047  0.8667 -0.3462
 5878SOL    HW129270   4.543   3.358   6.203  2.0706  1.2783 -0.6557
 5878SOL    HW229271   4.610   3.489   6.187  1.4518 -1.6099  1.0057
 5879SOL     OW29272   3.524   2.612   6.506  0.3752  0.1106  0.4876
 5879SOL    HW129273   3.558   2.688   6.457  1.5161 -1.0759 -0.5769
 5879SOL    HW229274   3.445   2.587   6.459  0.8227 -2.1396  0.9214
 5880SOL     OW29275   3.136   2.350  10.882  0.5099  0.1103  0.1832
 5880SOL    HW129276   3.083   2.380  10.809 -1.4725 -0.5033  1.3574
 5880SOL    HW229277   3.108   2.260  10.899  2.5810 -0.7254 -0.8342
 5881SOL     OW29278   1.777   0.044   9.427 -0.4766 -0.3362 -0.4054
 5881SOL    HW129279   1.809   0.078   9.511 -0.9616 -0.3202 -0.2250
 5881SOL    HW229280   1.833   0.094   9.368 -0.3318  0.1720  0.1576
 5882SOL     OW29281   3.807   0.089   9.539  0.8246 -0.2446 -0.3668
 5882SOL    HW129282   3.837   0.137   9.616  1.7066  0.0319 -0.8941
 5882SOL    HW229283   3.820   4.732   9.564 -3.4114 -0.5187  0.8803
 5883SOL     OW29284   1.779   1.564   9.829 -0.1039  0.4433  0.1254
 5883SOL    HW129285   1.787   1.582   9.736 -0.0865  0.5941  0.1560
 5883SOL    HW229286   1.870   1.553   9.856 -0.1091  0.9060  0.3340
 5884SOL     OW29287   4.251   2.673   3.050 -0.1418 -0.3915  0.6291
 5884SOL    HW129288   4.214   2.709   2.970 -1.4658 -2.5360  0.2770
 5884SOL    HW229289   4.288   2.743   3.103  0.6988  0.0713 -0.5713
 5885SOL     OW29290   2.149   2.655   2.036 -0.1995 -0.0460 -0.1894
 5885SOL    HW129291   2.214   2.725   2.028  1.3519 -1.5342 -0.7532
 5885SOL    HW229292   2.087   2.672   1.966 -1.0631  2.3105  1.1455
 5886SOL     OW29293   2.929   1.622   7.805 -0.5689 -0.4840  0.4154
 5886SOL    HW129294   2.877   1.558   7.757  0.2588 -0.9936  0.2057
 5886SOL    HW229295   2.988   1.653   7.736 -1.3843  0.4623  0.1284
 5887SOL     OW29296   4.049   3.717   2.778  0.3476  0.6629  0.4213
 5887SOL    HW129297   4.117   3.705   2.844  0.6061 -0.1567  0.0181
 5887SOL    HW229298   4.098   3.711   2.695  0.5404 -1.5481  0.6861
 5888SOL     OW29299   0.418   1.324   7.987 -0.7702 -0.4698  0.3011
 5888SOL    HW129300   0.398   1.263   7.916 -2.0024  1.2637 -0.8693
 5888SOL    HW229301   0.476   1.384   7.940  2.9838 -3.2827  1.3748
 5889SOL     OW29302   2.366   3.467  12.971 -0.2129 -0.3630 -0.3290
 5889SOL    HW129303   2.374   3.458  12.876 -1.3785  1.0355 -0.5660
 5889SOL    HW229304   2.342   3.559  12.988  1.5963 -0.4139  2.5489
 5890SOL     OW29305   2.386   1.608   4.670  0.8116  0.7968 -0.0975
 5890SOL    HW129306   2.361   1.529   4.622 -1.1491  1.0401  0.5203
 5890SOL    HW229307   2.304   1.658   4.668 -0.0434 -0.6331 -1.1604
 5891SOL     OW29308   4.530   1.306   6.389  0.0975 -0.4356  0.3978
 5891SOL    HW129309   4.524   1.362   6.311 -1.1172 -0.7582  0.2610
 5891SOL    HW229310   4.500   1.367   6.456  2.0790  0.6869  0.2540
 5892SOL     OW29311   4.284   1.548   0.578 -0.3688  0.2099  0.5079
 5892SOL    HW129312   4.198   1.550   0.621 -1.4835  0.9442 -1.7739
 5892SOL    HW229313   4.332   1.615   0.626  1.5320 -0.3412 -0.6162
 5893SOL     OW29314   2.705   1.995  11.991 -0.4594  0.1837  0.1779
 5893SOL    HW129315   2.628   2.031  12.036  0.9934  2.3213  0.9351
 5893SOL    HW229316   2.741   2.081  11.968 -1.5311  0.3459 -0.8837
 5894SOL     OW29317   4.604   2.622  17.127  0.2127  0.1702 -0.1703
 5894SOL    HW129318   4.668   2.637  17.196  0.2851 -1.7732  0.2049
 5894SOL    HW229319   4.634   2.537  17.094 -1.9620 -1.8584  2.9792
 5895SOL     OW29320   2.428   2.947   5.109 -0.4429 -1.1983 -0.0221
 5895SOL    HW129321   2.487   3.009   5.068 -0.3378 -1.1412  0.2158
 5895SOL    HW229322   2.480   2.911   5.180 -0.8053 -1.0890  0.3004
 5896SOL     OW29323   2.628   0.642   9.418 -0.2652  0.9698 -0.8741
 5896SOL    HW129324   2.574   0.575   9.461  0.8603 -1.4991 -3.2729
 5896SOL    HW229325   2.708   0.590   9.421 -0.2576  0.9306 -1.6331
 5897SOL     OW29326   1.115   2.161  10.783 -0.1146  0.2141 -0.5486
 5897SOL    HW129327   1.095   2.196  10.870 -1.8509 -1.0265 -0.4557
 5897SOL    HW229328   1.111   2.066  10.797  0.9231  0.1836 -0.4679
 5898SOL     OW29329   2.707   0.329   9.117 -0.1124 -0.4253  0.7756
 5898SOL    HW129330   2.681   0.237   9.108  0.0980 -0.6869  2.8990
 5898SOL    HW229331   2.797   0.316   9.088 -0.6619 -0.9383 -0.7093
 5899SOL     OW29332   0.257   4.284   5.389 -0.0758 -0.1758 -0.0904
 5899SOL    HW129333   0.194   4.351   5.417  1.7243  0.6562  1.9680
 5899SOL    HW229334   0.199   4.237   5.330  0.5599 -0.4543 -0.4924
 5900SOL     OW29335   0.404   1.592   3.971 -0.1419  0.1328  0.0627
 5900SOL    HW129336   0.403   1.540   3.890 -1.1922  0.7737 -0.3401
 5900SOL    HW229337   0.377   1.679   3.940 -1.6393 -0.2914  0.1779
 5901SOL     OW29338   2.381   4.279   6.120 -0.0717  0.0984 -0.0933
 5901SOL    HW129339   2.317   4.344   6.093  1.0311  0.7972 -1.0247
 5901SOL    HW229340   2.353   4.223   6.048 -2.4262  1.1514  0.0267
 5902SOL     OW29341   4.584   0.080   6.821  0.0705 -0.0609 -0.1427
 5902SOL    HW129342   4.584   0.166   6.863 -3.4998 -1.0726  1.9760
 5902SOL    HW229343   4.578   0.020   6.896 -0.4234 -1.3838 -1.2440
 5903SOL     OW29344   1.256   0.965   5.387 -0.6219 -0.7111 -0.4176
 5903SOL    HW129345   1.190   1.014   5.339  1.0556  1.6176 -0.3248
 5903SOL    HW229346   1.203   0.886   5.399 -1.4517 -0.1166 -0.1585
 5904SOL     OW29347   4.465   3.558   7.047 -0.1296 -0.3268  0.1988
 5904SOL    HW129348   4.404   3.584   6.978 -0.2778 -1.9860 -0.3137
 5904SOL    HW229349   4.504   3.480   7.007 -1.8620 -1.0770 -0.0435
 5905SOL     OW29350   1.063   2.142  11.853 -0.4076  0.1913  0.7480
 5905SOL    HW129351   1.010   2.142  11.933 -2.0908 -1.5037 -0.3541
 5905SOL    HW229352   1.149   2.126  11.892 -0.7168 -1.0565  0.9390
 5906SOL     OW29353   4.516   1.262  16.344  0.3423 -0.3209 -0.4052
 5906SOL    HW129354   4.445   1.199  16.333 -1.7354  1.4698  2.7788
 5906SOL    HW229355   4.496   1.310  16.424  0.9953 -1.0488  0.2008
 5907SOL     OW29356   3.120   2.017   8.185 -0.6525 -0.1984  0.0086
 5907SOL    HW129357   3.082   2.099   8.216  0.0385  0.7603 -1.6848
 5907SOL    HW229358   3.201   2.001   8.232  1.0832 -1.6090 -3.4440
 5908SOL     OW29359   2.692   0.870   3.995  0.1343  0.5706  0.2007
 5908SOL    HW129360   2.638   0.891   4.071 -0.8585 -1.2720  0.0229
 5908SOL    HW229361   2.712   0.952   3.950  0.6410 -0.4078 -1.3893
 5909SOL     OW29362   3.994   2.141  14.657  0.0644 -0.0638 -0.9106
 5909SOL    HW129363   3.899   2.139  14.656  0.0522  0.3150  0.9861
 5909SOL    HW229364   4.021   2.090  14.733 -0.8274  1.1240  0.1844
 5910SOL     OW29365   1.722   2.999   0.519 -0.4223 -1.1177  0.3413
 5910SOL    HW129366   1.645   2.952   0.489 -1.4921  0.2127  1.0386
 5910SOL    HW229367   1.680   3.061   0.578  0.7165 -1.2745  1.3223
 5911SOL     OW29368   1.108   3.524   1.766 -0.4453 -0.0047 -0.2766
 5911SOL    HW129369   1.054   3.601   1.750 -1.0841 -0.3515  0.2191
 5911SOL    HW229370   1.143   3.549   1.852 -2.7657  0.0130  0.6679
 5912SOL     OW29371   3.302   1.913   6.100 -0.1371 -0.6694 -0.1566
 5912SOL    HW129372   3.278   1.968   6.026  1.2734  0.4529  0.2108
 5912SOL    HW229373   3.366   1.968   6.146 -2.2375  2.9236 -1.5800
 5913SOL     OW29374   3.862   2.816  11.323 -0.2816  0.0603  0.2283
 5913SOL    HW129375   3.866   2.911  11.334 -1.4021 -0.1793  2.5291
 5913SOL    HW229376   3.929   2.815  11.255 -1.6757 -0.9824 -1.1337
 5914SOL     OW29377   4.586   2.996   6.592  0.2513 -0.3238 -0.4865
 5914SOL    HW129378   4.628   3.069   6.546  3.3763 -1.2613  0.8221
 5914SOL    HW229379   4.570   2.934   6.521 -1.9563 -0.8625  0.5033
 5915SOL     OW29380   1.801   3.772   4.218 -0.5106  0.1261  0.1496
 5915SOL    HW129381   1.858   3.814   4.154  1.0359  1.0618  2.1593
 5915SOL    HW229382   1.853   3.792   4.295  0.0835 -0.0895 -0.1979
 5916SOL     OW29383   4.077   3.802   5.547  0.3818 -0.2758  0.2658
 5916SOL    HW129384   4.084   3.791   5.642 -0.3454  0.7638  0.4306
 5916SOL    HW229385   4.019   3.730   5.521  1.1767 -0.6865 -0.3704
 5917SOL     OW29386   1.181   4.259   5.482 -0.0730 -0.1899  0.3000
 5917SOL    HW129387   1.221   4.193   5.540  1.0646  0.6662  0.5011
 5917SOL    HW229388   1.231   4.337   5.508 -0.7112 -0.9016  3.6960
 5918SOL     OW29389   3.567   1.346   0.020  0.1383  0.2422  0.4043
 5918SOL    HW129390   3.479   1.327   0.054 -0.4046 -0.5974 -1.4977
 5918SOL    HW229391   3.610   1.398   0.088  1.9134  1.1210 -1.3972
 5919SOL     OW29392   3.599   2.095   1.416  0.4322  0.0394 -0.2628
 5919SOL    HW129393   3.663   2.110   1.346 -0.0409  0.3681 -0.6270
 5919SOL    HW229394   3.608   2.002   1.435 -0.5880 -0.1264 -0.6059
 5920SOL     OW29395   1.545   3.897   6.430 -0.2304 -0.8198  0.0898
 5920SOL    HW129396   1.571   3.959   6.362  0.0228 -0.7055  0.2892
 5920SOL    HW229397   1.566   3.944   6.511 -4.0371 -0.3291  0.7521
 5921SOL     OW29398   4.180   4.226   7.250 -0.2561 -0.4140 -0.0670
 5921SOL    HW129399   4.210   4.233   7.160  0.9146 -0.7137  0.3050
 5921SOL    HW229400   4.214   4.141   7.277 -1.2657 -0.1184  2.1701
 5922SOL     OW29401   2.674   1.160  11.424 -0.3036  0.5163 -0.0865
 5922SOL    HW129402   2.632   1.195  11.345  1.5405 -0.9623 -1.7205
 5922SOL    HW229403   2.673   1.234  11.484  0.5621 -1.0815  1.8738
 5923SOL     OW29404   0.795   2.770   1.812 -0.2391  0.2387 -0.4669
 5923SOL    HW129405   0.714   2.816   1.834  0.4093  1.3018 -0.3310
 5923SOL    HW229406   0.787   2.697   1.874 -1.7081  0.7238 -0.0757
 5924SOL     OW29407   3.039   1.431  15.338 -0.0702 -0.1296  0.4281
 5924SOL    HW129408   2.959   1.480  15.320 -2.3094 -3.9165  0.0574
 5924SOL    HW229409   3.105   1.496  15.360 -0.6493  0.4854  0.3522
 5925SOL     OW29410   3.703   2.422   3.400 -0.0290 -0.0439 -0.2467
 5925SOL    HW129411   3.769   2.481   3.363 -0.1153 -0.1270 -0.5309
 5925SOL    HW229412   3.735   2.417   3.490  2.7894 -2.0757 -1.3619
 5926SOL     OW29413   0.706   4.591   3.740 -0.3100  0.0774  0.2183
 5926SOL    HW129414   0.626   4.568   3.692  0.8773  0.5802 -1.9685
 5926SOL    HW229415   0.703   4.683   3.715 -0.8680 -0.3477 -1.3048
 5927SOL     OW29416   4.198   2.727   7.871  1.2932  0.6668 -0.3291
 5927SOL    HW129417   4.116   2.714   7.919  1.8618 -1.2799  0.1463
 5927SOL    HW229418   4.193   2.671   7.793 -0.5874 -2.1015  1.7676
 5928SOL     OW29419   0.059   4.350   3.032 -0.6564  0.1622 -0.4127
 5928SOL    HW129420   0.055   4.435   2.987 -0.4649 -0.0317 -0.8000
 5928SOL    HW229421   0.048   4.394   3.116 -0.2026  1.1298 -0.8630
 5929SOL     OW29422   4.266   1.138   2.882 -0.1110  0.1355  0.0521
 5929SOL    HW129423   4.219   1.076   2.938  0.0896 -1.4556 -1.5448
 5929SOL    HW229424   4.209   1.128   2.806  1.9808  1.0087 -1.6316
 5930SOL     OW29425   1.179   3.976  13.974 -0.7311  0.7136  0.1821
 5930SOL    HW129426   1.230   4.044  14.019 -0.0820  1.7514 -2.0765
 5930SOL    HW229427   1.244   3.943  13.912 -1.3665  0.6857 -0.4662
 5931SOL     OW29428   3.108   0.292   7.171  0.3292  0.1319  0.3023
 5931SOL    HW129429   3.183   0.351   7.181  0.9052 -0.2436 -1.9082
 5931SOL    HW229430   3.086   0.308   7.079 -0.0789  2.0193  0.7337
 5932SOL     OW29431   4.086   2.996   7.786 -0.0295  0.8178  0.2597
 5932SOL    HW129432   4.073   2.907   7.820  0.6223  1.3651  1.9508
 5932SOL    HW229433   4.127   2.986   7.700 -2.3045 -0.8808 -0.6252
 5933SOL     OW29434   0.822   3.150  15.197 -0.2206  0.0068 -1.0373
 5933SOL    HW129435   0.916   3.134  15.197 -0.6128 -2.2726  0.3377
 5933SOL    HW229436   0.783   3.071  15.159 -1.1639 -0.0325  0.0142
 5934SOL     OW29437   3.806   3.638   4.423  0.3758  0.0488  0.2752
 5934SOL    HW129438   3.762   3.559   4.453  1.1485 -0.7640 -0.6998
 5934SOL    HW229439   3.732   3.698   4.411  0.8357  0.4853 -0.4412
 5935SOL     OW29440   0.772   0.399  10.378  0.6041  0.3278  0.1141
 5935SOL    HW129441   0.694   0.346  10.395  0.5986  0.4636  0.5087
 5935SOL    HW229442   0.828   0.336  10.333  0.9492 -0.9559  2.3394
 5936SOL     OW29443   1.681   4.063   3.615 -0.4044 -0.1451 -0.0603
 5936SOL    HW129444   1.765   4.022   3.598 -1.2678 -1.4399 -1.1041
 5936SOL    HW229445   1.705   4.154   3.598  0.3813 -0.6355 -1.5180
 5937SOL     OW29446   4.171   0.914  12.195 -0.2369 -0.2702 -0.1901
 5937SOL    HW129447   4.197   0.829  12.230 -0.8273 -0.3274  0.0994
 5937SOL    HW229448   4.223   0.969  12.253  0.4838 -0.4893 -0.6191
 5938SOL     OW29449   3.005   1.016   2.413  0.3465  0.2674 -0.3631
 5938SOL    HW129450   3.027   1.007   2.505 -0.1043  2.1884 -0.0780
 5938SOL    HW229451   2.910   1.026   2.417  0.4634  0.7796  0.9490
 5939SOL     OW29452   2.739   4.036   9.499  0.4245  0.2019 -0.3457
 5939SOL    HW129453   2.762   4.058   9.409 -1.0043  1.3452 -0.4317
 5939SOL    HW229454   2.808   4.071   9.555  2.4976 -0.0955 -2.6865
 5940SOL     OW29455   0.142   0.642   0.424  0.1155  0.1415  0.0958
 5940SOL    HW129456   0.217   0.697   0.402  0.1258  0.0240 -0.1712
 5940SOL    HW229457   0.064   0.695   0.408  0.4498  0.5208 -0.2602
 5941SOL     OW29458   0.341   2.655   1.503  0.2457  0.3435 -0.0350
 5941SOL    HW129459   0.259   2.613   1.477 -0.2874  0.6530  1.1052
 5941SOL    HW229460   0.308   2.721   1.564  1.3947  1.3579 -0.5116
 5942SOL     OW29461   2.201   3.132   4.304  0.1890  0.6877 -0.3814
 5942SOL    HW129462   2.291   3.134   4.336  1.3011  1.1380 -3.5568
 5942SOL    HW229463   2.214   3.173   4.219 -0.3232  2.5248  0.4394
 5943SOL     OW29464   2.546   3.581   2.503 -0.2624 -0.0755 -0.0639
 5943SOL    HW129465   2.463   3.543   2.530  0.5946 -1.9292 -0.0760
 5943SOL    HW229466   2.606   3.541   2.565 -0.8601  0.9958  1.2106
 5944SOL     OW29467   0.990   4.101   6.300 -0.3522  0.0348 -0.0908
 5944SOL    HW129468   1.034   4.049   6.232  1.4448  0.5811  0.6594
 5944SOL    HW229469   1.000   4.039   6.372 -0.2017 -0.8691 -0.8817
 5945SOL     OW29470   4.122   2.412  12.688  0.8339 -0.4794 -0.5127
 5945SOL    HW129471   4.096   2.394  12.779 -0.8884 -0.7246 -1.0441
 5945SOL    HW229472   4.197   2.468  12.706  0.0375  0.3827  0.1838
 5946SOL     OW29473   4.113   2.760   2.786 -0.2265  0.1715 -0.3591
 5946SOL    HW129474   4.018   2.761   2.774 -0.2107  1.8653 -0.2922
 5946SOL    HW229475   4.148   2.790   2.702  2.6303  1.5306  1.3183
 5947SOL     OW29476   3.612   3.199  16.242 -0.4132  0.2521  0.1519
 5947SOL    HW129477   3.670   3.275  16.231  2.3620 -2.1540 -1.7616
 5947SOL    HW229478   3.537   3.227  16.189 -0.1205 -0.3517 -0.5857
 5948SOL     OW29479   2.439   4.176   1.570  0.0831 -0.1428 -0.0477
 5948SOL    HW129480   2.496   4.253   1.571 -0.2843  0.1117  1.6525
 5948SOL    HW229481   2.494   4.099   1.586 -0.0461 -0.1295  0.4627
 5949SOL     OW29482   1.964   2.360   7.707  0.3780  0.1712  0.1611
 5949SOL    HW129483   2.029   2.302   7.746  2.0737  1.4483 -0.7555
 5949SOL    HW229484   1.898   2.372   7.776  0.2927  0.8402 -0.0361
 5950SOL     OW29485   0.359   3.661   8.127  0.0056 -0.2959 -0.5184
 5950SOL    HW129486   0.341   3.570   8.104 -0.8428 -0.2552 -0.0337
 5950SOL    HW229487   0.313   3.672   8.211  1.1060 -0.0712  0.0574
 5951SOL     OW29488   2.544   1.959   8.576 -0.2039 -0.9648 -0.0903
 5951SOL    HW129489   2.614   1.995   8.631  0.3764  0.4537 -1.7884
 5951SOL    HW229490   2.595   1.947   8.496  1.3736 -0.3425  0.8147
 5952SOL     OW29491   4.131   0.737   8.765 -0.6007  0.1821 -0.6407
 5952SOL    HW129492   4.198   0.683   8.808  0.8372  0.7735 -2.1155
 5952SOL    HW229493   4.081   0.779   8.835  0.8755  3.0073 -1.2582
 5953SOL     OW29494   3.473   1.894  14.841 -0.4963  0.2867 -0.1041
 5953SOL    HW129495   3.560   1.870  14.809  0.4673  3.8009 -0.1267
 5953SOL    HW229496   3.404   1.843  14.798  0.2222 -0.9257  0.2046
 5954SOL     OW29497   1.629   2.897   7.248 -0.1095 -0.2743 -0.4780
 5954SOL    HW129498   1.694   2.936   7.190 -1.2467  0.6184 -1.1610
 5954SOL    HW229499   1.629   2.807   7.217  1.5577  0.5018 -2.6693
 5955SOL     OW29500   0.258   1.662   2.502  0.2409  0.2576  0.2827
 5955SOL    HW129501   0.190   1.675   2.436 -0.6618  0.4357  1.2566
 5955SOL    HW229502   0.234   1.717   2.576  0.4259  0.2432  0.3540
 5956SOL     OW29503   0.258   0.007   6.982  0.2984  0.1950 -1.0607
 5956SOL    HW129504   0.251   4.652   7.014  2.1181  0.8321  1.1406
 5956SOL    HW229505   0.173   0.043   7.008  0.9479  0.2994  0.9475
 5957SOL     OW29506   0.289   4.594   6.318  0.4796  0.3491 -0.6568
 5957SOL    HW129507   0.292   4.527   6.249  0.8764 -0.2172 -0.0872
 5957SOL    HW229508   0.322   4.544   6.393 -0.4137  2.9703  1.4593
 5958SOL     OW29509   4.414   3.954  15.060 -0.2450  0.0438  0.1316
 5958SOL    HW129510   4.384   3.984  14.973 -1.5992 -0.6528  0.3510
 5958SOL    HW229511   4.482   3.891  15.038  0.5896  0.9611  0.1066
 5959SOL     OW29512   0.043   0.490   2.144  0.3112 -0.3182  0.1440
 5959SOL    HW129513   0.052   0.477   2.239 -0.8857  1.7267  0.5412
 5959SOL    HW229514   4.730   0.411   2.120 -1.9460  0.2739  2.6763
 5960SOL     OW29515   1.017   1.327   1.803  0.0178  0.2658  0.0250
 5960SOL    HW129516   0.943   1.336   1.743 -0.1632 -0.8507  0.0854
 5960SOL    HW229517   1.091   1.316   1.743  0.1162 -0.4717  0.2900
 5961SOL     OW29518   3.065   0.865   9.344  0.1819 -0.2101  0.1694
 5961SOL    HW129519   3.022   0.788   9.307 -3.7967  1.7790  0.6630
 5961SOL    HW229520   3.016   0.880   9.425 -1.3554 -0.1143 -0.7943
 5962SOL     OW29521   3.419   4.057  15.506 -0.2100 -0.0381  0.1100
 5962SOL    HW129522   3.475   4.064  15.583 -1.4813 -1.1916  1.1237
 5962SOL    HW229523   3.411   3.963  15.489  1.5095 -0.4078  1.4299
 5963SOL     OW29524   2.410   3.979  12.666  0.4591 -0.2774 -0.0202
 5963SOL    HW129525   2.498   3.960  12.636  0.5499  0.4256 -0.2117
 5963SOL    HW229526   2.382   3.889  12.682  0.2786 -0.1190  0.5597
 5964SOL     OW29527   4.659   3.287   3.220 -0.2300 -0.1355  0.3596
 5964SOL    HW129528   4.621   3.269   3.134 -1.9228  0.2411  1.0305
 5964SOL    HW229529   4.632   3.202   3.255  0.0184 -1.2798 -2.2033
 5965SOL     OW29530   4.610   1.609  14.090 -0.0066  0.3463  0.2035
 5965SOL    HW129531   4.538   1.549  14.073  1.1570 -0.7300 -0.9464
 5965SOL    HW229532   4.622   1.606  14.185 -0.2212  1.8345  0.2779
 5966SOL     OW29533   1.016   3.072  14.347  0.4326 -0.5575 -0.2843
 5966SOL    HW129534   1.014   3.079  14.251  2.5976  1.3355 -0.2103
 5966SOL    HW229535   1.038   3.164  14.364  1.3599 -0.7289 -0.5224
 5967SOL     OW29536   4.157   3.439   4.916 -0.0099  0.1340 -0.4667
 5967SOL    HW129537   4.167   3.427   4.821  1.1372 -1.6167 -0.1151
 5967SOL    HW229538   4.113   3.524   4.910 -0.4848 -0.2153 -1.8825
 5968SOL     OW29539   3.636   3.533   8.619  0.3340 -0.9286  0.1500
 5968SOL    HW129540   3.562   3.477   8.593 -0.9314  0.6333  0.3724
 5968SOL    HW229541   3.631   3.529   8.715  1.8546 -0.8633  0.2219
 5969SOL     OW29542   2.576   1.849   7.410 -0.0257 -0.0779  0.4666
 5969SOL    HW129543   2.485   1.834   7.434  0.1308 -0.8999  0.5422
 5969SOL    HW229544   2.565   1.809   7.324 -0.4193  1.4515 -0.1858
 5970SOL     OW29545   4.518   0.105  15.572 -0.7791 -0.3822 -0.3101
 5970SOL    HW129546   4.437   0.100  15.624  0.7219 -2.4099  1.8116
 5970SOL    HW229547   4.492   0.033  15.514  0.3525 -1.7333  0.8729
 5971SOL     OW29548   0.374   3.537  11.071  0.1226  0.3034  0.5123
 5971SOL    HW129549   0.415   3.623  11.061  1.0906 -0.2539 -0.2952
 5971SOL    HW229550   0.379   3.528  11.166  0.3409  0.6619  0.5350
 5972SOL     OW29551   2.258   0.927   2.876  0.3996 -0.1894  0.8206
 5972SOL    HW129552   2.332   0.986   2.892  1.1704 -0.8584 -0.2836
 5972SOL    HW229553   2.183   0.986   2.865  0.3047 -0.3983  0.3728
 5973SOL     OW29554   2.512   1.990  10.176 -0.1289  0.1620  0.1676
 5973SOL    HW129555   2.424   2.023  10.195 -0.1000 -0.1789  0.8929
 5973SOL    HW229556   2.516   2.018  10.085 -0.2018  0.6854  0.3219
 5974SOL     OW29557   4.435   3.730   3.252 -0.7153 -0.3523  0.7602
 5974SOL    HW129558   4.371   3.796   3.224  1.1425  1.0792 -0.1002
 5974SOL    HW229559   4.470   3.699   3.168 -0.0720  2.1089  0.1348
 5975SOL     OW29560   3.989   4.420   5.583  0.0008 -0.2963  0.0842
 5975SOL    HW129561   3.978   4.412   5.678 -0.5840 -1.3785 -0.0778
 5975SOL    HW229562   4.061   4.483   5.585 -1.2603  1.1421 -0.1893
 5976SOL     OW29563   1.955   4.130  14.769 -0.5593 -0.1666 -0.2488
 5976SOL    HW129564   1.917   4.184  14.700  1.6253  1.7565  0.0329
 5976SOL    HW229565   1.879   4.119  14.825  0.4325 -1.6406  0.8312
 5977SOL     OW29566   4.572   4.561  16.759  0.2379  0.4802 -0.4649
 5977SOL    HW129567   4.544   4.471  16.777  3.2865 -0.6166 -1.2650
 5977SOL    HW229568   4.589   4.593  16.847 -1.4294  0.8230 -0.2579
 5978SOL     OW29569   2.000   2.166   9.260 -0.0481 -0.2509  0.0335
 5978SOL    HW129570   1.923   2.194   9.211  0.0367 -0.0592  0.0072
 5978SOL    HW229571   2.007   2.075   9.231 -0.2131  0.0334 -0.9087
 5979SOL     OW29572   1.632   0.723   5.443 -0.7463  0.0739 -0.0425
 5979SOL    HW129573   1.543   0.717   5.479 -1.1929 -0.3566 -1.2361
 5979SOL    HW229574   1.611   0.693   5.355  0.8866 -1.0918 -0.0326
 5980SOL     OW29575   3.844   4.292   5.413  0.7959  0.3494  0.3472
 5980SOL    HW129576   3.809   4.237   5.484 -0.5248  1.4266  0.5376
 5980SOL    HW229577   3.896   4.353   5.465  0.4508  1.0078 -0.0917
 5981SOL     OW29578   1.268   1.794  17.113 -0.0692 -0.2726  0.5776
 5981SOL    HW129579   1.357   1.778  17.146 -0.0852  2.1475  1.8233
 5981SOL    HW229580   1.293   1.871  17.063  1.0128 -2.7291 -2.6321
 5982SOL     OW29581   2.886   1.005   8.143  0.2629 -0.6324 -0.2979
 5982SOL    HW129582   2.973   1.041   8.127  0.2733  0.0692  1.3936
 5982SOL    HW229583   2.856   1.071   8.205  1.7169  0.3936 -0.6735
 5983SOL     OW29584   4.065   0.595  14.379  0.5917 -0.1641  0.3945
 5983SOL    HW129585   4.043   0.589  14.286 -0.9802  0.3588  0.7311
 5983SOL    HW229586   4.119   0.516  14.380  2.1407  0.9172  0.7919
 5984SOL     OW29587   1.885   3.084   7.950  0.0658  0.8043 -0.2523
 5984SOL    HW129588   1.839   3.072   7.867  0.7944 -2.1261 -0.2170
 5984SOL    HW229589   1.848   3.002   7.984 -1.8924  0.6274 -2.7465
 5985SOL     OW29590   2.497   1.563   4.280  0.5661 -0.7031  0.1134
 5985SOL    HW129591   2.579   1.515   4.291  1.9642  1.5058 -0.7174
 5985SOL    HW229592   2.515   1.649   4.318  4.1635 -1.2755 -0.2236
 5986SOL     OW29593   1.288   1.567   2.112 -0.0115 -0.6519  0.4571
 5986SOL    HW129594   1.241   1.538   2.190 -0.7552  1.3848  0.7447
 5986SOL    HW229595   1.305   1.479   2.077 -0.8435 -0.9861  0.8733
 5987SOL     OW29596   2.796   3.639   9.870 -0.7651  0.1296  0.3298
 5987SOL    HW129597   2.853   3.715   9.868  1.3950 -1.5088  0.1984
 5987SOL    HW229598   2.845   3.587   9.934  0.5728 -1.0147 -1.6416
 5988SOL     OW29599   3.057   4.247  13.480  0.1178 -0.0297  0.0637
 5988SOL    HW129600   3.117   4.181  13.444  1.1819  2.5711 -2.9692
 5988SOL    HW229601   3.086   4.323  13.429 -0.6399  0.8245  0.9227
 5989SOL     OW29602   2.273   2.416  11.885 -0.2876 -0.2569 -0.1128
 5989SOL    HW129603   2.336   2.346  11.868  1.8513  1.6885 -0.1520
 5989SOL    HW229604   2.199   2.368  11.923  0.5964 -0.8214  0.9137
 5990SOL     OW29605   1.143   1.585   3.383  0.8495 -0.0387  0.1724
 5990SOL    HW129606   1.085   1.536   3.325  0.6292 -1.9987  2.1009
 5990SOL    HW229607   1.203   1.625   3.319  1.6864 -1.9503 -0.2182
 5991SOL     OW29608   1.846   2.065   4.294 -0.4050  0.5064  0.1353
 5991SOL    HW129609   1.889   2.112   4.366  2.7253 -1.1653 -0.6524
 5991SOL    HW229610   1.880   1.977   4.308 -2.5987 -0.2755  0.4240
 5992SOL     OW29611   2.680   1.903   8.339  0.1373  0.2287 -0.6725
 5992SOL    HW129612   2.737   1.834   8.374 -0.5802 -0.1783 -0.3027
 5992SOL    HW229613   2.742   1.970   8.314  0.4394  0.9087  1.8850
 5993SOL     OW29614   4.104   1.717  12.661 -0.4037 -0.3899 -0.6158
 5993SOL    HW129615   4.042   1.771  12.711  0.4019 -0.8377  0.8744
 5993SOL    HW229616   4.121   1.778  12.589 -1.5024 -0.2254 -0.7399
 5994SOL     OW29617   3.984   2.794   0.012 -0.8893 -0.2146  0.1440
 5994SOL    HW129618   3.954   2.704   0.002 -0.1518 -0.5629  1.1519
 5994SOL    HW229619   4.026   2.789   0.098 -1.8141 -3.9920  0.3618
 5995SOL     OW29620   0.002   1.333  12.749  0.0925  0.1599  0.1185
 5995SOL    HW129621   4.707   1.273  12.818 -0.0885 -2.8931 -2.5692
 5995SOL    HW229622   4.654   1.354  12.705  0.4147  1.0596 -0.0524
 5996SOL     OW29623   3.722   1.372  16.922  0.0605  0.3865 -0.2449
 5996SOL    HW129624   3.668   1.445  16.894  1.0956  0.8955 -0.9245
 5996SOL    HW229625   3.656   1.307  16.944  2.1390 -1.6888 -0.0826
 5997SOL     OW29626   2.933   2.815   4.235  0.1743 -0.3470  0.0301
 5997SOL    HW129627   2.968   2.760   4.305  0.6132 -1.7367 -1.3123
 5997SOL    HW229628   2.848   2.776   4.215  1.4266 -1.3761 -3.2708
 5998SOL     OW29629   1.537   3.371  16.294 -0.3573  0.1239  0.4983
 5998SOL    HW129630   1.555   3.341  16.205 -2.2369 -0.0513  0.1787
 5998SOL    HW229631   1.469   3.310  16.324  0.5485  0.2788  2.8492
 5999SOL     OW29632   0.444   0.641   2.256 -0.0719  0.0364  0.3907
 5999SOL    HW129633   0.529   0.662   2.293 -0.8491  1.8242  1.1427
 5999SOL    HW229634   0.403   0.630   2.342  1.3248 -0.9979  0.9240
 6000SOL     OW29635   1.926   2.914   1.633  0.0246 -0.1103  0.0373
 6000SOL    HW129636   1.846   2.912   1.581 -0.6317  2.4886  0.9480
 6000SOL    HW229637   1.910   2.979   1.701  0.5444 -1.2362  1.2622
 6001SOL     OW29638   2.706   2.219  12.412  0.7120 -0.3697  0.0266
 6001SOL    HW129639   2.792   2.206  12.371  0.6817  3.1687 -1.1899
 6001SOL    HW229640   2.735   2.276  12.483 -1.7185  1.0589 -0.1489
 6002SOL     OW29641   0.423   3.690   3.852  0.0351  0.0215  0.7199
 6002SOL    HW129642   0.467   3.720   3.772 -1.1587 -0.3147 -0.0601
 6002SOL    HW229643   0.344   3.654   3.812  1.1670 -3.3454  1.5043
 6003SOL     OW29644   4.702   2.454  16.898 -0.1461 -0.6189  0.6340
 6003SOL    HW129645   4.695   2.375  16.844 -1.7713 -0.0420  0.0044
 6003SOL    HW229646   0.015   2.411  16.969 -0.0377 -1.4091  0.0951
 6004SOL     OW29647   0.701   0.387  16.393 -0.2050 -0.0236  0.1211
 6004SOL    HW129648   0.656   0.302  16.399 -0.9640  0.4380  0.9868
 6004SOL    HW229649   0.795   0.370  16.393 -0.1458  0.2596 -2.7962
 6005SOL     OW29650   0.857   1.604   0.309 -0.0018  0.2161  0.1853
 6005SOL    HW129651   0.879   1.697   0.308 -4.1303  1.1865 -0.2361
 6005SOL    HW229652   0.853   1.582   0.216  2.4144  0.2306  0.0725
 6006SOL     OW29653   0.171   2.781  11.782 -0.2539 -0.6627 -0.1065
 6006SOL    HW129654   0.201   2.768  11.692  0.1508 -2.8421  0.3515
 6006SOL    HW229655   0.076   2.776  11.771 -0.7653 -0.0938  4.0051
 6007SOL     OW29656   2.217   3.978   3.578 -0.0907  0.1116  0.0147
 6007SOL    HW129657   2.257   3.929   3.507 -1.7957 -1.2430 -0.0206
 6007SOL    HW229658   2.262   4.062   3.589 -0.2843  0.2819 -0.4831
 6008SOL     OW29659   1.852   1.903   2.738  0.0696  0.7201  0.2415
 6008SOL    HW129660   1.917   1.832   2.734  0.2829  0.8897  0.8322
 6008SOL    HW229661   1.904   1.983   2.731  0.5728  0.5340  1.8793
 6009SOL     OW29662   2.379   2.473   1.537 -0.6140  0.5378  0.4773
 6009SOL    HW129663   2.345   2.533   1.470  1.4059 -1.2116 -2.0881
 6009SOL    HW229664   2.474   2.487   1.535 -0.8115  1.6133 -1.1673
 6010SOL     OW29665   0.696   0.576   1.101  0.7691  0.6424 -0.0168
 6010SOL    HW129666   0.608   0.574   1.139  0.6203  1.6270 -0.3128
 6010SOL    HW229667   0.669   0.622   1.021 -1.6470 -0.1519  0.3695
 6011SOL     OW29668   3.972   3.528   2.412 -0.0997 -0.0581 -0.1830
 6011SOL    HW129669   3.915   3.490   2.478 -1.3719 -0.9258 -1.7760
 6011SOL    HW229670   3.911   3.583   2.362  1.8678  0.1174 -2.3919
 6012SOL     OW29671   0.945   3.449   0.824  0.2000  0.2290  0.7373
 6012SOL    HW129672   0.883   3.503   0.873 -0.1794 -0.2496  0.7859
 6012SOL    HW229673   1.013   3.423   0.886 -0.0853 -1.1738  0.4648
 6013SOL     OW29674   2.644   1.165   4.453 -0.2342  0.6576  0.5008
 6013SOL    HW129675   2.588   1.236   4.484 -0.8858 -0.0495  0.9566
 6013SOL    HW229676   2.722   1.218   4.439 -1.4940  2.3305 -0.2515
 6014SOL     OW29677   3.618   4.168   8.974 -0.1389 -0.1040 -1.1137
 6014SOL    HW129678   3.563   4.230   8.925  1.6497  2.5116  0.1645
 6014SOL    HW229679   3.700   4.201   8.937 -1.3113  1.8604 -1.9655
 6015SOL     OW29680   2.489   3.702   1.361  0.1330  0.2879  0.2947
 6015SOL    HW129681   2.441   3.696   1.444  1.4847 -1.0946  0.9712
 6015SOL    HW229682   2.445   3.777   1.320  0.9060  0.1872 -0.7190
 6016SOL     OW29683   2.465   3.157   2.808  0.1770 -0.1651 -0.4980
 6016SOL    HW129684   2.390   3.119   2.852  0.9744 -1.6434 -0.4257
 6016SOL    HW229685   2.430   3.148   2.719 -0.5427  1.0341 -0.3380
 6017SOL     OW29686   2.340   2.533  15.805  0.9637 -0.3233  0.1703
 6017SOL    HW129687   2.426   2.499  15.831  1.1650 -0.3003 -0.4718
 6017SOL    HW229688   2.298   2.455  15.768 -2.9131  1.7718  0.1689
 6018SOL     OW29689   3.849   0.243   7.074  0.4938  0.2895  0.1534
 6018SOL    HW129690   3.828   0.288   7.156  2.0395 -0.9023  1.1954
 6018SOL    HW229691   3.938   0.270   7.051  0.6507  0.3658  0.8429
 6019SOL     OW29692   3.811   2.250  10.117  0.1887  0.3212 -0.4505
 6019SOL    HW129693   3.760   2.331  10.130 -0.3731  0.1358 -1.4887
 6019SOL    HW229694   3.765   2.190  10.176  2.5277  1.5729  2.6385
 6020SOL     OW29695   3.822   3.732  16.946  0.0138 -0.3533 -0.5819
 6020SOL    HW129696   3.808   3.695  17.033 -1.3159 -0.3004 -0.7742
 6020SOL    HW229697   3.748   3.696  16.897  0.7058 -2.9908  0.2917
 6021SOL     OW29698   4.220   3.573   2.493  0.5257 -1.1865  0.3782
 6021SOL    HW129699   4.260   3.612   2.415 -2.3567  0.2616 -0.3652
 6021SOL    HW229700   4.131   3.568   2.459  0.3074  1.3646  0.5737
 6022SOL     OW29701   0.424   1.939   3.609  0.3186  0.4263  0.6323
 6022SOL    HW129702   0.491   1.909   3.547  0.7583 -1.0106  1.7787
 6022SOL    HW229703   0.415   2.031   3.588 -0.3233  1.0148  3.5144
 6023SOL     OW29704   0.094   1.349   8.043  0.1346 -0.8375  0.0337
 6023SOL    HW129705   0.190   1.349   8.042  0.1469  0.3559  0.6588
 6023SOL    HW229706   0.089   1.408   7.968  3.2835 -1.3477 -0.5814
 6024SOL     OW29707   3.464   0.607  10.398  0.1452 -0.5031 -0.2297
 6024SOL    HW129708   3.505   0.607  10.484  1.1259  2.1309 -0.6916
 6024SOL    HW229709   3.538   0.575  10.347  0.3643  0.5355 -0.5717
 6025SOL     OW29710   3.429   4.706   2.851 -0.0951 -0.0461 -0.3680
 6025SOL    HW129711   3.378   4.655   2.914 -0.6845 -1.3353 -1.8967
 6025SOL    HW229712   3.368   0.045   2.850  2.3922  2.0389  0.8821
 6026SOL     OW29713   4.292   4.467   5.267  0.2220 -0.0774 -0.3529
 6026SOL    HW129714   4.384   4.495   5.275  0.5874 -1.4082  0.0788
 6026SOL    HW229715   4.252   4.536   5.319  1.0667 -0.7294  1.1694
 6027SOL     OW29716   0.836   3.741   3.354 -0.1589  0.2616  0.2875
 6027SOL    HW129717   0.757   3.750   3.300  0.5510  0.6444 -0.6798
 6027SOL    HW229718   0.891   3.802   3.306 -1.9503  0.1009 -1.9772
 6028SOL     OW29719   2.172   3.754   7.450  0.3014 -0.3713  0.5024
 6028SOL    HW129720   2.118   3.801   7.514 -1.0044  0.7444 -1.4174
 6028SOL    HW229721   2.108   3.693   7.413  0.9151 -0.1035 -0.9725
 6029SOL     OW29722   4.733   1.324  14.858 -0.4578  0.3644 -0.6723
 6029SOL    HW129723   0.046   1.337  14.940 -1.0541  3.2056 -0.7826
 6029SOL    HW229724   4.673   1.398  14.870  0.9022  1.4045 -0.2388
 6030SOL     OW29725   3.153   0.914  14.236 -0.0393 -0.8043  0.5375
 6030SOL    HW129726   3.191   0.871  14.159 -0.6624  0.7734 -0.6400
 6030SOL    HW229727   3.228   0.906  14.295 -1.5732  2.2562  2.8976
 6031SOL     OW29728   3.557   0.185   5.994 -0.4000  0.2663 -0.0175
 6031SOL    HW129729   3.607   0.246   6.047  0.9597 -1.6459  0.8699
 6031SOL    HW229730   3.486   0.157   6.052 -1.0950 -0.6939 -1.3279
 6032SOL     OW29731   1.838   4.288  14.605  0.2199  0.3114 -0.0408
 6032SOL    HW129732   1.846   4.368  14.554  0.4795  1.7839  2.3104
 6032SOL    HW229733   1.750   4.255  14.588 -0.1815  0.9699  0.7413
 6033SOL     OW29734   4.377   3.111   7.077  0.2305 -0.4149 -0.1771
 6033SOL    HW129735   4.368   3.023   7.041 -0.4366 -0.6529  0.5870
 6033SOL    HW229736   4.473   3.119   7.079  0.1467  0.0615  1.7860
 6034SOL     OW29737   4.661   0.291   6.981 -1.4484 -0.2729  0.0987
 6034SOL    HW129738   4.641   0.335   7.064  0.1951  0.4236  0.1235
 6034SOL    HW229739   4.723   0.227   7.016 -0.7944  1.5754  2.3363
 6035SOL     OW29740   2.268   4.688   7.952  0.0965 -0.3651  0.1011
 6035SOL    HW129741   2.291   0.043   7.929 -1.3513 -0.2128 -0.7928
 6035SOL    HW229742   2.252   4.645   7.867 -0.8360  0.6184 -0.2170
 6036SOL     OW29743   3.489   0.937   1.442  0.2162 -0.0595  0.0477
 6036SOL    HW129744   3.532   1.013   1.483 -1.5375 -0.8467  3.3452
 6036SOL    HW229745   3.447   0.896   1.517  2.3898  0.0387  1.3368
 6037SOL     OW29746   4.340   2.520  13.032 -0.3505 -0.3068  0.3528
 6037SOL    HW129747   4.346   2.518  12.936 -1.5447  0.1698  0.2704
 6037SOL    HW229748   4.409   2.584  13.044 -0.7889  0.4266 -1.0286
 6038SOL     OW29749   3.131   2.829   2.685 -0.2790  0.1914  0.1509
 6038SOL    HW129750   3.192   2.841   2.613  1.2344  0.5453  1.4927
 6038SOL    HW229751   3.054   2.852   2.633  0.0080 -2.1559 -1.2813
 6039SOL     OW29752   2.501   4.082   4.849  0.2458 -0.0670 -0.0639
 6039SOL    HW129753   2.566   4.016   4.824  0.5415 -0.2356  1.1452
 6039SOL    HW229754   2.549   4.165   4.846 -1.3451  0.8562  0.3355
 6040SOL     OW29755   3.034   0.477   8.720 -0.3103 -0.0518  0.0330
 6040SOL    HW129756   3.001   0.495   8.808 -0.4369  2.3350 -0.5179
 6040SOL    HW229757   2.959   0.435   8.679 -0.1366 -2.0588  1.7334
 6041SOL     OW29758   4.324   4.550   5.821 -0.1586  0.1376 -0.4667
 6041SOL    HW129759   4.364   4.524   5.738 -0.6953  0.6728 -0.8882
 6041SOL    HW229760   4.267   4.620   5.789 -3.1996 -2.1650 -0.0563
 6042SOL     OW29761   4.512   1.524   5.615 -0.5464  0.4989 -0.2710
 6042SOL    HW129762   4.509   1.605   5.666  2.0341 -0.3932  1.2581
 6042SOL    HW229763   4.444   1.471   5.656 -0.3406 -1.3645 -2.3356
 6043SOL     OW29764   0.777   1.275   4.925 -0.3052  0.0452  0.3160
 6043SOL    HW129765   0.739   1.282   5.012 -1.2884 -2.6436  0.1081
 6043SOL    HW229766   0.711   1.228   4.875 -0.3368  0.1557  0.2541
 6044SOL     OW29767   0.643   3.057   7.925  0.9805  0.0548  0.0092
 6044SOL    HW129768   0.639   2.963   7.909  0.6877 -0.1963  1.6078
 6044SOL    HW229769   0.568   3.072   7.983  1.8425  0.8393  0.9316
 6045SOL     OW29770   4.715   1.985   4.406 -0.2530 -0.7408  0.5015
 6045SOL    HW129771   4.734   1.934   4.484 -1.7919 -0.7333  0.8830
 6045SOL    HW229772   0.013   2.071   4.430 -1.7433  0.0535 -0.2708
 6046SOL     OW29773   2.708   3.595   4.665 -0.3954  0.5851 -0.0349
 6046SOL    HW129774   2.756   3.513   4.677 -0.4964  0.5937  0.4096
 6046SOL    HW229775   2.772   3.655   4.626  0.0479  2.5299  3.7425
 6047SOL     OW29776   0.366   3.363   8.641 -0.2252 -0.0061  0.0903
 6047SOL    HW129777   0.290   3.320   8.681 -0.8285 -0.0056 -1.0458
 6047SOL    HW229778   0.320   3.426   8.585  0.5001 -0.0239 -0.5177
 6048SOL     OW29779   2.931   0.539  14.374 -0.5828  0.0151  0.5822
 6048SOL    HW129780   2.911   0.460  14.324 -2.9784  1.5866 -1.0042
 6048SOL    HW229781   2.849   0.589  14.371  0.9967  2.4242 -2.3308
 6049SOL     OW29782   4.421   3.422   3.805 -0.4505 -0.5911 -0.3268
 6049SOL    HW129783   4.415   3.496   3.865  4.1115 -1.3214  1.0217
 6049SOL    HW229784   4.514   3.402   3.810 -0.7336 -1.5875  1.3351
 6050SOL     OW29785   0.466   3.745   7.269 -0.2847  0.2123 -0.5629
 6050SOL    HW129786   0.378   3.763   7.303 -0.6480 -0.5160 -1.1173
 6050SOL    HW229787   0.487   3.685   7.341  0.2824  0.4669 -0.5229
 6051SOL     OW29788   3.838   0.699  14.530  0.2653  0.8123 -0.4675
 6051SOL    HW129789   3.870   0.645  14.458  0.1227 -1.3019  1.0584
 6051SOL    HW229790   3.876   0.647  14.601 -1.0990  0.7443  0.2086
 6052SOL     OW29791   3.366   3.572  10.914  0.0763  0.2636 -0.5289
 6052SOL    HW129792   3.433   3.529  10.862  0.1444 -1.1559  0.7269
 6052SOL    HW229793   3.401   3.660  10.928  0.9257 -0.3035  0.8963
 6053SOL     OW29794   1.791   2.993  11.919  0.3615 -0.3640  0.4619
 6053SOL    HW129795   1.835   2.924  11.968 -0.9175 -0.8371  0.9541
 6053SOL    HW229796   1.704   2.965  11.891  0.6268 -1.0727  0.3529
 6054SOL     OW29797   4.430   1.372   8.692  0.1421 -0.0205 -0.2626
 6054SOL    HW129798   4.471   1.423   8.761 -1.4796 -0.6227  1.1353
 6054SOL    HW229799   4.439   1.433   8.619  1.1868 -2.8577 -2.5184
 6055SOL     OW29800   2.232   0.502   0.828  0.0238 -0.3083 -0.0139
 6055SOL    HW129801   2.197   0.564   0.892 -2.0464  0.7403 -2.1932
 6055SOL    HW229802   2.204   0.525   0.740 -1.2923  0.1601  0.5279
 6056SOL     OW29803   4.359   2.174   2.454 -0.1580  0.7041  0.0545
 6056SOL    HW129804   4.335   2.252   2.504 -1.3241  1.2019 -1.2742
 6056SOL    HW229805   4.423   2.202   2.388  0.2714 -0.4330 -0.0213
 6057SOL     OW29806   4.515   2.908  11.114  0.0884 -0.7213 -0.1278
 6057SOL    HW129807   4.446   2.970  11.137 -1.4811 -1.2315 -3.4444
 6057SOL    HW229808   4.472   2.822  11.112  0.7300 -0.9661 -3.9057
 6058SOL     OW29809   0.672   1.771   4.379 -0.7604 -0.2836  0.1901
 6058SOL    HW129810   0.651   1.863   4.361 -0.1979  0.2320  2.0858
 6058SOL    HW229811   0.594   1.742   4.426 -2.3530  1.7483 -1.2021
 6059SOL     OW29812   3.922   3.582   3.127  1.2065  0.1501 -0.4959
 6059SOL    HW129813   3.927   3.514   3.060  0.8037 -0.1176 -0.2545
 6059SOL    HW229814   3.970   3.531   3.192 -0.9526 -2.1271 -0.6704
 6060SOL     OW29815   3.251   3.567   2.436  0.2402  0.9962 -0.4462
 6060SOL    HW129816   3.264   3.472   2.446 -3.2670  0.4347 -1.2117
 6060SOL    HW229817   3.343   3.592   2.441  0.5655 -0.4237  0.6912
 6061SOL     OW29818   2.769   2.465  12.143  0.0306  0.0499 -0.1520
 6061SOL    HW129819   2.816   2.545  12.168 -0.9181  0.1321  1.3827
 6061SOL    HW229820   2.679   2.498  12.149  0.4399  0.8789  1.6886
 6062SOL     OW29821   0.462   0.341   7.528  0.4089 -0.1831 -0.0434
 6062SOL    HW129822   0.521   0.267   7.543 -0.6389 -1.1875 -0.8752
 6062SOL    HW229823   0.522   0.408   7.494 -0.8152  0.6089 -0.6352
 6063SOL     OW29824   0.811   1.603   7.995  0.1009  0.2124 -0.0973
 6063SOL    HW129825   0.870   1.530   8.012  0.8119  1.4484  2.7974
 6063SOL    HW229826   0.874   1.674   7.988 -0.5211  0.7912  0.1969
 6064SOL     OW29827   0.802   1.382   5.931 -0.1635 -0.4445  0.1952
 6064SOL    HW129828   0.807   1.399   5.837 -1.6616  0.2754  0.2499
 6064SOL    HW229829   0.786   1.288   5.924 -2.1344 -0.0327 -0.6681
 6065SOL     OW29830   0.551   1.160   3.902 -0.3320 -0.0605  0.2317
 6065SOL    HW129831   0.522   1.073   3.873 -1.3612 -0.1391  1.5023
 6065SOL    HW229832   0.468   1.207   3.916 -1.0108 -2.0664  2.9179
 6066SOL     OW29833   3.865   0.658   4.387 -0.0840  0.0992  0.1458
 6066SOL    HW129834   3.902   0.577   4.353  0.9597  0.9486 -0.7527
 6066SOL    HW229835   3.773   0.639   4.403 -0.6257  1.4719 -1.2585
 6067SOL     OW29836   4.547   1.864   2.933  0.6278 -0.7158 -0.0064
 6067SOL    HW129837   4.574   1.799   2.998 -1.4785 -0.8602  0.7419
 6067SOL    HW229838   4.458   1.833   2.917  0.2670 -0.2139  1.0748
 6068SOL     OW29839   1.799   3.845   6.208  0.0694 -0.0721  0.3657
 6068SOL    HW129840   1.764   3.832   6.120 -2.3138 -0.4325  1.3641
 6068SOL    HW229841   1.749   3.923   6.234  3.0393  1.3521  1.6952
 6069SOL     OW29842   0.870   2.876   6.414 -0.4186  0.5007 -0.0084
 6069SOL    HW129843   0.784   2.845   6.385 -0.9549  0.6793  1.4012
 6069SOL    HW229844   0.859   2.905   6.505  2.8301  2.8195 -0.3496
 6070SOL     OW29845   4.642   3.639   1.308 -0.1771 -0.4833  0.0778
 6070SOL    HW129846   4.653   3.732   1.288 -0.2727 -0.5275 -0.1830
 6070SOL    HW229847   4.730   3.606   1.328  0.9659  3.1625  1.0993
 6071SOL     OW29848   0.232   2.469   5.118  0.0831  0.6045 -0.1824
 6071SOL    HW129849   0.177   2.476   5.195 -0.7725 -1.3409 -0.6309
 6071SOL    HW229850   0.193   2.400   5.064  0.1711  1.2615 -1.0847
 6072SOL     OW29851   0.287   0.362   1.952 -0.1192 -0.2767  0.2140
 6072SOL    HW129852   0.355   0.333   2.013  0.0822 -1.0216 -0.3633
 6072SOL    HW229853   0.234   0.421   2.005  0.8487  1.0670 -0.3143
 6073SOL     OW29854   4.169   3.750   5.806  0.4254  0.1493 -0.0030
 6073SOL    HW129855   4.172   3.655   5.816  1.6003  0.2568  0.6272
 6073SOL    HW229856   4.234   3.787   5.865 -0.1921  4.4246 -1.9849
 6074SOL     OW29857   0.594   1.727   8.120  0.2899 -0.4274  0.2086
 6074SOL    HW129858   0.531   1.669   8.164  1.1324 -1.2615  0.3156
 6074SOL    HW229859   0.675   1.676   8.121 -0.0732 -0.9228  3.4590
 6075SOL     OW29860   3.828   0.179   7.654 -0.0371 -0.1336  0.3667
 6075SOL    HW129861   3.819   0.130   7.571  1.9856  1.6680 -0.9164
 6075SOL    HW229862   3.854   0.115   7.720 -0.5299 -1.1603 -0.4391
 6076SOL     OW29863   3.902   0.764  13.583  0.3341 -0.0449  0.4614
 6076SOL    HW129864   3.841   0.719  13.641  0.5669  2.5937  2.7627
 6076SOL    HW229865   3.937   0.828  13.645  0.1865  0.3366  0.1423
 6077SOL     OW29866   1.767   4.187   4.151  0.3715  0.5483 -0.5425
 6077SOL    HW129867   1.799   4.181   4.061 -3.8829 -0.6050 -1.9592
 6077SOL    HW229868   1.698   4.251   4.139 -0.4475 -0.3772 -0.7408
 6078SOL     OW29869   4.597   4.394   9.805  0.0751 -0.5196 -0.5878
 6078SOL    HW129870   4.645   4.355   9.732  0.8417 -0.7300  0.0291
 6078SOL    HW229871   4.509   4.403   9.769 -0.9891 -0.5402  1.9574
 6079SOL     OW29872   3.963   1.738   2.536  0.6027  0.4821 -0.0805
 6079SOL    HW129873   3.984   1.820   2.581  1.7135 -0.8723  1.8907
 6079SOL    HW229874   3.905   1.686   2.592  0.1739 -0.4897 -1.4241
 6080SOL     OW29875   1.257   3.685   4.931 -0.3701 -0.9423  0.3553
 6080SOL    HW129876   1.221   3.649   4.850  0.2125 -1.5344  0.3635
 6080SOL    HW229877   1.202   3.641   4.995 -2.6703 -0.4907 -1.3035
 6081SOL     OW29878   0.418   0.446  11.497 -0.5553  0.4082 -0.5878
 6081SOL    HW129879   0.400   0.464  11.404  0.9597 -0.4667 -1.0504
 6081SOL    HW229880   0.371   0.366  11.519  0.5112 -0.6644 -2.2124
 6082SOL     OW29881   2.753   0.811  11.312  0.3180  0.2834 -0.3786
 6082SOL    HW129882   2.827   0.869  11.296 -0.2680  1.1660  0.0864
 6082SOL    HW229883   2.790   0.731  11.349  1.6681 -0.1697 -2.7029
 6083SOL     OW29884   2.095   1.838   4.075  0.2040 -0.4670 -0.3108
 6083SOL    HW129885   2.080   1.844   4.170  1.0264  0.1135 -0.2208
 6083SOL    HW229886   2.142   1.755   4.069  0.2832 -0.4628  0.2137
 6084SOL     OW29887   1.046   1.285   3.054  0.5025  0.4268  0.1104
 6084SOL    HW129888   1.024   1.211   2.996  1.7239  0.2839 -0.1750
 6084SOL    HW229889   1.063   1.246   3.140  1.2950  0.9410  0.1803
 6085SOL     OW29890   1.527   2.676   5.009 -0.0655 -0.0257 -0.0897
 6085SOL    HW129891   1.451   2.733   5.021 -0.0113 -0.0603  0.4160
 6085SOL    HW229892   1.591   2.720   4.954  0.5810 -1.3574 -0.4092
 6086SOL     OW29893   2.889   0.263   6.278  0.0942  0.2048 -0.3578
 6086SOL    HW129894   2.902   0.168   6.285  0.7104  0.1538 -2.1324
 6086SOL    HW229895   2.974   0.306   6.270 -0.7675  2.0452  0.5796
 6087SOL     OW29896   3.218   0.073   6.957 -0.0815  0.9672  0.0511
 6087SOL    HW129897   3.220   0.001   6.894 -1.3792 -1.7720  3.1856
 6087SOL    HW229898   3.297   0.057   7.008  0.2112  3.2140  0.2920
 6088SOL     OW29899   3.256   1.608  15.328  0.3243 -0.2234  0.0177
 6088SOL    HW129900   3.266   1.635  15.236 -0.8778 -0.7636 -0.2751
 6088SOL    HW229901   3.303   1.674  15.378 -4.2985  0.8757  2.8496
 6089SOL     OW29902   1.239   1.235   0.572  0.3288  0.4161 -0.2900
 6089SOL    HW129903   1.292   1.161   0.601  0.1250  0.0643 -0.8065
 6089SOL    HW229904   1.263   1.297   0.640  2.3903  0.5385 -1.1320
 6090SOL     OW29905   0.498   0.768   7.904  0.2292  0.1234 -0.4375
 6090SOL    HW129906   0.541   0.683   7.916  1.3472  0.5525 -1.3414
 6090SOL    HW229907   0.421   0.735   7.858 -1.2714  1.5095  1.0819
 6091SOL     OW29908   0.277   4.152  13.685 -1.2844  0.5921  0.4248
 6091SOL    HW129909   0.196   4.175  13.640 -0.8081 -0.5399 -1.0064
 6091SOL    HW229910   0.333   4.148  13.607 -0.3609 -0.3723  1.1358
 6092SOL     OW29911   1.490   1.000   7.219 -0.2150  0.0724  0.1060
 6092SOL    HW129912   1.544   0.927   7.190  0.2361 -0.0498  1.2368
 6092SOL    HW229913   1.550   1.074   7.211 -1.0238  0.7527  0.2878
 6093SOL     OW29914   0.827   2.855   7.549  0.1846  0.6272  0.0099
 6093SOL    HW129915   0.845   2.791   7.618  0.9909 -1.4807 -2.1407
 6093SOL    HW229916   0.733   2.849   7.532  0.3703  1.0925 -1.1833
 6094SOL     OW29917   3.895   0.565   3.506  0.3561  0.2473 -0.3639
 6094SOL    HW129918   3.926   0.499   3.443  0.0548 -0.2955  0.0577
 6094SOL    HW229919   3.939   0.642   3.471 -0.5897  2.6188  3.6809
 6095SOL     OW29920   3.688   2.105   3.106 -0.5170 -0.3036  0.6883
 6095SOL    HW129921   3.662   2.193   3.135  1.4799  1.0909 -1.7491
 6095SOL    HW229922   3.655   2.055   3.181 -1.1837 -2.4555 -1.0432
 6096SOL     OW29923   2.770   2.522   7.529  0.7549  0.4736  0.0659
 6096SOL    HW129924   2.860   2.554   7.533  0.3872  1.3269  1.5570
 6096SOL    HW229925   2.776   2.437   7.571 -0.8489  0.2243 -0.1861
 6097SOL     OW29926   2.769   3.107   4.587 -0.3893 -0.1826 -0.4141
 6097SOL    HW129927   2.840   3.127   4.647 -2.1149  2.0982  0.8623
 6097SOL    HW229928   2.819   3.108   4.505 -0.6231 -0.1628 -0.5581
 6098SOL     OW29929   2.283   4.389   7.255  0.0779 -0.0315 -0.3389
 6098SOL    HW129930   2.335   4.309   7.264  0.1388  0.0492  0.0181
 6098SOL    HW229931   2.341   4.444   7.307  0.0067  1.0664 -1.4396
 6099SOL     OW29932   1.052   4.060   5.866 -0.3365  0.2946 -0.2426
 6099SOL    HW129933   1.109   4.041   5.940  0.6872  0.1333 -1.0796
 6099SOL    HW229934   1.063   4.155   5.865 -2.3794  0.5546  0.8005
 6100SOL     OW29935   4.503   3.226  10.644  0.5116 -0.0816 -0.0188
 6100SOL    HW129936   4.519   3.291  10.576  1.2475  0.7764  0.9746
 6100SOL    HW229937   4.591   3.201  10.671  0.7739  1.5386  0.6085
 6101SOL     OW29938   4.638   2.111   7.036  0.3985 -0.4560 -0.2504
 6101SOL    HW129939   4.694   2.045   6.994  0.7008 -0.4435  0.1339
 6101SOL    HW229940   4.707   2.166   7.075 -3.0926  2.1485  2.2318
 6102SOL     OW29941   0.263   1.249   1.990 -0.7737  0.3004 -0.0198
 6102SOL    HW129942   0.321   1.288   2.055 -0.1909  1.2171 -1.0862
 6102SOL    HW229943   0.315   1.175   1.958 -0.4073 -0.5197  2.5185
 6103SOL     OW29944   1.703   2.473   8.506  0.4114  0.2879  0.8748
 6103SOL    HW129945   1.625   2.507   8.549 -0.0678 -1.4088  1.3607
 6103SOL    HW229946   1.758   2.549   8.525 -0.1199  0.4853  1.6085
 6104SOL     OW29947   1.189   1.709  17.359  0.5867 -0.0994 -0.0602
 6104SOL    HW129948   1.211   1.758  17.279  0.2998 -2.8903 -1.8450
 6104SOL    HW229949   1.118   1.757  17.402  0.3612 -0.0528 -0.4861
 6105SOL     OW29950   3.149   0.755   5.537 -0.1235  0.2509 -0.3866
 6105SOL    HW129951   3.081   0.777   5.601 -1.4596  2.3012 -2.4858
 6105SOL    HW229952   3.232   0.783   5.576  1.2129 -1.3907 -2.0626
 6106SOL     OW29953   2.007   1.197  15.591  0.2120 -0.2192 -0.1706
 6106SOL    HW129954   1.958   1.245  15.657 -0.5086 -1.9941  0.5965
 6106SOL    HW229955   2.089   1.247  15.585  0.4914 -0.8069 -1.2083
 6107SOL     OW29956   3.829   0.182  14.777  0.0364  0.3287  0.3129
 6107SOL    HW129957   3.791   0.133  14.849  0.5661  0.6524  0.8120
 6107SOL    HW229958   3.760   0.238  14.742 -1.0159 -2.7124 -2.4938
 6108SOL     OW29959   0.996   1.959   2.085  0.4054  0.2338 -0.5852
 6108SOL    HW129960   1.034   2.001   2.162 -0.3560 -2.3295  1.1818
 6108SOL    HW229961   0.971   1.874   2.122 -1.1968  1.8984  2.2334
 6109SOL     OW29962   0.016   1.026  15.933  0.0554  0.1684 -0.1154
 6109SOL    HW129963   0.063   0.998  16.011 -1.3495 -0.5583  0.4630
 6109SOL    HW229964   4.718   0.942  15.901  0.1393 -0.1815  0.7105
 6110SOL     OW29965   2.162   3.829   2.969  0.0376 -0.3263  0.0223
 6110SOL    HW129966   2.196   3.918   2.979  0.4656 -0.5869  0.8653
 6110SOL    HW229967   2.180   3.801   2.880 -0.7378 -0.2330 -0.1664
 6111SOL     OW29968   2.094   1.474   9.967 -0.4669  0.2937 -0.7024
 6111SOL    HW129969   2.121   1.431   9.886  1.4421  1.4481 -0.6904
 6111SOL    HW229970   2.099   1.402  10.030 -2.2311 -0.7461 -1.7374
 6112SOL     OW29971   3.964   0.493   3.234 -0.0874  0.1002 -0.5645
 6112SOL    HW129972   4.041   0.441   3.208  0.2824  0.4508 -0.1707
 6112SOL    HW229973   3.960   0.564   3.171 -1.3061 -1.1978 -1.9322
 6113SOL     OW29974   3.774   2.884   0.335 -0.8472 -0.3742  0.5931
 6113SOL    HW129975   3.786   2.892   0.241 -1.4200 -0.7892  0.4886
 6113SOL    HW229976   3.867   2.900   0.354 -1.1429 -1.1675  2.6796
 6114SOL     OW29977   0.596   1.785   2.683 -0.1224 -0.4230 -0.3082
 6114SOL    HW129978   0.565   1.717   2.743 -2.1019  1.7241  1.1187
 6114SOL    HW229979   0.529   1.854   2.681  0.1545 -0.2132 -1.9295
 6115SOL     OW29980   4.112   3.386  12.379  0.2120 -0.0762  0.2934
 6115SOL    HW129981   4.077   3.366  12.466  1.6880  0.5064  1.0255
 6115SOL    HW229982   4.080   3.475  12.367 -0.1599 -0.4204 -1.2649
 6116SOL     OW29983   2.594   2.470  17.465  0.5513  0.5424 -0.2405
 6116SOL    HW129984   2.568   2.511  17.382  1.2941 -0.5332 -1.0114
 6116SOL    HW229985   2.608   2.378  17.441 -0.4613  0.5172 -0.7646
 6117SOL     OW29986   1.696   3.025   2.237  0.4153 -0.3215  0.2637
 6117SOL    HW129987   1.653   2.949   2.197  2.0072 -0.9044 -0.3186
 6117SOL    HW229988   1.671   3.014   2.329  1.6293 -3.0850  0.2433
 6118SOL     OW29989   1.953   4.602   9.802  0.5894  0.2923 -0.1421
 6118SOL    HW129990   1.953   4.675   9.864  3.0236 -0.6140  0.9157
 6118SOL    HW229991   1.871   4.611   9.754  0.8373  1.9274 -0.2488
 6119SOL     OW29992   2.292   3.351   7.183  0.1464  0.2494 -0.1688
 6119SOL    HW129993   2.214   3.355   7.238  0.6220 -2.9562  0.7096
 6119SOL    HW229994   2.247   3.391   7.108  1.1924  0.2402 -0.7979
 6120SOL     OW29995   4.007   3.738  15.420 -0.4624 -0.1646  0.7181
 6120SOL    HW129996   3.973   3.808  15.364 -0.2993 -0.5541  0.1325
 6120SOL    HW229997   4.051   3.784  15.492  1.2315 -0.6651 -0.0108
 6121SOL     OW29998   4.400   0.679   6.066 -0.3457  0.6287 -0.4459
 6121SOL    HW129999   4.460   0.722   6.006 -1.3422  1.7519 -0.6376
 6121SOL    HW230000   4.376   0.606   6.009  0.3554 -0.8501  1.1474
 6122SOL     OW30001   4.387   0.233  15.166 -0.2955  0.0063  0.5295
 6122SOL    HW130002   4.414   0.301  15.104  0.9387 -1.2295 -0.2801
 6122SOL    HW230003   4.441   0.259  15.241  1.9884 -0.2881 -1.0038
 6123SOL     OW30004   0.143   0.371   9.692  0.1240 -0.3854 -0.4066
 6123SOL    HW130005   0.055   0.398   9.720 -0.3535 -1.8077 -0.5330
 6123SOL    HW230006   0.171   0.313   9.762 -1.3667 -2.5902 -1.6095
 6124SOL     OW30007   2.352   1.773   2.052  0.5389 -0.0962 -0.0553
 6124SOL    HW130008   2.304   1.840   2.100 -1.9925 -0.9409 -1.3654
 6124SOL    HW230009   2.430   1.816   2.018 -1.2420  1.7495 -1.8662
 6125SOL     OW30010   1.309   4.062   9.850 -0.0858  0.7491 -0.5418
 6125SOL    HW130011   1.290   4.132   9.912 -1.0453  0.2872 -0.3231
 6125SOL    HW230012   1.308   4.110   9.767  0.6330  2.8638  0.6810
 6126SOL     OW30013   2.637   4.164   7.770 -0.2092 -0.1035 -0.7895
 6126SOL    HW130014   2.691   4.113   7.830 -2.6830 -0.9955  0.7030
 6126SOL    HW230015   2.593   4.230   7.824  0.0869 -0.5771  0.0349
 6127SOL     OW30016   0.572   2.453   6.933 -0.3761  0.7261 -0.3415
 6127SOL    HW130017   0.614   2.380   6.979  1.1274  0.7393 -1.7179
 6127SOL    HW230018   0.653   2.504   6.931  0.2587 -0.3287 -1.6332
 6128SOL     OW30019   0.121   2.451   9.033 -0.1385 -0.1631 -0.3954
 6128SOL    HW130020   0.086   2.526   9.081 -1.4601  0.7491 -2.8354
 6128SOL    HW230021   0.053   2.435   8.968 -0.0696 -2.2275  0.0373
 6129SOL     OW30022   0.940   3.431   3.222  0.0655  0.2416 -0.2300
 6129SOL    HW130023   0.924   3.518   3.260 -0.2220  0.4645 -0.8454
 6129SOL    HW230024   0.952   3.375   3.298  0.4204 -1.5179 -1.6007
 6130SOL     OW30025   2.283   0.139   6.167  0.2958 -0.0304  0.0600
 6130SOL    HW130026   2.337   0.124   6.090  0.3086 -1.6918  0.3869
 6130SOL    HW230027   2.206   0.082   6.165  1.4761 -1.6441  1.5681
 6131SOL     OW30028   2.596   4.687   1.989 -0.3972  0.4170 -0.5454
 6131SOL    HW130029   2.587   0.027   2.048 -0.0942 -0.4871  0.6561
 6131SOL    HW230030   2.543   4.725   1.919  0.4303  1.7646 -0.4400
 6132SOL     OW30031   1.114   2.048   6.728 -0.2724 -0.1793  0.6872
 6132SOL    HW130032   1.093   2.048   6.634  0.0768 -1.0170  0.6073
 6132SOL    HW230033   1.203   2.011   6.725 -0.7460 -1.0540 -2.8833
 6133SOL     OW30034   0.086   3.011  10.462 -0.3334  0.2351 -0.4748
 6133SOL    HW130035   0.052   2.925  10.489  0.7649  0.8562  2.7799
 6133SOL    HW230036   0.031   3.057  10.525  1.5536  1.1758  0.4497
 6134SOL     OW30037   2.439   1.639   9.225 -0.2241 -0.0023  0.2092
 6134SOL    HW130038   2.532   1.659   9.238 -0.4173  1.1348 -0.1835
 6134SOL    HW230039   2.435   1.549   9.255  0.7463  0.3850  1.5102
 6135SOL     OW30040   2.903   4.709   5.940  0.1214 -0.2901 -0.0406
 6135SOL    HW130041   2.990   0.013   5.943 -0.0641  0.0617  0.8845
 6135SOL    HW230042   2.935   4.621   5.922  1.5943  0.1780  0.2864
 6136SOL     OW30043   0.943   0.372   7.036 -0.9459  0.0256 -0.3492
 6136SOL    HW130044   0.976   0.459   7.014  0.6440 -1.0434 -2.1902
 6136SOL    HW230045   0.966   0.325   6.956  1.3915  0.6347 -0.0525
 6137SOL     OW30046   1.733   0.948   9.128 -0.2347 -0.4628 -0.2342
 6137SOL    HW130047   1.721   0.933   9.035 -1.0584  1.3272 -0.4205
 6137SOL    HW230048   1.817   0.994   9.123 -0.4627  0.1333  1.2623
 6138SOL     OW30049   3.847   3.661   2.230 -0.5647 -0.5210  0.1169
 6138SOL    HW130050   3.919   3.647   2.170 -1.2867 -1.3529 -0.5569
 6138SOL    HW230051   3.846   3.755   2.247  0.8229 -0.4995  0.0811
 6139SOL     OW30052   0.690   2.948  15.043  0.0490  0.4858 -0.2016
 6139SOL    HW130053   0.595   2.947  15.055 -0.1693 -0.5352 -2.0828
 6139SOL    HW230054   0.703   2.952  14.948 -3.1071  0.6251 -0.6458
 6140SOL     OW30055   1.303   2.953   2.418  0.9521 -0.1467 -0.5244
 6140SOL    HW130056   1.277   2.913   2.335  1.4441  0.0406 -0.7698
 6140SOL    HW230057   1.232   3.012   2.442  1.5103 -0.3114  1.5639
 6141SOL     OW30058   0.972   4.575   1.904 -0.3989 -0.4115  0.5619
 6141SOL    HW130059   1.040   4.508   1.916  0.8737  1.0897  1.7292
 6141SOL    HW230060   0.918   4.550   1.979  0.8547 -0.9138  1.2996
 6142SOL     OW30061   1.386   1.542   0.661  0.3247 -0.2255  0.2489
 6142SOL    HW130062   1.382   1.462   0.713 -0.4538 -1.2360 -1.3553
 6142SOL    HW230063   1.481   1.546   0.659  0.2458  2.0300  0.6616
 6143SOL     OW30064   0.611   1.788   0.255  0.1457 -0.0506  0.0648
 6143SOL    HW130065   0.577   1.738   0.181  1.0898  0.2463 -0.5701
 6143SOL    HW230066   0.706   1.779   0.243  0.2160 -0.5881  1.0403
 6144SOL     OW30067   4.648   0.797   0.430  0.1771 -0.4032 -0.5920
 6144SOL    HW130068   4.575   0.783   0.490  0.8515 -0.2873  0.2492
 6144SOL    HW230069   4.646   0.892   0.419  0.2301 -0.3267  0.0296
 6145SOL     OW30070   0.207   2.974   2.734 -0.0648 -0.2263  0.3622
 6145SOL    HW130071   0.204   2.891   2.686  1.4924 -0.3625  0.4980
 6145SOL    HW230072   0.288   3.015   2.703  0.4157 -0.2532  1.5972
 6146SOL     OW30073   0.430   0.497  15.944  0.1799 -0.3566  0.4703
 6146SOL    HW130074   0.495   0.462  16.004  0.3761 -1.9746 -0.6924
 6146SOL    HW230075   0.438   0.589  15.969  0.6791 -0.1122 -0.5815
 6147SOL     OW30076   4.337   0.204   4.101  0.0582  0.3249  0.3598
 6147SOL    HW130077   4.350   0.273   4.166  1.5884 -0.4535  0.8863
 6147SOL    HW230078   4.254   0.234   4.064  0.0704 -1.7515 -1.3499
 6148SOL     OW30079   1.257   2.492   4.414  0.3967 -0.4963 -0.0332
 6148SOL    HW130080   1.182   2.552   4.412  1.8137  1.2971  0.4605
 6148SOL    HW230081   1.288   2.513   4.502  0.3753 -0.4960 -0.0255
 6149SOL     OW30082   2.884   4.519   0.846 -0.4680 -0.1409  0.1809
 6149SOL    HW130083   2.798   4.551   0.876 -1.0640 -0.6201 -1.0244
 6149SOL    HW230084   2.944   4.536   0.918 -0.9029  1.2062  0.2370
 6150SOL     OW30085   2.502   1.268   9.365  0.2767 -0.7072 -0.3401
 6150SOL    HW130086   2.516   1.317   9.445  0.6334  0.8450 -1.3615
 6150SOL    HW230087   2.590   1.230   9.357  0.7415  0.8351 -2.5985
 6151SOL     OW30088   0.820   2.501  15.807  0.2592  0.4999 -0.3274
 6151SOL    HW130089   0.862   2.435  15.752  1.1196 -1.4316  2.6401
 6151SOL    HW230090   0.729   2.473  15.803  0.8082 -1.6370  1.9278
 6152SOL     OW30091   2.763   0.022  12.693 -0.3303  0.4434  0.0868
 6152SOL    HW130092   2.679   4.727  12.658 -0.0723 -0.9249  0.6123
 6152SOL    HW230093   2.785   0.102  12.647 -0.5216  1.2320  1.3710
 6153SOL     OW30094   0.200   0.620   0.684 -0.4451  0.4184  0.1651
 6153SOL    HW130095   0.151   0.685   0.734  0.5270  0.3591  1.2211
 6153SOL    HW230096   0.179   0.644   0.594  1.2997  0.1233 -0.3254
 6154SOL     OW30097   3.257   1.712   3.283 -0.3104  0.0528 -0.1465
 6154SOL    HW130098   3.279   1.626   3.249 -2.3488  0.2874 -2.1119
 6154SOL    HW230099   3.331   1.749   3.330  0.7674 -0.0899 -1.7382
 6155SOL     OW30100   4.337   1.168   3.694 -0.3256 -0.2510 -0.1661
 6155SOL    HW130101   4.345   1.093   3.635  1.4901  0.3784 -0.6913
 6155SOL    HW230102   4.394   1.145   3.767  0.6576 -0.0413 -0.8745
 6156SOL     OW30103   0.689   1.382   0.782  0.1130 -0.4306 -0.3405
 6156SOL    HW130104   0.693   1.393   0.687 -1.1330 -0.1860 -0.3670
 6156SOL    HW230105   0.783   1.389   0.800  0.8387  0.3967 -4.3781
 6157SOL     OW30106   2.835   4.717   8.469 -0.2471 -0.4546  0.1122
 6157SOL    HW130107   2.839   4.634   8.423 -1.3150 -0.9234  0.8589
 6157SOL    HW230108   2.742   4.712   8.492 -0.1931 -0.4808  0.3269
 6158SOL     OW30109   4.567   2.039  14.631  0.3896  0.5345  0.1838
 6158SOL    HW130110   4.548   2.113  14.573 -0.4344 -0.8634 -1.3169
 6158SOL    HW230111   4.662   2.035  14.622  0.5407  2.6035  0.9301
 6159SOL     OW30112   1.079   3.373   9.367  0.3775  0.0807 -0.3580
 6159SOL    HW130113   1.151   3.436   9.368 -1.0044  1.6086  1.6465
 6159SOL    HW230114   1.101   3.307   9.301 -2.0360  0.5742 -1.6720
 6160SOL     OW30115   2.434   3.385  14.548 -0.3403  0.4586  0.2686
 6160SOL    HW130116   2.386   3.464  14.524 -1.9355 -0.9447 -1.1158
 6160SOL    HW230117   2.476   3.413  14.630  2.1609  2.4177 -1.6619
 6161SOL     OW30118   4.659   1.349  11.993 -0.2058 -0.2065 -0.2306
 6161SOL    HW130119   4.702   1.395  11.921  1.5922 -0.6013  0.5789
 6161SOL    HW230120   4.613   1.286  11.937 -1.6815  0.9355 -0.2931
 6162SOL     OW30121   0.807   1.682   3.872  0.1841  0.5216  0.3124
 6162SOL    HW130122   0.902   1.673   3.885  0.4480  1.4187 -1.0156
 6162SOL    HW230123   0.786   1.719   3.958  1.8906 -0.3037  1.0986
 6163SOL     OW30124   0.844   4.323   4.846 -0.0615 -0.4978  0.2758
 6163SOL    HW130125   0.823   4.251   4.787  2.7157 -2.0333  1.1656
 6163SOL    HW230126   0.900   4.277   4.908  1.9847  2.8943  0.9745
 6164SOL     OW30127   1.871   3.674   6.701  0.0342  0.3070 -0.7298
 6164SOL    HW130128   1.866   3.750   6.643 -1.1309  0.2031 -0.7641
 6164SOL    HW230129   1.780   3.644   6.707  0.2848 -0.9338 -3.1247
 6165SOL     OW30130   0.378   1.339   6.859  0.4582 -0.2379  0.2665
 6165SOL    HW130131   0.383   1.245   6.874 -1.2155 -0.4869 -0.6869
 6165SOL    HW230132   0.387   1.340   6.764 -0.9399 -0.9222  0.1316
 6166SOL     OW30133   3.814   1.854   4.051 -0.0010  0.7689  0.1146
 6166SOL    HW130134   3.742   1.834   4.111 -2.0959  0.8107 -2.3864
 6166SOL    HW230135   3.803   1.783   3.988  0.6020  0.9295 -0.1751
 6167SOL     OW30136   0.977   0.889   2.407 -0.2179  0.0146  0.2796
 6167SOL    HW130137   0.897   0.897   2.356 -0.4888 -0.4477  0.6369
 6167SOL    HW230138   1.035   0.850   2.341 -1.2817  0.1549 -0.7429
 6168SOL     OW30139   4.269   2.298   3.045  0.5232  0.4610  0.1978
 6168SOL    HW130140   4.338   2.309   2.980  0.9474  2.5007  0.9977
 6168SOL    HW230141   4.306   2.254   3.122  1.3850  0.7298 -0.0652
 6169SOL     OW30142   4.245   2.486   0.772 -0.3722 -0.2789 -0.4306
 6169SOL    HW130143   4.325   2.459   0.818  0.0045  3.1250  0.9101
 6169SOL    HW230144   4.183   2.457   0.838 -0.5722 -1.5482 -1.1809
 6170SOL     OW30145   3.290   3.056   2.505 -0.5014  0.4954 -0.2651
 6170SOL    HW130146   3.283   3.141   2.550  0.5300  0.0917  0.6531
 6170SOL    HW230147   3.358   3.067   2.439 -1.6690  1.7611 -1.2667
 6171SOL     OW30148   4.434   1.571   2.363  0.4751  0.0880 -0.4226
 6171SOL    HW130149   4.401   1.540   2.278 -3.8486  0.1503  1.2182
 6171SOL    HW230150   4.422   1.666   2.353  2.2502  0.0719 -2.6999
 6172SOL     OW30151   1.216   1.331   6.880 -0.1778  0.2789  0.2100
 6172SOL    HW130152   1.252   1.261   6.826 -1.9647 -1.5945  1.4658
 6172SOL    HW230153   1.167   1.273   6.938  0.2315 -0.3439 -0.0730
 6173SOL     OW30154   1.843   4.576   4.865 -0.0371  0.0710  0.5758
 6173SOL    HW130155   1.839   4.491   4.821 -0.5151  1.0551 -1.2822
 6173SOL    HW230156   1.780   4.622   4.810 -0.9327 -0.1522  1.4100
 6174SOL     OW30157   2.708   4.605  12.224 -0.3086  0.0874 -0.0803
 6174SOL    HW130158   2.709   4.640  12.313 -3.7529 -1.9678  0.7795
 6174SOL    HW230159   2.793   4.634  12.193 -0.2972 -1.0823 -1.1202
 6175SOL     OW30160   3.018   4.212   9.916 -0.0435 -0.2221  0.2788
 6175SOL    HW130161   3.059   4.236   9.999  2.7518  0.1337 -1.2234
 6175SOL    HW230162   2.926   4.218   9.940 -0.4190 -1.8581 -0.7334
 6176SOL     OW30163   4.538   4.033   0.883  0.1503 -0.1487  0.0738
 6176SOL    HW130164   4.481   3.989   0.820 -1.8294 -1.9372  3.1587
 6176SOL    HW230165   4.524   3.965   0.948  1.3113  0.1047  0.5859
 6177SOL     OW30166   4.425   3.945   5.850 -0.7328 -0.0850  0.2119
 6177SOL    HW130167   4.411   3.869   5.793 -0.2382  0.2245 -0.3305
 6177SOL    HW230168   4.433   4.019   5.790 -1.1365 -0.0614  0.1839
 6178SOL     OW30169   1.780   0.012  12.416  0.1437  0.0894  0.7916
 6178SOL    HW130170   1.789   4.727  12.509 -1.9815  0.6187  1.1114
 6178SOL    HW230171   1.863   4.712  12.384 -0.7960 -0.7842 -0.6871
 6179SOL     OW30172   3.829   2.021   3.458  0.0442 -0.4477  0.3741
 6179SOL    HW130173   3.838   1.983   3.545 -1.7660 -1.8278 -0.0180
 6179SOL    HW230174   3.919   2.049   3.443 -0.9829  1.4181 -2.3755
 6180SOL     OW30175   0.975   2.291   5.007 -0.3682 -0.4923 -0.4848
 6180SOL    HW130176   0.918   2.341   4.948 -0.9239  1.3912  1.6755
 6180SOL    HW230177   0.968   2.341   5.088  0.3504  0.7623 -1.1923
 6181SOL     OW30178   4.072   2.618  11.798  0.5485 -0.1575 -0.3353
 6181SOL    HW130179   4.071   2.580  11.711  0.6148  0.7312 -0.7240
 6181SOL    HW230180   4.090   2.711  11.783  0.6023 -0.0283  0.4940
 6182SOL     OW30181   2.311   0.121   9.315  0.6480  0.3697 -0.1982
 6182SOL    HW130182   2.237   0.161   9.270  0.9091  0.9015 -0.1509
 6182SOL    HW230183   2.299   0.162   9.400 -0.4323  0.3612 -0.3475
 6183SOL     OW30184   0.297   2.458   7.031  0.4076 -0.4444  0.5134
 6183SOL    HW130185   0.260   2.526   6.975 -0.9002 -1.2313  0.3927
 6183SOL    HW230186   0.380   2.450   6.984  0.6943  0.6529  0.8510
 6184SOL     OW30187   2.948   0.082   2.168 -0.2524  0.4511  0.0411
 6184SOL    HW130188   2.965   0.166   2.212 -0.4405  0.8247 -0.5919
 6184SOL    HW230189   2.866   0.052   2.205 -1.0020  0.4954 -1.5854
 6185SOL     OW30190   2.892   4.188   8.357 -0.2690  0.6001 -0.1346
 6185SOL    HW130191   2.911   4.099   8.388 -0.1404  0.9707  0.8400
 6185SOL    HW230192   2.942   4.197   8.276  0.6888  1.1959  0.5275
 6186SOL     OW30193   1.780   3.883   7.647 -0.0401 -0.0984  0.1943
 6186SOL    HW130194   1.741   3.833   7.719 -0.7836  1.1804  0.6715
 6186SOL    HW230195   1.874   3.872   7.662 -0.2853 -1.1433  0.9544
 6187SOL     OW30196   2.341   4.474   1.550  0.1335  0.7199  0.7565
 6187SOL    HW130197   2.332   4.379   1.558 -0.7163  0.6192 -1.3375
 6187SOL    HW230198   2.250   4.502   1.562 -0.1091 -0.2751  1.1977
 6188SOL     OW30199   4.120   3.607   1.396  0.1943  0.7188 -0.6419
 6188SOL    HW130200   4.202   3.656   1.399  1.3172 -1.3226  2.3726
 6188SOL    HW230201   4.067   3.687   1.401  0.3459  0.7021  1.3155
 6189SOL     OW30202   4.328   2.017  17.489  0.0281  0.2692 -0.1753
 6189SOL    HW130203   4.289   2.024  17.576 -1.0174  2.4932 -0.8264
 6189SOL    HW230204   4.419   2.033  17.511 -0.2199  0.2814  0.8356
 6190SOL     OW30205   0.246   4.123   8.882 -1.1518 -0.0721 -0.0805
 6190SOL    HW130206   0.183   4.085   8.820  0.2130 -1.8457 -0.3722
 6190SOL    HW230207   0.271   4.208   8.845  1.7199 -1.2465 -0.8698
 6191SOL     OW30208   3.423   4.649   2.213 -0.4747 -0.4704 -0.0140
 6191SOL    HW130209   3.376   4.720   2.256 -0.6461  0.3634 -1.5702
 6191SOL    HW230210   3.508   4.632   2.254  0.9904  1.0246 -2.4296
 6192SOL     OW30211   0.632   4.582   4.733  0.2970 -0.2395 -0.5936
 6192SOL    HW130212   0.696   4.620   4.673  0.8389  2.2430  1.5405
 6192SOL    HW230213   0.686   4.525   4.788 -0.8118 -1.2276 -0.5273
 6193SOL     OW30214   0.050   3.932   5.083 -0.2215 -0.5894 -0.2914
 6193SOL    HW130215   0.065   3.846   5.045  0.0326  0.0807 -1.6741
 6193SOL    HW230216   0.100   3.983   5.020 -0.6460  0.5943  0.3197
 6194SOL     OW30217   0.338   4.001   2.584  0.2119  0.1473 -0.2260
 6194SOL    HW130218   0.295   4.082   2.556  0.7758  1.3010  2.2070
 6194SOL    HW230219   0.334   3.945   2.506 -1.6797 -1.1120  0.7829
 6195SOL     OW30220   1.455   0.101   4.491 -0.0568 -0.2056 -0.1783
 6195SOL    HW130221   1.542   0.128   4.461 -0.0275  0.6858  0.7124
 6195SOL    HW230222   1.439   0.026   4.434  2.4300 -0.3909 -0.6319
 6196SOL     OW30223   0.609   1.776   1.820  0.1510 -0.0754  0.3684
 6196SOL    HW130224   0.580   1.836   1.889 -1.0345 -0.4162  0.1518
 6196SOL    HW230225   0.593   1.833   1.745 -1.8118 -0.2227  0.6972
 6197SOL     OW30226   0.674   2.927   9.246  0.7336 -0.1575  0.3087
 6197SOL    HW130227   0.694   2.923   9.340  0.9207 -1.1697  0.2208
 6197SOL    HW230228   0.698   3.018   9.228  0.4983  0.0479  1.0406
 6198SOL     OW30229   4.095   2.587   8.601 -0.1825  0.6041  0.5396
 6198SOL    HW130230   4.059   2.636   8.528  0.1204  0.8347  0.5460
 6198SOL    HW230231   4.018   2.530   8.601 -1.2002  1.9833 -1.1165
 6199SOL     OW30232   2.584   3.965   8.341  0.7261  0.0919 -0.2592
 6199SOL    HW130233   2.536   3.955   8.259 -0.9151 -0.4032  0.7594
 6199SOL    HW230234   2.522   4.007   8.401 -1.3596  0.3282 -2.6051
 6200SOL     OW30235   0.731   0.009   5.859  0.4794 -0.0673 -0.0367
 6200SOL    HW130236   0.708   4.720   5.769  0.3803  1.7462 -0.4824
 6200SOL    HW230237   0.826   0.018   5.851  0.3932  0.4706 -0.4125
 6201SOL     OW30238   2.250   2.079  14.618  0.3440 -0.1672  0.3088
 6201SOL    HW130239   2.157   2.071  14.601  0.6933 -1.4859 -1.0096
 6201SOL    HW230240   2.290   2.117  14.539  1.4554  0.4074  1.1454
 6202SOL     OW30241   2.154   1.157  12.601 -0.1411 -0.3787 -0.3737
 6202SOL    HW130242   2.240   1.197  12.615  0.9459 -1.8877 -2.6518
 6202SOL    HW230243   2.180   1.078  12.552  0.8429 -1.4444  1.8891
 6203SOL     OW30244   0.885   1.525   3.234  0.1416  0.5838 -0.5656
 6203SOL    HW130245   0.850   1.503   3.148 -0.7990  0.1085 -0.0604
 6203SOL    HW230246   0.807   1.550   3.284  1.3644  1.6424  0.8025
 6204SOL     OW30247   0.410   1.017  14.430  0.9647 -0.1025 -0.5019
 6204SOL    HW130248   0.326   0.974  14.448  0.4122  1.5105  0.8018
 6204SOL    HW230249   0.464   0.950  14.390 -0.4278 -0.6810 -1.4000
 6205SOL     OW30250   1.367   2.043  13.708 -0.4634 -0.3012 -0.2814
 6205SOL    HW130251   1.312   1.967  13.690  2.6066 -2.3466 -0.9895
 6205SOL    HW230252   1.319   2.079  13.782 -0.7351  0.4853 -0.8443
 6206SOL     OW30253   3.658   1.724   8.352  0.3644  0.2719 -0.5516
 6206SOL    HW130254   3.651   1.668   8.274  0.8312  0.4168 -0.6991
 6206SOL    HW230255   3.579   1.694   8.397  0.0541  3.4523  1.0176
 6207SOL     OW30256   3.923   1.054   4.931  0.7432 -0.2983  0.1988
 6207SOL    HW130257   3.853   1.049   4.866  1.2114 -2.3511 -0.1261
 6207SOL    HW230258   3.985   1.115   4.891  0.8122  0.0534  0.8256
 6208SOL     OW30259   1.761   3.588   7.543  0.0607  0.3322 -0.2688
 6208SOL    HW130260   1.746   3.671   7.498 -0.4377 -0.7602 -2.1032
 6208SOL    HW230261   1.853   3.576   7.521  0.1831 -0.1282  0.5074
 6209SOL     OW30262   0.398   4.588   3.998 -0.1194 -0.4775 -0.1432
 6209SOL    HW130263   0.458   4.520   4.029 -0.5837 -0.6570  0.3550
 6209SOL    HW230264   0.317   4.538   3.989 -0.4997  0.2937 -1.0344
 6210SOL     OW30265   3.408   2.413   6.662  0.6558 -0.4746 -0.6521
 6210SOL    HW130266   3.459   2.476   6.611  0.5635 -0.9274 -1.2973
 6210SOL    HW230267   3.331   2.459   6.694  0.9416 -0.9427  0.7094
 6211SOL     OW30268   3.295   0.095   3.823  0.2745 -0.0909 -0.4105
 6211SOL    HW130269   3.236   0.054   3.759  2.5724  1.4374 -3.5067
 6211SOL    HW230270   3.300   0.180   3.780 -4.1541  0.8181  0.9253
 6212SOL     OW30271   2.615   3.821   2.214  0.1586  0.4742  0.0654
 6212SOL    HW130272   2.575   3.841   2.129 -0.6698  0.3084  0.4194
 6212SOL    HW230273   2.708   3.831   2.191  0.1485 -2.7715 -1.4139
 6213SOL     OW30274   2.705   4.004   4.363  0.0733  0.4000  0.5832
 6213SOL    HW130275   2.733   4.056   4.438  1.4141  1.4284 -0.6196
 6213SOL    HW230276   2.779   4.026   4.306 -0.9060  0.3226 -0.7220
 6214SOL     OW30277   0.846   3.644  14.706 -0.1773 -0.2773 -0.0465
 6214SOL    HW130278   0.836   3.735  14.679 -1.8817 -0.5228 -0.1996
 6214SOL    HW230279   0.762   3.607  14.679  1.0519 -1.8770 -1.7440
 6215SOL     OW30280   0.662   0.077   8.889 -0.1320  0.1418 -0.2429
 6215SOL    HW130281   0.744   0.105   8.850 -0.1192  0.0078 -0.3148
 6215SOL    HW230282   0.603   0.144   8.855 -2.9261 -2.2970 -0.3328
 6216SOL     OW30283   3.693   3.275   5.209  0.0429 -0.1012 -0.3674
 6216SOL    HW130284   3.653   3.349   5.164 -0.3469 -1.3936 -2.1264
 6216SOL    HW230285   3.779   3.296   5.246 -0.6941  1.6777  0.3232
 6217SOL     OW30286   1.446   0.206   5.693  0.8632 -0.6268  0.9203
 6217SOL    HW130287   1.417   0.124   5.733  0.6440 -1.7813 -1.6155
 6217SOL    HW230288   1.467   0.268   5.763 -0.6982  1.8288 -0.7881
 6218SOL     OW30289   3.392   3.972   3.760 -0.6213 -0.6596  0.1940
 6218SOL    HW130290   3.395   3.877   3.762 -2.1207 -0.6921  0.8218
 6218SOL    HW230291   3.417   3.991   3.669  1.5559 -0.8029  0.7639
 6219SOL     OW30292   3.566   3.425   3.160  0.3188 -0.3048 -0.6639
 6219SOL    HW130293   3.639   3.366   3.145  1.6524  1.1508  0.0662
 6219SOL    HW230294   3.599   3.489   3.224 -3.1480  0.6743  0.1515
 6220SOL     OW30295   4.356   3.864  15.307 -0.0573 -0.0873  0.5329
 6220SOL    HW130296   4.393   3.911  15.232 -0.7005 -0.1536  0.1761
 6220SOL    HW230297   4.284   3.819  15.263 -0.7752 -1.4004  3.0151
 6221SOL     OW30298   2.980   3.131   2.807  0.4648 -0.0903 -0.8871
 6221SOL    HW130299   3.048   3.071   2.837 -0.5507 -1.0089 -0.4247
 6221SOL    HW230300   3.002   3.212   2.853 -1.9071 -0.7959  1.4891
 6222SOL     OW30301   0.708   4.695   6.735  0.3355 -0.0881  0.5593
 6222SOL    HW130302   0.631   4.698   6.791 -1.7085 -1.5679 -2.1750
 6222SOL    HW230303   0.667   4.700   6.648 -0.4074 -0.4420  0.8925
 6223SOL     OW30304   0.686   0.984   6.433  0.4717 -0.0038 -0.1298
 6223SOL    HW130305   0.677   0.892   6.459  0.7805 -0.2613 -0.9057
 6223SOL    HW230306   0.678   1.026   6.518 -2.3666  0.6081 -0.6994
 6224SOL     OW30307   3.986   1.825   3.759  0.4969 -0.0516 -0.3178
 6224SOL    HW130308   3.901   1.869   3.757  0.0011 -1.0063 -0.7500
 6224SOL    HW230309   4.034   1.904   3.783 -0.0867 -0.4309  2.0445
 6225SOL     OW30310   0.890   1.304   2.795 -0.1353 -0.1347 -0.4744
 6225SOL    HW130311   0.892   1.221   2.747 -0.4883  0.5089 -1.5916
 6225SOL    HW230312   0.884   1.372   2.728 -2.2846 -0.4160 -0.5742
 6226SOL     OW30313   3.958   0.160  13.231 -0.0311  0.1218 -0.6064
 6226SOL    HW130314   4.052   0.145  13.217  0.5858  1.4187  2.0690
 6226SOL    HW230315   3.924   0.096  13.293  0.4626  0.7674  0.3318
 6227SOL     OW30316   3.443   4.715  13.217 -0.5396  0.1593  0.0779
 6227SOL    HW130317   3.444   0.067  13.256  2.6784  0.5616 -0.8734
 6227SOL    HW230318   3.418   4.665  13.295  0.4721 -1.1557 -0.4370
 6228SOL     OW30319   3.889   1.046   3.171 -0.4245  0.4703  0.5063
 6228SOL    HW130320   3.796   1.066   3.156 -0.6266 -0.7769  0.0522
 6228SOL    HW230321   3.882   1.027   3.265 -0.4036  1.9127  0.7946
 6229SOL     OW30322   2.274   0.156   5.291  0.4722 -0.0065 -0.1232
 6229SOL    HW130323   2.275   0.203   5.207 -1.4980 -2.3851 -1.5077
 6229SOL    HW230324   2.209   0.086   5.284 -0.4639  1.2081 -3.5834
 6230SOL     OW30325   4.293   3.715  15.753 -0.1055  0.8626 -0.3442
 6230SOL    HW130326   4.359   3.720  15.685 -2.3943  3.3211 -2.3582
 6230SOL    HW230327   4.226   3.782  15.741  0.2065  0.9936 -1.3541
 6231SOL     OW30328   3.425   2.313   2.863 -0.3909  0.0160  0.3289
 6231SOL    HW130329   3.373   2.267   2.929 -2.1835 -1.4677 -2.1212
 6231SOL    HW230330   3.437   2.245   2.797  0.0914  0.6648 -0.2630
 6232SOL     OW30331   0.803   3.470   9.445  0.2622 -0.3956 -0.3985
 6232SOL    HW130332   0.890   3.436   9.427 -0.1178 -0.7324 -1.5780
 6232SOL    HW230333   0.799   3.546   9.387  0.2284 -0.7055 -0.7991
 6233SOL     OW30334   0.258   2.949   6.679  0.1026 -0.3665 -0.7717
 6233SOL    HW130335   0.254   2.861   6.640  0.2411 -0.5874 -0.2834
 6233SOL    HW230336   0.307   2.986   6.605  0.4443  0.1297 -0.2901
 6234SOL     OW30337   2.128   4.616  12.734  0.3105 -0.0473 -0.1361
 6234SOL    HW130338   2.158   4.527  12.716  0.9892  0.4718 -1.5579
 6234SOL    HW230339   2.114   4.606  12.828  1.1667  2.6713  0.2712
 6235SOL     OW30340   2.361   1.873  13.151  0.7387 -0.2240 -0.1663
 6235SOL    HW130341   2.418   1.853  13.226  1.2904 -0.1224 -0.5611
 6235SOL    HW230342   2.301   1.799  13.150  1.4621 -0.8261  1.5043
 6236SOL     OW30343   4.445   2.557   0.058  0.1019  0.2531  0.1111
 6236SOL    HW130344   4.524   2.547   0.005  0.2054  1.0071  0.1278
 6236SOL    HW230345   4.410   2.468   0.053 -0.7725  0.6962 -1.8513
 6237SOL     OW30346   3.528   3.516  11.279 -0.2361 -0.3404 -0.0106
 6237SOL    HW130347   3.455   3.490  11.336  2.8106  0.4865  4.2817
 6237SOL    HW230348   3.522   3.611  11.283 -1.0075 -0.3216 -1.7269
 6238SOL     OW30349   2.933   0.622   4.309  0.5554  0.4439  0.6222
 6238SOL    HW130350   3.026   0.635   4.328  0.8381  1.7413 -1.7572
 6238SOL    HW230351   2.949   0.576   4.226 -0.3271 -0.0387  0.7239
 6239SOL     OW30352   1.149   0.319   5.729  0.7095  0.3666 -0.2617
 6239SOL    HW130353   1.154   0.415   5.720  2.5218  0.4717  1.7845
 6239SOL    HW230354   1.223   0.281   5.682  1.3749  1.4992 -0.1251
 6240SOL     OW30355   4.128   3.844  14.655  0.9288  0.2393 -0.1953
 6240SOL    HW130356   4.166   3.758  14.674  2.4450  0.6046 -1.5418
 6240SOL    HW230357   4.132   3.837  14.560 -2.4158  0.4870 -0.3238
 6241SOL     OW30358   2.992   2.433   8.630 -0.3804 -0.6675  0.2954
 6241SOL    HW130359   2.901   2.463   8.639 -0.6912 -1.4874 -0.1842
 6241SOL    HW230360   2.997   2.364   8.696  2.1669 -1.6280 -0.9228
 6242SOL     OW30361   1.097   1.078   4.061  0.1824 -0.0077  0.1055
 6242SOL    HW130362   1.062   1.159   4.097  0.7565  0.3398 -0.1197
 6242SOL    HW230363   1.019   1.057   4.010 -0.3258  1.7389  0.1636
 6243SOL     OW30364   3.832   2.803   3.682  0.4834  0.3691 -0.0530
 6243SOL    HW130365   3.759   2.796   3.621 -0.3260  1.6388  0.7991
 6243SOL    HW230366   3.837   2.897   3.696  0.6915  0.4641 -0.7574
 6244SOL     OW30367   0.125   0.748  11.943 -1.0259  0.1965 -0.4678
 6244SOL    HW130368   0.156   0.734  12.033 -1.2507  1.6733 -0.1447
 6244SOL    HW230369   0.052   0.808  11.959 -1.6864 -0.5956 -0.5123
 6245SOL     OW30370   2.173   0.798   9.234  0.2359 -0.4851  0.7831
 6245SOL    HW130371   2.247   0.849   9.269 -0.0807  2.6043 -3.0115
 6245SOL    HW230372   2.173   0.823   9.142 -0.0574 -1.3310  0.5539
 6246SOL     OW30373   0.306   2.734   5.295  0.1467  0.2063  0.2553
 6246SOL    HW130374   0.389   2.728   5.246 -0.7407  0.3889 -1.2650
 6246SOL    HW230375   0.321   2.677   5.371  0.6343 -0.6212 -0.4599
 6247SOL     OW30376   0.249   0.322   8.831  0.1729  0.0199  0.0662
 6247SOL    HW130377   0.244   0.301   8.738 -0.5838 -1.7471  0.5151
 6247SOL    HW230378   0.178   0.385   8.841  0.2785 -0.2278  2.4307
 6248SOL     OW30379   4.180   3.263  14.557  0.9325  0.2035  0.2334
 6248SOL    HW130380   4.222   3.190  14.510  1.5891 -0.3972  1.7697
 6248SOL    HW230381   4.256   3.320  14.568  1.6153 -0.2603 -1.9707
 6249SOL     OW30382   4.458   4.122   7.755 -0.0832  0.3373  0.4270
 6249SOL    HW130383   4.394   4.122   7.826  0.4786  3.2886  0.9566
 6249SOL    HW230384   4.465   4.216   7.738 -1.4518  0.6012  1.3290
 6250SOL     OW30385   2.132   2.156   4.757 -0.7101  0.1575 -0.1319
 6250SOL    HW130386   2.134   2.252   4.767 -0.4200  0.1682 -0.2768
 6250SOL    HW230387   2.216   2.134   4.716  0.8952  0.6240  2.9566
 6251SOL     OW30388   3.274   2.817   0.324 -0.5161 -0.4692 -0.5583
 6251SOL    HW130389   3.343   2.822   0.391 -2.0050 -2.4755  1.1245
 6251SOL    HW230390   3.203   2.787   0.380 -0.8637 -0.9051 -1.2356
 6252SOL     OW30391   1.044   2.656   4.079 -0.4024  0.0254 -0.2035
 6252SOL    HW130392   0.990   2.608   4.015  2.7711 -2.3562 -1.0820
 6252SOL    HW230393   1.100   2.695   4.013 -0.5453 -2.4651 -1.8102
 6253SOL     OW30394   2.776   2.064   9.088  0.0532  0.3753  0.3047
 6253SOL    HW130395   2.867   2.052   9.115 -0.3059 -0.4846  1.1213
 6253SOL    HW230396   2.751   2.148   9.127 -0.9133 -1.2284  3.1435
 6254SOL     OW30397   1.510   2.025   9.884 -0.1241  0.5014 -0.4582
 6254SOL    HW130398   1.589   1.977   9.860  0.6762  0.2358  2.6926
 6254SOL    HW230399   1.526   2.049   9.976 -1.9969 -2.3999  0.6401
 6255SOL     OW30400   2.397   4.422  10.592 -0.0843  0.2947  0.0562
 6255SOL    HW130401   2.453   4.483  10.640  2.8137  0.5643 -3.6847
 6255SOL    HW230402   2.380   4.471  10.512 -0.4124  2.8224  1.6609
 6256SOL     OW30403   2.542   4.404   9.107 -0.3710  0.7185 -0.0380
 6256SOL    HW130404   2.454   4.365   9.101  0.4831 -1.1521 -0.4941
 6256SOL    HW230405   2.531   4.497   9.089  1.3534  1.4941  2.9480
 6257SOL     OW30406   0.635   3.501   5.814 -0.4338  0.2030  0.1095
 6257SOL    HW130407   0.614   3.453   5.894  0.5407  2.1459  1.5266
 6257SOL    HW230408   0.631   3.590   5.850 -1.2642 -0.8401  2.6341
 6258SOL     OW30409   2.544   2.453   5.671  0.2291  0.5663 -0.1233
 6258SOL    HW130410   2.587   2.371   5.693 -0.3434  0.3729  0.2656
 6258SOL    HW230411   2.614   2.485   5.614 -0.3036  0.6593 -0.7332
 6259SOL     OW30412   4.611   4.692   3.516 -0.1973 -0.3962  0.4630
 6259SOL    HW130413   4.705   4.684   3.528 -0.0915  1.9835  1.2710
 6259SOL    HW230414   4.616   0.036   3.462  0.4288  0.9396  2.5075
 6260SOL     OW30415   2.070   2.256  14.437 -0.3095 -0.1072  0.1311
 6260SOL    HW130416   2.040   2.195  14.370  1.9990 -1.0498 -0.0499
 6260SOL    HW230417   2.162   2.249  14.412  0.2489  1.2369  1.8324
 6261SOL     OW30418   4.382   3.555   3.459  0.0100  0.0844 -0.3810
 6261SOL    HW130419   4.323   3.607   3.514 -0.0232  1.0125 -1.2973
 6261SOL    HW230420   4.381   3.612   3.382 -0.4022  0.7837  0.1416
 6262SOL     OW30421   2.366   0.365   6.566  0.1152 -0.4893 -0.0468
 6262SOL    HW130422   2.350   0.450   6.526 -1.4155 -1.3303 -1.2452
 6262SOL    HW230423   2.376   0.402   6.654 -1.0292  0.2141 -0.2068
 6263SOL     OW30424   1.725   4.593   6.293  0.2567  0.0316 -0.2196
 6263SOL    HW130425   1.809   4.629   6.319  0.0420  3.1376 -3.8990
 6263SOL    HW230426   1.733   4.614   6.200 -2.7598 -0.7567 -0.6715
 6264SOL     OW30427   2.018   3.881   2.366  0.1993 -0.1630  0.5872
 6264SOL    HW130428   2.107   3.917   2.366  0.2145 -0.2016  0.1236
 6264SOL    HW230429   2.009   3.869   2.271  0.5380  0.9224  0.4095
 6265SOL     OW30430   3.087   3.258   9.129  0.2059  0.3136  0.4098
 6265SOL    HW130431   3.142   3.197   9.178 -1.1947 -1.8123 -0.6631
 6265SOL    HW230432   3.049   3.312   9.198  1.0369  0.8423  0.4578
 6266SOL     OW30433   1.534   4.338  11.870  0.7239 -0.0426 -0.0933
 6266SOL    HW130434   1.469   4.345  11.800  2.3010 -1.7463 -1.7187
 6266SOL    HW230435   1.515   4.250  11.904  1.5264  0.5999  2.0432
 6267SOL     OW30436   4.061   1.086   9.750  0.4739 -0.2159 -0.2951
 6267SOL    HW130437   4.090   1.108   9.838 -0.2987  0.9864 -0.3420
 6267SOL    HW230438   4.142   1.115   9.707 -0.7644  0.4248 -2.1697
 6268SOL     OW30439   0.747   2.123  11.744 -0.1000 -0.2649  0.4341
 6268SOL    HW130440   0.775   2.046  11.694  2.0420  0.1938  0.9019
 6268SOL    HW230441   0.831   2.168  11.749 -0.2237 -0.0954  1.0213
 6269SOL     OW30442   3.881   2.580  11.466 -0.7656 -0.2041  0.9278
 6269SOL    HW130443   3.870   2.651  11.402 -0.3643 -0.0191  1.0609
 6269SOL    HW230444   3.965   2.605  11.504 -0.8379  2.6940 -0.8499
 6270SOL     OW30445   4.298   0.654  11.137 -0.3128  0.0495 -0.3714
 6270SOL    HW130446   4.350   0.700  11.071 -0.6060 -0.4269 -0.9259
 6270SOL    HW230447   4.313   0.702  11.219 -1.3714  0.7979 -0.6103
 6271SOL     OW30448   0.520   1.273  13.518  0.0453  0.0310  0.1986
 6271SOL    HW130449   0.481   1.356  13.491 -1.8431 -0.4892  1.3378
 6271SOL    HW230450   0.587   1.261  13.450  0.2395 -0.5857  0.4931
 6272SOL     OW30451   2.146   4.631   4.007 -0.4159 -0.0950  0.3047
 6272SOL    HW130452   2.205   4.660   3.937  0.6865  0.3081  1.3919
 6272SOL    HW230453   2.204   4.632   4.083 -2.4669 -0.8887  1.8713
 6273SOL     OW30454   2.440   2.720  16.985  0.4328  0.1303 -0.5715
 6273SOL    HW130455   2.481   2.694  16.902  0.1697  0.8267 -0.9223
 6273SOL    HW230456   2.495   2.798  16.994  0.9987 -0.3250 -0.1279
 6274SOL     OW30457   1.738   2.391   8.239  0.4808  0.1233 -0.5370
 6274SOL    HW130458   1.802   2.320   8.235  2.9574  2.2192  1.6713
 6274SOL    HW230459   1.737   2.410   8.333  0.9433  0.6284 -0.6340
 6275SOL     OW30460   0.933   4.223   3.061 -0.7327 -0.5381  0.1367
 6275SOL    HW130461   0.912   4.311   3.091 -0.3182  0.0837 -1.4303
 6275SOL    HW230462   0.999   4.240   2.994 -0.0665  0.4083  1.0404
 6276SOL     OW30463   1.572   3.397   7.203  0.1914  0.3146 -0.3027
 6276SOL    HW130464   1.484   3.360   7.199 -0.0273  0.8091 -0.1160
 6276SOL    HW230465   1.563   3.461   7.274  3.1268  0.8132 -0.3625
 6277SOL     OW30466   1.850   3.082   5.625  0.3865 -0.2887 -0.3139
 6277SOL    HW130467   1.846   2.989   5.603  0.6265 -0.6668  1.2780
 6277SOL    HW230468   1.913   3.077   5.697  0.3487 -2.0348 -0.4144
 6278SOL     OW30469   0.474   2.066  16.200  0.2114  0.0789 -0.5577
 6278SOL    HW130470   0.480   2.120  16.279  0.9600  0.5891 -0.9635
 6278SOL    HW230471   0.494   1.979  16.235 -0.1588 -0.0888 -0.7682
 6279SOL     OW30472   4.352   3.266   9.585 -0.4624  0.3995  0.1497
 6279SOL    HW130473   4.309   3.182   9.579  1.2473 -0.3443 -1.6373
 6279SOL    HW230474   4.314   3.306   9.507  0.2192 -0.8752 -0.8265
 6280SOL     OW30475   1.143   4.156   2.878 -0.2617  0.0242 -0.1562
 6280SOL    HW130476   1.226   4.114   2.857 -0.8184 -0.9557 -0.4465
 6280SOL    HW230477   1.090   4.132   2.802 -0.1185 -1.1769  0.1173
 6281SOL     OW30478   4.371   0.737  15.001  0.0418 -0.1186  0.3372
 6281SOL    HW130479   4.379   0.695  15.087  1.1397  1.0025  0.7723
 6281SOL    HW230480   4.283   0.705  14.980  1.4777 -3.5334 -0.5949
 6282SOL     OW30481   1.449   2.999  13.690  0.7187  0.2910 -0.1371
 6282SOL    HW130482   1.444   3.075  13.632 -1.1428  0.1464 -0.1652
 6282SOL    HW230483   1.363   2.960  13.676  0.0844  1.0038  1.7920
 6283SOL     OW30484   0.492   2.161   7.631  0.1914  0.1748 -0.5049
 6283SOL    HW130485   0.582   2.180   7.659 -0.5423  0.4933  1.6740
 6283SOL    HW230486   0.433   2.191   7.700 -0.4020 -2.9501  0.3337
 6284SOL     OW30487   2.574   1.436  15.928  0.5637  0.2470 -0.2250
 6284SOL    HW130488   2.488   1.425  15.889 -0.0550 -0.0258  1.2440
 6284SOL    HW230489   2.616   1.349  15.924  3.3013  1.5435  0.1061
 6285SOL     OW30490   2.958   2.237   3.416 -0.0636 -0.2760 -0.2466
 6285SOL    HW130491   3.027   2.256   3.353 -0.8561  1.5051 -0.5771
 6285SOL    HW230492   2.984   2.310   3.473 -0.8436 -0.6173  0.5551
 6286SOL     OW30493   1.346   0.169   2.421  0.9760  0.0382 -0.4434
 6286SOL    HW130494   1.296   0.092   2.396  0.4314  0.5762 -1.0105
 6286SOL    HW230495   1.432   0.141   2.391 -0.0914 -2.6723 -0.9211
 6287SOL     OW30496   0.782   4.039   5.825 -0.1630 -0.0468  0.2789
 6287SOL    HW130497   0.769   4.134   5.826 -2.0245 -0.3110  0.9105
 6287SOL    HW230498   0.869   4.025   5.864 -0.1896 -0.0087  0.3518
 6288SOL     OW30499   3.931   3.469   8.323  0.0196 -0.2243 -0.4385
 6288SOL    HW130500   3.931   3.518   8.240 -0.4872 -0.2702 -0.4658
 6288SOL    HW230501   4.005   3.410   8.314  1.3859  1.7008 -1.7572
 6289SOL     OW30502   1.004   1.373   2.078  0.0082  0.0485  0.4411
 6289SOL    HW130503   1.068   1.312   2.114  0.9396 -0.1693 -1.6095
 6289SOL    HW230504   1.016   1.354   1.985  0.2303  1.5144  0.1711
 6290SOL     OW30505   4.118   2.067   5.483 -0.0011 -0.2659 -0.0472
 6290SOL    HW130506   4.199   2.018   5.467  0.7362  0.8407  0.2785
 6290SOL    HW230507   4.083   2.052   5.395 -0.4483  1.7563 -0.2244
 6291SOL     OW30508   3.743   2.999  16.968 -0.1293  0.0032 -0.0161
 6291SOL    HW130509   3.820   2.948  16.947 -1.3428 -2.5635  1.7015
 6291SOL    HW230510   3.735   2.999  17.064 -0.8836 -0.8139 -0.0716
 6292SOL     OW30511   3.779   3.851   3.588 -0.5074 -0.1269  0.1955
 6292SOL    HW130512   3.859   3.904   3.586 -0.5285 -0.1213 -0.3435
 6292SOL    HW230513   3.776   3.843   3.684 -4.9200 -0.1501  0.0503
 6293SOL     OW30514   2.533   0.475   3.140 -0.0692  0.2301  0.8342
 6293SOL    HW130515   2.521   0.569   3.150 -2.4732 -0.1170  1.1823
 6293SOL    HW230516   2.440   0.454   3.132  0.0665 -0.4474  1.0811
 6294SOL     OW30517   2.836   2.375   3.998 -0.7139  0.0292  0.0946
 6294SOL    HW130518   2.817   2.359   3.905 -0.1326 -1.1465  0.1841
 6294SOL    HW230519   2.912   2.433   3.996  1.5034 -2.9144 -1.1770
 6295SOL     OW30520   3.487   0.704   8.160  0.3016 -0.0365  0.3362
 6295SOL    HW130521   3.394   0.680   8.166 -0.3875  3.0108  1.7382
 6295SOL    HW230522   3.528   0.622   8.131  1.0529  0.9529 -1.4449
 6296SOL     OW30523   1.420   2.852   7.025  0.1587 -0.5923  0.5064
 6296SOL    HW130524   1.440   2.769   7.070  1.4384 -0.2129  0.6424
 6296SOL    HW230525   1.336   2.879   7.061  0.7225  0.9252  0.6935
 6297SOL     OW30526   2.946   0.148  11.297  0.5463  0.0596  0.3680
 6297SOL    HW130527   2.910   0.171  11.383 -0.1429  0.5536 -0.0553
 6297SOL    HW230528   2.917   0.225  11.248  0.5474 -1.0564 -1.3746
 6298SOL     OW30529   0.083   2.623   5.551  0.3602 -0.5342  0.2369
 6298SOL    HW130530   0.052   2.534   5.530 -0.9574 -0.3052  1.2460
 6298SOL    HW230531   0.058   2.695   5.494  0.7756  0.4618  1.3163
 6299SOL     OW30532   1.688   1.049   2.696 -0.0777  0.5928  0.0751
 6299SOL    HW130533   1.745   0.980   2.732  0.8715  0.9452 -0.7244
 6299SOL    HW230534   1.661   1.079   2.782  3.6169  1.0915  1.0503
 6300SOL     OW30535   0.607   0.411   5.479  0.1003 -0.3004 -0.7377
 6300SOL    HW130536   0.582   0.375   5.394 -0.2170  1.0354 -1.2098
 6300SOL    HW230537   0.541   0.480   5.489  1.4047  0.5613  1.8759
 6301SOL     OW30538   2.056   2.918   9.440 -0.0757 -0.0948 -0.5376
 6301SOL    HW130539   1.969   2.941   9.472 -0.2326 -2.2933  0.6109
 6301SOL    HW230540   2.107   2.997   9.458 -0.3923 -0.0042 -0.0362
 6302SOL     OW30541   3.536   2.210  15.487 -0.1730  0.1568  0.2210
 6302SOL    HW130542   3.467   2.274  15.506  0.9796  1.4841 -0.0540
 6302SOL    HW230543   3.519   2.191  15.395  0.3117  0.3447  0.0917
 6303SOL     OW30544   1.877   0.490  10.316  0.0627 -0.0118  0.2567
 6303SOL    HW130545   1.809   0.499  10.383  0.0908 -1.9330  0.5275
 6303SOL    HW230546   1.838   0.556  10.259  0.6600 -0.2112 -0.3784
 6304SOL     OW30547   1.042   0.029   6.378 -0.1648 -0.1641  0.1882
 6304SOL    HW130548   1.078   4.708   6.308 -0.4892 -2.1127  1.5874
 6304SOL    HW230549   1.085   4.725   6.454  0.8483 -2.7360 -1.7039
 6305SOL     OW30550   0.398   0.410   3.249 -0.8402  0.6291  0.7800
 6305SOL    HW130551   0.407   0.471   3.175 -0.7637  0.7742  0.9085
 6305SOL    HW230552   0.372   0.339   3.190 -0.0569  0.8434  0.1703
 6306SOL     OW30553   0.281   1.462  13.462  0.3918 -0.2470 -0.4566
 6306SOL    HW130554   0.195   1.423  13.477  0.8071 -1.0123 -0.0592
 6306SOL    HW230555   0.248   1.545  13.428 -2.3663  0.6430  4.2635
 6307SOL     OW30556   2.095   1.198   8.852  0.1676 -0.2474 -0.7911
 6307SOL    HW130557   2.127   1.115   8.886  1.8432  1.7671  2.4596
 6307SOL    HW230558   2.117   1.251   8.928 -1.1031 -3.1073  1.5410
 6308SOL     OW30559   3.226   0.078   0.812 -0.8185 -0.3772  0.3068
 6308SOL    HW130560   3.238   0.089   0.907  0.5507  1.4936 -0.0713
 6308SOL    HW230561   3.219   4.718   0.810  1.0057 -0.5264  0.4781
 6309SOL     OW30562   1.922   3.075   1.848 -0.4780  0.0881 -0.0981
 6309SOL    HW130563   1.902   3.100   1.938  1.2860  1.4480 -0.0991
 6309SOL    HW230564   2.007   3.032   1.861 -0.3392  0.0211 -1.1750
 6310SOL     OW30565   4.321   4.199   1.394  0.6204 -0.0061  0.0669
 6310SOL    HW130566   4.289   4.124   1.344  0.2798 -0.5685  1.1177
 6310SOL    HW230567   4.244   4.233   1.439  1.0946 -0.2759  1.0901
 6311SOL     OW30568   3.099   4.382   4.997 -0.0225 -0.4593 -0.4565
 6311SOL    HW130569   3.152   4.450   5.038  1.2837 -1.1038 -1.0702
 6311SOL    HW230570   3.045   4.440   4.943 -1.7719 -1.0771  0.6234
 6312SOL     OW30571   2.756   4.558   8.177 -0.0215  0.0511 -0.1857
 6312SOL    HW130572   2.746   4.463   8.170 -0.7690 -0.1205  3.1672
 6312SOL    HW230573   2.688   4.587   8.116 -1.7101  0.5969  1.9447
 6313SOL     OW30574   3.969   0.970   6.990 -0.3717 -0.3347  0.0352
 6313SOL    HW130575   4.051   0.948   7.036  0.7257  1.2726 -1.1488
 6313SOL    HW230576   3.913   0.898   7.019  0.7601 -1.7685 -1.3039
 6314SOL     OW30577   0.819   3.166   6.726 -0.0208  0.2296  0.3866
 6314SOL    HW130578   0.749   3.215   6.770  0.3171 -0.1474  1.3419
 6314SOL    HW230579   0.772   3.085   6.706  0.0809 -0.0896  1.4066
 6315SOL     OW30580   3.323   4.414   7.109  0.3445  0.8208  0.8419
 6315SOL    HW130581   3.257   4.359   7.151  0.6179  0.6816  1.0925
 6315SOL    HW230582   3.310   4.391   7.017  1.3966  2.1509  0.3697
 6316SOL     OW30583   0.725   3.369   8.369  0.2770  0.4365 -0.0837
 6316SOL    HW130584   0.712   3.299   8.433 -1.3524  0.3332 -0.5173
 6316SOL    HW230585   0.690   3.443   8.418  2.1283  0.8694  0.5972
 6317SOL     OW30586   3.721   4.077   6.727 -0.6495  0.2396  0.2596
 6317SOL    HW130587   3.688   3.994   6.763 -1.3837  0.6512  0.5392
 6317SOL    HW230588   3.771   4.100   6.805 -0.6588 -2.1023  0.9532
 6318SOL     OW30589   4.316   2.857   7.366  0.1856  0.1723  0.6394
 6318SOL    HW130590   4.221   2.844   7.370  0.3155 -0.4442  1.8937
 6318SOL    HW230591   4.345   2.825   7.281 -0.7322  0.3211  0.2657
 6319SOL     OW30592   4.112   1.347   8.068 -0.0690 -0.5422 -0.2438
 6319SOL    HW130593   4.155   1.362   7.984 -0.8992  0.6451 -0.4482
 6319SOL    HW230594   4.181   1.376   8.127  0.1801  1.3723 -1.5157
 6320SOL     OW30595   1.655   4.218  16.729  0.6826  0.3598 -0.1152
 6320SOL    HW130596   1.727   4.159  16.705  0.4606  0.7440 -1.7288
 6320SOL    HW230597   1.586   4.153  16.739  0.5659  0.3193 -1.1790
 6321SOL     OW30598   0.120   2.096   4.126  0.4007 -0.1650  0.3655
 6321SOL    HW130599   0.139   2.138   4.210 -1.3022  2.0168 -0.3575
 6321SOL    HW230600   0.158   2.009   4.139  2.1015  0.2007 -2.1300
 6322SOL     OW30601   1.119   2.352   7.465  0.1377 -0.0868 -0.4506
 6322SOL    HW130602   1.104   2.444   7.486  2.1501  0.4023 -1.1706
 6322SOL    HW230603   1.069   2.303   7.530 -1.6124  1.3684 -0.7145
 6323SOL     OW30604   2.424   3.634   6.844  0.3692  0.7156  0.2386
 6323SOL    HW130605   2.497   3.578   6.870 -0.8019 -0.6573  0.4973
 6323SOL    HW230606   2.394   3.668   6.928  1.2326  2.6091 -0.2116
 6324SOL     OW30607   2.579   4.406  15.912 -0.5602 -0.4674 -0.5061
 6324SOL    HW130608   2.580   4.461  15.833  1.9489  1.3814  0.8011
 6324SOL    HW230609   2.515   4.340  15.887 -1.2262  0.4302 -1.1777
 6325SOL     OW30610   2.371   4.639   4.769 -0.0615  0.0630 -0.6779
 6325SOL    HW130611   2.336   4.666   4.684 -0.2752  0.7446 -0.3765
 6325SOL    HW230612   2.286   4.626   4.812  0.3792 -2.0175 -0.4506
 6326SOL     OW30613   4.015   2.155   3.611 -0.0118  0.5768 -0.7380
 6326SOL    HW130614   3.930   2.131   3.648 -0.4475  3.1346 -0.1275
 6326SOL    HW230615   4.074   2.140   3.685  0.2373 -0.5370 -1.1508
 6327SOL     OW30616   1.010   2.157   2.437  0.5708 -0.1618  0.3888
 6327SOL    HW130617   0.998   2.094   2.509  0.6412 -0.3081  0.2717
 6327SOL    HW230618   0.919   2.159   2.405  0.9024 -2.1861 -0.7196
 6328SOL     OW30619   3.651   4.617   2.352 -0.6085  0.1737 -0.4019
 6328SOL    HW130620   3.602   4.567   2.418  1.1481  1.0116  1.5167
 6328SOL    HW230621   3.722   4.649   2.408 -0.3869  1.6188 -1.5241
 6329SOL     OW30622   3.941   4.303   2.806 -0.4270 -0.3846 -0.1417
 6329SOL    HW130623   4.003   4.376   2.803 -0.8655  0.0063  0.5122
 6329SOL    HW230624   3.862   4.354   2.790  0.5244  0.0954 -3.4529
 6330SOL     OW30625   2.198   4.576  13.716 -0.0914  0.2275  0.0988
 6330SOL    HW130626   2.268   4.638  13.735 -0.4022  0.8700 -0.8193
 6330SOL    HW230627   2.152   4.626  13.648 -3.3247 -1.5563  0.9477
 6331SOL     OW30628   4.159   3.866   5.275  0.4830  0.2809  0.0446
 6331SOL    HW130629   4.170   3.772   5.265  1.3808  0.4063 -0.1969
 6331SOL    HW230630   4.129   3.856   5.365 -2.9425 -0.6414 -1.2032
 6332SOL     OW30631   4.603   3.151  13.630 -0.3343 -0.5713  0.1608
 6332SOL    HW130632   4.681   3.129  13.680 -0.7890 -1.9131  0.2855
 6332SOL    HW230633   4.609   3.086  13.559  0.1790 -0.6385  0.2704
 6333SOL     OW30634   4.171   1.842   0.839 -0.0521 -0.8132 -0.5505
 6333SOL    HW130635   4.195   1.837   0.932 -1.2789  2.7358 -0.0738
 6333SOL    HW230636   4.119   1.761   0.833  1.7082 -1.9732 -0.2047
 6334SOL     OW30637   3.569   2.958  13.334  0.6831  0.1208 -0.4142
 6334SOL    HW130638   3.568   2.923  13.423 -1.7149  3.2975  0.8224
 6334SOL    HW230639   3.587   3.050  13.353  1.4909 -0.0692 -0.2642
 6335SOL     OW30640   4.603   3.375   8.380 -1.1829 -0.2397 -0.2404
 6335SOL    HW130641   4.668   3.404   8.444  0.4030 -3.1680 -0.5170
 6335SOL    HW230642   4.577   3.288   8.411 -0.5628 -0.4100 -0.1809
 6336SOL     OW30643   3.290   1.792   6.639  0.1644  0.0273 -0.2664
 6336SOL    HW130644   3.272   1.735   6.714 -4.0712  0.2762 -1.1082
 6336SOL    HW230645   3.385   1.787   6.652  0.1392  1.4514  0.5186
 6337SOL     OW30646   3.550   4.265   7.652  0.3016 -0.2390  0.2668
 6337SOL    HW130647   3.482   4.311   7.602 -0.5459 -2.7107 -0.8170
 6337SOL    HW230648   3.592   4.218   7.580 -0.4813  0.4990 -0.6739
 6338SOL     OW30649   1.523   3.751   8.692  0.4839  0.1592 -0.2027
 6338SOL    HW130650   1.461   3.824   8.704  0.7501  0.3726 -0.1211
 6338SOL    HW230651   1.552   3.760   8.602  0.5290 -0.1037 -0.2149
 6339SOL     OW30652   4.614   0.008  13.739 -0.2571 -0.1069 -0.0604
 6339SOL    HW130653   4.551   4.705  13.800 -1.3385  0.5011 -0.7914
 6339SOL    HW230654   4.618   0.099  13.770  3.3849 -0.9499  1.9444
 6340SOL     OW30655   1.634   1.580   6.822  0.3776 -0.7651  0.4631
 6340SOL    HW130656   1.691   1.627   6.882 -0.5906 -1.2443  1.7540
 6340SOL    HW230657   1.588   1.538   6.894  0.1233 -2.2117 -0.5286
 6341SOL     OW30658   2.475   4.289   6.835  0.0951 -0.1088  0.2454
 6341SOL    HW130659   2.519   4.291   6.750  1.5433 -0.2366  0.9828
 6341SOL    HW230660   2.392   4.325   6.805 -0.0423 -0.7394 -0.1126
 6342SOL     OW30661   2.480   2.708   8.177 -0.2591 -0.1875  0.1878
 6342SOL    HW130662   2.518   2.795   8.178 -1.1887  0.1958  1.7595
 6342SOL    HW230663   2.448   2.708   8.086 -1.6160  2.3119  0.6554
 6343SOL     OW30664   1.888   0.882   1.310 -0.3382  0.4031  0.4391
 6343SOL    HW130665   1.961   0.826   1.337  0.5065 -1.2751 -5.2671
 6343SOL    HW230666   1.859   0.918   1.394 -2.2122 -0.7617  0.3003
 6344SOL     OW30667   2.458   3.479   9.310 -0.4332 -0.1166  0.7279
 6344SOL    HW130668   2.417   3.547   9.256  1.9220 -1.8635 -3.2464
 6344SOL    HW230669   2.451   3.525   9.394  0.4840  0.1214  0.6703
 6345SOL     OW30670   4.541   3.329   2.761 -0.0887  0.2868  0.0356
 6345SOL    HW130671   4.602   3.277   2.710  0.1091 -1.6089  2.2014
 6345SOL    HW230672   4.488   3.365   2.690 -1.1950 -1.5303 -0.0765
 6346SOL     OW30673   2.804   4.243   8.742  0.2269  0.0754 -0.4192
 6346SOL    HW130674   2.873   4.180   8.724 -0.7686 -0.9231 -0.7253
 6346SOL    HW230675   2.831   4.279   8.827 -2.3354  0.3036  0.2960
 6347SOL     OW30676   2.738   2.378   4.275 -0.5639 -0.2262  0.6727
 6347SOL    HW130677   2.646   2.404   4.278 -0.9994 -1.5140 -1.6269
 6347SOL    HW230678   2.768   2.388   4.185 -1.8364  1.4964  0.4422
 6348SOL     OW30679   2.555   3.326   8.396  0.9097  0.1229  0.2190
 6348SOL    HW130680   2.642   3.361   8.376  0.4129  0.9009 -0.5836
 6348SOL    HW230681   2.584   3.259   8.459 -0.4183 -2.2267 -1.6654
 6349SOL     OW30682   2.284   1.459   2.609 -0.2515  0.8539  0.1863
 6349SOL    HW130683   2.264   1.529   2.546 -0.8234  1.6738  1.2938
 6349SOL    HW230684   2.363   1.424   2.569 -1.4524 -3.4136  1.4989
 6350SOL     OW30685   0.302   0.553   9.077 -0.3178 -0.1398 -0.1584
 6350SOL    HW130686   0.287   0.466   9.040  1.6204 -0.4686 -0.1576
 6350SOL    HW230687   0.397   0.566   9.070 -0.4267  0.7278 -0.0713
 6351SOL     OW30688   2.629   0.214   6.623  0.2508  0.0149  0.4289
 6351SOL    HW130689   2.558   0.278   6.620  1.4418  1.4011  1.9885
 6351SOL    HW230690   2.699   0.258   6.575  0.5075  0.9730  1.6991
 6352SOL     OW30691   2.334   0.631   3.528  0.0417 -0.3015 -0.3464
 6352SOL    HW130692   2.316   0.632   3.434  1.0695 -0.7127 -0.5442
 6352SOL    HW230693   2.358   0.540   3.541 -2.1637 -1.1740 -2.4282
 6353SOL     OW30694   1.522   0.226  13.099 -0.0041  0.3341  0.1244
 6353SOL    HW130695   1.468   0.273  13.035  1.4424  0.6373 -0.8837
 6353SOL    HW230696   1.455   0.225  13.167  0.1489 -1.2026  0.2514
 6354SOL     OW30697   4.010   4.004   3.575  0.0633  0.9130 -0.1051
 6354SOL    HW130698   4.102   3.985   3.595  1.1516  2.2514 -3.6732
 6354SOL    HW230699   4.011   4.008   3.479 -1.4111 -0.2014 -0.1554
 6355SOL     OW30700   3.852   4.051  15.717  0.4652 -0.1160 -0.1006
 6355SOL    HW130701   3.847   3.964  15.758  0.0557 -0.5817 -1.1404
 6355SOL    HW230702   3.762   4.075  15.694  0.0186 -0.1785  1.5542
 6356SOL     OW30703   2.982   0.401  17.282  0.5208  0.1197  0.2468
 6356SOL    HW130704   2.904   0.356  17.316 -0.2477  0.5323 -0.9526
 6356SOL    HW230705   2.949   0.436  17.199 -0.7172  0.8190  1.0352
 6357SOL     OW30706   2.354   3.355  10.047 -0.2498  0.9088 -0.1833
 6357SOL    HW130707   2.356   3.411   9.969  2.3253  1.8814  0.5568
 6357SOL    HW230708   2.373   3.422  10.113  0.4886  1.8446 -1.3303
 6358SOL     OW30709   3.618   3.391  16.977 -0.0712 -0.0887 -0.2654
 6358SOL    HW130710   3.634   3.381  17.071  1.4076  1.8580 -0.3262
 6358SOL    HW230711   3.577   3.478  16.973 -0.0200 -0.2554 -4.1488
 6359SOL     OW30712   4.025   2.615   3.521 -0.0222 -0.0299  0.3314
 6359SOL    HW130713   4.053   2.655   3.439 -1.2597 -0.3579 -0.2501
 6359SOL    HW230714   3.999   2.685   3.581 -1.6580 -0.4647  0.1195
 6360SOL     OW30715   2.144   1.887   6.924 -0.0455 -0.1020  0.0006
 6360SOL    HW130716   2.159   1.977   6.894  0.6658 -0.3808 -0.4828
 6360SOL    HW230717   2.060   1.905   6.966 -0.2439 -0.8356 -0.0859
 6361SOL     OW30718   1.929   1.999   5.526 -0.4902  0.0345 -0.2487
 6361SOL    HW130719   1.968   1.994   5.439  0.1932 -1.0179  0.1151
 6361SOL    HW230720   1.942   1.908   5.552  0.8115  0.9740  2.4635
 6362SOL     OW30721   2.388   3.538   8.393  0.6234 -0.0776 -0.2631
 6362SOL    HW130722   2.453   3.469   8.377  0.9072  0.4765 -1.5309
 6362SOL    HW230723   2.311   3.488   8.418 -0.3643 -0.0307 -3.1550
 6363SOL     OW30724   1.116   1.405   1.421 -0.1127 -0.2938 -0.5349
 6363SOL    HW130725   1.177   1.420   1.493 -0.8858 -0.5460  0.1739
 6363SOL    HW230726   1.115   1.495   1.389  0.2529  1.2756  3.9014
 6364SOL     OW30727   1.022   2.676  13.271  0.1214  0.6813 -0.1151
 6364SOL    HW130728   1.052   2.705  13.357  1.3660  1.1691 -0.7103
 6364SOL    HW230729   0.928   2.663  13.287  0.6916 -0.7534  2.0334
 6365SOL     OW30730   2.939   0.878   9.566 -0.5417 -0.1494 -0.6085
 6365SOL    HW130731   2.983   0.825   9.633  1.9210  1.7548 -0.7193
 6365SOL    HW230732   2.925   0.963   9.608  2.1050  0.9869 -2.0021
 6366SOL     OW30733   2.316   2.187   2.468  0.1478  0.0379 -0.2551
 6366SOL    HW130734   2.356   2.272   2.483  1.5567 -0.5845 -0.4597
 6366SOL    HW230735   2.396   2.150   2.430 -0.3620 -1.0219 -0.3145
 6367SOL     OW30736   1.673   0.172   0.858  0.0103  0.4439 -0.2763
 6367SOL    HW130737   1.749   0.115   0.866  0.1517  0.7338  0.4045
 6367SOL    HW230738   1.606   0.105   0.844 -1.5657  1.7867  0.7122
 6368SOL     OW30739   1.652   4.052  17.568  0.2677 -0.8290 -0.2316
 6368SOL    HW130740   1.569   4.033  17.613  0.3389 -0.7946 -0.0834
 6368SOL    HW230741   1.631   4.104  17.491  1.4463  0.0893  0.0591
 6369SOL     OW30742   2.925   3.874   3.154 -0.2816 -0.0674 -0.0918
 6369SOL    HW130743   2.934   3.783   3.125 -1.4215 -0.3573  0.4701
 6369SOL    HW230744   2.947   3.852   3.244  0.5702 -1.1269 -0.5541
 6370SOL     OW30745   1.864   1.024   8.030  0.2223 -0.3705  0.0927
 6370SOL    HW130746   1.847   1.022   7.936  2.5779  0.8565 -0.3397
 6370SOL    HW230747   1.784   0.991   8.071 -0.8670  0.9101 -0.9886
 6371SOL     OW30748   2.346   0.108   6.456  0.3848  0.0221  0.3775
 6371SOL    HW130749   2.418   0.166   6.480  2.4806 -1.7095 -1.6181
 6371SOL    HW230750   2.380   0.064   6.378 -2.2709 -0.7258 -0.3398
 6372SOL     OW30751   2.798   1.292   6.765  0.5454 -0.5609 -0.6229
 6372SOL    HW130752   2.844   1.211   6.788 -0.1143 -1.2579 -1.7271
 6372SOL    HW230753   2.813   1.295   6.670 -1.5625  0.4956 -0.9125
 6373SOL     OW30754   2.266   2.908   7.635 -0.5782  0.3351 -0.0255
 6373SOL    HW130755   2.360   2.897   7.621 -0.2779  3.2097 -0.4003
 6373SOL    HW230756   2.261   2.974   7.705 -1.3301  1.6421 -1.3120
 6374SOL     OW30757   0.822   0.603   9.198 -0.1726  0.0995  0.6113
 6374SOL    HW130758   0.764   0.656   9.143  0.2431  0.0757  0.1464
 6374SOL    HW230759   0.778   0.597   9.283 -1.1710 -0.8043  0.0306
 6375SOL     OW30760   1.028   0.866   9.518  0.2935  0.6533 -0.0576
 6375SOL    HW130761   0.997   0.819   9.595  0.8219  0.1436 -0.1549
 6375SOL    HW230762   1.014   0.958   9.542  2.4862  1.0910 -0.4741
 6376SOL     OW30763   3.376   3.210   5.744 -0.3632  0.3886 -0.4255
 6376SOL    HW130764   3.306   3.216   5.679 -0.2687 -0.4360 -0.5926
 6376SOL    HW230765   3.338   3.135   5.790  2.6486  0.0043  1.4543
 6377SOL     OW30766   4.169   2.175  15.894  0.2282  0.1750  0.0531
 6377SOL    HW130767   4.214   2.235  15.953 -1.3197  0.3750  1.0016
 6377SOL    HW230768   4.087   2.224  15.890 -0.3990 -0.8816 -0.2614
 6378SOL     OW30769   3.027   2.530   6.559 -0.4758 -0.0641 -0.1461
 6378SOL    HW130770   2.955   2.485   6.603  0.2274 -1.6304 -0.6110
 6378SOL    HW230771   3.091   2.533   6.631  1.8214  0.5193 -2.1937
 6379SOL     OW30772   4.651   1.939  13.587 -0.0506 -0.1007 -0.2436
 6379SOL    HW130773   4.589   1.976  13.650 -0.8520 -0.8688 -0.5826
 6379SOL    HW230774   4.605   1.981  13.514  1.0454  1.2441 -0.1763
 6380SOL     OW30775   1.196   4.161   4.504  0.0664 -0.4279 -0.2416
 6380SOL    HW130776   1.185   4.165   4.599 -0.4627 -0.3142 -0.3043
 6380SOL    HW230777   1.212   4.255   4.494  0.5226 -0.6675 -1.6550
 6381SOL     OW30778   2.988   4.395   5.677  0.6208 -0.4909 -0.5300
 6381SOL    HW130779   3.000   4.417   5.770  2.6525  1.6672 -1.3030
 6381SOL    HW230780   2.976   4.484   5.645  0.4016 -1.0703 -2.0230
 6382SOL     OW30781   4.242   3.252   7.967  0.3191  0.5369 -0.3257
 6382SOL    HW130782   4.309   3.270   7.901  1.2183 -1.2285  0.0895
 6382SOL    HW230783   4.211   3.342   7.965  1.6326  0.9623 -1.4544
 6383SOL     OW30784   4.139   3.020   1.735  0.0181  0.1731  0.2270
 6383SOL    HW130785   4.167   2.944   1.684 -0.3967 -0.9125  1.6110
 6383SOL    HW230786   4.155   3.092   1.674  1.9130 -1.5111 -1.2500
 6384SOL     OW30787   0.520   1.266  13.803 -0.1685  0.0834 -0.4470
 6384SOL    HW130788   0.517   1.171  13.811  1.5729  0.2072  1.5946
 6384SOL    HW230789   0.504   1.272  13.708  0.5513  2.9499 -0.3784
 6385SOL     OW30790   0.734   3.009   7.218 -0.4350 -0.0363  0.1752
 6385SOL    HW130791   0.720   3.103   7.216  2.4573  0.3443 -2.0372
 6385SOL    HW230792   0.755   3.001   7.311 -0.4801  0.9121  0.2629
 6386SOL     OW30793   1.788   4.306   5.657  0.4312 -0.3756 -0.1803
 6386SOL    HW130794   1.841   4.322   5.735 -1.1553 -1.0257  1.0485
 6386SOL    HW230795   1.859   4.291   5.595 -3.2821 -1.2779 -4.2092
 6387SOL     OW30796   0.379   1.197   7.756 -0.4835  0.0477  0.1501
 6387SOL    HW130797   0.307   1.239   7.709  1.0544  0.4511 -1.8338
 6387SOL    HW230798   0.414   1.142   7.686 -0.2728  0.6613 -0.2313
 6388SOL     OW30799   2.722   1.035   1.451 -0.4413 -0.1103 -0.2495
 6388SOL    HW130800   2.629   1.047   1.429 -0.7042 -1.5983  0.0986
 6388SOL    HW230801   2.720   0.940   1.459  0.7565 -0.2010 -1.1269
 6389SOL     OW30802   0.059   4.245   7.082 -0.2928 -0.9670  0.2604
 6389SOL    HW130803   0.079   4.196   7.002 -3.5076 -1.2328 -0.3585
 6389SOL    HW230804   0.060   4.332   7.042  2.2307  0.4896  3.5441
 6390SOL     OW30805   3.297   4.282   6.831 -0.5164  0.6125 -0.5300
 6390SOL    HW130806   3.302   4.198   6.876  1.1387  1.4563  0.8692
 6390SOL    HW230807   3.376   4.275   6.778  2.0658 -0.3973  3.4225
 6391SOL     OW30808   1.581   1.395   7.863 -0.5998  0.0107  0.6417
 6391SOL    HW130809   1.504   1.350   7.897 -1.4148 -0.2749 -1.5534
 6391SOL    HW230810   1.628   1.401   7.946  0.5154  0.6432 -0.0296
 6392SOL     OW30811   3.811   0.046   1.414  0.6401 -0.5308 -0.5072
 6392SOL    HW130812   3.832   0.139   1.420 -1.1694 -0.1770  0.6808
 6392SOL    HW230813   3.873   0.018   1.482  1.1452  2.0180  0.0877
 6393SOL     OW30814   0.210   4.635   4.364 -0.1588 -0.0393 -0.0753
 6393SOL    HW130815   0.211   4.549   4.322  1.6387  0.2726 -0.7107
 6393SOL    HW230816   0.189   4.618   4.455 -0.8826  1.7933  0.0909
 6394SOL     OW30817   2.914   2.140   8.643 -0.0192 -0.0394  0.4659
 6394SOL    HW130818   2.858   2.161   8.568 -0.7377 -1.9761  0.4654
 6394SOL    HW230819   3.004   2.150   8.611 -0.0957 -0.7066  0.0415
 6395SOL     OW30820   1.174   3.365   9.053  0.2602 -0.3244  0.1898
 6395SOL    HW130821   1.209   3.284   9.090 -1.5158 -0.6459  1.1607
 6395SOL    HW230822   1.197   3.367   8.960 -0.5514 -0.3574 -0.0105
 6396SOL     OW30823   4.197   0.787  13.856  0.0750  0.1090 -0.0957
 6396SOL    HW130824   4.113   0.825  13.830  0.2532  0.6346  0.0915
 6396SOL    HW230825   4.248   0.814  13.779  1.5928 -5.0921 -0.8727
 6397SOL     OW30826   4.429   3.534  15.933  0.4197  0.1941  0.4825
 6397SOL    HW130827   4.447   3.594  16.005  0.6414  1.0841 -0.3207
 6397SOL    HW230828   4.360   3.583  15.888 -0.7392 -1.8204  0.0603
 6398SOL     OW30829   1.452   0.985   1.515 -0.1472 -0.8646  0.0725
 6398SOL    HW130830   1.494   0.947   1.438  0.0893  0.9205 -0.6926
 6398SOL    HW230831   1.503   0.941   1.583  0.4453 -1.0865 -0.5217
 6399SOL     OW30832   3.446   0.704  11.120  0.8107  0.4959 -0.2210
 6399SOL    HW130833   3.416   0.646  11.050 -0.2244 -0.5395  1.0898
 6399SOL    HW230834   3.380   0.773  11.109  0.1365  0.0406  0.9709
 6400SOL     OW30835   1.253   1.590   5.469 -0.1453  0.0891  0.2581
 6400SOL    HW130836   1.290   1.658   5.412 -0.9163  0.5145  0.2655
 6400SOL    HW230837   1.311   1.600   5.544  1.1684  0.1624 -0.7568
 6401SOL     OW30838   2.036   2.328   2.099 -0.0258 -0.0037 -1.0811
 6401SOL    HW130839   1.996   2.305   2.183  0.0506  2.2127 -0.4159
 6401SOL    HW230840   2.124   2.294   2.113 -0.6510 -1.1369  0.1402
 6402SOL     OW30841   0.620   3.601  13.235 -0.5883 -0.5434  0.2003
 6402SOL    HW130842   0.569   3.579  13.313 -0.8141 -0.1209  0.1728
 6402SOL    HW230843   0.621   3.696  13.221 -0.5951 -0.2365  2.3129
 6403SOL     OW30844   3.222   0.632   1.827 -0.0284  0.0590 -0.3350
 6403SOL    HW130845   3.181   0.716   1.845 -0.1522 -0.2297  0.6859
 6403SOL    HW230846   3.197   0.585   1.906  1.1554  0.0096  0.0139
 6404SOL     OW30847   3.092   3.552   3.995  0.0554 -0.4315 -0.3176
 6404SOL    HW130848   3.006   3.542   4.037  0.2890  0.6690  0.4477
 6404SOL    HW230849   3.131   3.473   4.032 -2.4789 -1.7987 -0.5430
 6405SOL     OW30850   0.803   2.351  12.856  0.1107 -0.0175 -0.0151
 6405SOL    HW130851   0.716   2.311  12.855  0.1638 -0.0299 -4.0285
 6405SOL    HW230852   0.824   2.348  12.763 -0.8403 -0.6978 -0.2111
 6406SOL     OW30853   4.208   3.448   3.664  0.1111 -0.2917  0.1559
 6406SOL    HW130854   4.285   3.427   3.716 -1.0452  1.1762  2.5096
 6406SOL    HW230855   4.188   3.541   3.675 -0.8266 -0.8697  3.5327
 6407SOL     OW30856   3.541   4.030   3.519 -0.6282 -1.0268  0.8239
 6407SOL    HW130857   3.627   3.995   3.498 -0.1117 -0.0318  1.2774
 6407SOL    HW230858   3.567   4.122   3.508 -0.6064 -1.0784  0.4641
 6408SOL     OW30859   1.457   0.529   6.938  0.1920 -0.5689  0.2421
 6408SOL    HW130860   1.489   0.565   6.855 -0.9425  4.2607  1.8921
 6408SOL    HW230861   1.516   0.459   6.966  0.5909 -0.3085  0.0459
 6409SOL     OW30862   1.508   0.644   5.202 -0.6151 -0.2027 -0.3956
 6409SOL    HW130863   1.422   0.660   5.165 -1.2015 -1.5185  0.3991
 6409SOL    HW230864   1.549   0.603   5.126  1.4370  0.5571  0.2818
 6410SOL     OW30865   0.997   4.627  11.695  0.3910  0.7419  0.4993
 6410SOL    HW130866   1.088   4.652  11.714  1.1141 -1.7367  0.3759
 6410SOL    HW230867   0.990   4.648  11.601 -0.3356 -0.4842  0.2737
 6411SOL     OW30868   4.248   0.563   3.963 -0.5513 -0.2728  0.1402
 6411SOL    HW130869   4.231   0.557   3.869  0.1374 -0.5657  0.0336
 6411SOL    HW230870   4.329   0.512   3.973  0.0396  0.3855 -1.2642
 6412SOL     OW30871   1.811   3.034   4.633 -0.4923 -0.2246  0.1468
 6412SOL    HW130872   1.849   3.073   4.712 -0.0010  0.5524 -0.4781
 6412SOL    HW230873   1.892   3.023   4.583  0.1918  0.5998  1.0680
 6413SOL     OW30874   3.211   4.486   3.273  0.2843 -0.6234 -0.4077
 6413SOL    HW130875   3.235   4.459   3.184  0.4177 -1.1640 -0.2104
 6413SOL    HW230876   3.270   4.427   3.320 -0.1995  0.7214  1.8507
 6414SOL     OW30877   1.308   2.362   1.945 -0.0544  0.1548  0.5728
 6414SOL    HW130878   1.343   2.374   2.034  1.5152  0.4203 -0.0836
 6414SOL    HW230879   1.380   2.394   1.891 -1.9508  0.0999 -1.9753
 6415SOL     OW30880   0.222   1.465   4.141  0.4059  0.0094  0.0808
 6415SOL    HW130881   0.281   1.507   4.079  1.6113 -1.4469  0.2399
 6415SOL    HW230882   0.139   1.478   4.096  0.2086  0.2162  0.5003
 6416SOL     OW30883   2.300   1.707   7.086  0.2433 -0.2733 -0.4409
 6416SOL    HW130884   2.226   1.669   7.134  0.0468  0.0403 -0.4951
 6416SOL    HW230885   2.252   1.768   7.030 -0.3589 -0.0647  0.2932
 6417SOL     OW30886   4.350   2.505   1.093  0.6501  0.8386 -0.6143
 6417SOL    HW130887   4.256   2.487   1.105  0.8851 -0.4298 -0.6887
 6417SOL    HW230888   4.387   2.447   1.160 -1.7562 -0.9359 -0.7934
 6418SOL     OW30889   3.037   1.378   7.877  0.0217 -0.0490 -0.0839
 6418SOL    HW130890   2.999   1.465   7.863  1.4693  0.4452 -0.9894
 6418SOL    HW230891   2.986   1.320   7.821  0.2289  1.0877 -1.4483
 6419SOL     OW30892   0.310   2.978  17.612 -0.4444  0.2955  0.0075
 6419SOL    HW130893   0.312   2.958  17.706 -1.9356 -4.5602 -0.9953
 6419SOL    HW230894   0.266   3.064  17.619  0.0195  0.4298  1.2269
 6420SOL     OW30895   1.968   0.465  10.851 -0.6170 -0.2777  0.2469
 6420SOL    HW130896   1.953   0.559  10.843 -0.7170 -0.4996 -2.0289
 6420SOL    HW230897   1.896   0.437  10.908 -3.0491  2.7644 -1.3452
 6421SOL     OW30898   3.663   4.331   2.533 -0.3045  0.4985  0.0384
 6421SOL    HW130899   3.596   4.398   2.525  0.0499  0.5126 -2.9504
 6421SOL    HW230900   3.680   4.329   2.627  0.9281 -0.1155 -0.2027
 6422SOL     OW30901   2.190   1.716   8.595 -0.0580  0.2338 -0.4089
 6422SOL    HW130902   2.280   1.708   8.625 -0.0473 -0.6524 -0.6881
 6422SOL    HW230903   2.208   1.777   8.523 -1.1418  2.0220  0.8280
 6423SOL     OW30904   3.801   4.634   3.376  0.0330 -0.2198 -0.2138
 6423SOL    HW130905   3.809   4.704   3.441  0.5487 -0.5750  0.1085
 6423SOL    HW230906   3.844   4.665   3.297  1.4551 -0.7708  0.3341
 6424SOL     OW30907   2.894   0.559   3.316  0.0088  0.1718  0.6872
 6424SOL    HW130908   2.843   0.558   3.397  0.5713  0.6658  1.0521
 6424SOL    HW230909   2.899   0.463   3.313  0.0776  0.2642 -1.8872
 6425SOL     OW30910   2.250   4.021   5.342  0.1080 -0.2428 -0.2764
 6425SOL    HW130911   2.210   3.934   5.350  0.3896 -0.3696 -0.2517
 6425SOL    HW230912   2.222   4.043   5.253 -0.0899 -1.3437 -0.4845
 6426SOL     OW30913   3.921   3.954   4.963  0.4313 -0.1120  0.2804
 6426SOL    HW130914   3.991   3.935   4.902 -0.2705  0.9639 -0.8785
 6426SOL    HW230915   3.981   3.999   5.023  2.2054 -2.4136  0.2017
 6427SOL     OW30916   2.286   0.254   8.553  0.3064 -0.5672 -0.0004
 6427SOL    HW130917   2.262   0.169   8.591 -2.1004 -0.3134 -0.9526
 6427SOL    HW230918   2.199   0.282   8.525  1.0460  0.0771 -1.6194
 6428SOL     OW30919   3.677   0.126  13.093 -0.2587  0.0879  0.3560
 6428SOL    HW130920   3.759   0.085  13.123 -0.5365 -1.1526 -0.5892
 6428SOL    HW230921   3.605   0.076  13.130 -0.8699  2.0065  1.7999
 6429SOL     OW30922   2.350   3.131   1.090  0.1586  0.1982  0.7602
 6429SOL    HW130923   2.445   3.135   1.073 -0.2267  2.4650 -0.9565
 6429SOL    HW230924   2.306   3.150   1.007 -0.7222 -0.5405  1.0599
 6430SOL     OW30925   1.843   4.451   6.827  0.8473 -0.7272 -0.5617
 6430SOL    HW130926   1.832   4.520   6.762  0.5758 -0.0068  0.2445
 6430SOL    HW230927   1.783   4.494   6.889 -1.5253 -3.0224 -1.2749
 6431SOL     OW30928   1.310   1.328   7.632 -0.3370  0.3379 -0.1010
 6431SOL    HW130929   1.301   1.312   7.726  1.2359 -1.8800 -0.3194
 6431SOL    HW230930   1.369   1.256   7.609 -0.3344  0.8065 -1.5583
 6432SOL     OW30931   2.553   3.292   3.437  0.3850  0.1365 -0.2964
 6432SOL    HW130932   2.460   3.305   3.453  0.4410 -0.7329  0.7116
 6432SOL    HW230933   2.586   3.326   3.521  1.2528 -0.1200 -0.5312
 6433SOL     OW30934   0.857   1.716   8.289  0.2016  0.6603 -0.0726
 6433SOL    HW130935   0.859   1.626   8.255  0.3907  0.3460  0.7484
 6433SOL    HW230936   0.898   1.708   8.376 -0.9070  0.3349  0.4208
 6434SOL     OW30937   2.296   3.546   7.600  0.2955 -0.3230 -0.0379
 6434SOL    HW130938   2.283   3.631   7.559  1.8519 -0.1985 -0.2874
 6434SOL    HW230939   2.359   3.575   7.665  1.4352  0.8131 -1.6470
 6435SOL     OW30940   4.249   1.558   5.763 -0.7226 -0.4438 -0.1630
 6435SOL    HW130941   4.221   1.620   5.831 -4.1327 -0.7248 -1.3576
 6435SOL    HW230942   4.292   1.479   5.796  2.6711  0.8879 -1.3763
 6436SOL     OW30943   1.250   1.091   8.736  0.4379 -0.4628 -0.5335
 6436SOL    HW130944   1.345   1.095   8.737  0.5128 -1.9303 -1.7839
 6436SOL    HW230945   1.231   1.167   8.681 -1.0822 -2.4377 -2.7541
 6437SOL     OW30946   3.185   0.155   5.296  0.5855 -0.1158 -0.1052
 6437SOL    HW130947   3.152   0.240   5.266  0.9603 -1.1701 -3.4464
 6437SOL    HW230948   3.249   0.142   5.226  0.7562  0.5239 -0.0652
 6438SOL     OW30949   0.441   1.280   2.214  0.7025 -0.5840 -0.1936
 6438SOL    HW130950   0.454   1.189   2.239  1.1631 -1.0775 -2.2312
 6438SOL    HW230951   0.523   1.290   2.165  0.2969  0.6505 -0.6169
 6439SOL     OW30952   3.838   2.064   7.702  0.0991  0.3434  0.0687
 6439SOL    HW130953   3.910   2.012   7.736  0.4461  0.3619 -0.6436
 6439SOL    HW230954   3.782   2.069   7.780  1.7609 -0.6941  1.3198
 6440SOL     OW30955   1.788   1.167  16.921  0.1477 -0.6054  0.1798
 6440SOL    HW130956   1.850   1.236  16.946  0.1558 -0.7866  0.6514
 6440SOL    HW230957   1.707   1.182  16.969 -0.5532  1.0051 -1.5014
 6441SOL     OW30958   0.207   4.257   2.668  0.6037 -0.1234 -0.0587
 6441SOL    HW130959   0.246   4.337   2.634  1.0868  0.0560  0.8986
 6441SOL    HW230960   0.270   4.230   2.735 -1.5897 -0.5664  1.8680
 6442SOL     OW30961   2.929   0.830   5.688  0.2534 -0.3580  0.5111
 6442SOL    HW130962   2.912   0.832   5.594 -4.0399 -1.9793  1.2497
 6442SOL    HW230963   2.852   0.872   5.726 -1.1664 -1.3852 -1.2206
 6443SOL     OW30964   3.465   1.474  12.486 -0.0596 -0.4507  0.6913
 6443SOL    HW130965   3.474   1.462  12.392  3.8424  1.9378  0.7365
 6443SOL    HW230966   3.554   1.499  12.511  0.9672 -2.5402 -0.8466
 6444SOL     OW30967   3.355   2.648   5.240 -0.1964  0.3449  0.4922
 6444SOL    HW130968   3.425   2.654   5.305  0.3561 -2.6445  0.1408
 6444SOL    HW230969   3.363   2.556   5.215 -0.3760  0.5132 -0.1875
 6445SOL     OW30970   3.272   3.113   7.235  0.4697 -0.5347  0.5983
 6445SOL    HW130971   3.263   3.195   7.187 -1.7567 -1.3984 -0.4376
 6445SOL    HW230972   3.366   3.103   7.221  0.4278  2.7972 -2.0693
 6446SOL     OW30973   1.054   1.028  14.394  0.1716  1.0455 -0.4151
 6446SOL    HW130974   1.101   1.091  14.449 -1.2402  0.7724  1.0830
 6446SOL    HW230975   0.976   1.080  14.378 -1.2910 -0.6160  1.3478
 6447SOL     OW30976   0.740   2.168   4.831 -0.2652 -0.7905  0.2671
 6447SOL    HW130977   0.707   2.251   4.797 -1.0803 -0.4572  1.8860
 6447SOL    HW230978   0.833   2.181   4.851 -0.2061 -2.5073  1.1215
 6448SOL     OW30979   1.267   2.471   9.714  0.2796 -0.1078  0.6830
 6448SOL    HW130980   1.236   2.450   9.803  3.0018  1.1423  1.9445
 6448SOL    HW230981   1.249   2.387   9.672  0.1977  0.0883  0.3318
 6449SOL     OW30982   4.159   3.631  14.408 -0.6261 -0.3820 -0.1176
 6449SOL    HW130983   4.217   3.589  14.471  1.8158 -0.7640 -2.6324
 6449SOL    HW230984   4.206   3.599  14.331  0.2973 -0.1825  0.3606
 6450SOL     OW30985   2.498   2.207   3.750 -0.1425 -1.2045 -0.2005
 6450SOL    HW130986   2.489   2.158   3.669 -0.8182 -0.8641 -0.3322
 6450SOL    HW230987   2.405   2.214   3.773  0.1736  0.0654  0.7137
 6451SOL     OW30988   0.941   2.516   6.980  0.0292  0.1548  0.0790
 6451SOL    HW130989   0.996   2.450   6.938  2.0496  1.3448  0.8528
 6451SOL    HW230990   0.908   2.463   7.053  0.0066 -0.3558 -0.3041
 6452SOL     OW30991   4.222   3.939  14.395 -0.4577 -0.7153 -0.8489
 6452SOL    HW130992   4.172   3.931  14.314 -0.2126  0.0021 -1.0701
 6452SOL    HW230993   4.186   4.020  14.430 -1.4901 -0.3308 -2.8089
 6453SOL     OW30994   2.385   1.285   8.265 -0.2180 -0.6047 -0.3348
 6453SOL    HW130995   2.435   1.221   8.316  1.7977  1.8803  0.8241
 6453SOL    HW230996   2.334   1.326   8.334  0.6541  1.7686 -1.1279
 6454SOL     OW30997   3.814   2.187   5.108 -0.5109  0.2512  0.6574
 6454SOL    HW130998   3.802   2.241   5.186 -0.6494  1.0270  0.0982
 6454SOL    HW230999   3.903   2.209   5.082 -1.3288  1.5079 -1.0521
 6455SOL     OW31000   1.292   4.274   1.711  0.0151  0.6437  0.1424
 6455SOL    HW131001   1.339   4.240   1.635 -2.5861  2.1169 -2.1280
 6455SOL    HW231002   1.311   4.368   1.714 -0.4682  0.7379  0.2785
 6456SOL     OW31003   3.121   2.857  13.020  0.1548 -0.0041  0.5575
 6456SOL    HW131004   3.107   2.903  12.938  0.6263 -0.8157  0.0198
 6456SOL    HW231005   3.205   2.897  13.040 -1.4482  2.5757  2.1245
 6457SOL     OW31006   1.030   1.886   1.446  0.0386 -0.2129 -0.1660
 6457SOL    HW131007   1.098   1.949   1.466  0.9604 -0.9982 -0.8022
 6457SOL    HW231008   1.087   1.817   1.410  2.2084  1.4888  0.0349
 6458SOL     OW31009   2.618   2.546   9.030 -0.7420 -0.5374 -0.9202
 6458SOL    HW131010   2.706   2.507   9.032 -0.2939  0.3517 -2.7367
 6458SOL    HW231011   2.630   2.622   9.087 -1.7609 -1.6253  0.7477
 6459SOL     OW31012   0.459   4.722   4.427  0.3540  0.2477 -0.8079
 6459SOL    HW131013   0.375   4.685   4.398 -0.3005 -0.6718  2.3004
 6459SOL    HW231014   0.480   0.047   4.355  1.6583 -0.4090 -0.9919
 6460SOL     OW31015   2.513   4.058   5.472  0.0270  0.1378  0.0731
 6460SOL    HW131016   2.497   4.152   5.483 -0.8331  0.1774 -1.5629
 6460SOL    HW231017   2.429   4.031   5.434 -0.0690 -0.4094  0.6742
 6461SOL     OW31018   1.762   3.211  14.423 -0.4170  0.0297 -0.9332
 6461SOL    HW131019   1.765   3.117  14.404 -2.0563  0.1625 -1.8766
 6461SOL    HW231020   1.670   3.222  14.449 -0.0305  0.5309  0.1876
 6462SOL     OW31021   0.200   0.904  14.528 -0.4449  0.0941  0.1982
 6462SOL    HW131022   0.208   0.810  14.546  0.7779  0.3204  0.8333
 6462SOL    HW231023   0.157   0.925  14.611  0.1176 -0.0747  0.5310
 6463SOL     OW31024   4.366   1.784  10.622 -0.9244  0.1566 -0.3041
 6463SOL    HW131025   4.332   1.802  10.534 -2.7695  0.8379  0.5555
 6463SOL    HW231026   4.461   1.773  10.618 -0.6844  2.0989 -0.0409
 6464SOL     OW31027   1.639   2.862   9.695  0.6356  0.0272  0.2160
 6464SOL    HW131028   1.570   2.928   9.699 -0.3654 -1.0706  0.8162
 6464SOL    HW231029   1.596   2.793   9.746 -0.7251  0.2553 -0.6193
 6465SOL     OW31030   4.318   3.307   5.304 -0.6973  0.0526 -0.0427
 6465SOL    HW131031   4.311   3.246   5.230  0.3134 -1.5972  1.2412
 6465SOL    HW231032   4.412   3.323   5.298 -0.8470  0.9415 -0.0200
 6466SOL     OW31033   2.849   0.457   4.529 -0.2619  0.0694  0.5111
 6466SOL    HW131034   2.889   0.525   4.474  1.5531 -0.3105  1.3648
 6466SOL    HW231035   2.915   0.448   4.597 -0.0205 -3.7855 -0.2552
 6467SOL     OW31036   2.872   3.390  10.007  0.0575  0.2575  0.2776
 6467SOL    HW131037   2.808   3.323   9.984  0.9732  0.7163 -3.5475
 6467SOL    HW231038   2.948   3.381   9.949 -0.5588 -1.2589 -0.2951
 6468SOL     OW31039   1.049   3.435   5.444 -0.5099 -0.5335 -0.5513
 6468SOL    HW131040   1.066   3.529   5.436 -0.7324 -0.4767 -0.3820
 6468SOL    HW231041   0.953   3.429   5.447 -0.4708 -0.6742  0.4448
 6469SOL     OW31042   3.050   1.806  17.268 -0.5259 -0.0347  0.1736
 6469SOL    HW131043   3.129   1.755  17.254 -1.2727 -1.1523 -0.0015
 6469SOL    HW231044   3.011   1.777  17.350 -0.2879 -0.1119  0.2577
 6470SOL     OW31045   4.520   2.571   8.345  0.2822 -0.3789  0.2057
 6470SOL    HW131046   4.499   2.482   8.375 -1.8213  0.4645  1.1548
 6470SOL    HW231047   4.595   2.554   8.288 -1.2722 -0.4056 -1.8342
 6471SOL     OW31048   3.936   3.088   3.990 -0.4295  0.0878 -0.8248
 6471SOL    HW131049   3.860   3.055   3.943  0.2166 -0.1612 -1.7030
 6471SOL    HW231050   3.970   3.003   4.017 -0.8313  0.6306  1.3553
 6472SOL     OW31051   4.449   1.205  15.780 -0.2443  0.0277 -0.3616
 6472SOL    HW131052   4.418   1.291  15.809 -0.0321  0.0546 -0.2117
 6472SOL    HW231053   4.440   1.156  15.862 -0.1370  1.1238  0.2996
 6473SOL     OW31054   3.675   2.482   4.638 -0.1777 -0.2884  0.0222
 6473SOL    HW131055   3.672   2.412   4.572 -0.8488 -1.6939  1.5291
 6473SOL    HW231056   3.693   2.420   4.709  1.9402  0.3973  0.0804
 6474SOL     OW31057   2.445   0.797   7.055 -0.5500  0.1742 -0.5787
 6474SOL    HW131058   2.430   0.884   7.019 -1.2681 -0.2694 -1.3462
 6474SOL    HW231059   2.405   0.808   7.141 -2.1327  3.1715 -1.7309
 6475SOL     OW31060   1.302   2.475  13.146  0.1414  0.0735 -0.0987
 6475SOL    HW131061   1.359   2.430  13.084  1.1205  0.9491  0.1559
 6475SOL    HW231062   1.304   2.416  13.222 -0.4897  2.0702  1.4746
 6476SOL     OW31063   0.227   2.259   2.448  0.4070  0.1757  0.0563
 6476SOL    HW131064   0.161   2.258   2.517 -1.6916  2.0183 -1.9012
 6476SOL    HW231065   0.261   2.349   2.440  0.2323  0.3247  1.0045
 6477SOL     OW31066   1.922   2.075  10.559  0.3215  0.0171 -0.3334
 6477SOL    HW131067   1.966   1.994  10.536  1.5620  0.4122  0.6428
 6477SOL    HW231068   1.862   2.082  10.485 -0.8191  0.0725  0.5908
 6478SOL     OW31069   0.059   3.362   4.728  0.0821 -1.0544 -0.0112
 6478SOL    HW131070   4.705   3.350   4.762  0.0828  0.5097  0.5808
 6478SOL    HW231071   0.118   3.373   4.802  0.8647 -0.0791 -0.7707
 6479SOL     OW31072   2.686   1.643   0.963  0.2703  0.1821 -0.0879
 6479SOL    HW131073   2.693   1.608   0.874  0.2225 -1.9858  0.7644
 6479SOL    HW231074   2.624   1.716   0.956  0.2383  0.2030  0.4100
 6480SOL     OW31075   2.802   2.033  10.154 -0.0732 -0.0714 -1.0658
 6480SOL    HW131076   2.707   2.040  10.163  0.0170 -1.1727  0.7600
 6480SOL    HW231077   2.822   2.122  10.182  1.4406 -0.8009  0.1576
 6481SOL     OW31078   0.136   0.022   9.084  0.0025  0.3472 -0.2132
 6481SOL    HW131079   0.130   4.663   9.095  1.4776  0.1122 -1.4220
 6481SOL    HW231080   0.074   0.033   9.013  0.7661  0.5744 -0.8487
 6482SOL     OW31081   3.481   3.145   9.060  0.7758  0.5130  0.7207
 6482SOL    HW131082   3.533   3.196   8.999  1.5253  0.3407  1.2119
 6482SOL    HW231083   3.490   3.186   9.146 -0.0539 -1.3834  1.7117
 6483SOL     OW31084   2.424   4.727   7.532  0.0994 -0.1379 -0.7723
 6483SOL    HW131085   2.489   0.031   7.590 -0.8904 -1.6327  1.3582
 6483SOL    HW231086   2.418   0.069   7.475 -0.2480  0.8129  0.5333
 6484SOL     OW31087   0.029   1.198   0.733 -0.0658  0.3865 -0.2542
 6484SOL    HW131088   0.066   1.132   0.675  0.5832 -0.3348  0.9723
 6484SOL    HW231089   4.670   1.185   0.720  0.1478 -0.5604 -0.8405
 6485SOL     OW31090   0.127   4.173  11.258 -0.0123 -0.6124 -0.6006
 6485SOL    HW131091   0.140   4.256  11.214  0.6656 -0.3364  0.1130
 6485SOL    HW231092   0.215   4.140  11.243  0.0163 -0.2430 -1.2045
 6486SOL     OW31093   2.620   1.823   2.274 -0.6337 -0.0362  0.0668
 6486SOL    HW131094   2.655   1.748   2.225  0.2030  0.6510 -0.3914
 6486SOL    HW231095   2.584   1.776   2.350 -1.5823  2.4760  1.1548
 6487SOL     OW31096   4.225   1.352   0.330  0.1008  0.4106  0.2108
 6487SOL    HW131097   4.171   1.418   0.287  1.5503  1.0937 -0.5318
 6487SOL    HW231098   4.172   1.331   0.408 -1.0800  2.1023 -0.1299
 6488SOL     OW31099   0.569   0.068   3.984  0.1330  0.0756  0.5154
 6488SOL    HW131100   0.494   0.097   3.933  0.1606  0.2975  0.6004
 6488SOL    HW231101   0.557   4.708   3.986  1.5919 -0.1617 -3.1056
 6489SOL     OW31102   4.523   4.189   7.193 -0.9154 -0.7818 -0.1211
 6489SOL    HW131103   4.610   4.198   7.154 -0.6958 -2.6817 -0.0770
 6489SOL    HW231104   4.537   4.167   7.285  2.6255  2.6353  0.1668
 6490SOL     OW31105   2.625   3.880   2.693 -0.3667  0.8387  0.0591
 6490SOL    HW131106   2.553   3.826   2.724 -0.4168  0.3784 -0.8525
 6490SOL    HW231107   2.585   3.941   2.631 -1.3153  0.8301  0.6782
 6491SOL     OW31108   3.536   0.047   3.581 -0.0145  0.4157 -0.1447
 6491SOL    HW131109   3.547   0.067   3.488 -1.6855  1.0131 -0.2063
 6491SOL    HW231110   3.448   0.010   3.588  0.4651 -0.5166  1.0628
 6492SOL     OW31111   3.092   0.296  10.288 -0.3574  0.0854  0.3495
 6492SOL    HW131112   3.178   0.330  10.262  0.8061 -2.7565  0.4486
 6492SOL    HW231113   3.073   0.329  10.376  0.9402 -0.5883  0.8856
 6493SOL     OW31114   3.920   1.462  17.720 -0.0234 -0.3791 -0.3145
 6493SOL    HW131115   3.991   1.506   0.028 -0.6597  0.1059  0.1895
 6493SOL    HW231116   3.875   1.420   0.054 -1.2285  0.4176 -0.5888
 6494SOL     OW31117   2.080   1.575   3.012  0.4273  0.2331 -0.5177
 6494SOL    HW131118   2.028   1.653   3.032 -0.1845 -0.0614 -0.9459
 6494SOL    HW231119   2.166   1.589   3.052  0.3975 -0.2792 -0.2790
 6495SOL     OW31120   3.463   4.395  14.671 -0.1288 -0.1639  0.1436
 6495SOL    HW131121   3.476   4.484  14.702 -1.6825  0.3223 -0.6344
 6495SOL    HW231122   3.535   4.396  14.607  0.6833  1.8333  1.1133
 6496SOL     OW31123   0.045   4.221   4.481  0.1077  0.0734  0.2300
 6496SOL    HW131124   0.080   4.137   4.451 -0.9811  0.4257 -2.0906
 6496SOL    HW231125   4.685   4.208   4.482  0.1531 -0.2334  0.2746
 6497SOL     OW31126   3.266   4.260   5.577  0.1139 -0.4460  0.0620
 6497SOL    HW131127   3.307   4.345   5.594 -1.3475  0.6463 -1.9492
 6497SOL    HW231128   3.195   4.277   5.639 -0.1012  1.0457 -0.6058
 6498SOL     OW31129   2.144   2.968   8.322 -0.1661 -0.6553  0.2045
 6498SOL    HW131130   2.223   3.013   8.352  0.0112 -0.0180 -1.2484
 6498SOL    HW231131   2.134   2.997   8.232  0.9550 -2.6165 -0.5709
 6499SOL     OW31132   4.629   1.336  10.125 -0.4053 -0.4197  0.1463
 6499SOL    HW131133   4.710   1.286  10.133  0.4696  1.2325  1.6912
 6499SOL    HW231134   4.658   1.425  10.145 -2.3547  0.2727 -0.0941
 6500SOL     OW31135   2.095   0.600   9.459 -0.3560 -0.6367 -0.0932
 6500SOL    HW131136   2.173   0.615   9.512  0.1427  0.3908 -1.1133
 6500SOL    HW231137   2.104   0.661   9.386  0.4778 -0.3949  0.2116
 6501SOL     OW31138   1.401   1.154   9.047  0.0637  0.1833 -0.2818
 6501SOL    HW131139   1.485   1.175   9.004 -1.6517  1.7868 -2.8391
 6501SOL    HW231140   1.346   1.199   8.983 -2.8951  0.4390  2.5039
 6502SOL     OW31141   2.007   2.427   4.696 -0.5768  0.1320 -0.2032
 6502SOL    HW131142   1.967   2.411   4.781  0.3035  0.6563  0.3166
 6502SOL    HW231143   2.012   2.523   4.699 -0.4256  0.0968  0.8556
 6503SOL     OW31144   3.171   1.331   6.892 -0.3086  0.5217 -0.0477
 6503SOL    HW131145   3.241   1.395   6.902 -0.7997  0.5408  3.2649
 6503SOL    HW231146   3.115   1.368   6.823 -0.3971 -1.0672 -0.8298
 6504SOL     OW31147   0.619   0.329   2.847 -0.3290 -0.3052  0.3825
 6504SOL    HW131148   0.621   0.350   2.754  2.2502 -0.3579  0.4215
 6504SOL    HW231149   0.696   0.276   2.866  0.4132  0.7431  0.3197
 6505SOL     OW31150   2.376   3.651   3.586 -0.7448 -0.3459 -0.2574
 6505SOL    HW131151   2.289   3.613   3.576 -0.2399 -1.5738  0.0681
 6505SOL    HW231152   2.424   3.621   3.509  0.7013  0.6686  0.2498
 6506SOL     OW31153   1.039   1.394   4.444 -1.0129 -0.5295 -1.1090
 6506SOL    HW131154   1.090   1.436   4.513 -1.8708  1.9758 -1.9768
 6506SOL    HW231155   0.951   1.428   4.459 -0.7925 -0.5858  0.2728
 6507SOL     OW31156   0.767   0.676  11.819 -0.2496  0.1666  0.1583
 6507SOL    HW131157   0.760   0.771  11.829 -0.0430  0.0669  1.2740
 6507SOL    HW231158   0.681   0.652  11.785 -0.2542  1.8592 -1.0064
 6508SOL     OW31159   0.343   0.972   2.350 -0.2175  0.1572  0.3771
 6508SOL    HW131160   0.331   0.882   2.380  0.6748 -0.6707 -1.7825
 6508SOL    HW231161   0.399   0.957   2.274  1.1527 -1.7518  1.7654
 6509SOL     OW31162   3.997   1.715   8.010 -0.1811  0.1161  0.3084
 6509SOL    HW131163   4.004   1.742   8.101  0.6722  0.6171  0.0916
 6509SOL    HW231164   4.080   1.668   8.001 -0.9948 -1.3310  0.2756
 6510SOL     OW31165   2.680   0.502   3.541 -0.0553  0.0710  0.6625
 6510SOL    HW131166   2.687   0.518   3.635  0.1934  0.7535  0.5266
 6510SOL    HW231167   2.633   0.419   3.533  0.6486 -0.1343 -1.4194
 6511SOL     OW31168   0.929   2.731   4.957 -0.2082  0.0242 -1.1163
 6511SOL    HW131169   0.876   2.652   4.957 -0.2199  0.0328 -1.7675
 6511SOL    HW231170   1.015   2.692   4.939  0.6853  1.0068  1.0380
 6512SOL     OW31171   4.308   4.440   2.063 -0.1536 -0.0741 -0.3544
 6512SOL    HW131172   4.338   4.487   2.141  1.9508 -0.0265 -1.1966
 6512SOL    HW231173   4.253   4.509   2.027  2.5220  1.8954 -0.6482
 6513SOL     OW31174   4.650   3.484  10.820 -0.0853  0.3909  0.0536
 6513SOL    HW131175   4.691   3.414  10.769  0.7868  0.7481  0.2800
 6513SOL    HW231176   4.707   3.508  10.893 -0.9016  1.1481  0.4412
 6514SOL     OW31177   4.444   3.431   7.292  0.0367  0.2910  0.6614
 6514SOL    HW131178   4.433   3.462   7.202  1.3509 -0.4385  0.2609
 6514SOL    HW231179   4.421   3.508   7.345 -1.6161  0.5826 -0.4901
 6515SOL     OW31180   3.540   0.904   6.276 -0.2875  0.4527  0.1187
 6515SOL    HW131181   3.571   0.951   6.198  1.3657 -1.1484 -0.2028
 6515SOL    HW231182   3.611   0.915   6.339 -0.7903  2.5434  0.3143
 6516SOL     OW31183   0.228   3.082   7.137  0.1985  0.0657  0.5622
 6516SOL    HW131184   0.322   3.061   7.136  0.7346  2.3823  2.3901
 6516SOL    HW231185   0.196   3.020   7.072  2.9845  0.9160 -1.6134
 6517SOL     OW31186   0.116   1.891  10.572  0.5231  0.0677 -0.2976
 6517SOL    HW131187   0.053   1.827  10.606 -0.0793  2.0026  2.2442
 6517SOL    HW231188   0.192   1.863  10.623  2.4815  1.1942 -2.6027
 6518SOL     OW31189   0.546   3.794   2.370  0.1491 -0.1475 -0.3719
 6518SOL    HW131190   0.514   3.704   2.373 -2.9491  0.9831  0.8777
 6518SOL    HW231191   0.574   3.803   2.279 -0.1006  0.9788 -0.3386
 6519SOL     OW31192   0.346   3.369   2.430  0.3628 -0.0903  0.3106
 6519SOL    HW131193   0.349   3.435   2.500 -1.2374 -0.0900  0.3730
 6519SOL    HW231194   0.259   3.331   2.442  1.3482 -2.1028  1.0186
 6520SOL     OW31195   0.587   1.993   1.997  0.0449 -0.0491  0.3145
 6520SOL    HW131196   0.634   2.074   2.016  0.7553  0.0611 -1.9112
 6520SOL    HW231197   0.614   1.949   2.078 -2.0383 -1.8234  0.0588
 6521SOL     OW31198   0.853   2.723  11.116 -0.3922  0.2571  0.3255
 6521SOL    HW131199   0.916   2.682  11.057 -1.1221 -3.0980  1.8894
 6521SOL    HW231200   0.887   2.693  11.200 -0.5779  0.9529  0.6514
 6522SOL     OW31201   2.215   0.000   8.637  0.3282 -0.3060  0.0807
 6522SOL    HW131202   2.177   4.681   8.568 -1.6906 -0.1621  1.0711
 6522SOL    HW231203   2.155   4.711   8.707  1.9199 -1.2907  1.1105
 6523SOL     OW31204   1.781   2.835   7.988  0.0124  0.0824  0.7692
 6523SOL    HW131205   1.689   2.849   8.013 -0.3894 -0.3817 -0.4263
 6523SOL    HW231206   1.804   2.767   8.051  0.2546  1.4775  2.1875
 6524SOL     OW31207   2.769   3.731   5.731 -0.5055 -0.8941  0.1194
 6524SOL    HW131208   2.780   3.726   5.826  0.5247 -1.6197 -0.0404
 6524SOL    HW231209   2.804   3.644   5.710  1.9039 -0.2198  1.3446
 6525SOL     OW31210   3.015   1.266   8.148 -0.2048  0.2364 -0.0218
 6525SOL    HW131211   2.922   1.253   8.165  0.1609 -1.8445  0.3927
 6525SOL    HW231212   3.015   1.330   8.077  1.0257 -0.4815 -0.6610
 6526SOL     OW31213   1.897   0.851   6.692  0.1695 -0.9707  0.6918
 6526SOL    HW131214   1.942   0.779   6.737  2.3882  1.0139  1.6050
 6526SOL    HW231215   1.871   0.911   6.762 -0.7778 -1.4588  0.7558
 6527SOL     OW31216   1.089   2.316   6.853 -0.6690 -0.1982  0.1319
 6527SOL    HW131217   1.081   2.221   6.840  2.3298 -0.4123 -0.2142
 6527SOL    HW231218   1.168   2.338   6.803 -0.0769 -2.8299 -0.1063
 6528SOL     OW31219   4.135   4.335  16.560  0.2672 -0.0656  0.1776
 6528SOL    HW131220   4.090   4.257  16.527  0.6402 -0.4419  0.5560
 6528SOL    HW231221   4.177   4.303  16.640  0.3363  2.3251  1.0865
 6529SOL     OW31222   4.690   2.111   2.858  0.1730  0.5329  0.2810
 6529SOL    HW131223   4.638   2.038   2.892 -0.6882  0.0894 -1.9518
 6529SOL    HW231224   4.684   2.099   2.763 -0.2762  2.0086  0.1349
 6530SOL     OW31225   2.734   2.511   9.350  0.4614  0.1421  0.1161
 6530SOL    HW131226   2.695   2.575   9.290  0.0796 -0.6656 -0.4993
 6530SOL    HW231227   2.659   2.456   9.372  0.5759 -0.9478 -2.1965
 6531SOL     OW31228   2.555   2.029   7.620 -0.0002 -0.1944 -0.0277
 6531SOL    HW131229   2.554   1.965   7.549 -0.4178 -0.2703  0.0501
 6531SOL    HW231230   2.551   1.980   7.702 -2.1185 -0.5286 -0.3585
 6532SOL     OW31231   4.329   3.835  10.099  0.3494 -0.0962 -0.2835
 6532SOL    HW131232   4.410   3.823  10.149  0.0635  0.8553  0.3986
 6532SOL    HW231233   4.327   3.763  10.036 -0.7774 -1.8205  1.7288
 6533SOL     OW31234   1.875   0.767  16.381 -0.1105  0.3289 -0.4055
 6533SOL    HW131235   1.857   0.713  16.458 -2.1471 -2.7191 -3.0084
 6533SOL    HW231236   1.817   0.725  16.318  0.7713  1.0180 -1.6744
 6534SOL     OW31237   3.527   1.296   0.827  0.0556  0.1080  0.0558
 6534SOL    HW131238   3.458   1.258   0.881  1.7851  0.4356  2.5018
 6534SOL    HW231239   3.500   1.260   0.743 -1.7377 -0.0216  0.6742
 6535SOL     OW31240   3.355   0.139   6.163  0.0434 -0.4586 -0.0663
 6535SOL    HW131241   3.340   0.211   6.224 -0.8506 -1.6714  1.1573
 6535SOL    HW231242   3.350   0.074   6.233 -0.6091 -1.8307 -1.3931
 6536SOL     OW31243   2.760   1.010   3.399 -0.2993  0.5768 -0.3843
 6536SOL    HW131244   2.842   1.011   3.349  0.1411 -1.0688  0.3275
 6536SOL    HW231245   2.706   1.070   3.348 -0.0145 -0.3730 -1.8091
 6537SOL     OW31246   3.543   1.789   2.692  0.7536 -0.1452  0.3834
 6537SOL    HW131247   3.466   1.766   2.641  0.3970  1.6715  0.0871
 6537SOL    HW231248   3.504   1.821   2.774 -1.9385 -0.4281 -0.8078
 6538SOL     OW31249   4.558   4.506   5.322 -0.2882  0.2401  0.7694
 6538SOL    HW131250   4.577   4.440   5.256 -0.6687  0.9942 -0.1015
 6538SOL    HW231251   4.637   4.502   5.376  0.3732 -2.4983 -0.4401
 6539SOL     OW31252   0.818   3.729  15.912  0.3706 -0.7988 -0.3002
 6539SOL    HW131253   0.810   3.808  15.966  1.6456 -0.6137 -0.3804
 6539SOL    HW231254   0.767   3.666  15.964  0.4577 -1.5573 -1.1308
 6540SOL     OW31255   0.109   1.876   2.810  0.1275 -0.4084 -0.2198
 6540SOL    HW131256   0.087   1.968   2.822  0.0243 -0.1083 -2.5960
 6540SOL    HW231257   0.032   1.853   2.757 -0.9046  1.7307  0.3499
 6541SOL     OW31258   2.051   3.809   7.680 -0.6766 -0.4131  0.0848
 6541SOL    HW131259   2.024   3.735   7.735 -1.4944 -0.3212 -0.1993
 6541SOL    HW231260   2.121   3.848   7.734 -0.7047  0.5079 -0.5448
 6542SOL     OW31261   3.827   2.725   8.520 -0.1595 -0.2050 -0.2371
 6542SOL    HW131262   3.852   2.815   8.540 -0.3786 -0.2023  0.0232
 6542SOL    HW231263   3.823   2.727   8.424 -1.7336  1.9735 -0.1290
 6543SOL     OW31264   0.428   0.859   5.937  0.0036  0.2509  0.4362
 6543SOL    HW131265   0.475   0.842   5.856 -1.9169  0.7743 -0.7744
 6543SOL    HW231266   0.415   0.954   5.933 -1.4928  0.1285  2.3683
 6544SOL     OW31267   2.484   4.312   4.638  0.3271 -0.4608 -0.6038
 6544SOL    HW131268   2.535   4.360   4.572 -1.8617  1.1623 -1.1069
 6544SOL    HW231269   2.535   4.237   4.668  1.6063  0.0206 -1.5702
 6545SOL     OW31270   3.653   1.157   8.247 -0.6095 -0.1984  0.2095
 6545SOL    HW131271   3.668   1.116   8.333 -0.0669 -1.4218 -0.4677
 6545SOL    HW231272   3.693   1.089   8.193 -1.9613 -2.5445  2.1186
 6546SOL     OW31273   0.856   0.652   4.743  0.7977 -0.1968 -0.2988
 6546SOL    HW131274   0.888   0.587   4.805 -0.2656 -0.1521  0.3035
 6546SOL    HW231275   0.941   0.681   4.710  0.3929 -2.2321 -3.1817
 6547SOL     OW31276   4.153   2.459  13.420  0.6814  0.2314 -0.7776
 6547SOL    HW131277   4.181   2.541  13.462  0.1010  0.6199 -1.1556
 6547SOL    HW231278   4.119   2.415  13.498  0.6219  1.2032 -0.2533
 6548SOL     OW31279   3.413   1.913   2.032 -0.0426 -0.9535 -0.3160
 6548SOL    HW131280   3.360   1.869   2.098 -0.3705  0.5792  0.4291
 6548SOL    HW231281   3.414   1.848   1.962 -3.4459  1.0567 -2.2675
 6549SOL     OW31282   3.213   4.240   8.111  0.1034 -0.2184  0.6176
 6549SOL    HW131283   3.217   4.327   8.071 -2.2753 -1.0523 -1.4813
 6549SOL    HW231284   3.305   4.215   8.119  0.1252 -0.0961  0.7363
 6550SOL     OW31285   3.418   4.260   5.174 -0.4056  0.3456  0.4412
 6550SOL    HW131286   3.493   4.301   5.218 -0.2819  0.5131  0.0787
 6550SOL    HW231287   3.381   4.212   5.248 -2.2723 -1.5679 -1.7461
 6551SOL     OW31288   0.551   2.206   4.031 -0.0170  0.4900  0.3183
 6551SOL    HW131289   0.608   2.181   4.103 -0.9724 -2.0480  0.1836
 6551SOL    HW231290   0.473   2.157   4.057 -0.4131  0.5608 -0.7229
 6552SOL     OW31291   0.464   3.602  12.626  0.2303 -0.4707  0.3221
 6552SOL    HW131292   0.507   3.679  12.590 -0.9943 -0.4050 -1.0118
 6552SOL    HW231293   0.458   3.547  12.548 -2.4451 -0.4738  0.5191
 6553SOL     OW31294   1.303   4.043   6.504  0.2884  0.6179  0.0501
 6553SOL    HW131295   1.379   3.986   6.492 -0.8246 -0.0577 -3.8144
 6553SOL    HW231296   1.344   4.127   6.525  0.6670  1.2362 -3.1526
 6554SOL     OW31297   4.319   0.481  17.667  0.6014  0.0491 -0.8207
 6554SOL    HW131298   4.250   0.502  17.730 -0.2202 -0.8660 -1.4205
 6554SOL    HW231299   4.316   0.386  17.672  0.8810 -0.0354 -2.1906
 6555SOL     OW31300   3.629   1.816  12.003  0.0257  0.2118 -0.3138
 6555SOL    HW131301   3.688   1.880  12.044 -1.0431 -0.4163  2.1536
 6555SOL    HW231302   3.695   1.756  11.968  2.0258  1.6167  0.9879
 6556SOL     OW31303   2.941   4.036   5.400 -0.5485 -0.6762 -0.2183
 6556SOL    HW131304   2.930   4.084   5.482 -0.6479 -0.5242 -0.3218
 6556SOL    HW231305   2.874   3.968   5.408 -1.8727  0.6462 -0.0695
 6557SOL     OW31306   3.387   3.076   4.785 -0.1577  0.1085  0.8347
 6557SOL    HW131307   3.399   2.992   4.740 -1.6042 -0.2225  1.0389
 6557SOL    HW231308   3.374   3.132   4.709  2.0983 -0.5396 -0.0217
 6558SOL     OW31309   3.283   3.861   4.187 -0.4389 -0.2751  0.4087
 6558SOL    HW131310   3.252   3.849   4.276 -0.0082 -0.1492  0.5741
 6558SOL    HW231311   3.290   3.957   4.187  1.4222 -0.4046  0.0689
 6559SOL     OW31312   3.350   3.149  12.340  0.1702 -0.5839  0.0534
 6559SOL    HW131313   3.434   3.103  12.339  2.0053  2.7371  0.0038
 6559SOL    HW231314   3.350   3.215  12.410 -2.5772  0.5287 -0.9894
 6560SOL     OW31315   4.062   2.989   1.983  0.3751  0.1188  0.3139
 6560SOL    HW131316   4.074   3.008   1.890 -1.3969  1.8799  0.4657
 6560SOL    HW231317   4.126   3.050   2.021 -0.3301  0.5021  0.8733
 6561SOL     OW31318   4.000   3.677   4.620 -0.0290 -0.2795  0.5175
 6561SOL    HW131319   3.937   3.640   4.559 -0.4642 -1.6819  1.8062
 6561SOL    HW231320   4.054   3.729   4.561 -2.2229  0.6533 -0.6517
 6562SOL     OW31321   0.588   0.786   5.657 -0.4223 -0.1770 -0.2875
 6562SOL    HW131322   0.676   0.754   5.637 -0.6539 -0.5346 -0.7400
 6562SOL    HW231323   0.536   0.732   5.597 -1.0973 -1.3184  1.3218
 6563SOL     OW31324   1.948   4.445  12.537  0.4000 -0.1709 -0.1315
 6563SOL    HW131325   1.890   4.398  12.478 -1.7295  0.0322  1.7781
 6563SOL    HW231326   1.951   4.394  12.618 -0.0667  0.7027  0.4379
 6564SOL     OW31327   3.331   4.326   0.573  0.6598 -0.3964 -0.3579
 6564SOL    HW131328   3.239   4.335   0.599  0.0188 -0.1896 -2.7300
 6564SOL    HW231329   3.385   4.340   0.651  0.2666 -0.4442 -0.0756
 6565SOL     OW31330   2.432   4.376   0.377  0.4071 -0.1275  0.6300
 6565SOL    HW131331   2.404   4.284   0.381 -1.3892  0.3952  0.2252
 6565SOL    HW231332   2.504   4.381   0.439 -0.9572 -2.9365  2.4810
 6566SOL     OW31333   1.809   4.499   8.174 -0.0371 -0.0454 -0.1785
 6566SOL    HW131334   1.801   4.592   8.152 -0.4639 -0.2128 -0.7139
 6566SOL    HW231335   1.723   4.459   8.173 -0.2979  0.5017  0.9553
 6567SOL     OW31336   1.855   0.270   3.902 -0.1259 -0.2705  0.7634
 6567SOL    HW131337   1.767   0.286   3.869  0.6189  0.8767 -0.7109
 6567SOL    HW231338   1.890   0.226   3.824 -0.0467 -2.9125  2.3172
 6568SOL     OW31339   2.164   3.155  15.398 -0.0368  0.2404  0.1845
 6568SOL    HW131340   2.185   3.128  15.488  0.5965  1.0030  0.2625
 6568SOL    HW231341   2.133   3.079  15.348 -1.2100  0.1777  0.9874
 6569SOL     OW31342   1.618   0.930   1.240  0.2061  0.3804 -0.2634
 6569SOL    HW131343   1.666   1.001   1.281  3.2148 -0.5487 -2.1245
 6569SOL    HW231344   1.697   0.876   1.236  0.6401  1.1279 -1.9385
 6570SOL     OW31345   1.044   1.886  11.706  0.2637 -0.4411  0.4862
 6570SOL    HW131346   1.114   1.895  11.642 -0.7826 -1.9201 -0.8608
 6570SOL    HW231347   1.044   1.977  11.738  2.8220  0.0110 -0.8547
 6571SOL     OW31348   3.384   2.004   3.836  0.1957 -0.5303  0.1576
 6571SOL    HW131349   3.309   2.056   3.808  1.1927  0.9742  0.2688
 6571SOL    HW231350   3.348   1.927   3.878  1.3114 -1.0739  0.1259
 6572SOL     OW31351   2.792   2.933   3.903 -0.0018 -0.2011 -0.2454
 6572SOL    HW131352   2.766   2.844   3.877  1.8949 -0.7855 -0.1922
 6572SOL    HW231353   2.848   2.955   3.828 -0.3538 -3.0717 -1.3831
 6573SOL     OW31354   2.462   4.525   9.841  0.6944 -0.3460  0.5561
 6573SOL    HW131355   2.545   4.572   9.848  0.1948  0.7188 -0.6723
 6573SOL    HW231356   2.503   4.440   9.857  0.6807 -0.2532  1.0657
 6574SOL     OW31357   4.199   3.743  10.418  0.3014  0.1001 -0.8517
 6574SOL    HW131358   4.269   3.803  10.443  0.9858 -1.8192  1.7852
 6574SOL    HW231359   4.121   3.799  10.414 -0.7611 -1.2387  1.9806
 6575SOL     OW31360   1.691   3.039   3.903  0.2995  0.4659 -0.8064
 6575SOL    HW131361   1.744   2.971   3.944 -1.4297 -0.5120 -0.1640
 6575SOL    HW231362   1.617   2.983   3.880  1.6868 -1.4509 -0.5952
 6576SOL     OW31363   2.690   3.754   9.503 -0.1675  0.6030  0.3169
 6576SOL    HW131364   2.595   3.754   9.513 -0.3102  3.1068 -0.8396
 6576SOL    HW231365   2.712   3.847   9.507  0.9639  0.2369  2.4440
 6577SOL     OW31366   1.572   2.998   5.009 -0.4311 -0.4758  0.0988
 6577SOL    HW131367   1.616   3.082   4.992  1.2662 -0.8473  2.6857
 6577SOL    HW231368   1.579   3.001   5.105  0.3969  0.4358  0.0168
 6578SOL     OW31369   0.657   0.355  12.799 -0.8123  0.3956 -0.7999
 6578SOL    HW131370   0.726   0.340  12.864 -1.4069 -0.2962 -0.3306
 6578SOL    HW231371   0.636   0.444  12.825  1.6843  1.4775 -2.4461
 6579SOL     OW31372   3.919   3.472   5.112  0.0596 -0.3643  0.0779
 6579SOL    HW131373   3.982   3.478   5.041  0.0704 -0.1067  0.1060
 6579SOL    HW231374   3.947   3.532   5.182 -0.1668 -1.7844  1.3886
 6580SOL     OW31375   3.212   4.135   5.332 -0.1685  0.2677 -0.9732
 6580SOL    HW131376   3.231   4.186   5.410 -0.0794  0.2150 -0.9601
 6580SOL    HW231377   3.116   4.129   5.336 -0.0264  0.4056  2.1274
 6581SOL     OW31378   3.235   2.062  15.036 -0.0078 -0.3643  0.3131
 6581SOL    HW131379   3.199   2.055  14.948 -0.0032  0.6456  0.2338
 6581SOL    HW231380   3.310   2.114  15.006  0.4631 -0.0371  1.9999
 6582SOL     OW31381   4.081   0.445   8.219 -0.7429  0.3596  0.1528
 6582SOL    HW131382   4.025   0.466   8.294  1.0544 -1.2143  1.9262
 6582SOL    HW231383   4.022   0.385   8.172 -0.0165 -0.3318  0.1310
 6583SOL     OW31384   3.799   3.628  14.822  0.8664 -1.0312  0.4053
 6583SOL    HW131385   3.871   3.624  14.759 -0.5353 -1.6177 -1.1210
 6583SOL    HW231386   3.740   3.557  14.799 -0.4265 -0.5137  2.1355
 6584SOL     OW31387   2.642   2.030   4.686 -0.0846 -0.5062  0.3422
 6584SOL    HW131388   2.696   2.028   4.607 -1.1135 -0.8600 -0.3553
 6584SOL    HW231389   2.703   1.997   4.753  0.3250  0.8579  0.6388
 6585SOL     OW31390   3.973   2.844   5.795  0.6528 -0.4947 -0.5922
 6585SOL    HW131391   4.067   2.844   5.813  0.6573  0.9887 -0.6732
 6585SOL    HW231392   3.974   2.887   5.710 -0.2354 -1.1941 -0.9594
 6586SOL     OW31393   1.287   4.523   3.810 -0.0595 -0.1734  0.5795
 6586SOL    HW131394   1.252   4.562   3.730  0.9746 -3.1592 -1.2895
 6586SOL    HW231395   1.231   4.445   3.815 -0.7266  0.2888  0.3464
 6587SOL     OW31396   2.730   3.178  16.857  0.0853  0.3963 -1.0277
 6587SOL    HW131397   2.800   3.221  16.808  1.5099 -0.8368 -0.0981
 6587SOL    HW231398   2.674   3.245  16.896  0.8724 -0.2202  1.1643
 6588SOL     OW31399   3.987   3.909   9.216 -0.2269  0.0879  0.1362
 6588SOL    HW131400   3.925   3.910   9.289  2.6540 -0.1047  2.5867
 6588SOL    HW231401   4.036   3.979   9.258  1.3090 -0.8954 -0.0054
 6589SOL     OW31402   0.095   3.050   1.911 -0.2190  0.9993 -0.5188
 6589SOL    HW131403   0.099   3.097   1.994  0.4008 -0.9219  0.5543
 6589SOL    HW231404   0.007   3.071   1.882 -1.0036 -2.5041 -0.7444
 6590SOL     OW31405   0.658   1.596   1.024  0.5395 -0.0965  1.0272
 6590SOL    HW131406   0.695   1.519   1.067 -2.9082 -2.1665  0.4078
 6590SOL    HW231407   0.719   1.601   0.950 -0.6889  3.2056  0.2433
 6591SOL     OW31408   1.627   2.916   6.148  0.1844  0.0326  0.0224
 6591SOL    HW131409   1.587   2.910   6.235  0.5468  1.8674  0.3150
 6591SOL    HW231410   1.551   2.909   6.090 -0.3477 -1.5606  0.9064
 6592SOL     OW31411   4.296   4.655   8.952  0.1674 -0.5019 -0.6922
 6592SOL    HW131412   4.278   0.009   8.981 -1.2210 -1.0772  0.1905
 6592SOL    HW231413   4.211   4.612   8.939 -1.5647  3.0582 -1.2151
 6593SOL     OW31414   0.105   1.872   8.274  0.1199  0.8046  0.2076
 6593SOL    HW131415   0.018   1.835   8.291 -0.3240  1.2009 -1.1875
 6593SOL    HW231416   0.138   1.821   8.200  0.2230 -0.7335  1.3135
 6594SOL     OW31417   3.369   2.804   8.571  0.2740 -0.6269  0.0867
 6594SOL    HW131418   3.348   2.864   8.641  0.3743  0.6071 -0.9462
 6594SOL    HW231419   3.289   2.809   8.518  0.3377  0.7760  0.1328
 6595SOL     OW31420   2.895   3.177  10.731 -0.5557 -0.4549 -0.1431
 6595SOL    HW131421   2.908   3.114  10.802  0.8646 -1.6698 -1.4789
 6595SOL    HW231422   2.979   3.171  10.686 -0.8618  3.2836 -1.2071
 6596SOL     OW31423   1.374   4.077   3.334  0.2040 -0.2459  0.2955
 6596SOL    HW131424   1.318   4.133   3.388 -2.2711 -2.6771  0.2523
 6596SOL    HW231425   1.353   4.104   3.244  0.6639 -2.0597 -0.3565
 6597SOL     OW31426   4.596   2.360   4.063 -0.4151 -0.3861 -0.1912
 6597SOL    HW131427   4.510   2.369   4.022 -0.0645  1.3420 -0.5631
 6597SOL    HW231428   4.585   2.439   4.116  0.7825  0.3890 -1.0890
 6598SOL     OW31429   2.465   0.307   4.615 -0.1310  0.1638  0.7370
 6598SOL    HW131430   2.533   0.275   4.555  0.1384  2.9257 -0.4022
 6598SOL    HW231431   2.413   0.354   4.550 -0.0366  1.0418  1.2891
 6599SOL     OW31432   1.595   0.051   2.421  0.6208 -0.4266  0.3726
 6599SOL    HW131433   1.670   0.057   2.362  1.5841 -3.5495  1.2764
 6599SOL    HW231434   1.638   0.049   2.507  0.3383 -2.4630  0.4810
 6600SOL     OW31435   2.976   0.841   2.115 -0.1154  0.5533 -0.0215
 6600SOL    HW131436   3.052   0.830   2.172  0.3138  0.9113 -0.5235
 6600SOL    HW231437   2.897   0.810   2.159 -1.2220  2.5011 -0.6230
 6601SOL     OW31438   3.549   3.822   2.628 -0.3120 -0.0463  0.1583
 6601SOL    HW131439   3.522   3.910   2.653 -0.3770  0.2216 -0.8308
 6601SOL    HW231440   3.639   3.821   2.659  0.0475  0.2449 -0.8712
 6602SOL     OW31441   1.857   1.714   5.910 -0.6610  0.5072 -0.2810
 6602SOL    HW131442   1.839   1.647   5.976  1.9639 -0.6954 -0.8138
 6602SOL    HW231443   1.915   1.666   5.851  0.4429  2.6431 -0.9528
 6603SOL     OW31444   0.694   1.937   4.021  0.3713  0.4393  0.1831
 6603SOL    HW131445   0.684   2.026   3.988  1.0793  0.1042 -0.9242
 6603SOL    HW231446   0.601   1.913   4.028  0.5240 -0.2088 -0.0102
 6604SOL     OW31447   0.100   1.629   1.585 -0.0366  0.7775  0.1701
 6604SOL    HW131448   0.175   1.570   1.574 -0.1918  0.5842  0.1685
 6604SOL    HW231449   0.138   1.697   1.640  1.6697 -0.1576  0.1606
 6605SOL     OW31450   2.227   0.538   8.261  0.4881  0.0398 -0.5112
 6605SOL    HW131451   2.286   0.548   8.335  0.5877  0.4469 -0.6435
 6605SOL    HW231452   2.175   0.617   8.269 -0.0655 -0.5435  1.6290
 6606SOL     OW31453   2.009   2.129   2.743  0.0655  0.1598  0.0835
 6606SOL    HW131454   2.006   2.214   2.699  1.8300  0.2586  0.1600
 6606SOL    HW231455   2.099   2.125   2.776 -0.0551 -0.9868  0.2626
 6607SOL     OW31456   3.416   2.554  15.386  0.1671 -0.0046 -0.1312
 6607SOL    HW131457   3.444   2.497  15.315 -0.3796 -1.1363  0.5430
 6607SOL    HW231458   3.447   2.637  15.352 -1.5296  0.6882 -0.0269
 6608SOL     OW31459   1.452   2.245   5.903  0.4396 -0.0106 -0.0696
 6608SOL    HW131460   1.511   2.310   5.864  1.2368 -1.5209 -1.3948
 6608SOL    HW231461   1.467   2.261   5.996 -0.4348 -0.8114  0.2139
 6609SOL     OW31462   4.279   0.964   7.440  0.0369 -0.7502 -0.7086
 6609SOL    HW131463   4.193   0.925   7.427  0.6917 -1.8949 -1.5347
 6609SOL    HW231464   4.256   1.057   7.429  1.6421  0.0485  2.5777
 6610SOL     OW31465   0.416   3.164   9.154 -0.0613  0.8039 -0.5850
 6610SOL    HW131466   0.379   3.217   9.224  0.5673  2.2725 -1.3619
 6610SOL    HW231467   0.347   3.186   9.091 -0.1312  4.2056  0.7127
 6611SOL     OW31468   1.771   3.226   4.942 -0.3460 -0.2083  0.2222
 6611SOL    HW131469   1.725   3.308   4.963  0.0491  0.0053  0.2546
 6611SOL    HW231470   1.829   3.220   5.018  1.8351 -1.3351 -1.5308
 6612SOL     OW31471   2.191   4.601   9.261  0.1219 -0.0629 -0.7133
 6612SOL    HW131472   2.269   4.655   9.276  0.3911 -0.2043 -1.5843
 6612SOL    HW231473   2.175   4.552   9.342  0.4412  1.8392  0.5215
 6613SOL     OW31474   0.729   2.604   0.121  1.1318  0.0825  0.3367
 6613SOL    HW131475   0.716   2.631   0.030  1.7569 -1.0462 -0.0839
 6613SOL    HW231476   0.702   2.689   0.154  1.7950  0.3452  0.1987
 6614SOL     OW31477   1.500   4.618   7.937 -0.6651 -0.0594 -0.5402
 6614SOL    HW131478   1.436   4.579   7.996  1.5158  0.2035  1.9670
 6614SOL    HW231479   1.560   4.545   7.942  0.2587  0.7231 -0.2723
 6615SOL     OW31480   3.545   4.252   3.203 -0.4934 -0.4565  0.2397
 6615SOL    HW131481   3.611   4.208   3.256  0.2532  1.9031  1.2327
 6615SOL    HW231482   3.592   4.258   3.120  1.4555  1.7351  1.5390
 6616SOL     OW31483   1.578   0.196  12.337 -0.3476  0.1480  0.0813
 6616SOL    HW131484   1.593   0.166  12.247 -3.7480  0.7735 -0.6827
 6616SOL    HW231485   1.646   0.144  12.380  0.3259  0.0715 -1.0837
 6617SOL     OW31486   1.256   1.900  15.216 -0.7496  0.4024  0.2046
 6617SOL    HW131487   1.346   1.933  15.209  0.0692 -1.8629 -0.0227
 6617SOL    HW231488   1.210   1.951  15.283 -0.1003  0.5665  0.5369
 6618SOL     OW31489   2.256   1.666   6.779 -0.3116  0.4686 -0.7865
 6618SOL    HW131490   2.336   1.695   6.822 -0.3744 -0.3201 -0.1208
 6618SOL    HW231491   2.195   1.727   6.820 -0.6042 -0.1635 -0.2660
 6619SOL     OW31492   0.868   1.423   5.655 -0.3274  0.1914  0.1521
 6619SOL    HW131493   0.915   1.482   5.595  0.1647  0.2301  0.5765
 6619SOL    HW231494   0.854   1.358   5.587 -2.9751 -0.3811  1.2663
 6620SOL     OW31495   1.886   2.198   1.912  0.2168  0.3738 -0.4988
 6620SOL    HW131496   1.814   2.154   1.957  1.2512  0.6472  1.4007
 6620SOL    HW231497   1.924   2.262   1.972  0.9051 -0.1137 -0.4134
 6621SOL     OW31498   4.727   0.927   7.703  0.3702  0.0927  0.3530
 6621SOL    HW131499   4.663   0.866   7.740  1.2851 -0.9112  0.2783
 6621SOL    HW231500   4.672   0.997   7.668 -0.8323 -2.2157 -2.3561
 6622SOL     OW31501   3.570   1.016   3.533 -0.2143 -0.3835  0.1009
 6622SOL    HW131502   3.561   1.065   3.614  1.4110 -0.3954  0.2890
 6622SOL    HW231503   3.533   1.072   3.464  2.3438  0.3248 -0.7113
 6623SOL     OW31504   3.455   1.438   5.871 -0.0823  0.1561 -0.7065
 6623SOL    HW131505   3.542   1.401   5.859  0.2304  0.4881  0.4633
 6623SOL    HW231506   3.456   1.499   5.798  1.4883  0.4418 -0.4412
 6624SOL     OW31507   1.288   1.997   8.805 -0.1870 -0.3192 -0.0146
 6624SOL    HW131508   1.204   1.961   8.833 -0.2838  1.1775  1.5746
 6624SOL    HW231509   1.347   1.927   8.833  3.1406  2.2909 -0.4778
 6625SOL     OW31510   3.786   1.102   4.672 -0.3265 -0.2742 -1.0308
 6625SOL    HW131511   3.824   1.033   4.618 -1.6638 -1.1123 -0.9156
 6625SOL    HW231512   3.705   1.057   4.698  0.6446 -1.3741  0.1178
 6626SOL     OW31513   3.768   3.126   8.187  0.3000 -0.3645 -0.1822
 6626SOL    HW131514   3.848   3.126   8.136  0.3706 -0.9464 -0.0747
 6626SOL    HW231515   3.705   3.089   8.125  3.1736 -2.1808 -1.9917
 6627SOL     OW31516   4.084   3.376   2.704  0.5111  0.8183 -0.0040
 6627SOL    HW131517   4.130   3.294   2.685  1.2552  1.2298 -0.0047
 6627SOL    HW231518   4.150   3.441   2.678  0.6191 -0.1393 -2.1197
 6628SOL     OW31519   0.164   2.767   2.583  0.4062  0.4824  0.1075
 6628SOL    HW131520   0.111   2.735   2.510 -1.1803  2.0018  0.5977
 6628SOL    HW231521   0.245   2.723   2.560  0.4887  0.1663  0.9976
 6629SOL     OW31522   2.833   1.312   1.255 -0.0470  0.1792  0.0192
 6629SOL    HW131523   2.829   1.407   1.246 -2.2939  0.2786  2.0064
 6629SOL    HW231524   2.741   1.289   1.244  0.0455 -0.5756  0.9010
 6630SOL     OW31525   2.353   0.596   6.065  0.7596  0.1597 -0.0239
 6630SOL    HW131526   2.365   0.589   5.970 -1.0537  1.5664 -0.3702
 6630SOL    HW231527   2.408   0.523   6.093  0.5615  0.1406  0.3125
 6631SOL     OW31528   0.341   1.357   2.449 -0.1058  0.7851 -0.0872
 6631SOL    HW131529   0.382   1.345   2.363 -2.6427 -1.9084 -0.9139
 6631SOL    HW231530   0.422   1.364   2.500 -0.8728  0.4685  1.1790
 6632SOL     OW31531   4.170   2.945   4.809 -0.1793 -0.0013  0.3303
 6632SOL    HW131532   4.102   2.947   4.741  0.4433  2.5508 -0.2281
 6632SOL    HW231533   4.132   3.027   4.840 -1.2563 -0.3078 -0.1711
 6633SOL     OW31534   3.816   3.830  14.420 -0.0565 -0.2640 -0.7982
 6633SOL    HW131535   3.733   3.788  14.444 -0.2947  0.6715  0.0185
 6633SOL    HW231536   3.868   3.757  14.386 -1.2222 -0.3530 -2.3479
 6634SOL     OW31537   1.123   2.184   2.883  0.3591 -0.3495  0.1666
 6634SOL    HW131538   1.037   2.156   2.851 -0.5960  0.0159  2.4526
 6634SOL    HW231539   1.115   2.195   2.977  1.7299  1.5949  0.0419
 6635SOL     OW31540   2.308   4.680   3.011  0.6245  0.1998 -0.0819
 6635SOL    HW131541   2.390   4.701   2.966 -0.1265  0.1819 -1.4687
 6635SOL    HW231542   2.248   4.666   2.937  0.0710 -0.2559  0.4540
 6636SOL     OW31543   2.010   3.232   5.168  0.1821  0.0134  0.0075
 6636SOL    HW131544   2.075   3.215   5.099  0.4817 -0.4087  0.3936
 6636SOL    HW231545   2.005   3.327   5.155 -0.5243  0.0173  0.3217
 6637SOL     OW31546   2.641   2.505   2.776 -0.0316 -0.0345  0.3180
 6637SOL    HW131547   2.584   2.582   2.773 -0.2399 -0.1384  1.9305
 6637SOL    HW231548   2.725   2.544   2.802 -1.2445  2.2094  0.8336
 6638SOL     OW31549   2.324   3.263   8.649  0.1535 -0.4691 -0.0291
 6638SOL    HW131550   2.320   3.282   8.555 -0.2805 -0.2908  0.0278
 6638SOL    HW231551   2.418   3.266   8.670 -0.0698  3.2251  0.4145
 6639SOL     OW31552   0.373   4.136   7.529 -0.0954 -0.8054  0.6234
 6639SOL    HW131553   0.313   4.210   7.521  1.4314  0.1938 -1.4325
 6639SOL    HW231554   0.312   4.064   7.536 -1.1043 -0.2257 -2.1667
 6640SOL     OW31555   4.254   0.041   4.474 -0.3335  0.4195 -0.0667
 6640SOL    HW131556   4.241   0.031   4.380 -0.0708 -1.7144  0.1411
 6640SOL    HW231557   4.320   4.714   4.505 -1.6460  0.1832  2.2587
 6641SOL     OW31558   2.071   0.115  17.128  0.0476 -0.0535 -0.1002
 6641SOL    HW131559   2.086   0.059  17.204  0.7396  0.9831  0.5321
 6641SOL    HW231560   2.153   0.101  17.081 -0.3869  0.9468 -1.1397
 6642SOL     OW31561   3.685   4.431  14.910 -0.3029 -0.5702  0.0572
 6642SOL    HW131562   3.770   4.406  14.874 -0.5878 -3.0384  1.0744
 6642SOL    HW231563   3.652   4.490  14.842  0.6175 -1.6537 -1.3226
 6643SOL     OW31564   2.308   2.888   7.169  0.0212 -0.1966 -0.2885
 6643SOL    HW131565   2.283   2.797   7.157  0.5119 -0.4524  0.6006
 6643SOL    HW231566   2.228   2.927   7.134  1.4921  2.4673 -0.7211
 6644SOL     OW31567   2.869   1.678   3.687 -0.5523  0.0438  0.4040
 6644SOL    HW131568   2.855   1.681   3.593  1.1752  2.3316  0.2200
 6644SOL    HW231569   2.904   1.589   3.694 -2.7734 -0.7859  1.1494
 6645SOL     OW31570   1.618   1.192   6.912 -0.2263  0.0971  0.2261
 6645SOL    HW131571   1.614   1.135   6.835  0.1602  0.1930  0.1357
 6645SOL    HW231572   1.713   1.198   6.911 -0.2139 -0.0786  0.3561
 6646SOL     OW31573   2.428   3.661   0.071 -0.5759 -0.0037  0.2998
 6646SOL    HW131574   2.477   3.684   0.151 -0.0534 -0.0478 -0.0049
 6646SOL    HW231575   2.358   3.609   0.109  0.2315 -0.2077  1.5240
 6647SOL     OW31576   1.756   2.517   5.567 -0.1486 -0.2539 -0.1592
 6647SOL    HW131577   1.750   2.452   5.497 -0.6715 -1.0753  0.6539
 6647SOL    HW231578   1.842   2.482   5.594 -0.5688 -0.5588  0.7833
 6648SOL     OW31579   1.118   3.690   0.762  0.0842 -0.0659 -0.2151
 6648SOL    HW131580   1.057   3.707   0.835  0.6322 -1.1819  0.5008
 6648SOL    HW231581   1.119   3.594   0.763  0.8103 -0.0564 -0.1716
 6649SOL     OW31582   4.438   1.419   7.597  0.0592  0.2983 -0.3649
 6649SOL    HW131583   4.412   1.507   7.622 -0.8406 -0.0692  0.0021
 6649SOL    HW231584   4.529   1.424   7.624  0.1394 -0.8392 -0.4092
 6650SOL     OW31585   0.030   1.364   5.067 -0.1393  0.2420  0.0746
 6650SOL    HW131586   0.112   1.348   5.020 -1.4148 -1.5999 -1.4944
 6650SOL    HW231587   0.037   1.296   5.134 -3.0293  1.4626  1.5992
 6651SOL     OW31588   0.792   1.463   3.002  0.3310 -0.5654  0.4065
 6651SOL    HW131589   0.743   1.522   2.945  0.7374  0.5260  1.2000
 6651SOL    HW231590   0.835   1.408   2.936 -0.1171 -1.6505  1.0234
 6652SOL     OW31591   0.554   0.823  14.271  0.0338  0.7352  0.0127
 6652SOL    HW131592   0.594   0.804  14.186  0.2140 -1.1667  0.5405
 6652SOL    HW231593   0.478   0.764  14.269  0.3972  0.2399  1.7082
 6653SOL     OW31594   0.443   1.282   5.311  0.2016 -0.2005 -0.3354
 6653SOL    HW131595   0.504   1.351   5.285  1.6408 -0.8856  1.2771
 6653SOL    HW231596   0.368   1.337   5.338 -0.7936 -1.9251  0.4299
 6654SOL     OW31597   3.183   2.974   8.075  0.1652 -0.1916 -0.4337
 6654SOL    HW131598   3.267   2.928   8.085 -1.0272 -1.9423  1.5378
 6654SOL    HW231599   3.152   2.948   7.988  1.6754 -3.0272 -0.1433
 6655SOL     OW31600   0.357   2.677   8.984  0.5915  0.6555 -0.0396
 6655SOL    HW131601   0.279   2.664   9.038  0.1810 -0.0021 -0.7909
 6655SOL    HW231602   0.390   2.760   9.018 -0.2933  0.0744  2.2720
 6656SOL     OW31603   0.658   4.239  10.081  0.7402  0.3645 -0.0610
 6656SOL    HW131604   0.582   4.259  10.136 -0.7086 -1.0188 -1.5673
 6656SOL    HW231605   0.673   4.146  10.098 -0.0000  0.1011 -0.8683
 6657SOL     OW31606   1.711   1.623   2.154  0.4335  0.0858 -0.3691
 6657SOL    HW131607   1.716   1.529   2.171  2.8654  0.2924  0.0966
 6657SOL    HW231608   1.779   1.654   2.214  1.2365 -1.1136 -0.6387
 6658SOL     OW31609   0.093   4.318  10.936 -0.1339 -0.3967 -0.1743
 6658SOL    HW131610   0.072   4.388  10.874  1.3608  0.8314  0.6808
 6658SOL    HW231611   0.044   4.344  11.014 -0.3900  0.6967 -0.6926
 6659SOL     OW31612   4.615   4.381   3.407 -0.4553 -0.7226  0.0978
 6659SOL    HW131613   4.536   4.412   3.451  0.6759 -0.1175  1.7332
 6659SOL    HW231614   4.642   4.303   3.456 -1.2540 -0.6888  0.6093
 6660SOL     OW31615   1.877   0.126   8.976  0.5605  0.2206  0.1032
 6660SOL    HW131616   1.881   0.092   9.065 -0.0133 -0.0559  0.0178
 6660SOL    HW231617   1.959   0.174   8.964  1.0877 -0.7671 -0.2410
 6661SOL     OW31618   4.280   0.838   3.290  0.1145  0.0749  0.1550
 6661SOL    HW131619   4.325   0.816   3.209  0.6599 -1.2333  0.8187
 6661SOL    HW231620   4.243   0.923   3.265 -2.3339 -1.3717 -1.1851
 6662SOL     OW31621   1.866   2.715   3.191  0.4861 -0.2122 -0.0928
 6662SOL    HW131622   1.899   2.648   3.132 -2.6516 -0.0806 -2.0350
 6662SOL    HW231623   1.925   2.703   3.266  0.4428 -0.9886 -0.1815
 6663SOL     OW31624   1.017   0.125   0.231  0.1839 -0.3150 -0.0179
 6663SOL    HW131625   1.112   0.123   0.222  0.3648  1.1994  1.5525
 6663SOL    HW231626   1.003   0.054   0.294  0.6381 -1.4064 -1.1550
 6664SOL     OW31627   1.365   1.419   5.923  0.3057  0.7528  0.5152
 6664SOL    HW131628   1.441   1.478   5.919 -1.3435  2.9700  1.9667
 6664SOL    HW231629   1.375   1.373   5.839  0.2837  0.1036  0.8758
 6665SOL     OW31630   1.626   4.456   1.771 -0.0481 -0.7623 -0.3812
 6665SOL    HW131631   1.566   4.381   1.765  0.0697 -0.6902 -2.4428
 6665SOL    HW231632   1.582   4.509   1.838 -0.4486  0.4922 -1.6364
 6666SOL     OW31633   0.063   1.146   5.235 -0.0076  0.7878 -0.4039
 6666SOL    HW131634   0.065   1.051   5.221 -1.6344  0.5467  1.0036
 6666SOL    HW231635   0.102   1.146   5.322 -2.0939  0.7087  0.5314
 6667SOL     OW31636   3.459   1.862   0.916  0.6109  0.0145 -0.1697
 6667SOL    HW131637   3.369   1.884   0.894  0.5013  0.2804  0.5501
 6667SOL    HW231638   3.486   1.831   0.830  0.2081 -1.1297  0.1133
 6668SOL     OW31639   2.391   0.807  14.039  0.5064 -0.3050  0.0525
 6668SOL    HW131640   2.444   0.873  14.082  1.2611  1.6300 -3.8472
 6668SOL    HW231641   2.306   0.850  14.029  0.0320 -0.9479  1.3179
 6669SOL     OW31642   4.282   0.071   6.123 -0.1978  0.3602 -0.5938
 6669SOL    HW131643   4.237   0.149   6.156 -0.8913 -0.4273  0.3230
 6669SOL    HW231644   4.361   0.084   6.175  0.8823 -0.6980 -1.9725
 6670SOL     OW31645   4.082   0.826   4.950  0.1715  0.0690  0.2328
 6670SOL    HW131646   4.167   0.870   4.939 -0.7245  1.6986 -0.1245
 6670SOL    HW231647   4.026   0.902   4.937  2.3120  0.9917 -3.6131
 6671SOL     OW31648   0.936   3.337   3.493  0.4077  0.4752  0.3051
 6671SOL    HW131649   0.920   3.395   3.567  1.3111  0.6740  0.3435
 6671SOL    HW231650   0.850   3.295   3.494  1.3243 -1.4463 -0.6080
 6672SOL     OW31651   2.985   1.117   4.006  0.7156 -0.0417  0.5091
 6672SOL    HW131652   2.892   1.126   3.984  1.1047  0.8533 -0.7564
 6672SOL    HW231653   3.004   1.024   4.019 -1.3929 -0.3954  1.1013
 6673SOL     OW31654   1.987   0.553  14.510  0.2139 -0.1895 -0.2875
 6673SOL    HW131655   2.007   0.579  14.600  1.0893 -2.6547  0.2372
 6673SOL    HW231656   1.908   0.604  14.495 -0.6049 -1.5301 -0.5711
 6674SOL     OW31657   2.787   4.280  13.906 -0.0719 -0.6916  0.0316
 6674SOL    HW131658   2.729   4.294  13.832  0.0276  1.0760  0.2850
 6674SOL    HW231659   2.862   4.307  13.853 -0.0964  0.2721  0.4872
 6675SOL     OW31660   3.275   0.641   7.709  0.9838  0.1790  0.0464
 6675SOL    HW131661   3.245   0.707   7.770  3.9813  3.2217 -1.7580
 6675SOL    HW231662   3.216   0.648   7.634 -0.5793 -0.6854  1.1919
 6676SOL     OW31663   3.486   0.481   7.604  0.0390 -0.6142  0.5419
 6676SOL    HW131664   3.545   0.473   7.679  0.1761 -0.7020  0.4267
 6676SOL    HW231665   3.408   0.531   7.625 -0.2863 -0.7735 -0.2750
 6677SOL     OW31666   2.626   4.083  16.961 -0.3880  0.3329  0.1330
 6677SOL    HW131667   2.553   4.091  16.900 -0.5556  0.9480  0.4050
 6677SOL    HW231668   2.579   4.030  17.026 -0.5505  0.9785  0.5488
 6678SOL     OW31669   3.126   2.628   4.082 -0.8580 -0.5449 -0.3550
 6678SOL    HW131670   3.062   2.609   4.013 -1.3065 -1.1390  0.2216
 6678SOL    HW231671   3.110   2.722   4.085 -0.5228 -0.5615  1.8012
 6679SOL     OW31672   4.009   3.063   9.745 -0.1975  0.3840  0.3351
 6679SOL    HW131673   4.053   3.084   9.662 -1.4838 -0.4294 -0.5688
 6679SOL    HW231674   4.001   2.968   9.755  2.8107  0.3777  2.4274
 6680SOL     OW31675   1.247   3.553   3.368 -0.0614  0.1302 -0.1422
 6680SOL    HW131676   1.221   3.461   3.365  2.7029 -0.6889  0.9705
 6680SOL    HW231677   1.322   3.556   3.309  0.3923  1.0254  0.4821
 6681SOL     OW31678   2.021   3.881   2.089  0.3021  0.6886  0.3768
 6681SOL    HW131679   2.114   3.875   2.111  0.3740  0.1778 -0.0636
 6681SOL    HW231680   1.998   3.805   2.037  0.7676 -0.7863  2.3172
 6682SOL     OW31681   3.418   4.711   9.207  0.5866 -0.6184  0.2070
 6682SOL    HW131682   3.453   0.017   9.286  3.1717 -0.2882 -1.1180
 6682SOL    HW231683   3.333   4.676   9.233  1.2270 -3.1567 -1.1534
 6683SOL     OW31684   3.584   3.118   5.406 -0.6389  0.0418  0.4930
 6683SOL    HW131685   3.495   3.087   5.391  0.0187 -1.1659 -0.9200
 6683SOL    HW231686   3.588   3.177   5.331  1.5897 -0.6709  0.0637
 6684SOL     OW31687   0.473   3.851   7.838 -0.6295 -0.1714 -0.2205
 6684SOL    HW131688   0.481   3.885   7.748 -0.0757 -0.7939 -0.4051
 6684SOL    HW231689   0.429   3.768   7.821 -0.6797 -0.2152  0.1407
 6685SOL     OW31690   2.339   0.325  12.211 -0.4524 -0.2599  0.2644
 6685SOL    HW131691   2.308   0.402  12.259 -0.2789 -0.2347  0.3358
 6685SOL    HW231692   2.311   0.247  12.258 -2.5416  0.3287 -0.0382
 6686SOL     OW31693   4.077   2.350  12.941 -0.5324  0.1660 -0.0247
 6686SOL    HW131694   4.135   2.330  13.015  1.1747 -1.3712 -1.8233
 6686SOL    HW231695   4.027   2.404  13.003 -2.5509  0.3866 -1.8423
 6687SOL     OW31696   3.722   4.507   6.302 -0.6872  0.5641  0.3632
 6687SOL    HW131697   3.684   4.421   6.321 -1.0524  0.9652  1.4301
 6687SOL    HW231698   3.640   4.553   6.284 -0.4850  0.4187 -0.9220
 6688SOL     OW31699   0.150   2.987  17.219  0.6231 -0.3869  0.2677
 6688SOL    HW131700   0.233   3.017  17.258  0.4438 -0.1946  0.5015
 6688SOL    HW231701   0.136   3.063  17.162  0.2502 -0.5783  0.1065
 6689SOL     OW31702   1.133   2.490   5.536  0.0052 -0.0529  0.3125
 6689SOL    HW131703   1.192   2.416   5.552 -2.7785 -2.1016  1.1844
 6689SOL    HW231704   1.183   2.561   5.578 -0.8163 -0.7429  2.4761
 6690SOL     OW31705   1.344   1.554   4.925 -0.4006  0.2144  0.2660
 6690SOL    HW131706   1.415   1.493   4.947  0.6794  1.6873  0.9529
 6690SOL    HW231707   1.397   1.634   4.935 -0.8977  0.4165  1.3886
 6691SOL     OW31708   3.341   0.291   7.449 -0.1479 -0.3221 -0.3436
 6691SOL    HW131709   3.409   0.340   7.495 -2.2625 -0.4510  2.8264
 6691SOL    HW231710   3.343   0.340   7.366 -1.3404 -2.0102 -1.3765
 6692SOL     OW31711   3.800   2.022   3.727  0.4008 -0.3475 -0.4750
 6692SOL    HW131712   3.762   2.090   3.783 -0.1771 -0.9838 -0.0893
 6692SOL    HW231713   3.721   1.969   3.720 -0.1469  0.4655 -0.5396
 6693SOL     OW31714   0.377   4.159  15.110  0.3100 -0.0794  0.3535
 6693SOL    HW131715   0.348   4.169  15.019  0.2934 -0.1417  0.3517
 6693SOL    HW231716   0.322   4.226  15.151  0.3186  2.0812 -3.1191
 6694SOL     OW31717   3.759   3.691   7.686  0.7324 -0.5811 -0.4670
 6694SOL    HW131718   3.737   3.781   7.662 -0.2659 -0.9329 -0.8806
 6694SOL    HW231719   3.814   3.659   7.615  0.1722 -0.7488 -0.8237
 6695SOL     OW31720   1.346   3.255   3.590  0.1139 -0.7817 -0.0067
 6695SOL    HW131721   1.312   3.310   3.520  1.3332  0.4675  0.3848
 6695SOL    HW231722   1.418   3.315   3.611 -1.5109  0.3925  2.2408
 6696SOL     OW31723   3.650   1.231   6.410 -0.1973  0.3682 -0.3006
 6696SOL    HW131724   3.679   1.293   6.343 -2.0041  1.6165  0.0634
 6696SOL    HW231725   3.559   1.224   6.379 -0.4756 -2.1748  1.1056
 6697SOL     OW31726   4.200   1.328  15.644 -0.9272  0.5564 -0.0881
 6697SOL    HW131727   4.123   1.355  15.694 -1.2206  0.0126 -0.2423
 6697SOL    HW231728   4.252   1.408  15.654 -1.4241  0.9056 -0.3238
 6698SOL     OW31729   3.172   0.354   4.306 -0.1173 -0.0957  0.3003
 6698SOL    HW131730   3.157   0.406   4.385 -1.0622  0.0199  0.0446
 6698SOL    HW231731   3.263   0.374   4.288 -0.4481 -0.2051 -1.4678
 6699SOL     OW31732   0.450   2.269   1.566 -0.5405  0.7159 -0.1798
 6699SOL    HW131733   0.412   2.220   1.639  2.3583 -1.7499 -0.2983
 6699SOL    HW231734   0.412   2.225   1.490 -2.8624 -0.0220  1.4041
 6700SOL     OW31735   1.478   1.040  15.952  0.2242  0.4757 -0.5121
 6700SOL    HW131736   1.462   1.094  15.876  0.3743  0.6596 -0.4128
 6700SOL    HW231737   1.427   1.086  16.018  0.7338 -1.3191  1.1504
 6701SOL     OW31738   1.467   0.290  16.659  0.3706  0.3680  0.0683
 6701SOL    HW131739   1.382   0.279  16.617  0.1032  2.5916  0.0257
 6701SOL    HW231740   1.499   0.200  16.665 -2.2805 -0.7133 -2.1577
 6702SOL     OW31741   1.075   4.166  11.824 -0.1468 -0.0825  0.4273
 6702SOL    HW131742   1.038   4.240  11.777 -0.7729 -2.1984 -2.4298
 6702SOL    HW231743   1.145   4.205  11.876 -0.9838  0.9021  0.8103
 6703SOL     OW31744   4.273   2.109  15.037  0.4955  0.1219 -0.0307
 6703SOL    HW131745   4.274   2.204  15.049  0.6005  0.1760 -0.4674
 6703SOL    HW231746   4.362   2.087  15.009  0.6649  0.7049  0.0714
 6704SOL     OW31747   1.472   2.057   3.992  0.2262 -0.0734  0.6240
 6704SOL    HW131748   1.390   2.030   3.950 -0.1153 -0.0315  1.2684
 6704SOL    HW231749   1.445   2.079   4.081 -2.3905 -0.9029  0.0220
 6705SOL     OW31750   2.264   2.511   2.378  0.2662 -0.0228  0.7528
 6705SOL    HW131751   2.301   2.477   2.459 -0.8852  4.0776  3.0104
 6705SOL    HW231752   2.331   2.478   2.318 -0.0008  2.5872 -1.0227
 6706SOL     OW31753   3.121   3.314   6.510  0.4000  0.2824  0.3515
 6706SOL    HW131754   3.125   3.244   6.575 -1.2671 -1.3548 -1.2574
 6706SOL    HW231755   3.162   3.391   6.547 -1.0516  0.8708  0.7158
 6707SOL     OW31756   1.069   3.671   8.853  0.2999 -0.1958 -0.2463
 6707SOL    HW131757   0.997   3.673   8.789 -1.5976  0.1768  1.8877
 6707SOL    HW231758   1.013   3.691   8.929 -0.1629  1.6034 -1.0497
 6708SOL     OW31759   3.368   0.876   4.395 -0.3205  0.2246 -0.3315
 6708SOL    HW131760   3.369   0.941   4.465 -0.5216  0.7611 -0.8281
 6708SOL    HW231761   3.455   0.841   4.413  0.1322  2.9996  2.8953
 6709SOL     OW31762   4.361   3.382  12.253 -0.0291  0.4489  0.1236
 6709SOL    HW131763   4.278   3.370  12.300  0.9963  0.5164  1.9666
 6709SOL    HW231764   4.417   3.383  12.330 -0.4920  1.4173  0.4527
 6710SOL     OW31765   1.400   4.690   2.093 -0.1436  0.4208 -0.3363
 6710SOL    HW131766   1.407   0.050   2.094 -2.0890  0.5771 -1.3697
 6710SOL    HW231767   1.339   4.678   2.165 -1.0769 -1.1373 -1.3919
 6711SOL     OW31768   1.939   1.410  11.429  0.2039 -0.2992  0.1641
 6711SOL    HW131769   1.890   1.335  11.462  0.9233 -0.4847  0.7856
 6711SOL    HW231770   1.978   1.432  11.513  0.4213  2.8115 -0.7472
 6712SOL     OW31771   1.529   1.262  15.791  0.7196  0.1387  0.1071
 6712SOL    HW131772   1.449   1.314  15.788 -0.0064 -0.8634  2.4319
 6712SOL    HW231773   1.526   1.203  15.715 -0.4531  1.2819 -0.7229
 6713SOL     OW31774   1.150   1.721   2.758 -0.6369  0.7132  0.3831
 6713SOL    HW131775   1.101   1.672   2.824 -0.2679  0.0577  0.1814
 6713SOL    HW231776   1.160   1.653   2.691  3.4141 -0.2853  1.9607
 6714SOL     OW31777   1.274   3.005  13.017 -0.7034  0.2539  0.3176
 6714SOL    HW131778   1.279   2.927  13.072 -1.9071  0.4563  0.7047
 6714SOL    HW231779   1.179   3.006  13.003 -1.0811 -0.6545  2.9283
 6715SOL     OW31780   2.721   2.834  15.726  0.1816 -0.3615  0.1149
 6715SOL    HW131781   2.739   2.792  15.810  0.6201 -1.0441 -0.3226
 6715SOL    HW231782   2.791   2.803  15.669 -0.6247 -1.0988 -0.4807
 6716SOL     OW31783   3.200   2.051  16.203 -0.2222  0.7394 -0.0936
 6716SOL    HW131784   3.198   1.955  16.200 -2.6239  0.7479  0.5908
 6716SOL    HW231785   3.157   2.065  16.288  0.7208  1.2824  0.2815
 6717SOL     OW31786   0.645   2.429   8.234  0.1916  0.4427 -0.1825
 6717SOL    HW131787   0.567   2.373   8.242 -0.4678  1.2371 -1.1007
 6717SOL    HW231788   0.668   2.421   8.327  2.0403 -3.0823 -0.9371
 6718SOL     OW31789   3.889   4.165   9.447  0.5768  0.0175  0.7148
 6718SOL    HW131790   3.811   4.114   9.424 -0.1663  1.1330  0.7414
 6718SOL    HW231791   3.959   4.100   9.456 -0.1827 -0.6948  1.4684
 6719SOL     OW31792   1.759   4.260   2.931 -0.2006 -0.4938  0.5236
 6719SOL    HW131793   1.835   4.269   2.989 -1.1289 -1.0261  1.8336
 6719SOL    HW231794   1.705   4.218   2.998 -0.9834  0.5808  0.5731
 6720SOL     OW31795   1.920   0.223  10.213  0.2402 -0.0793 -0.6412
 6720SOL    HW131796   1.923   0.316  10.238 -1.9712 -0.0409 -0.5452
 6720SOL    HW231797   1.832   0.191  10.233  0.6612  0.5744  2.3126
 6721SOL     OW31798   4.067   0.664  10.281 -0.0701 -0.2604  0.4124
 6721SOL    HW131799   4.123   0.606  10.229 -0.8261 -1.7649  1.2864
 6721SOL    HW231800   4.005   0.678  10.209  0.3037 -0.9418 -0.0428
 6722SOL     OW31801   0.094   2.529  12.561  0.2168 -0.1963  0.0738
 6722SOL    HW131802   0.121   2.611  12.521  0.1141 -0.1398  0.1195
 6722SOL    HW231803   0.167   2.471  12.539 -1.1822 -1.8076 -0.3207
 6723SOL     OW31804   0.145   1.784   8.830 -0.0654  0.0306 -0.0205
 6723SOL    HW131805   0.241   1.785   8.838 -0.1631  0.1515  1.0324
 6723SOL    HW231806   0.127   1.863   8.880 -2.6522 -1.9646  2.1752
 6724SOL     OW31807   4.694   1.131  15.658  0.2254 -0.5146  0.4509
 6724SOL    HW131808   4.724   1.080  15.733 -2.2115  1.0314  2.4311
 6724SOL    HW231809   4.616   1.175  15.691 -1.4227 -1.4087 -2.2148
 6725SOL     OW31810   1.391   2.485  16.968 -0.1027  0.0002  0.6788
 6725SOL    HW131811   1.321   2.517  17.024 -0.2218  0.9667 -0.0390
 6725SOL    HW231812   1.377   2.529  16.885  0.3592 -3.3151 -1.1770
 6726SOL     OW31813   4.241   0.932   1.062 -0.3337 -0.1377 -0.3588
 6726SOL    HW131814   4.332   0.906   1.045 -0.2214  0.0990 -0.1090
 6726SOL    HW231815   4.225   0.886   1.144  0.2570 -0.1735 -0.2651
 6727SOL     OW31816   0.064   4.278  12.379  0.0504 -0.0438  0.1506
 6727SOL    HW131817   0.105   4.335  12.443 -1.2929  1.7962 -0.6204
 6727SOL    HW231818   0.094   4.324  12.300 -2.5918  2.4594  0.6181
 6728SOL     OW31819   0.087   0.583   9.548 -0.0223  0.5267  0.0588
 6728SOL    HW131820   0.013   0.616   9.599  0.1354  1.5368 -0.3739
 6728SOL    HW231821   0.106   0.497   9.586  0.5519  0.8363  0.4828
 6729SOL     OW31822   1.651   4.128   2.252  0.1182  0.1101  0.3837
 6729SOL    HW131823   1.701   4.107   2.331 -1.7205 -1.3447  1.1433
 6729SOL    HW231824   1.566   4.090   2.275 -0.6325  2.3701  1.3995
 6730SOL     OW31825   4.363   2.314  17.666  0.0165 -0.2712  0.3386
 6730SOL    HW131826   4.280   2.358  17.648 -0.4605 -0.0953  2.9795
 6730SOL    HW231827   4.418   2.346  17.595  0.5198  0.8257  1.2101
 6731SOL     OW31828   1.233   0.238   7.395  0.6002 -0.0498  0.5260
 6731SOL    HW131829   1.283   0.280   7.464  2.1504  0.2928 -0.8045
 6731SOL    HW231830   1.288   0.161   7.377 -0.2510 -1.0923  2.3594
 6732SOL     OW31831   2.870   1.043   5.462 -0.2720  0.1442  0.2168
 6732SOL    HW131832   2.823   1.104   5.519  0.8477 -0.1079  1.3883
 6732SOL    HW231833   2.799   1.002   5.412  2.1727 -2.4062 -1.1801
 6733SOL     OW31834   4.450   4.399   4.382  0.0156 -0.2633 -0.7309
 6733SOL    HW131835   4.373   4.429   4.431 -0.9315 -1.2682 -1.6080
 6733SOL    HW231836   4.463   4.314   4.424 -1.8511  0.0693  0.5520
 6734SOL     OW31837   0.001   1.357  15.904  0.2650  0.1108 -0.1151
 6734SOL    HW131838   0.040   1.273  15.930  2.3255  0.5932 -1.6335
 6734SOL    HW231839   4.685   1.366  15.985  0.7932  0.4369  0.1827
 6735SOL     OW31840   0.477   1.689   4.555  0.3990 -0.0203  0.2758
 6735SOL    HW131841   0.436   1.698   4.641  0.2949 -3.1258  0.5344
 6735SOL    HW231842   0.517   1.605   4.576  0.3791  0.3048  1.6171
 6736SOL     OW31843   3.529   0.771   5.788 -0.2919 -0.5612 -0.1564
 6736SOL    HW131844   3.510   0.704   5.854 -1.5353 -1.6885 -1.6498
 6736SOL    HW231845   3.543   0.717   5.710 -0.3147  0.0882 -0.6147
 6737SOL     OW31846   4.419   1.607  15.182  0.1283  0.1711  0.0915
 6737SOL    HW131847   4.401   1.673  15.115  0.2588 -0.0694 -0.1811
 6737SOL    HW231848   4.347   1.624  15.242 -1.2152  0.7826 -1.6982
 6738SOL     OW31849   2.238   1.674  10.386  0.2139  0.3181 -0.1477
 6738SOL    HW131850   2.175   1.658  10.315 -0.2664 -0.7876  0.5379
 6738SOL    HW231851   2.310   1.719  10.342  1.3528  0.4297  1.8330
 6739SOL     OW31852   4.049   3.812  15.021 -0.0402  0.3602 -0.0509
 6739SOL    HW131853   4.113   3.825  14.951  1.0354  0.3555  0.9178
 6739SOL    HW231854   4.102   3.762  15.083 -1.1757  0.7920  1.2621
 6740SOL     OW31855   3.636   2.172   5.443 -0.1290 -0.6658 -0.7610
 6740SOL    HW131856   3.727   2.140   5.441 -0.1006 -0.5824 -0.7767
 6740SOL    HW231857   3.605   2.113   5.513 -0.4598  1.4170  0.8426
 6741SOL     OW31858   4.050   0.833   7.395 -1.0211 -0.9133 -0.3981
 6741SOL    HW131859   3.958   0.834   7.368 -0.7186  1.0446 -1.3360
 6741SOL    HW231860   4.074   0.758   7.340 -0.5012 -2.4180  1.8935
 6742SOL     OW31861   0.396   1.429   0.946  0.1549  0.7825  1.0568
 6742SOL    HW131862   0.324   1.487   0.972  0.4085  1.2416  0.7336
 6742SOL    HW231863   0.465   1.493   0.928 -0.4956  0.4895 -2.4385
 6743SOL     OW31864   1.632   1.046   6.678 -0.7625 -0.3567 -0.1301
 6743SOL    HW131865   1.672   1.010   6.599 -2.5232  0.0581 -1.2098
 6743SOL    HW231866   1.638   0.972   6.738  0.9251 -0.9574 -1.0228
 6744SOL     OW31867   1.717   1.351   9.991  0.0203  0.3766  0.0637
 6744SOL    HW131868   1.720   1.439   9.952  0.6806  1.7395  3.1891
 6744SOL    HW231869   1.667   1.303   9.925  1.4702 -1.9630  0.6636
 6745SOL     OW31870   4.218   0.682   4.568  0.0046 -0.2944  0.4878
 6745SOL    HW131871   4.140   0.703   4.619 -1.1398  0.4767 -1.5938
 6745SOL    HW231872   4.181   0.602   4.530 -0.4154  0.2005 -0.1346
 6746SOL     OW31873   1.017   2.824   5.369  0.6889  0.2256 -0.0681
 6746SOL    HW131874   0.977   2.793   5.451  0.5283  1.3047  0.2682
 6746SOL    HW231875   0.935   2.835   5.320 -1.0748  0.2996  2.8327
 6747SOL     OW31876   3.409   2.673   1.288 -0.6326  0.5474  0.2359
 6747SOL    HW131877   3.373   2.736   1.350 -0.9645  0.6302 -0.0355
 6747SOL    HW231878   3.350   2.669   1.212  0.2931  2.6224 -0.5822
 6748SOL     OW31879   0.336   0.054   7.841 -0.6462  0.0400 -0.1760
 6748SOL    HW131880   0.329   0.040   7.935  0.6650 -0.1943 -0.1009
 6748SOL    HW231881   0.356   4.703   7.804 -0.8029  0.9570 -2.3958
 6749SOL     OW31882   4.432   0.485   4.248  0.2970 -0.0562  1.2450
 6749SOL    HW131883   4.418   0.580   4.240  0.4993 -0.1875 -0.8707
 6749SOL    HW231884   4.527   0.473   4.253  0.5868  1.3969 -0.4988
 6750SOL     OW31885   2.471   1.656   3.912  0.2347 -0.1940  0.6891
 6750SOL    HW131886   2.414   1.652   3.989  0.1673  0.9059  0.7037
 6750SOL    HW231887   2.427   1.722   3.858  0.5734 -0.5861 -0.0650
 6751SOL     OW31888   0.922   2.921   8.174  0.4211  0.0264  0.0691
 6751SOL    HW131889   0.998   2.966   8.209  1.7677 -0.7216 -1.8880
 6751SOL    HW231890   0.894   2.869   8.249  0.6286 -0.6737 -0.3403
 6752SOL     OW31891   3.064   1.232   1.375 -0.1955  0.0694 -0.1893
 6752SOL    HW131892   2.988   1.255   1.322 -0.8356 -1.3313  0.1149
 6752SOL    HW231893   3.040   1.154   1.424 -1.9670  0.5870 -0.2432
 6753SOL     OW31894   1.423   3.165   5.531  0.4657  0.3239  0.2098
 6753SOL    HW131895   1.514   3.184   5.507  0.8495 -2.0145 -0.1204
 6753SOL    HW231896   1.424   3.070   5.528 -3.0585  0.3362 -1.1359
 6754SOL     OW31897   1.557   2.092   9.111 -0.1979  0.2862 -0.0120
 6754SOL    HW131898   1.607   2.039   9.049 -1.7443 -3.1095  1.6268
 6754SOL    HW231899   1.579   2.051   9.195 -0.5029  0.9346  0.3777
 6755SOL     OW31900   3.498   3.238   6.867 -0.4070 -0.0750  0.5800
 6755SOL    HW131901   3.589   3.257   6.846 -1.1608  2.1421 -0.5879
 6755SOL    HW231902   3.482   3.319   6.915 -0.5785 -0.1353  0.6276
 6756SOL     OW31903   3.166   1.563   2.288 -0.6074  0.2622  0.3761
 6756SOL    HW131904   3.159   1.659   2.287 -0.2446  0.2738 -0.9063
 6756SOL    HW231905   3.172   1.551   2.194 -0.2009 -2.7179  0.7832
 6757SOL     OW31906   2.704   1.246  11.727 -0.4075  0.2389  0.0838
 6757SOL    HW131907   2.719   1.153  11.744 -0.0464  0.7202  2.3974
 6757SOL    HW231908   2.752   1.295  11.794  0.9331 -0.2795 -0.4868
 6758SOL     OW31909   4.078   2.670  17.428  0.2112 -0.2219 -0.0810
 6758SOL    HW131910   4.000   2.725  17.433 -0.5320 -1.1876 -0.9267
 6758SOL    HW231911   4.119   2.707  17.350  2.5597 -0.1241  1.2007
 6759SOL     OW31912   1.718   0.033  10.249 -0.7522 -0.3271 -0.1512
 6759SOL    HW131913   1.735   4.700  10.314 -1.3567  0.7191  1.0945
 6759SOL    HW231914   1.756   4.722  10.175 -0.4627 -0.9528  0.3863
 6760SOL     OW31915   2.674   4.380   5.966  0.2609  0.3055  0.2710
 6760SOL    HW131916   2.690   4.287   5.979 -1.5287  0.0904  1.0420
 6760SOL    HW231917   2.599   4.371   5.907 -0.8240  1.3800  1.4951
 6761SOL     OW31918   3.737   2.901   5.466  0.5443 -0.0263  0.8731
 6761SOL    HW131919   3.811   2.924   5.521 -0.8887  2.1226  1.9067
 6761SOL    HW231920   3.679   2.976   5.449  1.1366  0.6956  2.0402
 6762SOL     OW31921   1.382   2.771  10.412  0.2322 -0.3646  0.1099
 6762SOL    HW131922   1.395   2.677  10.397 -0.0064 -0.5823  1.2625
 6762SOL    HW231923   1.329   2.772  10.492 -0.5187 -0.2828 -0.3841
 6763SOL     OW31924   2.257   3.930   7.245 -0.1698  0.0274  0.3847
 6763SOL    HW131925   2.188   3.875   7.280  0.3971 -1.9240 -1.5845
 6763SOL    HW231926   2.291   3.978   7.321  1.4407  0.8922 -0.8756
 6764SOL     OW31927   4.399   3.106  11.266 -0.0670  0.5377  0.7552
 6764SOL    HW131928   4.331   3.174  11.268 -0.3631  0.2750 -0.3305
 6764SOL    HW231929   4.473   3.167  11.266  0.0344  0.4407 -1.5982
 6765SOL     OW31930   4.089   4.603   7.749  1.0222 -0.3037  0.6186
 6765SOL    HW131931   4.132   4.617   7.664 -1.6604  1.6218 -0.4097
 6765SOL    HW231932   4.151   4.650   7.805 -0.9722  1.6437  1.1977
 6766SOL     OW31933   3.927   3.956   7.276  0.6891  0.1061 -0.1482
 6766SOL    HW131934   3.986   3.882   7.262 -2.0258 -1.9427 -0.4953
 6766SOL    HW231935   3.994   4.023   7.292 -1.0444  1.3854  1.7910
 6767SOL     OW31936   1.086   1.501  12.783  0.1582  0.1603  0.3921
 6767SOL    HW131937   1.021   1.503  12.853 -0.5219 -0.5152 -0.2079
 6767SOL    HW231938   1.036   1.461  12.711  0.4943  0.8766 -0.2452
 6768SOL     OW31939   4.103   2.158   1.448  0.3636 -0.7000  0.1941
 6768SOL    HW131940   4.095   2.077   1.398  0.5751 -0.7486  0.2385
 6768SOL    HW231941   4.095   2.123   1.537  1.5101  0.6059  0.8154
 6769SOL     OW31942   2.553   1.432   5.010  0.1217  0.4110  0.0140
 6769SOL    HW131943   2.642   1.453   5.038  0.3301 -0.6585  0.1622
 6769SOL    HW231944   2.537   1.504   4.949  1.6690  1.4786  0.8757
 6770SOL     OW31945   2.220   3.373   8.884 -0.0482  0.0435  0.0616
 6770SOL    HW131946   2.242   3.371   8.791 -0.7066  2.7194 -0.1538
 6770SOL    HW231947   2.270   3.294   8.905 -2.7871 -0.8372  3.4348
 6771SOL     OW31948   1.806   1.321  15.780 -0.3883 -0.8722  0.3115
 6771SOL    HW131949   1.711   1.311  15.781 -0.4954  0.0890 -0.2568
 6771SOL    HW231950   1.844   1.239  15.812 -0.3339  0.2451  3.0988
 6772SOL     OW31951   1.673   0.956   6.425  0.1810  0.1757 -0.0198
 6772SOL    HW131952   1.755   0.972   6.379  1.1298 -1.8306  0.9739
 6772SOL    HW231953   1.610   1.014   6.383  0.4731 -0.5004 -1.3828
 6773SOL     OW31954   2.086   2.851   8.572 -0.3831 -0.0801 -0.3428
 6773SOL    HW131955   2.113   2.933   8.615  1.3636 -0.2354 -1.1201
 6773SOL    HW231956   2.108   2.877   8.483  0.6800 -1.4481 -0.4770
 6774SOL     OW31957   1.631   1.526   5.776 -0.5866 -0.0794 -0.2404
 6774SOL    HW131958   1.693   1.566   5.715  0.4549 -0.4687  0.5726
 6774SOL    HW231959   1.682   1.535   5.856  0.8833  1.0728 -1.3048
 6775SOL     OW31960   0.403   3.623   7.764  0.0107 -0.6122  0.0025
 6775SOL    HW131961   0.483   3.585   7.801  0.8499  0.4306 -0.7392
 6775SOL    HW231962   0.404   3.587   7.675  0.1985  1.1229 -0.6894
 6776SOL     OW31963   2.126   0.562   5.295 -0.3798 -0.1578 -0.1325
 6776SOL    HW131964   2.092   0.495   5.236  1.6006 -1.4033  0.1468
 6776SOL    HW231965   2.050   0.571   5.353 -0.7178 -2.3216 -0.2428
 6777SOL     OW31966   3.181   4.211  10.170 -0.0965  0.3476 -0.1474
 6777SOL    HW131967   3.179   4.161  10.252  0.8365  2.1504  0.9512
 6777SOL    HW231968   3.201   4.297  10.206  0.1924  0.4174 -0.4747
 6778SOL     OW31969   4.488   0.848   7.849 -0.1534 -0.3410 -0.5203
 6778SOL    HW131970   4.406   0.878   7.810 -0.8782 -1.3020  0.2781
 6778SOL    HW231971   4.483   0.874   7.941  3.0968  0.0573 -0.4522
 6779SOL     OW31972   1.626   1.910   1.384  0.1693 -0.3282 -0.8511
 6779SOL    HW131973   1.550   1.851   1.389  1.0687 -1.2913  1.1328
 6779SOL    HW231974   1.702   1.854   1.371 -1.1522 -1.9464 -1.6495
 6780SOL     OW31975   3.568   1.948   7.676  0.4003 -0.0647 -0.3522
 6780SOL    HW131976   3.591   2.020   7.618  2.1096 -0.5033 -0.2236
 6780SOL    HW231977   3.654   1.921   7.705 -0.3442 -0.3779  1.5428
 6781SOL     OW31978   2.829   3.087  14.596 -0.2282  0.7928  0.0561
 6781SOL    HW131979   2.877   3.078  14.514  0.0504  0.3294  0.2699
 6781SOL    HW231980   2.743   3.085  14.554 -0.1470 -0.9990  0.0112
 6782SOL     OW31981   0.345   0.702   8.788  0.2108 -0.8860  0.2709
 6782SOL    HW131982   0.289   0.635   8.827  1.8343 -4.0995 -2.9153
 6782SOL    HW231983   0.269   0.755   8.766  1.3256  0.3713 -0.5492
 6783SOL     OW31984   0.348   1.500  13.963 -0.6481 -0.1978 -0.1254
 6783SOL    HW131985   0.257   1.518  13.942 -0.5157  1.1973  0.5354
 6783SOL    HW231986   0.337   1.478  14.055  2.3365  0.4353  0.4026
 6784SOL     OW31987   2.977   4.156   2.850  0.1642 -0.4423  0.3122
 6784SOL    HW131988   2.918   4.081   2.857  1.1248 -1.1318  1.1540
 6784SOL    HW231989   3.060   4.107   2.852 -0.2941 -1.1882  0.8669
 6785SOL     OW31990   0.619   0.070   2.529  0.2171 -0.0909  0.3991
 6785SOL    HW131991   0.530   0.063   2.494  0.6704  3.1853 -1.3978
 6785SOL    HW231992   0.653   0.116   2.453  1.8188  1.5365  2.0858
 6786SOL     OW31993   0.532   2.179  15.027  0.0806 -0.0759  0.3770
 6786SOL    HW131994   0.500   2.114  14.964  0.7771  1.9711 -2.0972
 6786SOL    HW231995   0.516   2.130  15.107 -2.6026 -0.6305 -0.4880
 6787SOL     OW31996   2.877   0.636   8.367 -0.3085 -0.2196  0.0576
 6787SOL    HW131997   2.825   0.556   8.381  1.1730 -1.2906 -0.5563
 6787SOL    HW231998   2.806   0.696   8.388 -1.4824 -0.7466 -2.3321
 6788SOL     OW31999   3.429   2.141   9.006 -0.3163 -0.0921 -0.3908
 6788SOL    HW132000   3.380   2.148   8.924  0.0393 -1.2358 -0.7089
 6788SOL    HW232001   3.432   2.046   9.012  2.5626 -0.1303 -1.9727
 6789SOL     OW32002   1.560   0.338   2.999 -0.8759 -0.1820  0.3320
 6789SOL    HW132003   1.523   0.352   3.086  0.5848 -0.3395  0.9687
 6789SOL    HW232004   1.638   0.285   3.015 -2.4854 -2.6705  0.0293
 6790SOL     OW32005   1.625   0.706  12.268 -0.1870 -0.1356 -0.2014
 6790SOL    HW132006   1.695   0.680  12.328 -0.6471  0.9769  0.8314
 6790SOL    HW232007   1.649   0.795  12.242  0.0075 -0.3010 -0.5854
 6791SOL     OW32008   4.660   1.249   0.182 -0.1790  0.2740  0.0761
 6791SOL    HW132009   4.689   1.331   0.222  0.3643  0.0669  0.1068
 6791SOL    HW232010   0.008   1.205   0.167  0.1739  0.9612  0.0450
 6792SOL     OW32011   3.337   2.258   2.300  0.1590  0.1875 -0.0629
 6792SOL    HW132012   3.407   2.195   2.288 -0.5448 -0.5581 -0.2700
 6792SOL    HW232013   3.257   2.206   2.293 -0.1777  0.8217 -0.9079
 6793SOL     OW32014   3.838   2.774   7.202 -0.1568  0.0550 -0.2141
 6793SOL    HW132015   3.831   2.823   7.120 -3.5925  2.1536  1.3336
 6793SOL    HW232016   3.764   2.818   7.243  0.6828 -0.7531  2.1871
 6794SOL     OW32017   0.355   4.078  10.618  0.4679 -0.0516  0.4683
 6794SOL    HW132018   0.278   4.125  10.650 -0.2626 -0.8737 -0.0884
 6794SOL    HW232019   0.367   4.121  10.534 -0.7716  2.7796  1.7299
 6795SOL     OW32020   2.511   2.532  12.165  0.0567  0.5338 -0.7571
 6795SOL    HW132021   2.478   2.576  12.086  1.8434  1.4324 -0.9976
 6795SOL    HW232022   2.446   2.570  12.224  1.1086  0.6639  0.3041
 6796SOL     OW32023   2.760   3.437  16.596  0.1191  0.7695 -0.1005
 6796SOL    HW132024   2.826   3.430  16.664 -0.0416 -1.6823 -0.1834
 6796SOL    HW232025   2.808   3.406  16.519 -1.5785  0.3883 -1.0095
 6797SOL     OW32026   0.043   2.392  17.145 -0.0353 -0.0116 -0.1538
 6797SOL    HW132027   4.705   2.342  17.182 -0.6791  0.2703 -1.0449
 6797SOL    HW232028   0.103   2.393  17.220 -1.3600 -0.9279  0.9239
 6798SOL     OW32029   0.916   4.279   1.622 -0.4439 -0.3321  0.0217
 6798SOL    HW132030   0.870   4.357   1.651  1.1035  0.5782  0.0308
 6798SOL    HW232031   1.009   4.300   1.608 -0.6885  0.6791 -0.0573
 6799SOL     OW32032   2.082   4.101  13.608 -0.5861 -0.4954  0.7451
 6799SOL    HW132033   2.170   4.106  13.572 -0.8670 -1.8880 -0.1277
 6799SOL    HW232034   2.093   4.110  13.702 -1.3887  0.3544  0.7701
 6800SOL     OW32035   3.548   4.558   1.924 -0.5294 -0.1339  0.0253
 6800SOL    HW132036   3.526   4.522   1.838  0.4631 -3.9672  1.3882
 6800SOL    HW232037   3.639   4.529   1.932 -0.1130  1.4139  0.8948
 6801SOL     OW32038   2.766   1.048   2.079 -0.2810 -0.0344  0.7198
 6801SOL    HW132039   2.816   0.970   2.056 -2.9457 -0.9831 -1.7564
 6801SOL    HW232040   2.810   1.104   2.015  0.9984 -0.9700  0.7865
 6802SOL     OW32041   1.609   2.695   9.400  0.5408  0.1758 -0.2229
 6802SOL    HW132042   1.668   2.684   9.325  2.0962  0.0132  1.0195
 6802SOL    HW232043   1.551   2.619   9.402  0.0280  0.5990  1.2610
 6803SOL     OW32044   0.557   3.494   3.458 -0.0866  0.0481 -0.2153
 6803SOL    HW132045   0.560   3.466   3.367  2.2646  0.0788 -0.1535
 6803SOL    HW232046   0.534   3.415   3.506 -1.6422 -0.0482 -1.1066
 6804SOL     OW32047   3.601   0.135   1.072  0.6040 -0.5235  0.2400
 6804SOL    HW132048   3.604   0.072   1.144 -0.7804 -2.4432 -1.3707
 6804SOL    HW232049   3.694   0.156   1.072  0.0751  1.8370 -1.2152
 6805SOL     OW32050   3.177   1.945   6.903 -0.1776 -0.0656  0.3432
 6805SOL    HW132051   3.271   1.951   6.916  0.0268 -0.2317 -1.1146
 6805SOL    HW232052   3.156   2.032   6.937  2.4582  0.2546  1.1580
 6806SOL     OW32053   4.505   0.794   3.745  0.1725  0.4591 -0.6032
 6806SOL    HW132054   4.431   0.809   3.804 -2.2680  1.4708 -3.8694
 6806SOL    HW232055   4.581   0.805   3.802  0.9271 -3.4971 -0.8881
 6807SOL     OW32056   1.648   3.462   5.009  0.1408  0.5398  0.2194
 6807SOL    HW132057   1.664   3.548   4.970  2.4783  0.2180  0.4760
 6807SOL    HW232058   1.595   3.493   5.082  0.5031  3.3535 -0.7084
 6808SOL     OW32059   1.918   2.372   0.405 -0.0617  0.3444  0.2242
 6808SOL    HW132060   1.898   2.409   0.319  0.8438 -0.6337 -0.4281
 6808SOL    HW232061   1.900   2.445   0.464 -1.2073  0.7433 -0.6272
 6809SOL     OW32062   3.064   3.660  10.900 -0.0568 -0.6263 -0.0825
 6809SOL    HW132063   3.040   3.572  10.873  0.2764 -0.7411  0.0020
 6809SOL    HW232064   3.157   3.647  10.885 -0.2783 -2.6865  0.3312
 6810SOL     OW32065   0.352   1.031   4.480  0.0599  0.1244 -0.1475
 6810SOL    HW132066   0.363   1.097   4.412  0.2815 -0.8050 -1.0128
 6810SOL    HW232067   0.309   0.969   4.421  0.4808 -1.4110  1.1691
 6811SOL     OW32068   1.157   0.495   3.532 -0.4939  0.4710 -0.3200
 6811SOL    HW132069   1.136   0.574   3.581  1.0869  1.4057 -1.1403
 6811SOL    HW232070   1.138   0.512   3.439  0.5653  0.2141 -0.5799
 6812SOL     OW32071   4.314   0.025   7.631 -0.7016  0.6678 -0.4759
 6812SOL    HW132072   4.304   0.002   7.538 -0.8067  1.9162 -0.7740
 6812SOL    HW232073   4.298   0.119   7.628 -1.4921  0.5212 -1.1026
 6813SOL     OW32074   4.203   3.574   5.236  0.6549 -0.0637 -0.2517
 6813SOL    HW132075   4.248   3.594   5.154 -2.8147  0.7047 -1.9569
 6813SOL    HW232076   4.205   3.479   5.232 -1.7400 -0.1129 -0.2578
 6814SOL     OW32077   0.214   2.223   0.217  0.2373 -0.4805 -0.0338
 6814SOL    HW132078   0.175   2.136   0.222  0.5804 -0.5152  1.9129
 6814SOL    HW232079   0.296   2.211   0.265  2.1887  3.6966 -2.2810
 6815SOL     OW32080   2.354   0.029   1.775  0.2899 -0.3644  0.0898
 6815SOL    HW132081   2.286   4.715   1.822  0.2871 -0.3261  0.1262
 6815SOL    HW232082   2.299   0.071   1.709  2.9117  0.0559 -1.7985
 6816SOL     OW32083   1.072   2.542   9.061 -0.4248  0.0713 -0.4236
 6816SOL    HW132084   0.997   2.486   9.079 -0.7420 -0.1091 -2.2689
 6816SOL    HW232085   1.045   2.621   9.108 -2.2853 -1.0917  0.4127
 6817SOL     OW32086   0.175   4.388   3.673 -0.7834 -0.1451  0.1372
 6817SOL    HW132087   0.149   4.297   3.656 -2.6727  0.6568 -1.2860
 6817SOL    HW232088   0.257   4.380   3.721 -0.5517 -2.4467 -0.6458
 6818SOL     OW32089   2.854   3.323   9.442 -0.6583 -0.3091 -0.2089
 6818SOL    HW132090   2.859   3.413   9.409  0.0787 -0.0586  0.6044
 6818SOL    HW232091   2.938   3.308   9.486 -0.1146 -0.9160 -1.4518
 6819SOL     OW32092   3.882   0.684   6.482  0.4157  0.4730  0.3863
 6819SOL    HW132093   3.837   0.757   6.438  0.4941  0.1496 -0.2298
 6819SOL    HW232094   3.839   0.664   6.565 -1.6809 -1.0899 -1.0852
 6820SOL     OW32095   2.082   2.483   9.429  0.4480 -0.4579  0.0272
 6820SOL    HW132096   2.003   2.524   9.464 -1.0603 -2.8410 -0.6093
 6820SOL    HW232097   2.057   2.484   9.336 -0.9144 -0.2793  0.3993
 6821SOL     OW32098   4.425   1.218   6.839 -0.4978 -0.0415  0.4233
 6821SOL    HW132099   4.465   1.266   6.911  0.0123  1.0605 -0.5858
 6821SOL    HW232100   4.379   1.152   6.889  2.9264 -1.1886  2.0992
 6822SOL     OW32101   3.573   0.312   9.233  0.5973 -0.6329 -0.1647
 6822SOL    HW132102   3.645   0.258   9.201  1.4484  0.9421 -0.9390
 6822SOL    HW232103   3.582   0.316   9.328 -0.0665 -0.3423 -0.1144
 6823SOL     OW32104   3.815   3.375   3.740 -0.1404  0.4015 -0.4455
 6823SOL    HW132105   3.871   3.386   3.817 -0.4753 -1.7298  0.1213
 6823SOL    HW232106   3.855   3.422   3.667  0.5301  2.0448  0.9694
 6824SOL     OW32107   3.465   0.969   2.556  0.1855 -0.1864  0.4250
 6824SOL    HW132108   3.410   0.892   2.539 -0.2617  0.9432 -3.2339
 6824SOL    HW232109   3.395   1.033   2.538 -0.7129 -1.5321 -0.8795
 6825SOL     OW32110   4.714   1.357   0.459 -0.1015  0.1240  0.0774
 6825SOL    HW132111   4.629   1.340   0.499  0.1555 -1.1311  0.0819
 6825SOL    HW232112   0.028   1.283   0.496 -2.4796 -0.2731  2.4425
 6826SOL     OW32113   0.639   4.641   5.207 -0.2401 -0.2562  0.5217
 6826SOL    HW132114   0.699   4.598   5.146 -2.4604 -1.1954 -0.9960
 6826SOL    HW232115   0.675   4.729   5.217 -1.9980  0.9633 -3.7395
 6827SOL     OW32116   0.312   1.450  15.240 -0.2656  0.7502 -0.4343
 6827SOL    HW132117   0.354   1.505  15.307 -0.7852 -0.0823  0.5690
 6827SOL    HW232118   0.284   1.510  15.171 -2.0142 -0.4461 -0.7641
 6828SOL     OW32119   4.061   3.009   6.860  0.1275  0.2608  0.0152
 6828SOL    HW132120   4.039   2.953   6.785 -1.1308  0.4237  0.2515
 6828SOL    HW232121   4.052   3.091   6.811 -0.8251  0.3260  0.3011
 6829SOL     OW32122   0.609   3.382   8.825  0.8573 -0.1662  0.2703
 6829SOL    HW132123   0.528   3.399   8.777 -0.3564  1.5675  2.9257
 6829SOL    HW232124   0.602   3.288   8.837 -0.2133 -0.3109 -1.5332
 6830SOL     OW32125   0.382   3.533  11.338 -0.6999  0.4214  0.1093
 6830SOL    HW132126   0.392   3.621  11.373 -1.9719  1.4601 -2.1755
 6830SOL    HW232127   0.464   3.499  11.376  1.2494  2.6203 -2.1009
 6831SOL     OW32128   1.312   2.482   6.094 -0.3897 -0.2594 -0.1885
 6831SOL    HW132129   1.326   2.491   6.188 -0.0061 -0.6806 -0.2051
 6831SOL    HW232130   1.371   2.551   6.063 -0.8123 -0.7064 -2.0171
 6832SOL     OW32131   3.656   3.224  13.684  0.2588 -0.4944  0.2191
 6832SOL    HW132132   3.582   3.186  13.732  1.0270 -1.8522  0.3296
 6832SOL    HW232133   3.655   3.172  13.604  3.4321  0.4290 -0.4003
 6833SOL     OW32134   4.618   0.709   6.250  0.1411 -0.0924 -0.1330
 6833SOL    HW132135   4.650   0.797   6.233  2.6096 -1.1846 -1.1283
 6833SOL    HW232136   4.552   0.708   6.181 -0.6628  0.2160  0.6165
 6834SOL     OW32137   3.698   0.125   6.476 -0.0300 -0.3096  0.0934
 6834SOL    HW132138   3.647   0.126   6.557  1.4700  3.2170  1.0212
 6834SOL    HW232139   3.641   0.093   6.407  0.1736  1.1789 -0.7698
 6835SOL     OW32140   2.238   2.826  17.354  0.4010  0.2051 -0.5994
 6835SOL    HW132141   2.323   2.835  17.397  0.9622  0.1918 -1.7037
 6835SOL    HW232142   2.167   2.852  17.413  0.6445  0.4960 -0.4376
 6836SOL     OW32143   3.679   2.759   4.258  0.1270  0.2837 -0.0809
 6836SOL    HW132144   3.658   2.816   4.184  0.3373  3.0213  1.9687
 6836SOL    HW232145   3.672   2.819   4.332  2.1021  1.0288 -0.4944
 6837SOL     OW32146   2.163   3.539  15.604  1.0101  0.1890 -0.0446
 6837SOL    HW132147   2.182   3.451  15.636 -0.3253 -0.5091 -1.2064
 6837SOL    HW232148   2.074   3.543  15.571  1.4656 -1.2780 -1.4503
 6838SOL     OW32149   0.391   0.545   7.756  0.2362  0.7827 -0.3270
 6838SOL    HW132150   0.411   0.455   7.731 -0.2305  0.2272  1.2529
 6838SOL    HW232151   0.341   0.580   7.683  2.7098  1.4931 -1.6952
 6839SOL     OW32152   1.982   0.084   3.681 -0.1811 -0.5048 -0.3859
 6839SOL    HW132153   2.056   0.144   3.686 -0.6998  0.2971 -2.2465
 6839SOL    HW232154   2.013   0.006   3.635  1.2437 -1.0222  1.5054
 6840SOL     OW32155   1.533   4.407   3.064  0.2468 -0.0772 -0.2536
 6840SOL    HW132156   1.440   4.393   3.045  0.6100 -0.3268 -1.8319
 6840SOL    HW232157   1.551   4.318   3.093 -1.7064  0.0623  1.3922
 6841SOL     OW32158   0.167   0.128  15.001 -0.2366 -0.1984  0.3648
 6841SOL    HW132159   0.090   0.133  14.945  0.5832 -0.6159 -0.7962
 6841SOL    HW232160   0.142   0.192  15.067  1.3105  0.0614  0.7022
 6842SOL     OW32161   3.736   0.248   2.063 -0.6194  0.0024 -0.5188
 6842SOL    HW132162   3.761   0.156   2.071  1.7227  0.9481  3.0135
 6842SOL    HW232163   3.791   0.266   1.987  0.6330  2.2088  0.8620
 6843SOL     OW32164   3.586   0.397  10.192  0.2030  0.2972  0.3719
 6843SOL    HW132165   3.630   0.380  10.275 -0.5208 -0.6105  0.5814
 6843SOL    HW232166   3.618   0.331  10.130 -3.2500 -0.7685 -0.2848
 6844SOL     OW32167   0.160   1.365   7.235  0.5701 -0.2969  0.6278
 6844SOL    HW132168   0.237   1.328   7.278 -0.5986  0.6335  3.5232
 6844SOL    HW232169   0.122   1.434   7.291  2.6503  2.6498 -1.5783
 6845SOL     OW32170   3.970   2.547   4.581  0.2330 -0.3374 -0.0075
 6845SOL    HW132171   3.908   2.572   4.512 -0.7518 -1.0139  0.6225
 6845SOL    HW232172   4.053   2.525   4.540  0.8946  2.0232  0.0573
 6846SOL     OW32173   2.724   0.883   2.561 -0.2285 -0.1283  0.4969
 6846SOL    HW132174   2.792   0.913   2.621  0.0760 -2.1611  1.1453
 6846SOL    HW232175   2.721   0.952   2.494 -0.9662  0.7918  1.4813
 6847SOL     OW32176   1.888   0.230   5.015  0.5511  0.0465 -0.4099
 6847SOL    HW132177   1.810   0.246   4.962  1.2555  1.1631 -1.1095
 6847SOL    HW232178   1.861   0.166   5.081  1.7366 -0.4705 -0.4249
 6848SOL     OW32179   3.893   4.113   6.941  0.4083 -0.1025 -0.0676
 6848SOL    HW132180   3.874   4.206   6.946  1.7680  0.2970 -2.1580
 6848SOL    HW232181   3.864   4.090   7.030 -1.0245  0.5413 -0.3834
 6849SOL     OW32182   2.793   4.444   4.540  0.0366 -0.6662 -0.4634
 6849SOL    HW132183   2.760   4.519   4.490  1.1408 -0.5999 -1.0784
 6849SOL    HW232184   2.886   4.450   4.521  0.6114 -1.1430  2.1222
 6850SOL     OW32185   3.520   4.064  15.947  0.0870 -0.2331 -0.3179
 6850SOL    HW132186   3.535   4.028  16.034 -0.5307 -0.7612 -0.4324
 6850SOL    HW232187   3.426   4.063  15.930  0.0198  0.4383  0.0185
 6851SOL     OW32188   0.515   0.351   9.050  0.6089 -0.2361  0.1630
 6851SOL    HW132189   0.578   0.290   9.013 -0.9597 -1.9439  0.3317
 6851SOL    HW232190   0.433   0.302   9.043 -1.1227  2.5294  0.9602
 6852SOL     OW32191   1.332   2.331   5.252 -0.6221 -0.0323 -0.2357
 6852SOL    HW132192   1.408   2.275   5.271 -0.2846  0.9586  1.3389
 6852SOL    HW232193   1.342   2.393   5.324  0.8662  0.6723 -1.0395
 6853SOL     OW32194   2.562   2.971   8.131  0.2744 -0.0290  0.2938
 6853SOL    HW132195   2.556   2.955   8.037 -0.6478 -0.1747  0.3797
 6853SOL    HW232196   2.644   3.019   8.141  0.0342  0.1988  1.2023
 6854SOL     OW32197   3.420   0.326   6.351 -0.5266  0.2712  0.1221
 6854SOL    HW132198   3.426   0.408   6.302  0.0904 -0.3689 -0.8748
 6854SOL    HW232199   3.486   0.338   6.419  0.1171  2.5251 -0.9233
 6855SOL     OW32200   1.175   1.602  13.147  0.0582  0.2309 -0.2284
 6855SOL    HW132201   1.232   1.526  13.157 -0.8405 -0.7192 -2.2798
 6855SOL    HW232202   1.225   1.653  13.084 -0.0090  0.5207 -0.0456
 6856SOL     OW32203   1.941   3.340   4.410  0.1261  0.3655  0.1424
 6856SOL    HW132204   1.881   3.402   4.368  0.8026  1.2112  0.4067
 6856SOL    HW232205   2.013   3.395   4.442 -1.3849  1.4155  1.7470
 6857SOL     OW32206   0.309   3.660   2.455  0.4411 -0.4661 -0.6838
 6857SOL    HW132207   0.229   3.706   2.479  0.4483  0.6057 -2.6730
 6857SOL    HW232208   0.358   3.642   2.536  2.0499  0.6930 -1.3829
 6858SOL     OW32209   3.360   0.165   0.564  0.0217  0.4380 -0.0130
 6858SOL    HW132210   3.443   0.210   0.581 -0.6136  1.6975 -0.2898
 6858SOL    HW232211   3.333   0.156   0.656 -1.6578  0.6727 -0.4822
 6859SOL     OW32212   2.279   1.910   7.772 -0.3296  0.7065 -0.0919
 6859SOL    HW132213   2.238   1.880   7.853  2.2291  2.0841  1.7333
 6859SOL    HW232214   2.367   1.930   7.805 -0.2757  0.8731 -0.3337
 6860SOL     OW32215   0.553   2.906   1.836  1.1843  0.5785  0.0963
 6860SOL    HW132216   0.524   2.939   1.751 -0.3664  0.5337  0.6034
 6860SOL    HW232217   0.503   2.826   1.851  0.2777  0.6729 -2.5367
 6861SOL     OW32218   0.879   2.591   5.618 -0.0318  0.4434 -0.0158
 6861SOL    HW132219   0.965   2.557   5.591 -0.3788 -0.1641 -0.3650
 6861SOL    HW232220   0.824   2.563   5.546  2.8324  1.7762 -2.7106
 6862SOL     OW32221   3.640   3.512   2.120  0.6836  0.3486  0.2781
 6862SOL    HW132222   3.606   3.593   2.160 -0.3772  0.8215 -1.6006
 6862SOL    HW232223   3.729   3.528   2.150  0.8111  0.2176 -0.0393
 6863SOL     OW32224   1.612   1.222   1.587  0.6029 -0.3764  0.1579
 6863SOL    HW132225   1.604   1.159   1.515  0.1097  1.2102 -1.1766
 6863SOL    HW232226   1.597   1.311   1.555 -1.2505 -0.8192 -0.2251
 6864SOL     OW32227   1.537   3.395   9.059  0.2126 -0.0898 -0.1010
 6864SOL    HW132228   1.574   3.326   9.003 -0.2368 -0.1836 -0.2832
 6864SOL    HW232229   1.492   3.447   8.993  0.8811  0.6908  0.0686
 6865SOL     OW32230   3.509   0.793  15.395  0.0205  0.3187  0.1033
 6865SOL    HW132231   3.474   0.855  15.331  0.0919  0.4405  0.1822
 6865SOL    HW232232   3.592   0.834  15.421 -0.1177 -0.6482  2.0184
 6866SOL     OW32233   0.090   0.617   7.266  0.1230  0.5807  0.3134
 6866SOL    HW132234   4.733   0.627   7.289 -0.5620 -0.8156 -1.7958
 6866SOL    HW232235   0.114   0.708   7.248  2.1764 -0.0034  0.1700
 6867SOL     OW32236   2.009   2.229   9.989  0.8487  0.5121 -0.4769
 6867SOL    HW132237   2.041   2.277  10.066  2.2716 -0.0479 -0.7188
 6867SOL    HW232238   1.916   2.248   9.983  0.4729 -1.1648  0.2671
 6868SOL     OW32239   4.502   3.105   8.429  0.3379 -1.0252 -1.0148
 6868SOL    HW132240   4.534   3.025   8.388  1.7675 -0.0040 -1.8565
 6868SOL    HW232241   4.505   3.079   8.521 -1.0643 -0.2960 -0.7544
 6869SOL     OW32242   0.141   3.306   6.328 -0.8097 -0.5969  0.9198
 6869SOL    HW132243   0.208   3.238   6.321  0.9598  0.9374  2.6642
 6869SOL    HW232244   0.160   3.351   6.246 -0.7090 -1.4868  0.4522
 6870SOL     OW32245   0.619   0.520   7.124 -0.0330  0.8157 -0.1056
 6870SOL    HW132246   0.635   0.466   7.046 -1.9298  0.3381 -0.1711
 6870SOL    HW232247   0.525   0.534   7.113  0.3765  1.5680 -2.9642
 6871SOL     OW32248   2.010   1.973   5.250 -0.4593 -0.3717 -0.2652
 6871SOL    HW132249   1.988   2.036   5.182  0.0596 -0.3277 -0.3961
 6871SOL    HW232250   2.096   1.945   5.217 -0.7386 -0.4131 -0.9558
 6872SOL     OW32251   0.515   0.277   8.106 -0.5131  0.2738  0.0096
 6872SOL    HW132252   0.562   0.249   8.185 -1.0915  1.2408  0.7138
 6872SOL    HW232253   0.553   0.230   8.032  0.4917 -0.4699  0.9819
 6873SOL     OW32254   0.826   3.427   3.820  0.3140  0.2411 -0.0402
 6873SOL    HW132255   0.823   3.477   3.739  2.9218  0.1031 -0.2465
 6873SOL    HW232256   0.921   3.411   3.825  0.2123 -0.0939  0.8050
 6874SOL     OW32257   1.623   1.401  15.497 -0.0014 -0.0973 -0.0653
 6874SOL    HW132258   1.714   1.428  15.482 -0.4720  1.2175 -0.5665
 6874SOL    HW232259   1.580   1.487  15.501 -2.4695 -1.4213  1.6234
 6875SOL     OW32260   1.105   1.892  17.714 -0.3881  0.4522 -0.2497
 6875SOL    HW132261   1.010   1.884  17.729 -0.4438  1.4291 -0.0993
 6875SOL    HW232262   1.140   1.805  17.736 -0.4415  0.1101 -1.5491
 6876SOL     OW32263   3.723   1.397   8.951 -0.1453  0.1474  0.4086
 6876SOL    HW132264   3.699   1.424   9.040 -0.6446  0.2722  0.2399
 6876SOL    HW232265   3.734   1.304   8.969 -0.8586  0.0210  0.2238
 6877SOL     OW32266   4.185   3.635  15.169  0.5882  0.3656  0.3660
 6877SOL    HW132267   4.112   3.601  15.221  1.6176 -1.9392  0.2997
 6877SOL    HW232268   4.241   3.558  15.158 -1.8082 -1.5889  2.0141
 6878SOL     OW32269   1.002   3.215  13.214  0.6118 -0.0311  0.0958
 6878SOL    HW132270   0.967   3.303  13.228 -1.6301 -0.9861  0.5699
 6878SOL    HW232271   1.074   3.217  13.277  1.0172 -0.9677 -0.3515
 6879SOL     OW32272   2.391   3.761   1.607 -0.3331  0.2648 -0.1151
 6879SOL    HW132273   2.301   3.783   1.632 -0.4849  0.0328 -0.4549
 6879SOL    HW232274   2.409   3.684   1.660  1.7695  1.2219  0.5570
 6880SOL     OW32275   0.429   2.985  13.065 -0.0470 -0.1093  0.0929
 6880SOL    HW132276   0.450   2.914  13.005  0.0598 -0.5133  0.6131
 6880SOL    HW232277   0.377   2.954  13.140 -0.4338  0.4978  0.0785
 6881SOL     OW32278   2.184   3.376   8.449 -0.3652 -0.0343  0.3768
 6881SOL    HW132279   2.157   3.374   8.357  0.4122 -0.6150  0.1519
 6881SOL    HW232280   2.115   3.328   8.494  0.5094  0.2201  1.9835
 6882SOL     OW32281   0.085   3.184   8.566  0.2802  0.4505  0.2271
 6882SOL    HW132282   0.065   3.109   8.621 -1.8721  0.3663 -0.6944
 6882SOL    HW232283   0.153   3.145   8.511  0.8503  1.5668  0.1340
 6883SOL     OW32284   1.147   1.229  14.576  0.2445  1.2045 -0.2455
 6883SOL    HW132285   1.070   1.280  14.600 -0.1070  0.7962 -0.4996
 6883SOL    HW232286   1.165   1.197  14.664 -0.7860 -0.6895 -0.7023
 6884SOL     OW32287   3.395   1.142   0.625  0.5454  0.6313  0.0229
 6884SOL    HW132288   3.305   1.111   0.628  0.8623 -0.2920 -0.3293
 6884SOL    HW232289   3.388   1.193   0.544 -2.2619 -0.3280 -0.3520
 6885SOL     OW32290   4.180   3.862   6.144 -0.1297 -0.3708  0.1414
 6885SOL    HW132291   4.202   3.888   6.234  2.0205  0.6069 -0.6515
 6885SOL    HW232292   4.229   3.781   6.137  1.1871  0.1376  3.6125
 6886SOL     OW32293   1.871   1.160  11.519  0.1891 -0.2194  0.6190
 6886SOL    HW132294   1.890   1.124  11.432 -1.9072  0.6016 -0.1502
 6886SOL    HW232295   1.912   1.093  11.575 -1.0732 -3.5418 -2.4579
 6887SOL     OW32296   4.028   1.458   3.075  0.5808 -0.0779  0.3352
 6887SOL    HW132297   3.979   1.466   3.157  0.2949 -1.2653  0.2789
 6887SOL    HW232298   3.960   1.430   3.013 -1.6329  1.2266  2.1646
 6888SOL     OW32299   1.868   4.520   1.893 -0.1362 -0.3875  0.1958
 6888SOL    HW132300   1.815   4.568   1.956  1.1827  1.1200  0.1705
 6888SOL    HW232301   1.797   4.484   1.840 -1.2121 -0.1411  1.4841
 6889SOL     OW32302   3.753   4.073   2.747 -0.6692  0.1262  0.1153
 6889SOL    HW132303   3.772   3.980   2.738 -0.8192  0.1265 -0.2231
 6889SOL    HW232304   3.833   4.125   2.752  0.7962 -2.2142  0.8880
 6890SOL     OW32305   2.958   3.438   8.969  0.1163 -0.3672 -0.1522
 6890SOL    HW132306   2.921   3.470   9.052 -1.0782 -1.0395 -0.4260
 6890SOL    HW232307   3.036   3.389   8.993  1.7631  1.6170 -1.3560
 6891SOL     OW32308   0.460   3.443  15.181  0.0984  0.4989  0.2237
 6891SOL    HW132309   0.453   3.538  15.169  0.2059  0.5339  0.4278
 6891SOL    HW232310   0.551   3.419  15.163 -0.0048 -0.6141  1.2302
 6892SOL     OW32311   1.572   2.091   4.348 -0.4142 -0.1342  0.2218
 6892SOL    HW132312   1.656   2.133   4.332  0.6463 -1.8637  1.2025
 6892SOL    HW232313   1.591   2.001   4.321 -0.6752  0.0482 -0.5788
 6893SOL     OW32314   3.587   0.436   9.528 -0.6893  0.4272 -0.1750
 6893SOL    HW132315   3.639   0.492   9.471  1.2805 -1.6866 -0.4379
 6893SOL    HW232316   3.542   0.505   9.578  1.5488  1.1430  0.8792
 6894SOL     OW32317   2.378   2.830   3.497  0.1526  0.1898 -0.1354
 6894SOL    HW132318   2.467   2.795   3.511 -0.0454 -0.6457 -1.0066
 6894SOL    HW232319   2.399   2.915   3.458  1.0328 -0.4321 -0.9966
 6895SOL     OW32320   2.034   0.279   8.412 -0.2026 -0.4731  0.1150
 6895SOL    HW132321   1.986   0.257   8.491  0.1785 -0.3070  0.3935
 6895SOL    HW232322   1.969   0.340   8.377  2.6949  0.8340 -2.9807
 6896SOL     OW32323   2.123   3.732   1.759 -0.2952  0.1430 -0.5404
 6896SOL    HW132324   2.077   3.801   1.711 -0.9692  0.8349  1.0846
 6896SOL    HW232325   2.069   3.722   1.838 -1.3031 -2.6695 -1.6039
 6897SOL     OW32326   4.027   0.904   8.457 -0.1863 -0.0669  0.1143
 6897SOL    HW132327   4.119   0.908   8.430 -0.4483 -0.4197 -0.8189
 6897SOL    HW232328   4.020   0.811   8.476 -0.0134  0.1559  1.3088
 6898SOL     OW32329   0.354   1.235   0.211  0.1374  0.4574 -0.4973
 6898SOL    HW132330   0.381   1.260   0.300 -1.1927 -2.6246  0.7845
 6898SOL    HW232331   0.289   1.300   0.186  0.1318  0.4818 -0.4194
 6899SOL     OW32332   0.284   3.257  15.136 -0.1570  0.5358  0.3596
 6899SOL    HW132333   0.219   3.325  15.120 -0.5155 -0.6522 -3.1806
 6899SOL    HW232334   0.362   3.312  15.146 -1.9419  2.9158  0.9493
 6900SOL     OW32335   2.401   0.214   7.879  0.4710 -0.4660 -0.1709
 6900SOL    HW132336   2.393   0.235   7.972  0.4619 -2.3266  0.2421
 6900SOL    HW232337   2.412   0.302   7.843  3.5664 -0.1739  1.4696
 6901SOL     OW32338   2.976   2.581   3.883  0.1873 -0.1539 -0.0549
 6901SOL    HW132339   2.891   2.617   3.858  0.3540  0.6058  0.4622
 6901SOL    HW232340   3.009   2.534   3.806 -2.0224 -1.4387 -0.2218
 6902SOL     OW32341   4.023   3.427   1.954 -0.5191  0.1250  0.2344
 6902SOL    HW132342   3.987   3.365   2.017 -1.1111 -1.8791 -2.0453
 6902SOL    HW232343   4.105   3.386   1.928  0.3994  0.8518  2.0462
 6903SOL     OW32344   4.204   1.313  12.543 -0.0752 -0.1012  0.2533
 6903SOL    HW132345   4.196   1.277  12.631 -0.1042 -0.3924  0.1301
 6903SOL    HW232346   4.142   1.385  12.549  0.7054  0.4588  1.7085
 6904SOL     OW32347   1.489   3.652   4.099 -0.3755 -0.6038  0.5872
 6904SOL    HW132348   1.542   3.652   4.020 -0.8044  0.7314  0.3012
 6904SOL    HW232349   1.553   3.623   4.164 -1.0837 -1.0305  1.1033
 6905SOL     OW32350   1.103   0.649   4.625  0.3592  0.5063  0.0749
 6905SOL    HW132351   1.080   0.711   4.556 -1.1492 -0.2063 -0.0742
 6905SOL    HW232352   1.100   0.567   4.577  3.0164 -0.2423  1.1908
 6906SOL     OW32353   2.425   4.105  13.765 -0.0252  0.0827  0.0607
 6906SOL    HW132354   2.412   4.039  13.833  2.0697 -1.3254 -0.9185
 6906SOL    HW232355   2.335   4.136  13.760 -0.1638 -0.5721 -1.5244
 6907SOL     OW32356   4.091   2.452   2.791  0.0411 -0.0069  0.5661
 6907SOL    HW132357   4.125   2.540   2.807  1.6349 -0.5631  0.2315
 6907SOL    HW232358   4.057   2.427   2.877  1.1003  0.9319  1.2474
 6908SOL     OW32359   3.884   1.986   9.696 -0.0560  0.1883 -0.3122
 6908SOL    HW132360   3.973   1.952   9.684  0.4355  1.5031 -0.3439
 6908SOL    HW232361   3.895   2.078   9.673  0.2494  1.0722  3.2510
 6909SOL     OW32362   1.510   1.152  10.045 -0.4475 -0.1519  0.0902
 6909SOL    HW132363   1.525   1.096   9.968 -0.6418 -0.6541  0.4169
 6909SOL    HW232364   1.597   1.140  10.083 -0.0656  0.0835 -0.7155
 6910SOL     OW32365   4.289   1.718   6.696 -0.2401  0.5043 -0.0847
 6910SOL    HW132366   4.345   1.752   6.766  0.9475  0.3250 -0.9600
 6910SOL    HW232367   4.325   1.629   6.688  0.2785  0.7125 -0.0647
 6911SOL     OW32368   0.110   2.749  17.544 -0.4350  0.2555 -0.1823
 6911SOL    HW132369   0.125   2.741  17.450 -2.1686 -1.0280 -0.3467
 6911SOL    HW232370   0.136   2.833  17.582  2.2201 -0.7163  0.1856
 6912SOL     OW32371   0.098   3.953   0.844 -0.2925 -0.3975  0.1815
 6912SOL    HW132372   0.005   3.955   0.863 -0.5827 -4.3303 -0.8497
 6912SOL    HW232373   0.126   4.030   0.894 -1.2254 -0.5933  1.0003
 6913SOL     OW32374   4.160   3.916   1.628  0.3166  0.0791  0.5693
 6913SOL    HW132375   4.249   3.883   1.635  0.2960  0.1521  1.1949
 6913SOL    HW232376   4.114   3.832   1.626 -0.6656  0.5683  2.4286
 6914SOL     OW32377   0.546   3.942   9.931 -0.2359 -0.0323  0.3700
 6914SOL    HW132378   0.545   3.896  10.015 -0.0952 -0.1720  0.2967
 6914SOL    HW232379   0.633   3.918   9.898 -0.0390  0.9787  0.1712
 6915SOL     OW32380   2.371   1.310   6.331  0.0016  0.0504  0.0350
 6915SOL    HW132381   2.401   1.389   6.286 -0.9500 -1.0637 -2.5628
 6915SOL    HW232382   2.341   1.333   6.419  1.3671  1.3593  0.1502
 6916SOL     OW32383   4.710   1.211   4.300 -0.2248 -0.2040  0.1898
 6916SOL    HW132384   4.704   1.270   4.225  0.1775  0.3805  0.6156
 6916SOL    HW232385   0.066   1.215   4.328  0.2390 -0.5096 -1.2791
 6917SOL     OW32386   3.805   0.149   3.525  0.0929 -0.1832  0.3457
 6917SOL    HW132387   3.743   0.172   3.456  0.5432  1.0909  0.3691
 6917SOL    HW232388   3.757   0.186   3.598  0.9315  0.0947  0.7562
 6918SOL     OW32389   1.467   4.214   8.392 -0.1437  0.0823 -0.2014
 6918SOL    HW132390   1.443   4.143   8.451 -0.0872  1.5639  1.6003
 6918SOL    HW232391   1.393   4.212   8.331  0.4798 -1.2414 -0.9113
 6919SOL     OW32392   0.492   1.423   6.613 -0.0665  0.1519 -0.0064
 6919SOL    HW132393   0.431   1.357   6.580  2.0318 -1.5552 -0.4603
 6919SOL    HW232394   0.513   1.456   6.526  1.3939 -0.3413  0.1617
 6920SOL     OW32395   0.794   1.740   0.712 -0.3016 -0.1470  0.2027
 6920SOL    HW132396   0.765   1.830   0.728 -1.9437 -1.2250  3.3549
 6920SOL    HW232397   0.739   1.714   0.638 -1.5905 -0.1812  1.1802
 6921SOL     OW32398   3.581   2.715  14.969 -0.3408 -0.8795 -0.2217
 6921SOL    HW132399   3.519   2.728  14.898 -0.5660 -1.8626 -0.2143
 6921SOL    HW232400   3.656   2.682  14.920 -0.9154 -1.3284 -0.7971
 6922SOL     OW32401   0.643   2.229   4.569 -0.8166  0.1988 -0.4629
 6922SOL    HW132402   0.576   2.289   4.601 -0.6591 -0.3594  0.9196
 6922SOL    HW232403   0.689   2.296   4.518 -2.0796  0.3481 -1.4276
 6923SOL     OW32404   3.560   3.466   3.651 -0.1169  0.3899  0.1884
 6923SOL    HW132405   3.647   3.427   3.660  0.2067  1.1975  0.5540
 6923SOL    HW232406   3.560   3.475   3.556 -0.7595 -0.4837  0.1053
 6924SOL     OW32407   1.799   0.318   3.417 -0.3417  0.3008  0.7732
 6924SOL    HW132408   1.743   0.263   3.362  0.2716 -0.8176  1.2709
 6924SOL    HW232409   1.774   0.289   3.505  0.0270 -0.9139  0.4745
 6925SOL     OW32410   1.598   2.317   6.118 -0.2532 -0.2495  0.3438
 6925SOL    HW132411   1.569   2.305   6.209  0.7548 -1.2155  0.5487
 6925SOL    HW232412   1.693   2.326   6.129  0.0037  0.0393 -2.0733
 6926SOL     OW32413   1.848   4.324   3.377 -0.1192 -0.2548  0.1062
 6926SOL    HW132414   1.881   4.401   3.329  1.1962  1.3273  3.5349
 6926SOL    HW232415   1.756   4.350   3.376  0.2973  1.2842  1.2349
 6927SOL     OW32416   4.508   3.782   2.062  0.5053  0.1876  0.2844
 6927SOL    HW132417   4.553   3.836   1.998  3.0467 -0.4007  1.5952
 6927SOL    HW232418   4.446   3.739   2.004  2.2030  0.2879 -1.5927
 6928SOL     OW32419   2.931   2.776  11.782  0.6611  0.4041 -0.0972
 6928SOL    HW132420   2.909   2.828  11.705 -2.5060 -0.6907  0.0652
 6928SOL    HW232421   2.850   2.728  11.796  1.9588 -0.9672  2.7417
 6929SOL     OW32422   3.101   1.522   6.046  0.1644 -0.2151  0.4227
 6929SOL    HW132423   3.012   1.532   6.011  0.3063  2.8793  0.9688
 6929SOL    HW232424   3.156   1.584   5.998  0.1174 -0.0304  0.6089
 6930SOL     OW32425   3.474   1.055   1.943  0.2592 -0.1497 -0.3389
 6930SOL    HW132426   3.508   1.144   1.934  0.5951 -0.2665 -0.1987
 6930SOL    HW232427   3.536   1.011   1.886  1.5075 -0.6216  1.3760
 6931SOL     OW32428   4.530   1.579   6.943  0.3775  0.0132  0.2205
 6931SOL    HW132429   4.525   1.556   7.036 -2.1808  2.7489  0.7806
 6931SOL    HW232430   4.548   1.673   6.955 -0.8781 -0.0935  3.0005
 6932SOL     OW32431   0.387   0.511   9.777  0.5100  0.4947  0.9421
 6932SOL    HW132432   0.299   0.474   9.771  1.5233 -1.6674 -0.6870
 6932SOL    HW232433   0.423   0.428   9.746  0.3366 -0.9450  4.6436
 6933SOL     OW32434   1.719   1.085   2.086  0.5306  0.0547  0.0660
 6933SOL    HW132435   1.781   1.012   2.074  0.0885 -0.5787  1.6577
 6933SOL    HW232436   1.708   1.108   1.993 -0.3926  0.6948  0.3399
 6934SOL     OW32437   2.687   0.988   2.926 -0.2892  0.0420  0.4312
 6934SOL    HW132438   2.767   0.941   2.903  0.0390  1.0457 -0.4679
 6934SOL    HW232439   2.641   0.924   2.980  0.9260 -0.2570  1.1212
 6935SOL     OW32440   2.490   4.591   3.936  0.5317  0.1868 -0.3952
 6935SOL    HW132441   2.564   4.537   3.909  1.0306  1.2256 -1.0927
 6935SOL    HW232442   2.435   4.524   3.977 -0.0029  0.0591 -1.3272
 6936SOL     OW32443   0.829   0.116   4.635  0.2152 -0.0479 -0.3885
 6936SOL    HW132444   0.893   0.136   4.702 -1.1346 -0.9361  1.1621
 6936SOL    HW232445   0.803   0.204   4.608  2.5286  0.6136 -0.4810
 6937SOL     OW32446   0.252   0.270  15.902 -0.1585 -0.2807  0.3240
 6937SOL    HW132447   0.264   0.204  15.969 -0.4962  0.2038  0.8646
 6937SOL    HW232448   0.313   0.340  15.924  0.3641 -0.9629  1.0142
 6938SOL     OW32449   1.624   2.786   4.524 -0.1937  0.5506  0.4525
 6938SOL    HW132450   1.605   2.842   4.599  2.7296 -0.8701  2.2570
 6938SOL    HW232451   1.602   2.701   4.561  0.8547  0.4856  0.9222
 6939SOL     OW32452   2.127   3.486   3.157 -0.5372 -0.0687  0.2122
 6939SOL    HW132453   2.081   3.509   3.077 -0.6660  2.2740  0.9454
 6939SOL    HW232454   2.212   3.526   3.141 -0.4734 -0.2541  0.0986
 6940SOL     OW32455   4.703   3.202   6.124  0.4745 -0.0969  0.4779
 6940SOL    HW132456   0.060   3.194   6.098  0.0189  0.4463 -1.3185
 6940SOL    HW232457   4.697   3.114   6.160  2.6408  0.8465  3.1787
 6941SOL     OW32458   3.647   4.631  14.187 -0.3700 -0.2419  0.0596
 6941SOL    HW132459   3.571   4.575  14.169 -0.4168  0.1580 -0.9812
 6941SOL    HW232460   3.685   4.645  14.101  0.6193  0.3926  0.5939
 6942SOL     OW32461   0.371   3.160   4.446  0.3303 -0.3325  1.0862
 6942SOL    HW132462   0.284   3.184   4.479 -0.5156 -0.4145 -1.0316
 6942SOL    HW232463   0.429   3.193   4.514  1.7178  0.3461 -0.3980
 6943SOL     OW32464   4.450   3.991   9.169 -0.0618 -0.1148 -0.1507
 6943SOL    HW132465   4.436   4.029   9.083  1.0848 -0.9423 -0.7048
 6943SOL    HW232466   4.489   4.073   9.201 -0.8013 -0.4250  1.5501
 6944SOL     OW32467   3.872   0.298   8.078  0.2495  0.1201 -0.2156
 6944SOL    HW132468   3.822   0.346   8.143 -1.2574 -2.1648  0.3088
 6944SOL    HW232469   3.821   0.285   7.998 -1.8805 -2.2785  1.5255
 6945SOL     OW32470   0.578   1.492   2.809 -0.4333  0.9707 -0.3462
 6945SOL    HW132471   0.568   1.489   2.714  1.4572  0.3104 -0.5368
 6945SOL    HW232472   0.565   1.400   2.831 -0.0510  0.9340 -0.2787
 6946SOL     OW32473   1.191   0.569   3.092 -0.1242 -0.2519 -0.2477
 6946SOL    HW132474   1.235   0.653   3.085  0.6474 -0.5237  1.4247
 6946SOL    HW232475   1.225   0.514   3.021 -1.0869 -0.3462 -0.6396
 6947SOL     OW32476   0.007   1.081  13.553 -0.0236  0.1354 -0.7047
 6947SOL    HW132477   0.006   1.175  13.569  1.1601 -0.3639  2.4103
 6947SOL    HW232478   0.098   1.063  13.530  0.3395  0.4306  0.4703
 6948SOL     OW32479   1.324   0.092   3.521  0.1939 -0.3426  0.1897
 6948SOL    HW132480   1.395   0.153   3.543  0.1408  0.0121 -0.6134
 6948SOL    HW232481   1.251   0.128   3.570  1.8619  1.8923  1.0450
 6949SOL     OW32482   1.569   3.587   9.278 -0.0425 -0.0346 -0.1700
 6949SOL    HW132483   1.572   3.535   9.198  1.0912  0.9710 -0.7882
 6949SOL    HW232484   1.610   3.529   9.341  0.8063 -0.2529 -0.9153
 6950SOL     OW32485   3.618   1.669   6.035 -0.2301  0.5884  0.3593
 6950SOL    HW132486   3.583   1.616   6.107 -2.2204 -0.8557 -1.7109
 6950SOL    HW232487   3.621   1.602   5.967 -2.5401  1.7389 -0.8452
 6951SOL     OW32488   3.009   2.662   7.570  0.7653  0.3190  0.4786
 6951SOL    HW132489   3.064   2.602   7.620  0.4990  0.7720  1.3040
 6951SOL    HW232490   3.085   2.681   7.515  0.1745  0.2163 -0.3749
 6952SOL     OW32491   4.173   1.521   7.409 -0.2731 -0.2403 -0.0130
 6952SOL    HW132492   4.206   1.602   7.369 -0.8503 -0.1774 -0.3589
 6952SOL    HW232493   4.135   1.473   7.335 -1.9723  1.1231 -0.0235
 6953SOL     OW32494   4.064   0.152  14.200 -0.4804 -0.0519  0.3637
 6953SOL    HW132495   3.985   0.178  14.247 -2.1814 -2.2361 -1.3008
 6953SOL    HW232496   4.057   0.057  14.202 -1.2252  0.0464  1.8297
 6954SOL     OW32497   2.041   2.128   9.553  0.6100  0.2210  0.2576
 6954SOL    HW132498   2.017   2.198   9.614 -0.6284  0.4084 -0.4434
 6954SOL    HW232499   2.003   2.152   9.468  0.9901  0.2049  0.0842
 6955SOL     OW32500   2.601   2.562  17.159 -0.5834 -0.8105  0.3190
 6955SOL    HW132501   2.584   2.491  17.097 -1.6016  1.5183 -2.1018
 6955SOL    HW232502   2.532   2.623  17.132 -1.1858 -1.8699 -0.5251
 6956SOL     OW32503   2.616   2.645   2.210 -0.3871  0.6751  0.1070
 6956SOL    HW132504   2.678   2.656   2.138 -0.0864  0.2392  0.2989
 6956SOL    HW232505   2.637   2.712   2.274 -0.5176 -0.6997  1.5823
 6957SOL     OW32506   3.801   2.594   2.241 -0.0376  0.0814  0.3098
 6957SOL    HW132507   3.794   2.517   2.184 -1.2557 -1.2480  2.2822
 6957SOL    HW232508   3.893   2.613   2.220  0.0498 -1.4153 -0.6640
 6958SOL     OW32509   4.219   0.329  14.837 -0.8849 -0.6107 -0.0463
 6958SOL    HW132510   4.310   0.316  14.865 -1.2720 -1.1776  0.9402
 6958SOL    HW232511   4.216   0.409  14.786 -1.6077  0.1359  1.1643
 6959SOL     OW32512   0.617   3.319   2.469 -0.3299  0.1115  0.5737
 6959SOL    HW132513   0.532   3.316   2.425  0.3247 -0.5209 -0.6463
 6959SOL    HW232514   0.640   3.226   2.479 -0.6174 -0.1940 -1.5985
 6960SOL     OW32515   1.380   2.387  12.536  0.3411 -0.3443 -0.2038
 6960SOL    HW132516   1.408   2.431  12.617  1.4713 -0.0856 -0.7433
 6960SOL    HW232517   1.414   2.299  12.550  0.0068 -0.3848  0.3677
 6961SOL     OW32518   2.065   4.322   4.286  0.5405  0.0709  0.5727
 6961SOL    HW132519   2.070   4.369   4.369 -0.5450 -0.6377  1.0577
 6961SOL    HW232520   2.019   4.392   4.239  0.3673  0.3898  1.2141
 6962SOL     OW32521   1.660   0.080   5.291 -0.3189 -0.1184  0.1132
 6962SOL    HW132522   1.577   0.097   5.335  0.8703 -0.2444  2.4409
 6962SOL    HW232523   1.639   0.029   5.214 -1.4884  0.4990  0.0285
 6963SOL     OW32524   1.779   2.022   2.376 -0.2896 -0.0979  0.2372
 6963SOL    HW132525   1.785   1.980   2.290 -0.8399  1.5340 -0.6020
 6963SOL    HW232526   1.691   1.999   2.405  0.4713 -1.5648  1.3315
 6964SOL     OW32527   0.183   2.679   3.665  0.5342 -0.9317  0.6701
 6964SOL    HW132528   0.113   2.614   3.653 -1.5868  1.2696  1.0254
 6964SOL    HW232529   0.131   2.741   3.716 -3.2486 -3.4228 -0.1379
 6965SOL     OW32530   3.349   2.668   2.118  0.3651  0.4234  0.1948
 6965SOL    HW132531   3.261   2.681   2.082  0.0085 -0.3621  0.7653
 6965SOL    HW232532   3.365   2.576   2.097  1.4239  0.9342 -1.2273
 6966SOL     OW32533   2.339   2.573   6.476  0.0516  0.0454  0.2142
 6966SOL    HW132534   2.421   2.537   6.510  2.5009  0.6895 -5.1137
 6966SOL    HW232535   2.332   2.538   6.387 -1.2100  0.5222  0.1263
 6967SOL     OW32536   0.623   0.430   2.590  0.3129  0.2347 -0.5887
 6967SOL    HW132537   0.614   0.520   2.620 -1.0222 -0.1199  0.0764
 6967SOL    HW232538   0.698   0.437   2.531 -0.1987  4.0967 -0.7561
 6968SOL     OW32539   1.371   1.107   8.123  0.6682 -0.8463 -0.2927
 6968SOL    HW132540   1.341   1.118   8.213 -1.8193  0.1155 -1.2600
 6968SOL    HW232541   1.436   1.038   8.138 -0.8507 -2.1162  0.4343
 6969SOL     OW32542   3.833   2.724   5.199 -0.9431 -0.5540  0.3526
 6969SOL    HW132543   3.776   2.725   5.275 -0.6740  1.7610  0.5446
 6969SOL    HW232544   3.816   2.808   5.155 -1.4670 -1.4817 -1.2120
 6970SOL     OW32545   1.348   1.233  13.977  1.0134  0.2663  0.0135
 6970SOL    HW132546   1.368   1.280  13.896  0.0190  0.1948 -0.2784
 6970SOL    HW232547   1.268   1.188  13.949  0.6414  2.1185 -1.8587
 6971SOL     OW32548   4.032   4.263   6.143  0.0214 -0.1238  0.3357
 6971SOL    HW132549   4.105   4.236   6.200  0.8761 -0.6570 -1.0123
 6971SOL    HW232550   4.032   4.355   6.168  0.9631 -0.3350  1.1102
 6972SOL     OW32551   0.435   0.736  16.128  1.0889  0.2655  0.6006
 6972SOL    HW132552   0.487   0.816  16.130  0.3157  0.7980 -0.5556
 6972SOL    HW232553   0.352   0.779  16.110  0.2260 -1.5127  0.3353
 6973SOL     OW32554   0.911   2.867   8.887 -0.0657 -0.4072 -0.1170
 6973SOL    HW132555   0.841   2.863   8.822  0.6901  0.3088 -0.9912
 6973SOL    HW232556   0.977   2.917   8.838 -0.7210 -1.0796 -1.6992
 6974SOL     OW32557   0.100   2.503   4.296 -0.2092 -0.3087  0.8013
 6974SOL    HW132558   0.157   2.554   4.239  2.3252 -3.1206  0.8201
 6974SOL    HW232559   0.059   2.567   4.354  1.2583  0.6302  0.8014
 6975SOL     OW32560   1.098   3.653   2.772 -0.4680  0.1375 -0.0716
 6975SOL    HW132561   1.036   3.715   2.733 -0.5061 -0.0775 -0.3590
 6975SOL    HW232562   1.052   3.627   2.852 -0.9363  0.2956 -0.2904
 6976SOL     OW32563   0.137   1.316   4.607  0.6740 -0.3444  0.0896
 6976SOL    HW132564   0.098   1.359   4.531 -0.1082  1.1876  1.3505
 6976SOL    HW232565   0.206   1.260   4.572  0.1341 -2.6944  2.7664
 6977SOL     OW32566   3.321   1.516   4.097 -0.0128  0.3579  0.3739
 6977SOL    HW132567   3.397   1.461   4.081  0.5875  1.0598  0.7862
 6977SOL    HW232568   3.249   1.455   4.078  0.6471 -0.4350  0.4522
 6978SOL     OW32569   0.534   0.267   8.766 -0.1412 -0.2868  0.0892
 6978SOL    HW132570   0.438   0.269   8.760  0.0403  3.8643 -1.1314
 6978SOL    HW232571   0.551   0.301   8.678 -0.3952 -1.1397 -0.2903
 6979SOL     OW32572   2.763   0.821   4.447 -0.3537 -0.4707 -0.6038
 6979SOL    HW132573   2.819   0.748   4.418 -0.6678  0.2104 -2.9641
 6979SOL    HW232574   2.828   0.891   4.437 -1.0943  0.2741 -0.1684
 6980SOL     OW32575   1.854   2.762  12.066 -0.5576 -0.1243 -0.3727
 6980SOL    HW132576   1.823   2.680  12.027  0.7093 -0.4509 -0.7117
 6980SOL    HW232577   1.791   2.771  12.137  0.4817  0.9693  0.4109
 6981SOL     OW32578   1.390   2.349   7.866  0.0336 -0.0676  0.0619
 6981SOL    HW132579   1.350   2.324   7.783  0.9777  2.4728 -1.1747
 6981SOL    HW232580   1.393   2.263   7.907 -0.6546  0.3056  0.8898
 6982SOL     OW32581   1.892   0.620   8.410 -0.1984 -0.5374 -0.1742
 6982SOL    HW132582   1.907   0.654   8.322  1.4320  0.7775  0.6146
 6982SOL    HW232583   1.841   0.540   8.394  0.7463 -0.9252 -1.2279
 6983SOL     OW32584   1.385   3.789   6.028  0.3111  0.0650  0.3661
 6983SOL    HW132585   1.468   3.838   6.031 -0.1268  0.6805  3.0021
 6983SOL    HW232586   1.405   3.713   5.974 -0.4739 -0.7957  1.2840
 6984SOL     OW32587   4.413   0.297   8.304  0.3332  0.3723 -0.0045
 6984SOL    HW132588   4.499   0.260   8.282 -0.2816 -1.0282 -0.0067
 6984SOL    HW232589   4.372   0.225   8.352 -0.4192 -0.6310 -2.1728
 6985SOL     OW32590   2.222   2.443   4.519 -0.0931 -0.1991 -0.1451
 6985SOL    HW132591   2.137   2.415   4.553 -0.0759 -1.0548 -0.8387
 6985SOL    HW232592   2.261   2.471   4.603  0.2886  2.3703 -1.1625
 6986SOL     OW32593   4.270   0.463   1.913 -0.0559 -0.8505 -0.1698
 6986SOL    HW132594   4.267   0.458   2.009  1.5411 -1.6855 -0.1529
 6986SOL    HW232595   4.308   0.375   1.903  1.6548 -0.2656  1.2413
 6987SOL     OW32596   0.187   4.593  12.900  0.2425  0.3843 -0.3792
 6987SOL    HW132597   0.175   4.671  12.846  2.8485  1.5709  0.8189
 6987SOL    HW232598   0.210   4.626  12.987 -1.9981 -1.2500  0.8603
 6988SOL     OW32599   1.184   1.314   4.220  0.1160 -0.2170  0.2084
 6988SOL    HW132600   1.141   1.345   4.300  1.2212 -0.6176  0.9724
 6988SOL    HW232601   1.158   1.385   4.162  0.7428  1.3113  1.8135
 6989SOL     OW32602   1.672   1.398   5.442  0.2926 -0.4001 -0.0353
 6989SOL    HW132603   1.646   1.443   5.362  1.0384  0.1141  0.0142
 6989SOL    HW232604   1.582   1.383   5.469  0.2312  0.1221  0.0388
 6990SOL     OW32605   0.322   1.330   4.974 -0.8167  0.1796 -0.2739
 6990SOL    HW132606   0.306   1.366   4.887  0.6841  1.7217  0.1029
 6990SOL    HW232607   0.337   1.236   4.963  2.1450  0.8189 -1.5778
 6991SOL     OW32608   4.301   4.061  11.353  0.5837  0.2508  0.2500
 6991SOL    HW132609   4.232   4.118  11.387 -1.0340 -1.9662  0.6836
 6991SOL    HW232610   4.267   4.021  11.274  0.2824 -0.7847  0.9076
 6992SOL     OW32611   2.515   3.998  17.187 -0.2395 -0.2043  0.2881
 6992SOL    HW132612   2.552   4.038  17.266  0.3206  1.8335 -1.0397
 6992SOL    HW232613   2.444   4.059  17.165 -1.1806 -1.5060 -0.3023
 6993SOL     OW32614   1.793   4.428   9.411  0.5244 -0.0889  0.2905
 6993SOL    HW132615   1.724   4.461   9.469  0.0363  1.4396 -1.1422
 6993SOL    HW232616   1.776   4.478   9.331  0.9034 -0.1884  0.1466
 6994SOL     OW32617   3.325   1.193  17.498 -0.5010  0.0598 -0.3022
 6994SOL    HW132618   3.301   1.104  17.472  0.3117 -0.6156  1.2485
 6994SOL    HW232619   3.419   1.189  17.484 -0.6648 -0.9862 -1.1637
 6995SOL     OW32620   2.412   0.237   7.381  0.1104 -0.5397  0.2582
 6995SOL    HW132621   2.456   0.321   7.374 -1.5312  0.2468 -0.4763
 6995SOL    HW232622   2.342   0.246   7.317  0.1377  1.4669  0.5120
 6996SOL     OW32623   3.973   4.466  14.645 -0.9088 -0.7725 -0.2778
 6996SOL    HW132624   4.004   4.556  14.637 -2.9872 -0.1815 -1.8808
 6996SOL    HW232625   3.988   4.442  14.553 -0.0014 -1.9948  0.1912
 6997SOL     OW32626   4.332   2.160   7.462 -0.3589 -0.3303  0.0564
 6997SOL    HW132627   4.266   2.195   7.522 -1.6038 -1.4989 -0.6395
 6997SOL    HW232628   4.280   2.138   7.385  0.2791  1.0620 -0.7829
 6998SOL     OW32629   3.239   0.661  10.280 -0.0246 -0.3113  0.5660
 6998SOL    HW132630   3.324   0.640  10.318 -0.4501 -1.3099  0.9786
 6998SOL    HW232631   3.247   0.597  10.209  0.4116  0.5310 -0.1462
 6999SOL     OW32632   2.549   1.009  14.163  0.1766 -0.2156  0.3973
 6999SOL    HW132633   2.569   1.067  14.089  1.7460  1.3412  2.0389
 6999SOL    HW232634   2.623   1.029  14.220 -1.2243 -1.0256  2.5122
 7000SOL     OW32635   1.185   0.493   8.696  0.1448 -0.0949 -0.0421
 7000SOL    HW132636   1.179   0.588   8.709 -0.1265 -0.1752  0.4025
 7000SOL    HW232637   1.228   0.475   8.779  0.3378  0.8704  0.0732
 7001SOL     OW32638   0.665   1.710   8.995 -0.1161 -0.3318 -0.1026
 7001SOL    HW132639   0.582   1.738   8.957 -0.2522  0.8953  1.0817
 7001SOL    HW232640   0.637   1.656   9.069 -2.0218 -0.1742 -0.7054
 7002SOL     OW32641   0.068   4.491   1.780  0.0196 -0.2989  0.1659
 7002SOL    HW132642   0.099   4.411   1.821  0.2487 -1.2572 -1.8963
 7002SOL    HW232643   0.061   4.559   1.847 -2.5768 -0.2750 -0.1216
 7003SOL     OW32644   1.855   3.242  15.678 -0.5263  0.0936 -0.3774
 7003SOL    HW132645   1.835   3.333  15.657  1.7564  0.2064 -2.0074
 7003SOL    HW232646   1.936   3.247  15.728 -1.9824  0.1135  1.9828
 7004SOL     OW32647   3.027   1.148   6.369  0.2875 -0.0543 -0.6305
 7004SOL    HW132648   3.034   1.081   6.300  1.9068 -2.2986  1.7169
 7004SOL    HW232649   3.055   1.101   6.448  0.3824  0.1200 -0.5614
 7005SOL     OW32650   4.408   0.456   8.008 -0.6254 -0.1643 -1.0452
 7005SOL    HW132651   4.465   0.525   8.041 -2.9003  2.1927 -2.0019
 7005SOL    HW232652   4.460   0.376   8.019  0.4928  0.7837  0.4393
 7006SOL     OW32653   2.405   1.166   2.966  0.1339 -0.3422 -0.3015
 7006SOL    HW132654   2.320   1.210   2.973 -0.3185 -0.9973 -1.9142
 7006SOL    HW232655   2.414   1.131   3.055 -2.1566  0.2463  0.1802
 7007SOL     OW32656   1.716   1.449  17.094  0.1898 -0.6230  0.1577
 7007SOL    HW132657   1.709   1.377  17.157  1.8571  0.0286  1.0873
 7007SOL    HW232658   1.792   1.434  17.038  0.1430  0.7902 -0.2868
 7008SOL     OW32659   0.610   1.485   4.126  0.1609  0.2393  0.0529
 7008SOL    HW132660   0.667   1.471   4.051  1.2202  1.6027  0.5970
 7008SOL    HW232661   0.525   1.511   4.092  0.9770  1.0606 -1.3716
 7009SOL     OW32662   0.010   2.868  13.187  0.2206  0.0919 -0.2288
 7009SOL    HW132663   4.690   2.802  13.145  0.8212  0.3815 -1.4697
 7009SOL    HW232664   0.000   2.942  13.127  0.9423  0.9345  0.7082
 7010SOL     OW32665   0.485   2.471   4.260  0.2068  0.3164 -0.2611
 7010SOL    HW132666   0.530   2.537   4.207 -1.1503  0.2299 -1.5388
 7010SOL    HW232667   0.555   2.439   4.316 -1.3655  1.7707  2.5386
 7011SOL     OW32668   2.078   4.432   8.003 -0.3616 -0.0913  0.2184
 7011SOL    HW132669   2.157   4.445   8.056  0.6115  0.7803 -1.4597
 7011SOL    HW232670   2.036   4.357   8.045 -1.6656 -0.1205 -1.1465
 7012SOL     OW32671   1.748   2.736   1.332 -0.0164 -0.1348  0.1872
 7012SOL    HW132672   1.800   2.801   1.284 -0.6132 -0.2880 -0.6683
 7012SOL    HW232673   1.700   2.787   1.397  2.4981 -0.2936  2.1753
 7013SOL     OW32674   3.157   1.948   1.834  0.0561 -0.1576 -0.1038
 7013SOL    HW132675   3.131   1.859   1.809  2.6932 -0.9662  0.1354
 7013SOL    HW232676   3.250   1.941   1.816  0.4626  1.9329  1.1721
 7014SOL     OW32677   0.861   1.128   5.184  0.4096 -0.1691  0.3448
 7014SOL    HW132678   0.774   1.160   5.160  0.8717  0.5457 -0.3923
 7014SOL    HW232679   0.888   1.065   5.117  0.9912 -0.2968  0.6994
 7015SOL     OW32680   2.962   4.443   6.538  0.7945 -1.1047  0.2419
 7015SOL    HW132681   3.014   4.373   6.499  0.6428 -1.2681  0.3294
 7015SOL    HW232682   3.016   4.521   6.552 -1.7421  0.6618  0.2321
 7016SOL     OW32683   1.331   1.047   9.297 -0.0432 -0.2885  0.0029
 7016SOL    HW132684   1.351   1.111   9.229 -1.1124  0.9357  0.8199
 7016SOL    HW232685   1.262   0.997   9.252  0.8221 -2.2222  0.8634
 7017SOL     OW32686   0.711   0.182  13.779 -0.0651  0.1341 -0.3913
 7017SOL    HW132687   0.713   0.176  13.875 -3.4153  0.2815 -0.3151
 7017SOL    HW232688   0.666   0.264  13.763 -1.2419 -0.5910 -0.8384
 7018SOL     OW32689   4.637   0.488   5.144  0.2597  0.6665 -0.0921
 7018SOL    HW132690   4.605   0.453   5.227  0.7010  1.9280  0.6056
 7018SOL    HW232691   4.715   0.436   5.129  0.2545  0.4103  0.8239
 7019SOL     OW32692   1.787   1.722   6.463  0.3152  0.6309  0.4300
 7019SOL    HW132693   1.727   1.785   6.423 -0.9617 -1.1128 -0.4008
 7019SOL    HW232694   1.731   1.671   6.522  0.1974  2.1424  1.6141
 7020SOL     OW32695   0.051   4.564   7.097 -0.1376  0.0262 -0.0872
 7020SOL    HW132696   4.704   4.586   7.052  0.0050 -2.2004 -1.4519
 7020SOL    HW232697   0.033   4.548   7.190  1.3706  1.3761  0.4320
 7021SOL     OW32698   1.907   3.397   2.400 -0.1755 -0.2565 -0.3753
 7021SOL    HW132699   1.871   3.485   2.389 -0.0310 -0.0026  1.2173
 7021SOL    HW232700   1.826   3.347   2.393  0.2111 -0.9443  0.0546
 7022SOL     OW32701   0.257   3.807   4.031 -0.1476 -0.0542  0.4977
 7022SOL    HW132702   0.174   3.763   4.013 -0.5002  0.9563 -0.3370
 7022SOL    HW232703   0.318   3.761   3.974 -1.8571 -0.4104 -1.0419
 7023SOL     OW32704   3.608   1.970   3.323  0.2904 -0.4002  0.0658
 7023SOL    HW132705   3.685   1.988   3.377  0.2647  2.0212 -0.7122
 7023SOL    HW232706   3.594   1.885   3.365  2.5185 -0.9795 -0.4009
 7024SOL     OW32707   0.483   0.013   3.107 -0.4646 -0.3787  0.6757
 7024SOL    HW132708   0.449   0.008   3.196 -1.1693 -0.8924  0.3682
 7024SOL    HW232709   0.502   4.656   3.089 -0.7423 -0.0305 -1.4158
 7025SOL     OW32710   2.323   1.364   4.229 -0.5413 -0.7136  0.4982
 7025SOL    HW132711   2.392   1.407   4.279  1.1149 -1.2839 -1.2935
 7025SOL    HW232712   2.267   1.327   4.298 -1.4939 -1.1024 -0.4886
 7026SOL     OW32713   2.683   4.618   6.097 -0.0749  0.4547  0.1552
 7026SOL    HW132714   2.749   4.668   6.050  0.0338  0.4318  0.2824
 7026SOL    HW232715   2.684   4.536   6.048 -1.3846 -0.4884  1.7116
 7027SOL     OW32716   3.284   1.674  12.459  0.0151 -0.5651  0.8239
 7027SOL    HW132717   3.313   1.726  12.384  1.3364 -1.8983  0.4281
 7027SOL    HW232718   3.350   1.605  12.465  1.1085  0.5072  1.1364
 7028SOL     OW32719   0.523   1.271   8.488  0.3979  0.5203  0.6249
 7028SOL    HW132720   0.563   1.237   8.408  0.4244  0.6144  0.5971
 7028SOL    HW232721   0.474   1.196   8.520  0.8487  0.3907  1.0059
 7029SOL     OW32722   1.200   1.689  14.551 -0.1902  0.2185 -0.0151
 7029SOL    HW132723   1.173   1.753  14.617 -4.1478 -0.3155 -1.0932
 7029SOL    HW232724   1.148   1.725  14.479 -0.2088  0.0022 -0.1087
 7030SOL     OW32725   0.211   2.360   5.884  0.2051  0.0072  0.0235
 7030SOL    HW132726   0.127   2.328   5.852  1.0117 -2.4716  0.3913
 7030SOL    HW232727   0.194   2.373   5.977  1.1294  0.2187  0.1651
 7031SOL     OW32728   2.158   1.954   7.310  0.2306 -0.0006  0.3568
 7031SOL    HW132729   2.204   1.930   7.391 -0.3933 -1.6512  0.2236
 7031SOL    HW232730   2.080   1.900   7.321 -0.0896  0.5187  0.6587
 7032SOL     OW32731   4.123   1.709   8.278  0.0559 -0.9353 -0.3380
 7032SOL    HW132732   4.091   1.750   8.358 -1.2956 -0.2525 -1.2202
 7032SOL    HW232733   4.175   1.637   8.313 -0.8915 -1.5140 -0.1064
 7033SOL     OW32734   0.783   0.543  13.776  0.5528 -0.2288 -0.2001
 7033SOL    HW132735   0.829   0.510  13.698  1.6170 -0.5457  0.5596
 7033SOL    HW232736   0.704   0.495  13.750 -1.1618  0.6672  3.3584
 7034SOL     OW32737   1.871   1.588   9.192  0.2165 -0.7285 -0.0666
 7034SOL    HW132738   1.784   1.580   9.152  1.7729 -1.9919 -3.2172
 7034SOL    HW232739   1.856   1.664   9.249 -0.4349  0.7975 -2.2682
 7035SOL     OW32740   0.359   1.737   3.161 -0.2404 -0.6773  0.0720
 7035SOL    HW132741   0.271   1.744   3.197 -1.0322 -1.9860 -1.5724
 7035SOL    HW232742   0.365   1.642   3.148  1.5341 -0.1432 -2.9711
 7036SOL     OW32743   1.084   1.029   6.624  0.8037 -0.5072  0.0820
 7036SOL    HW132744   1.080   1.008   6.530 -0.7928 -3.4909  0.7963
 7036SOL    HW232745   0.992   1.038   6.649  1.4023  1.4744  1.5047
 7037SOL     OW32746   1.997   3.078   7.651  0.2060  0.1450 -0.1416
 7037SOL    HW132747   2.026   2.988   7.635 -2.3045 -0.4793 -1.1258
 7037SOL    HW232748   2.038   3.108   7.570 -1.4467 -0.5994 -1.2423
 7038SOL     OW32749   2.283   0.695   2.532 -0.8828 -0.1380 -0.3465
 7038SOL    HW132750   2.277   0.775   2.480 -1.9714 -0.8487 -1.3089
 7038SOL    HW232751   2.379   0.691   2.531 -1.0044 -2.7932 -2.8795
 7039SOL     OW32752   3.859   1.678   7.464 -0.3271  0.0187 -0.5015
 7039SOL    HW132753   3.838   1.638   7.548  2.7641 -2.7185 -1.0177
 7039SOL    HW232754   3.918   1.747   7.495 -0.6912  0.3867 -0.6323
 7040SOL     OW32755   1.577   0.718   2.888  0.3368  0.0644 -0.3353
 7040SOL    HW132756   1.664   0.749   2.865  0.7830 -0.5167  0.5241
 7040SOL    HW232757   1.592   0.695   2.980 -1.2265 -0.8378 -0.3079
 7041SOL     OW32758   0.174   2.201   3.722 -0.1797 -0.8005  0.3036
 7041SOL    HW132759   0.194   2.263   3.792  1.1872 -0.6708 -0.2059
 7041SOL    HW232760   0.257   2.185   3.677 -0.0997 -0.7959  0.4491
 7042SOL     OW32761   2.491   1.906   6.174  0.9061  0.1319  0.4646
 7042SOL    HW132762   2.561   1.970   6.156  0.4271  0.5190 -0.0317
 7042SOL    HW232763   2.539   1.866   6.247 -1.1698 -1.3961  0.9644
 7043SOL     OW32764   4.003   0.717   8.144 -0.2076 -0.2674 -0.0822
 7043SOL    HW132765   3.996   0.630   8.184 -0.2034 -0.7342 -1.0961
 7043SOL    HW232766   4.032   0.705   8.053 -0.6002  1.1101 -0.3977
 7044SOL     OW32767   4.442   1.369  14.034  0.0686 -0.4112 -0.3925
 7044SOL    HW132768   4.355   1.388  14.070  0.1351 -0.3829 -0.2478
 7044SOL    HW232769   4.489   1.327  14.106 -1.0488 -1.0648 -0.0413
 7045SOL     OW32770   0.224   0.991  13.744  0.0160 -0.2207 -0.1651
 7045SOL    HW132771   0.220   1.015  13.652 -1.5522 -0.5955 -0.1889
 7045SOL    HW232772   0.188   1.073  13.779 -2.0379 -0.8102 -0.9413
 7046SOL     OW32773   1.764   3.870   9.525 -0.0429  0.0822 -0.0654
 7046SOL    HW132774   1.815   3.809   9.579  0.2897  0.7335  0.3496
 7046SOL    HW232775   1.792   3.948   9.572 -2.5937  0.9672 -0.0209
 7047SOL     OW32776   2.507   4.533   3.515 -0.0170 -0.3650  0.2672
 7047SOL    HW132777   2.443   4.536   3.586 -1.4260 -1.6769 -0.9326
 7047SOL    HW232778   2.541   4.622   3.510  0.0215 -0.3125  1.6552
 7048SOL     OW32779   4.376   3.236   7.699 -0.0100  0.2670  0.0748
 7048SOL    HW132780   4.339   3.156   7.662  1.5095 -0.4234  0.0729
 7048SOL    HW232781   4.296   3.288   7.684 -0.1138  0.2937  0.7206
 7049SOL     OW32782   2.484   2.684   4.969 -0.7490  0.5622  0.0833
 7049SOL    HW132783   2.492   2.777   4.989  2.3018 -0.0231  1.7757
 7049SOL    HW232784   2.574   2.670   4.939 -1.0503  0.5167 -0.7996
 7050SOL     OW32785   4.344   0.887   0.479 -0.0705  0.1433  0.6832
 7050SOL    HW132786   4.346   0.795   0.452  3.4153  2.3114 -6.2924
 7050SOL    HW232787   4.393   0.916   0.403  0.1663  0.7691  1.0786
 7051SOL     OW32788   0.147   0.535   3.059 -0.0659 -0.7591 -0.4098
 7051SOL    HW132789   0.238   0.563   3.068 -1.5126  3.2819  1.3325
 7051SOL    HW232790   0.100   0.617   3.069  1.9784  0.2649  0.7376
 7052SOL     OW32791   0.315   2.512   4.452 -0.4382 -0.0559 -0.2611
 7052SOL    HW132792   0.247   2.491   4.388  1.1334  0.4610 -2.0968
 7052SOL    HW232793   0.382   2.494   4.387 -0.0920  1.5666 -0.3486
 7053SOL     OW32794   4.567   0.805   2.321 -0.2469  0.0020 -0.2498
 7053SOL    HW132795   4.637   0.817   2.256 -0.0263  1.8683  0.3306
 7053SOL    HW232796   4.577   0.891   2.361 -3.1665 -0.1150  0.6819
 7054SOL     OW32797   3.402   1.990  11.130  0.0751 -0.0703  0.0778
 7054SOL    HW132798   3.442   1.903  11.141  2.2868  0.8283 -0.7855
 7054SOL    HW232799   3.314   1.966  11.102 -0.4247  3.6806 -1.5966
 7055SOL     OW32800   1.793   2.557   8.775  0.6773 -0.0713  0.1425
 7055SOL    HW132801   1.851   2.592   8.708  1.0274  0.4981  0.7461
 7055SOL    HW232802   1.852   2.533   8.847 -0.8474 -0.5377  1.2474
 7056SOL     OW32803   3.762   4.653   5.301  0.5815  0.2815 -0.0270
 7056SOL    HW132804   3.763   4.692   5.388 -1.2740 -0.7172  0.4380
 7056SOL    HW232805   3.728   4.733   5.261  2.3370  0.6130 -0.8800
 7057SOL     OW32806   0.789   0.378   7.836  0.4509 -0.0677  0.5061
 7057SOL    HW132807   0.849   0.399   7.907  0.4682  1.5295  0.0172
 7057SOL    HW232808   0.742   0.298   7.862  0.4471 -0.3336 -0.3166
 7058SOL     OW32809   4.486   1.014  15.221  0.1978 -0.0506  0.1463
 7058SOL    HW132810   4.467   1.107  15.212 -1.9608 -0.5643 -0.7354
 7058SOL    HW232811   4.427   0.983  15.290  0.1602 -0.1489  0.0696
 7059SOL     OW32812   1.854   3.666   2.432  0.1735 -0.1951  0.4224
 7059SOL    HW132813   1.918   3.729   2.399  1.0957 -0.6462  1.3654
 7059SOL    HW232814   1.843   3.686   2.524  1.4983  0.7381  0.3749
 7060SOL     OW32815   2.307   1.726  15.409 -0.1437  0.1737  0.3496
 7060SOL    HW132816   2.279   1.684  15.491  0.3757  0.3488  0.6146
 7060SOL    HW232817   2.274   1.815  15.423  0.5774  0.9524 -3.0743
 7061SOL     OW32818   3.135   3.297   3.661 -0.5118  0.1476  0.2208
 7061SOL    HW132819   3.078   3.253   3.724 -1.0324  0.0367 -0.3298
 7061SOL    HW232820   3.103   3.254   3.582  0.3444  0.2645 -0.1853
 7062SOL     OW32821   4.570   2.070  16.073  0.2814 -0.2223  0.1184
 7062SOL    HW132822   4.564   2.165  16.069 -0.1997 -0.2530  0.1426
 7062SOL    HW232823   4.482   2.058  16.109  0.4235 -3.3152 -0.5269
 7063SOL     OW32824   4.121   0.991   0.444 -0.7168  0.0196 -0.3217
 7063SOL    HW132825   4.078   0.915   0.483 -0.4529  0.1133  0.1544
 7063SOL    HW232826   4.209   0.959   0.465 -1.7336 -2.9109 -0.5554
 7064SOL     OW32827   2.551   4.627   1.606 -0.3145 -0.2430 -0.1483
 7064SOL    HW132828   2.480   4.573   1.571 -0.8745  0.6684 -0.4310
 7064SOL    HW232829   2.495   4.688   1.655 -0.7145  0.7257 -1.8076
 7065SOL     OW32830   1.811   4.051   0.220 -0.0997 -0.2315 -0.2022
 7065SOL    HW132831   1.880   4.030   0.284  0.9720 -2.1080 -1.9899
 7065SOL    HW232832   1.764   3.969   0.210  0.8018 -0.8658  0.8173
 7066SOL     OW32833   1.964   0.536  16.007 -0.2210 -0.5253  0.1344
 7066SOL    HW132834   1.944   0.476  15.935  0.4490  0.3133 -0.7470
 7066SOL    HW232835   2.013   0.478  16.065 -0.1022 -1.7520 -1.1705
 7067SOL     OW32836   0.414   0.179   5.211 -0.0569 -0.1232 -0.0946
 7067SOL    HW132837   0.339   0.164   5.154  0.8422 -0.8039 -1.0840
 7067SOL    HW232838   0.420   0.091   5.248 -0.1823  0.0141  0.2597
 7068SOL     OW32839   0.822   0.104   4.044 -0.3932 -0.6642 -0.5614
 7068SOL    HW132840   0.839   0.166   3.973  1.0030 -0.0125  0.3426
 7068SOL    HW232841   0.729   0.084   4.032 -0.3735  0.2119 -2.1683
 7069SOL     OW32842   3.104   3.993   2.047 -0.0667  0.1849 -0.1226
 7069SOL    HW132843   3.102   4.089   2.044  1.3841  0.2501  1.3138
 7069SOL    HW232844   3.109   3.974   2.140  1.0762  3.0412  0.3903
 7070SOL     OW32845   1.169   1.839   5.849  0.4753 -0.2306 -0.0924
 7070SOL    HW132846   1.125   1.759   5.878 -1.6901  1.3224  0.8333
 7070SOL    HW232847   1.191   1.886   5.929 -0.9029  1.0266 -0.4683
 7071SOL     OW32848   3.971   0.314   1.488  0.1295 -0.6425  0.5498
 7071SOL    HW132849   3.924   0.389   1.524 -0.1782 -0.6025  0.0721
 7071SOL    HW232850   3.943   0.318   1.396  2.0872 -0.3109 -0.0303
 7072SOL     OW32851   2.291   2.908  14.390  0.3147 -0.7956 -0.0345
 7072SOL    HW132852   2.269   2.971  14.322 -1.5416 -2.3553 -0.8681
 7072SOL    HW232853   2.320   2.964  14.463 -1.3388 -1.9090  1.4935
 7073SOL     OW32854   0.122   2.040  14.616  0.1315  0.5428  0.0680
 7073SOL    HW132855   0.176   2.042  14.537  1.7806  0.8417  1.2122
 7073SOL    HW232856   0.189   2.075  14.676 -0.9369 -1.8453  2.6336
 7074SOL     OW32857   2.343   3.713  12.204  0.5204  0.1111 -0.0738
 7074SOL    HW132858   2.360   3.774  12.277 -0.7627  0.0919  0.2542
 7074SOL    HW232859   2.341   3.781  12.136 -0.2965 -1.7696 -1.9228
 7075SOL     OW32860   0.239   4.108   6.219  0.0444  0.3180 -0.2053
 7075SOL    HW132861   0.284   4.043   6.273 -0.7837 -3.1846 -3.6831
 7075SOL    HW232862   0.316   4.160   6.197  0.3129  0.0370  0.0666
 7076SOL     OW32863   2.026   3.682   9.624  0.4222 -0.3333 -0.0827
 7076SOL    HW132864   2.030   3.630   9.704 -0.8630 -0.2425  0.0487
 7076SOL    HW232865   2.107   3.730   9.608  0.0703 -0.2531 -1.6585
 7077SOL     OW32866   3.953   0.068   4.934 -0.3914  0.1055 -0.4726
 7077SOL    HW132867   3.964   0.016   4.854  0.3920 -0.6888  0.1543
 7077SOL    HW232868   4.043   0.078   4.963  0.8781 -3.4901 -3.2234
 7078SOL     OW32869   0.466   4.405   9.627 -0.4079  0.2228  0.8100
 7078SOL    HW132870   0.521   4.328   9.613 -0.8506 -0.0188  0.3831
 7078SOL    HW232871   0.442   4.418   9.535 -1.3738  1.3376  1.2253
 7079SOL     OW32872   0.459   2.914   9.082 -0.0093 -0.4399  0.1210
 7079SOL    HW132873   0.437   3.001   9.115 -2.4207 -0.4434 -1.4688
 7079SOL    HW232874   0.527   2.899   9.147  0.5640 -2.9511 -1.0728
 7080SOL     OW32875   2.876   1.201  13.991 -0.0514 -0.0023  0.4698
 7080SOL    HW132876   2.785   1.227  14.000  0.3369  1.5374 -0.1317
 7080SOL    HW232877   2.892   1.161  14.076  0.1600  1.4489  1.1107
 7081SOL     OW32878   3.666   2.659   2.742  0.0932 -0.0502  0.5901
 7081SOL    HW132879   3.740   2.711   2.772  1.1000 -0.2084 -1.6683
 7081SOL    HW232880   3.695   2.652   2.651  1.6943 -1.3206  1.1963
 7082SOL     OW32881   1.313   0.239  13.300 -0.3348 -0.0579 -0.2286
 7082SOL    HW132882   1.257   0.296  13.248 -0.4595  0.8875  0.9470
 7082SOL    HW232883   1.359   0.309  13.346  0.2118 -1.2276  0.9953
 7083SOL     OW32884   2.372   4.331   2.283  0.0751  0.3122  0.1003
 7083SOL    HW132885   2.434   4.352   2.214 -0.2681  0.0803 -0.2787
 7083SOL    HW232886   2.372   4.420   2.318  1.8104  0.5612 -0.5431
 7084SOL     OW32887   1.207   2.210   8.148 -0.3192 -0.0503 -0.1764
 7084SOL    HW132888   1.282   2.268   8.165 -0.1523 -0.9153  2.0778
 7084SOL    HW232889   1.216   2.139   8.212  1.7311 -1.9677 -2.5648
 7085SOL     OW32890   4.195   2.412   8.415  0.0974 -0.5394  0.1694
 7085SOL    HW132891   4.209   2.494   8.368  0.7652 -1.7372 -1.7188
 7085SOL    HW232892   4.154   2.446   8.494 -1.2588  1.4068 -1.3709
 7086SOL     OW32893   2.696   0.300   1.228  0.0106  0.1533  0.3614
 7086SOL    HW132894   2.729   0.289   1.138 -2.2808  1.6937 -0.6479
 7086SOL    HW232895   2.699   0.209   1.257 -2.4286  0.2757  0.9852
 7087SOL     OW32896   2.991   3.277  10.369  0.0697 -0.3305 -0.3381
 7087SOL    HW132897   2.963   3.247  10.455  0.3616 -0.6132 -0.3406
 7087SOL    HW232898   3.086   3.262  10.369 -0.2868 -2.5519 -0.0410
 7088SOL     OW32899   4.203   1.586   1.084  0.2103 -0.1758  0.6177
 7088SOL    HW132900   4.272   1.640   1.046 -1.5069  1.7434  0.2704
 7088SOL    HW232901   4.217   1.591   1.178  3.7471 -3.1246  0.2431
 7089SOL     OW32902   2.487   0.119   0.213 -0.0563 -0.3106 -0.3047
 7089SOL    HW132903   2.475   0.121   0.308  0.1558  0.1154 -0.2848
 7089SOL    HW232904   2.406   0.086   0.174  0.5722  0.4830 -2.3115
 7090SOL     OW32905   3.198   4.376   9.514  0.4161  0.7149  0.1334
 7090SOL    HW132906   3.123   4.374   9.456  0.0327  2.0033  0.5840
 7090SOL    HW232907   3.276   4.344   9.468 -1.1043 -1.8740 -0.6183
 7091SOL     OW32908   1.901   0.211   7.386  0.0230  0.3792 -0.4221
 7091SOL    HW132909   1.947   0.295   7.390  1.8592 -0.5214 -2.0515
 7091SOL    HW232910   1.812   0.229   7.415  0.1051  0.5048 -0.2494
 7092SOL     OW32911   3.632   1.147   3.137  0.3116 -0.6550  0.2414
 7092SOL    HW132912   3.621   1.227   3.188 -0.3515 -0.9421  0.5431
 7092SOL    HW232913   3.630   1.183   3.048  0.6592  1.1462  0.9600
 7093SOL     OW32914   0.395   3.124  17.316 -0.4954  0.1344  0.7565
 7093SOL    HW132915   0.379   3.218  17.304 -0.4080 -0.1504 -1.6779
 7093SOL    HW232916   0.483   3.124  17.352  0.5613  1.0067 -1.7848
 7094SOL     OW32917   2.246   1.360   3.442  0.5419  0.1413 -0.9564
 7094SOL    HW132918   2.257   1.454   3.428 -1.3746  0.8553  2.1391
 7094SOL    HW232919   2.337   1.337   3.459 -0.7358 -2.8861  1.9804
 7095SOL     OW32920   2.590   3.756   4.373  0.3078 -0.2078  0.4184
 7095SOL    HW132921   2.645   3.831   4.394 -0.4032  0.5725 -0.4905
 7095SOL    HW232922   2.656   3.691   4.349 -0.4527 -0.9718  0.4116
 7096SOL     OW32923   0.343   2.481  11.441 -0.2791  0.0678  0.9694
 7096SOL    HW132924   0.328   2.393  11.406  0.3200  1.7267 -3.5000
 7096SOL    HW232925   0.364   2.448  11.529  0.4553  1.3231  1.2686
 7097SOL     OW32926   1.619   2.041   5.125  0.0746  0.2885  0.6712
 7097SOL    HW132927   1.580   2.095   5.055 -2.2305 -2.4860 -0.2122
 7097SOL    HW232928   1.638   2.107   5.192  1.6791  1.5722 -1.0521
 7098SOL     OW32929   4.555   2.366  16.037 -0.1770  0.1925 -0.2142
 7098SOL    HW132930   4.460   2.379  16.046 -0.2361  0.0053 -0.5406
 7098SOL    HW232931   4.571   2.450  15.993  1.2658 -0.5572 -1.1220
 7099SOL     OW32932   3.489   1.368  10.322 -0.5423 -0.9853 -0.5418
 7099SOL    HW132933   3.561   1.384  10.383  0.0839  0.3854 -1.6220
 7099SOL    HW232934   3.440   1.450  10.309  1.3193  0.7677  3.5618
 7100SOL     OW32935   0.091   3.296   2.491  0.2836  0.6445 -0.0331
 7100SOL    HW132936   0.090   3.357   2.566 -2.4855 -2.0670  2.1256
 7100SOL    HW232937   0.002   3.266   2.506  0.4179 -0.1772 -0.9235
 7101SOL     OW32938   3.313   0.563   6.952  0.0332 -0.0151  0.1460
 7101SOL    HW132939   3.289   0.485   6.902  0.5518 -1.6164  2.3909
 7101SOL    HW232940   3.256   0.633   6.920  0.0783 -1.0351 -2.1181
 7102SOL     OW32941   4.474   1.725  16.386 -0.0616  0.1484  0.1200
 7102SOL    HW132942   4.390   1.741  16.429 -0.0453 -1.3956  0.7280
 7102SOL    HW232943   4.522   1.798  16.425 -1.1541  0.8215  0.2008
 7103SOL     OW32944   2.126   2.660   7.537 -0.2570  0.2731 -0.1247
 7103SOL    HW132945   2.061   2.707   7.485 -0.3685  1.0090  0.6811
 7103SOL    HW232946   2.165   2.737   7.579 -1.1347  0.3541  0.5385
 7104SOL     OW32947   2.108   3.596   7.883  0.0688 -0.1134 -0.1572
 7104SOL    HW132948   2.194   3.606   7.924  0.8540 -1.4063 -1.4835
 7104SOL    HW232949   2.093   3.502   7.875 -0.5387 -0.0885  0.6827
 7105SOL     OW32950   1.243   0.019  17.277 -0.1542  0.1565  0.0101
 7105SOL    HW132951   1.335   0.004  17.253  0.0353 -0.9086  1.3914
 7105SOL    HW232952   1.218   4.675  17.324 -1.9497  1.2627  0.9310
 7106SOL     OW32953   0.409   3.062   7.554  0.4467  0.0125 -0.3420
 7106SOL    HW132954   0.432   3.039   7.644  0.3200 -0.6971 -0.4968
 7106SOL    HW232955   0.436   2.985   7.505 -1.8317 -0.2043 -1.2511
 7107SOL     OW32956   3.655   1.680   4.602  0.0270  0.7934 -0.4171
 7107SOL    HW132957   3.691   1.631   4.677  0.2970 -0.2147 -1.2058
 7107SOL    HW232958   3.722   1.749   4.594 -1.8559  2.7190  0.5027
 7108SOL     OW32959   3.538   2.998   2.654  0.0639  0.0495  0.4720
 7108SOL    HW132960   3.591   2.974   2.578 -0.6388  1.6798 -0.5315
 7108SOL    HW232961   3.456   3.026   2.614 -0.2667 -0.5366  0.7294
 7109SOL     OW32962   3.234   2.735   7.484 -0.2211 -0.2218 -0.3843
 7109SOL    HW132963   3.318   2.706   7.448  0.0351  1.4419 -1.1516
 7109SOL    HW232964   3.249   2.830   7.482  1.8056 -0.5627 -0.8128
 7110SOL     OW32965   3.593   4.227   4.354 -0.0941 -0.7212  0.2846
 7110SOL    HW132966   3.612   4.316   4.385 -0.9480 -1.0983  1.8493
 7110SOL    HW232967   3.597   4.168   4.428 -1.2206 -1.3215 -0.1420
 7111SOL     OW32968   0.576   4.149   2.373  0.1966 -0.5847 -0.6360
 7111SOL    HW132969   0.610   4.098   2.446  0.9413  0.4780 -0.2465
 7111SOL    HW232970   0.539   4.084   2.314  0.0301  0.5931 -1.8175
 7112SOL     OW32971   1.183   2.542   9.972 -0.0869  0.4939  0.5964
 7112SOL    HW132972   1.154   2.632   9.956 -1.1381  0.2154  0.9402
 7112SOL    HW232973   1.116   2.504  10.029 -0.1728  2.4644  1.8025
 7113SOL     OW32974   3.905   0.416   4.242 -0.6643 -0.0013  0.1463
 7113SOL    HW132975   3.873   0.336   4.200  1.9638 -0.6192 -0.6987
 7113SOL    HW232976   3.839   0.473   4.202  0.0924  0.2737 -0.7107
 7114SOL     OW32977   4.079   4.734  15.455  0.0892  0.4823 -0.0093
 7114SOL    HW132978   4.019   4.665  15.428 -0.0703  1.2693 -1.6612
 7114SOL    HW232979   4.045   0.081  15.417 -1.0600  0.1092  0.2185
 7115SOL     OW32980   1.981   4.073   9.618  0.2172 -0.7184  0.5646
 7115SOL    HW132981   2.006   4.121   9.539 -0.8534 -2.2248 -0.6757
 7115SOL    HW232982   2.005   4.130   9.692 -0.5098 -0.2310  0.4165
 7116SOL     OW32983   0.422   1.965   4.093 -0.0943  0.2603 -0.2288
 7116SOL    HW132984   0.393   1.909   4.165 -0.1730  1.1590  0.4505
 7116SOL    HW232985   0.363   1.933   4.026 -1.4604  1.7284  0.2644
 7117SOL     OW32986   3.434   2.202  12.453 -0.6667 -0.1823  0.1870
 7117SOL    HW132987   3.425   2.255  12.374  1.7451  0.3917  0.3064
 7117SOL    HW232988   3.527   2.205  12.473 -0.1740 -2.9864 -1.5519
 7118SOL     OW32989   3.707   4.054   5.191 -0.3044  0.5678  0.0790
 7118SOL    HW132990   3.799   4.073   5.210 -0.6628  0.1311  2.1988
 7118SOL    HW232991   3.683   4.027   5.279 -0.2786 -2.2572 -0.7655
 7119SOL     OW32992   1.306   1.979  10.595  0.3722  0.1280 -0.4820
 7119SOL    HW132993   1.270   1.959  10.682 -1.6850  1.0661 -1.1045
 7119SOL    HW232994   1.383   2.028  10.622  0.1744 -0.0627  0.4149
 7120SOL     OW32995   2.312   1.439   1.541  0.3838  0.7971 -0.0119
 7120SOL    HW132996   2.238   1.498   1.544 -0.5457 -0.2015 -3.4120
 7120SOL    HW232997   2.363   1.474   1.468 -1.2948 -0.7845 -1.9613
 7121SOL     OW32998   4.472   2.855   7.751 -0.7722 -0.0981  0.3902
 7121SOL    HW132999   4.381   2.838   7.776 -1.2442  1.3059 -0.3466
 7121SOL    HW233000   4.478   2.814   7.665  0.5573 -0.6653  0.7645
 7122SOL     OW33001   3.551   4.010   8.288 -0.5313  0.2243 -0.4857
 7122SOL    HW133002   3.611   4.085   8.294  1.0755 -0.9560 -1.8537
 7122SOL    HW233003   3.585   3.962   8.363  0.2269 -1.0986 -1.6949
 7123SOL     OW33004   1.641   4.516   4.158  0.1721  0.5748  0.6852
 7123SOL    HW133005   1.569   4.463   4.123 -1.2617  1.5316  2.1645
 7123SOL    HW233006   1.588   4.564   4.221 -0.4867  0.7934 -0.0272
 7124SOL     OW33007   0.358   3.889  10.341 -0.4736 -0.3270 -0.1588
 7124SOL    HW133008   0.360   3.827  10.414 -1.4111 -0.5082 -0.2860
 7124SOL    HW233009   0.398   3.966  10.381 -0.1658 -0.6779  0.2157
 7125SOL     OW33010   4.056   1.612   4.889 -0.1058  0.2458  0.2870
 7125SOL    HW133011   4.101   1.529   4.902  0.2687  0.3934 -0.0773
 7125SOL    HW233012   4.131   1.670   4.874 -3.2088  4.1118 -0.4069
 7126SOL     OW33013   2.870   1.324   0.414 -0.3659  0.1894 -0.0341
 7126SOL    HW133014   2.783   1.301   0.444 -0.5323 -0.5712 -1.1211
 7126SOL    HW233015   2.888   1.406   0.459  1.5015 -2.0292  3.2533
 7127SOL     OW33016   4.354   1.972   2.635  0.7710 -0.2393 -0.0264
 7127SOL    HW133017   4.308   2.045   2.676 -1.1240 -1.1398 -0.5827
 7127SOL    HW233018   4.340   1.989   2.542  0.4544  1.4546  0.3364
 7128SOL     OW33019   4.053   0.579  17.285  0.1597 -0.0616 -0.1541
 7128SOL    HW133020   4.016   0.614  17.204  0.7578 -0.1012 -0.4450
 7128SOL    HW233021   3.979   0.522  17.305  0.6413 -0.7866 -0.4719
 7129SOL     OW33022   1.848   2.659   8.189  0.8622 -0.0140 -0.7875
 7129SOL    HW133023   1.935   2.620   8.184  2.0139  2.7081 -1.4815
 7129SOL    HW233024   1.802   2.580   8.218 -0.0446  0.6073 -0.5233
 7130SOL     OW33025   4.583   0.830   0.126  0.1263  0.0364  0.6275
 7130SOL    HW133026   4.504   0.883   0.118 -0.0109 -0.2107  0.3401
 7130SOL    HW233027   4.615   0.872   0.206 -1.1132  0.8086  0.7136
 7131SOL     OW33028   1.528   2.191  16.084 -0.0362  0.1442 -0.1909
 7131SOL    HW133029   1.486   2.167  16.166  2.3023  1.1451  1.2917
 7131SOL    HW233030   1.612   2.146  16.086  0.5988  1.2291 -1.9962
 7132SOL     OW33031   1.886   4.030   4.931  0.0928 -0.2620 -0.0241
 7132SOL    HW133032   1.810   4.089   4.937  0.1821 -0.0475 -1.0114
 7132SOL    HW233033   1.923   4.052   4.846  0.3341  0.2144  0.2047
 7133SOL     OW33034   3.122   1.701   7.619  0.2516 -0.0254  0.5736
 7133SOL    HW133035   3.212   1.734   7.631  0.9646 -1.6227 -0.3483
 7133SOL    HW233036   3.115   1.679   7.526  0.1133  0.1020  0.5555
 7134SOL     OW33037   0.784   2.543   6.599 -0.3994 -0.1634  0.4737
 7134SOL    HW133038   0.773   2.456   6.639 -1.5611 -0.4530 -0.4664
 7134SOL    HW233039   0.872   2.538   6.563 -0.6685  2.4486 -0.4816
 7135SOL     OW33040   1.414   1.871   5.097 -0.0274  0.2987 -0.3385
 7135SOL    HW133041   1.392   1.873   5.004  0.2465  1.6535 -0.3678
 7135SOL    HW233042   1.496   1.920   5.097  1.0325 -1.4678 -0.5805
 7136SOL     OW33043   4.268   2.734   0.177  0.4523 -0.7205  0.2706
 7136SOL    HW133044   4.313   2.670   0.121  0.5330 -0.7782  0.3996
 7136SOL    HW233045   4.267   2.684   0.259 -0.6682 -2.4410 -0.7940
 7137SOL     OW33046   2.088   0.321   3.367 -0.0606 -0.0269 -0.1250
 7137SOL    HW133047   2.060   0.245   3.314 -1.2389  2.2530 -2.7607
 7137SOL    HW233048   2.014   0.336   3.424  0.8764  0.8829  0.8413
 7138SOL     OW33049   0.434   0.272   3.734  0.1046  0.3071 -0.1234
 7138SOL    HW133050   0.396   0.331   3.798  3.8710 -0.9068  3.2391
 7138SOL    HW233051   0.428   0.316   3.649 -1.4184  0.8189  0.2512
 7139SOL     OW33052   1.889   0.804   7.768 -0.3480 -0.4866  0.5224
 7139SOL    HW133053   1.875   0.746   7.694  1.0881  0.6571 -0.6449
 7139SOL    HW233054   1.802   0.838   7.788 -0.4722 -1.2268  1.2473
 7140SOL     OW33055   4.120   1.679   8.557 -0.0321  0.6637  0.4460
 7140SOL    HW133056   4.054   1.614   8.531  1.8503 -1.3538  0.6859
 7140SOL    HW233057   4.067   1.758   8.563 -1.2697 -0.2606  1.8643
 7141SOL     OW33058   2.403   2.873   9.388 -0.2777  0.1840 -0.5084
 7141SOL    HW133059   2.340   2.820   9.437  1.0839 -0.8837  0.0985
 7141SOL    HW233060   2.348   2.921   9.326 -0.7851 -0.0627 -0.2526
 7142SOL     OW33061   4.254   4.227  16.818  0.4558 -0.4227 -0.0737
 7142SOL    HW133062   4.293   4.150  16.861  0.0475 -0.8993 -0.5514
 7142SOL    HW233063   4.169   4.235  16.861 -1.1369  0.0150 -3.3045
 7143SOL     OW33064   3.270   0.672   8.865  0.7856  0.1583  0.2622
 7143SOL    HW133065   3.301   0.610   8.931 -1.2107  0.8936  1.8954
 7143SOL    HW233066   3.271   0.756   8.911  1.9732 -0.1808  0.8623
 7144SOL     OW33067   4.664   2.332  13.650  0.2652  0.2548  0.5292
 7144SOL    HW133068   4.653   2.281  13.730 -1.4716  1.3383  0.9877
 7144SOL    HW233069   4.695   2.418  13.677  0.6837  0.8181 -1.7580
 7145SOL     OW33070   4.724   2.905   5.119  0.4243 -0.2695 -0.2030
 7145SOL    HW133071   0.022   2.838   5.060  0.1231  1.7427 -2.6483
 7145SOL    HW233072   0.064   2.964   5.129 -0.3849  0.7444  0.0282
 7146SOL     OW33073   4.272   1.884   1.090  0.4457 -0.2353  0.4896
 7146SOL    HW133074   4.358   1.849   1.116  0.7869 -0.0100 -0.3272
 7146SOL    HW233075   4.295   1.964   1.042  0.0295 -0.9324 -0.8748
 7147SOL     OW33076   0.567   3.453  13.979 -0.2030  0.4090 -0.3508
 7147SOL    HW133077   0.499   3.435  13.914 -1.2619 -0.8975  1.1006
 7147SOL    HW233078   0.516   3.501  14.045 -0.8353  0.2219 -0.7050
 7148SOL     OW33079   4.702   0.881   5.288 -0.0820 -0.2734 -0.4363
 7148SOL    HW133080   4.641   0.884   5.362  0.5099 -0.0552  0.0427
 7148SOL    HW233081   4.652   0.842   5.216  0.6172  1.5182 -1.9208
 7149SOL     OW33082   3.350   0.847   9.732  0.7052 -0.0389 -0.2675
 7149SOL    HW133083   3.292   0.832   9.807 -0.0953 -2.7016 -1.4002
 7149SOL    HW233084   3.343   0.942   9.724  2.1579  0.2898  2.2496
 7150SOL     OW33085   1.323   2.836   1.684 -0.2176  0.2723 -0.0283
 7150SOL    HW133086   1.258   2.849   1.754  0.8988  2.3064  0.6176
 7150SOL    HW233087   1.311   2.924   1.648 -0.1479 -0.4073 -1.7190
 7151SOL     OW33088   2.495   0.333   5.919  0.0169 -0.1654  0.1227
 7151SOL    HW133089   2.438   0.317   5.844 -0.3731 -0.5641  0.5067
 7151SOL    HW233090   2.563   0.268   5.902 -0.4937 -0.3832 -1.0668
 7152SOL     OW33091   2.447   0.531   6.985 -0.3279 -0.0999 -1.2655
 7152SOL    HW133092   2.356   0.509   7.002 -0.5596  1.0334 -1.0632
 7152SOL    HW233093   2.437   0.625   7.000 -0.9459 -0.4380  0.4566
 7153SOL     OW33094   0.437   1.751   5.981 -0.0578  0.8340  0.3213
 7153SOL    HW133095   0.416   1.818   6.046 -0.5512  1.3853 -0.4201
 7153SOL    HW233096   0.525   1.780   5.957  0.1696  1.6314  2.1453
 7154SOL     OW33097   1.356   3.096  13.344  0.1569  0.0418 -0.1554
 7154SOL    HW133098   1.364   3.179  13.391  0.8507 -0.7375  1.1135
 7154SOL    HW233099   1.362   3.144  13.261 -1.8440 -1.0725 -0.9367
 7155SOL     OW33100   3.316   0.154   3.138 -0.0117 -0.1442 -0.7053
 7155SOL    HW133101   3.289   0.190   3.053  0.3542 -3.1333 -2.0768
 7155SOL    HW233102   3.267   0.209   3.200 -1.3847 -2.0338 -0.1149
 7156SOL     OW33103   4.487   1.269  15.086 -0.5743  0.2205 -0.0868
 7156SOL    HW133104   4.473   1.209  15.013  1.1146 -0.2762  0.0051
 7156SOL    HW233105   4.580   1.290  15.078 -0.3311  0.6398  3.5084
 7157SOL     OW33106   3.871   1.960   0.128 -0.0364  0.4319  0.0855
 7157SOL    HW133107   3.818   2.028   0.169 -2.0498 -1.0097 -0.1226
 7157SOL    HW233108   3.945   2.012   0.097 -0.9372  1.3836 -0.4452
 7158SOL     OW33109   3.531   4.144   1.142 -0.8012  0.8749 -0.0876
 7158SOL    HW133110   3.519   4.157   1.047  1.5307 -0.5957 -0.5680
 7158SOL    HW233111   3.438   4.123   1.153 -0.4794 -1.4644 -1.8318
 7159SOL     OW33112   4.700   1.555  15.376  1.1146 -0.0818  0.1984
 7159SOL    HW133113   4.687   1.462  15.354 -0.1019 -0.0651  0.8617
 7159SOL    HW233114   0.034   1.551  15.443 -0.7078 -0.9544  2.0067
 7160SOL     OW33115   4.296   0.917   0.098  0.0166 -0.8711 -0.2629
 7160SOL    HW133116   4.301   1.011   0.084 -0.8948 -1.1379 -2.3479
 7160SOL    HW233117   4.246   0.886   0.022  0.1984  0.9274 -1.1227
 7161SOL     OW33118   1.515   2.850   8.045  0.2801  0.3999 -0.3055
 7161SOL    HW133119   1.493   2.935   8.007 -2.3072 -2.0695 -4.4074
 7161SOL    HW233120   1.429   2.814   8.066  0.5842 -0.1639 -0.0379
 7162SOL     OW33121   4.686   4.349   8.777  0.4736 -0.3169 -0.5259
 7162SOL    HW133122   4.600   4.313   8.759  1.0314 -1.0712 -1.6882
 7162SOL    HW233123   4.657   4.388   8.859 -2.6916 -1.5683 -1.0735
 7163SOL     OW33124   4.716   3.366  15.121 -0.5024  0.1212  0.0609
 7163SOL    HW133125   4.673   3.342  15.203  1.1350  2.6037  1.6394
 7163SOL    HW233126   4.733   3.459  15.136  0.6841 -0.4637  2.4105
 7164SOL     OW33127   0.667   2.076  13.304  0.1114  0.0171 -0.0171
 7164SOL    HW133128   0.599   2.031  13.255 -0.6783  1.1013  0.0916
 7164SOL    HW233129   0.644   2.169  13.297 -0.0194 -0.2062 -2.5597
 7165SOL     OW33130   2.549   1.945  15.936 -0.2355  0.2635  0.4182
 7165SOL    HW133131   2.592   1.935  15.851 -0.7835 -0.0595  0.1834
 7165SOL    HW233132   2.584   1.865  15.976 -0.1765 -0.7251 -1.6056
 7166SOL     OW33133   0.104   1.906  14.950 -0.6164  0.1826  0.4275
 7166SOL    HW133134   0.081   1.844  15.020  0.8195  0.5654  1.2292
 7166SOL    HW233135   0.196   1.880  14.949 -0.6324  0.1529 -0.7810
 7167SOL     OW33136   0.355   1.808  10.386  0.2140 -0.1666  0.5209
 7167SOL    HW133137   0.284   1.833  10.444  1.2263 -0.5193  1.9153
 7167SOL    HW233138   0.384   1.896  10.362  1.6901 -1.1796 -1.4973
 7168SOL     OW33139   3.648   2.554   9.451  0.2153  0.1720  0.4942
 7168SOL    HW133140   3.677   2.465   9.433  1.6796  0.8463 -0.5771
 7168SOL    HW233141   3.580   2.558   9.384 -0.0660  1.1209  0.8266
 7169SOL     OW33142   0.243   4.676  10.525  0.3522  0.0555  0.3498
 7169SOL    HW133143   0.334   4.701  10.513  1.1643 -2.3650  1.3468
 7169SOL    HW233144   0.224   4.654  10.433  1.8972  2.3235 -0.5120
 7170SOL     OW33145   1.186   3.665   6.729  0.0941  0.2920  0.4012
 7170SOL    HW133146   1.227   3.579   6.732  0.8580  0.5909 -1.9010
 7170SOL    HW233147   1.146   3.652   6.643 -0.4702  1.1773  0.5348
 7171SOL     OW33148   4.716   1.456  14.493 -0.2228  0.1602 -0.0322
 7171SOL    HW133149   4.654   1.494  14.556 -1.0610 -0.4696 -0.4684
 7171SOL    HW233150   4.725   1.367  14.528 -0.8143  0.0619 -0.1270
 7172SOL     OW33151   2.525   1.358   9.617  0.2509 -0.5045  0.0458
 7172SOL    HW133152   2.529   1.299   9.692 -1.6409  0.3736  0.8631
 7172SOL    HW233153   2.596   1.419   9.634  2.0902 -2.8486  0.7014
 7173SOL     OW33154   3.688   1.263   1.045  0.0270 -0.3865 -0.0789
 7173SOL    HW133155   3.632   1.336   1.071  0.9506 -0.2142  1.4274
 7173SOL    HW233156   3.682   1.266   0.950  0.5026 -1.8325 -0.1594
 7174SOL     OW33157   1.440   0.424   8.348 -0.4447  0.6494  0.5837
 7174SOL    HW133158   1.386   0.473   8.409 -0.5981  0.5809  0.5020
 7174SOL    HW233159   1.468   0.341   8.387 -0.9907  0.3972  0.4408
 7175SOL     OW33160   3.100   1.170   3.112 -0.4141  0.0201  0.3275
 7175SOL    HW133161   3.049   1.188   3.033 -2.3822  0.0952  1.6328
 7175SOL    HW233162   3.186   1.169   3.069 -1.4836 -0.4726 -1.8267
 7176SOL     OW33163   3.106   1.701  17.710  0.5447  0.2433 -0.2070
 7176SOL    HW133164   3.102   1.775   0.032  1.1069 -0.8816  1.1731
 7176SOL    HW233165   3.164   1.741  17.646  0.9002  1.3976  0.8299
 7177SOL     OW33166   0.458   0.374   0.856  0.0649 -0.5338 -0.5284
 7177SOL    HW133167   0.524   0.336   0.914  0.6420  0.2657 -0.6632
 7177SOL    HW233168   0.466   0.469   0.871 -1.0045 -1.1357  3.7180
 7178SOL     OW33169   3.454   0.266  12.955 -0.2585 -0.3071 -0.1692
 7178SOL    HW133170   3.466   0.347  13.004  0.2484 -0.3661 -0.1983
 7178SOL    HW233171   3.505   0.201  13.003 -0.5493  0.3179  0.9864
 7179SOL     OW33172   1.793   0.295   2.781  0.0209 -0.4375 -0.0431
 7179SOL    HW133173   1.768   0.310   2.873  0.0910 -1.4440  0.1406
 7179SOL    HW233174   1.771   0.381   2.744 -1.3118 -1.8225 -2.4913
 7180SOL     OW33175   3.987   1.115   8.011  0.8031 -0.2054 -0.2084
 7180SOL    HW133176   4.005   1.205   8.039  0.9305  0.3253 -1.9528
 7180SOL    HW233177   4.073   1.076   8.026  0.5202 -1.2506 -1.2705
 7181SOL     OW33178   0.889   1.929  10.120  0.4227 -0.2116 -0.3125
 7181SOL    HW133179   0.881   1.989  10.195 -1.5771 -0.6954 -0.1492
 7181SOL    HW233180   0.981   1.932  10.093  0.0527  0.3998 -1.4743
 7182SOL     OW33181   2.815   4.466   1.996  0.5695 -0.0906 -0.7977
 7182SOL    HW133182   2.830   4.440   2.087 -1.0432 -0.2198 -0.5859
 7182SOL    HW233183   2.795   4.559   1.999  3.2041  0.4317  1.3088
 7183SOL     OW33184   2.452   3.986   6.757 -0.1376 -0.1573  0.4607
 7183SOL    HW133185   2.462   3.933   6.836  1.2722  1.7182  1.5348
 7183SOL    HW233186   2.498   4.067   6.780 -0.6292  0.1979  0.1746
 7184SOL     OW33187   3.152   0.900   3.632 -0.1115  0.4214  0.5094
 7184SOL    HW133188   3.223   0.888   3.569 -0.5372 -0.9357  0.2814
 7184SOL    HW233189   3.149   0.816   3.678 -0.1683  1.5698  2.5803
 7185SOL     OW33190   4.588   1.526   1.590 -0.2050  0.2044  0.1059
 7185SOL    HW133191   4.673   1.559   1.561 -0.7660  1.2643 -0.3609
 7185SOL    HW233192   4.583   1.562   1.679 -0.3697  3.0096 -1.0364
 7186SOL     OW33193   4.008   3.671   4.906  0.1330  0.1073 -0.5575
 7186SOL    HW133194   3.922   3.688   4.943  1.0770  2.4083  0.5819
 7186SOL    HW233195   3.996   3.681   4.811  2.3887 -0.1545 -0.8751
 7187SOL     OW33196   2.460   4.672  16.867 -0.3691 -0.0737  0.6432
 7187SOL    HW133197   2.456   4.731  16.792  0.3087  0.8154  1.3071
 7187SOL    HW233198   2.540   4.621  16.851 -2.2139 -2.1309 -1.9823
 7188SOL     OW33199   4.613   1.048   7.006  0.8915 -0.5165 -0.1735
 7188SOL    HW133200   4.595   1.142   7.011  0.8957 -0.5342  0.1408
 7188SOL    HW233201   4.619   1.034   7.100 -4.0604 -0.0870  0.2294
 7189SOL     OW33202   4.146   1.669   6.021  0.4180 -0.3404  0.4322
 7189SOL    HW133203   4.178   1.734   6.084  1.3229  1.2972 -1.7209
 7189SOL    HW233204   4.108   1.600   6.076  0.6146 -0.3206  0.5961
 7190SOL     OW33205   2.627   4.423   0.599 -0.3794  0.0747 -0.3159
 7190SOL    HW133206   2.707   4.470   0.578 -0.7293  0.6694 -0.3230
 7190SOL    HW233207   2.652   4.363   0.669  0.4998 -0.6797 -1.2805
 7191SOL     OW33208   2.151   2.461   0.552 -0.3222 -0.6931  0.4417
 7191SOL    HW133209   2.168   2.554   0.567  0.8403 -0.8436 -0.0046
 7191SOL    HW233210   2.060   2.463   0.522  0.1293  0.5293 -0.8363
 7192SOL     OW33211   0.593   1.039   2.414  0.1776 -0.2699  0.3459
 7192SOL    HW133212   0.498   1.041   2.422  0.1178 -0.3801 -0.3161
 7192SOL    HW233213   0.617   0.960   2.463  1.5701  0.4088  0.7742
 7193SOL     OW33214   3.198   4.546  10.240  0.2099 -0.2530 -0.4656
 7193SOL    HW133215   3.256   4.566  10.314  0.2213 -1.0016 -0.2701
 7193SOL    HW233216   3.146   4.478  10.282  1.4146 -0.6809  0.3448
 7194SOL     OW33217   1.147   2.090   5.278 -0.5790  0.3366  0.4601
 7194SOL    HW133218   1.205   2.166   5.271 -2.1687  1.3527 -1.7348
 7194SOL    HW233219   1.121   2.103   5.369  1.3500 -1.2669  1.2219
 7195SOL     OW33220   0.082   1.781   4.533  0.6445 -0.2699  0.1470
 7195SOL    HW133221   0.135   1.707   4.502  1.0393 -1.0004  2.5984
 7195SOL    HW233222   0.066   1.752   4.623 -0.5218 -0.3797 -0.0943
 7196SOL     OW33223   1.352   4.515  16.880 -0.1118  0.2798 -0.5010
 7196SOL    HW133224   1.334   4.455  16.807 -0.4961 -0.2278  0.0099
 7196SOL    HW233225   1.271   4.533  16.927 -0.8387 -1.1835 -1.2115
 7197SOL     OW33226   0.274   2.136   5.709  0.2034 -0.0589 -0.3974
 7197SOL    HW133227   0.276   2.216   5.761 -0.4618 -0.7490  0.6970
 7197SOL    HW233228   0.355   2.092   5.735  1.1769  0.5913 -2.3717
 7198SOL     OW33229   1.585   4.143   8.989  0.2959 -0.0327  0.6448
 7198SOL    HW133230   1.597   4.238   8.980  1.5197 -0.1940  0.6546
 7198SOL    HW233231   1.617   4.109   8.905 -0.0061  1.6342 -0.1509
 7199SOL     OW33232   1.730   3.086   7.713  0.4854 -0.1787  0.2569
 7199SOL    HW133233   1.706   3.177   7.731  3.9025  0.4315  1.7032
 7199SOL    HW233234   1.816   3.092   7.669  0.4808 -2.9388 -0.1125
 7200SOL     OW33235   4.427   1.242   3.308  0.5921 -0.1311  0.1286
 7200SOL    HW133236   4.408   1.320   3.360 -2.4444 -1.6180  1.2776
 7200SOL    HW233237   4.468   1.274   3.228 -1.1022  1.8191  0.0438
 7201SOL     OW33238   0.203   3.427   7.549 -0.4652  0.1705  0.1404
 7201SOL    HW133239   0.163   3.359   7.604  2.0244 -2.8696 -1.8174
 7201SOL    HW233240   0.136   3.435   7.481 -0.9213 -1.2013  0.4387
 7202SOL     OW33241   1.851   0.964   9.395  0.4987 -0.1411  0.2898
 7202SOL    HW133242   1.883   0.964   9.304 -1.0637 -1.2231 -0.2478
 7202SOL    HW233243   1.776   0.906   9.386 -0.4288  1.2947 -1.3174
 7203SOL     OW33244   3.443   2.356  17.146  0.7790 -0.4483 -1.2558
 7203SOL    HW133245   3.383   2.282  17.133 -0.5493  0.5546 -0.8503
 7203SOL    HW233246   3.408   2.422  17.087 -1.1949  0.7382  1.2264
 7204SOL     OW33247   3.109   0.359   4.580  0.0839 -0.2332 -1.2584
 7204SOL    HW133248   3.102   0.415   4.657  1.4294 -0.5514 -0.8968
 7204SOL    HW233249   3.194   0.318   4.594  0.3004  1.3776  2.0149
 7205SOL     OW33250   3.261   2.792   1.073 -0.6572  0.3748 -0.0813
 7205SOL    HW133251   3.203   2.856   1.033 -0.3381  0.1436 -0.9056
 7205SOL    HW233252   3.317   2.758   1.003  1.0671  1.4275  0.7732
 7206SOL     OW33253   4.673   3.962   2.591 -0.0652 -0.1156  0.2693
 7206SOL    HW133254   4.661   4.003   2.677 -2.7946 -0.2961 -0.0246
 7206SOL    HW233255   4.583   3.933   2.576 -0.7598  0.9365  2.3254
 7207SOL     OW33256   1.450   1.559   5.247 -0.0078 -0.1037 -0.5074
 7207SOL    HW133257   1.496   1.533   5.168  1.2619 -0.4974  0.3673
 7207SOL    HW233258   1.442   1.654   5.240  0.9199 -0.0460 -0.7233
 7208SOL     OW33259   0.273   1.083  13.494  0.0509 -0.4592  0.4534
 7208SOL    HW133260   0.307   1.054  13.410 -1.0117 -1.6720  0.4512
 7208SOL    HW233261   0.322   1.165  13.504 -0.8623 -0.0158  1.3801
 7209SOL     OW33262   2.984   2.385   7.328 -0.6273 -0.4261 -0.1094
 7209SOL    HW133263   3.017   2.334   7.402 -0.1693 -0.8247 -0.5933
 7209SOL    HW233264   2.906   2.339   7.298  0.7866 -2.5618 -0.5649
 7210SOL     OW33265   0.936   1.538   0.584 -0.3914  0.0652 -0.1514
 7210SOL    HW133266   0.940   1.578   0.497  0.7230 -0.3850 -0.2984
 7210SOL    HW233267   0.902   1.608   0.640  0.2740 -0.8646  1.4066
 7211SOL     OW33268   4.363   0.209   1.785 -0.1232 -0.3057  0.8361
 7211SOL    HW133269   4.435   0.157   1.750 -0.0872 -0.0793  0.5645
 7211SOL    HW233270   4.311   0.228   1.707 -1.0731  0.4841  1.6635
 7212SOL     OW33271   1.061   3.066   5.908 -0.5361 -0.5543  0.2943
 7212SOL    HW133272   1.043   3.158   5.888  0.6316 -0.2527  0.6231
 7212SOL    HW233273   1.151   3.058   5.875 -0.4647  0.7068  0.1883
 7213SOL     OW33274   4.131   3.113   9.469  0.9568  0.9675 -0.3325
 7213SOL    HW133275   4.059   3.131   9.409  0.9042 -0.2835 -0.6603
 7213SOL    HW233276   4.184   3.074   9.399 -1.3361 -0.7488 -1.1105
 7214SOL     OW33277   3.976   4.549   2.418  0.3959 -0.2887  0.4936
 7214SOL    HW133278   3.994   4.478   2.480 -1.2284  0.0097  1.2949
 7214SOL    HW233279   3.954   4.626   2.470  0.0412  0.6974 -1.0822
 7215SOL     OW33280   1.072   0.343  12.159 -0.0154  0.8879  0.1608
 7215SOL    HW133281   1.042   0.422  12.115  1.4823  0.1158 -2.2008
 7215SOL    HW233282   0.989   0.297  12.169 -1.4145  3.3666 -0.1336
 7216SOL     OW33283   4.049   3.921  12.626 -0.4714 -0.4562 -0.8168
 7216SOL    HW133284   4.066   3.994  12.567  1.5383  1.0470  1.6005
 7216SOL    HW233285   4.128   3.868  12.621  0.1684  0.3494  0.8445
 7217SOL     OW33286   1.245   3.301   6.612 -0.5606  0.1541 -0.9845
 7217SOL    HW133287   1.212   3.336   6.695 -0.6884 -2.4870  0.0831
 7217SOL    HW233288   1.165   3.264   6.575 -1.0737  1.1894 -0.9187
 7218SOL     OW33289   1.203   1.964  11.478 -0.7902  0.0933 -0.4054
 7218SOL    HW133290   1.210   2.059  11.464 -0.3288  0.0713 -0.3227
 7218SOL    HW233291   1.170   1.928  11.396 -0.9037  1.7980 -1.1034
 7219SOL     OW33292   3.514   0.969   0.304  0.0222  0.1656 -0.0159
 7219SOL    HW133293   3.527   0.984   0.397 -2.0328  1.2737  0.0779
 7219SOL    HW233294   3.594   0.919   0.284  0.0692  0.1538  0.2095
 7220SOL     OW33295   0.466   3.088  12.785 -1.1635  0.0428 -0.5614
 7220SOL    HW133296   0.552   3.054  12.762 -0.3946  0.6352  1.5316
 7220SOL    HW233297   0.465   3.115  12.876 -2.9876  0.1907 -0.6221
 7221SOL     OW33298   4.218   1.669  15.350  0.4155 -0.0059 -0.0930
 7221SOL    HW133299   4.192   1.674  15.441 -2.0426 -0.7734 -0.7589
 7221SOL    HW233300   4.161   1.733  15.308 -0.5830 -0.3329  0.7695
 7222SOL     OW33301   0.110   1.956   9.676 -0.2964  0.5363  0.4663
 7222SOL    HW133302   0.053   1.891   9.717 -0.8333  1.5818  1.3940
 7222SOL    HW233303   0.196   1.919   9.696  0.0290 -0.2266 -2.4118
 7223SOL     OW33304   0.499   1.996   6.710  0.0096  0.0044 -0.2932
 7223SOL    HW133305   0.505   1.958   6.798  1.4965  4.8737  1.7488
 7223SOL    HW233306   0.430   1.943   6.670  1.0182 -0.0070 -2.0179
 7224SOL     OW33307   2.240   3.611  17.061  0.1795 -0.0022 -0.4265
 7224SOL    HW133308   2.213   3.702  17.051  0.8200  0.3730  1.1795
 7224SOL    HW233309   2.312   3.624  17.123  1.9537 -0.6452 -2.3693
 7225SOL     OW33310   4.596   0.607  16.862  0.4371  0.3381 -0.3998
 7225SOL    HW133311   4.592   0.675  16.795  1.8158  0.0111 -0.8160
 7225SOL    HW233312   4.671   0.549  16.851 -0.6228 -1.0562 -0.3505
 7226SOL     OW33313   4.050   2.711   6.987  0.6463 -0.6969  0.1268
 7226SOL    HW133314   3.970   2.733   7.035  1.5423  0.9168  0.8740
 7226SOL    HW233315   4.099   2.665   7.056  1.6517  0.3777  0.1307
 7227SOL     OW33316   1.598   0.828   1.679  0.2326 -0.1504  0.3529
 7227SOL    HW133317   1.664   0.774   1.722 -0.7581 -0.2190  1.7767
 7227SOL    HW233318   1.545   0.847   1.756  1.8527  0.9695  1.1907
 7228SOL     OW33319   0.465   0.318   2.192  0.0542 -0.5956  0.1595
 7228SOL    HW133320   0.456   0.358   2.279 -0.0429 -0.6980  0.1959
 7228SOL    HW233321   0.554   0.344   2.167 -1.0410  2.4268 -0.5665
 7229SOL     OW33322   2.083   2.333   5.452 -0.0743 -0.0204  0.0895
 7229SOL    HW133323   2.135   2.342   5.532  0.3197  2.0400 -0.4109
 7229SOL    HW233324   2.144   2.303   5.384  0.6178  0.9681  0.2743
 7230SOL     OW33325   3.009   3.923   3.424 -0.2254 -0.3594 -0.1532
 7230SOL    HW133326   3.010   3.892   3.514  1.5837  0.9639  0.2678
 7230SOL    HW233327   3.102   3.922   3.402  0.3758  0.8662  2.3522
 7231SOL     OW33328   1.790   2.557   9.817 -0.0760 -0.0554 -0.0834
 7231SOL    HW133329   1.705   2.584   9.852  0.0909 -0.8229  0.9023
 7231SOL    HW233330   1.853   2.559   9.889 -1.5193 -0.2013  1.1720
 7232SOL     OW33331   2.068   1.096   6.574 -0.2032 -0.4513 -0.0676
 7232SOL    HW133332   2.147   1.092   6.520  1.9477  0.8388  2.9820
 7232SOL    HW233333   2.084   1.032   6.644 -1.5408  0.3965  0.9957
 7233SOL     OW33334   3.822   3.076   3.730  0.1569  0.3053  0.3312
 7233SOL    HW133335   3.749   3.112   3.680  2.1935  2.5887 -0.9828
 7233SOL    HW233336   3.845   3.157   3.775  1.1034  0.8057 -1.0360
 7234SOL     OW33337   2.779   2.354   4.685  0.1027  0.4072  0.0570
 7234SOL    HW133338   2.800   2.318   4.772  2.1428  1.7285  0.1108
 7234SOL    HW233339   2.814   2.283   4.631  1.7072 -0.4875  2.2414
 7235SOL     OW33340   2.266   2.199   2.149 -0.6978  1.0050  0.2428
 7235SOL    HW133341   2.324   2.258   2.100 -1.3383  2.3853  1.1278
 7235SOL    HW233342   2.331   2.154   2.202 -0.4180 -0.1344 -1.0733
 7236SOL     OW33343   3.096   2.172  12.539 -0.6861  0.3401  0.0305
 7236SOL    HW133344   3.043   2.186  12.618  0.2429  2.2486  0.3056
 7236SOL    HW233345   3.044   2.209  12.468 -0.6617  0.1754 -0.0747
 7237SOL     OW33346   4.369   0.931   1.867  0.0374 -0.0255 -0.3689
 7237SOL    HW133347   4.443   0.940   1.926 -1.1564  1.7543  0.8613
 7237SOL    HW233348   4.388   0.845   1.830  1.6318  0.6776 -1.1817
 7238SOL     OW33349   3.135   1.182   3.579 -0.1283 -0.0977 -0.1289
 7238SOL    HW133350   3.125   1.089   3.599  2.6902 -0.6260 -1.1275
 7238SOL    HW233351   3.227   1.182   3.552  0.3461  0.2954  1.4959
 7239SOL     OW33352   1.639   3.316  16.035 -0.0487 -0.0419  0.2051
 7239SOL    HW133353   1.691   3.248  15.992  1.0991  0.3786  0.9381
 7239SOL    HW233354   1.667   3.404  16.011 -0.8624  0.1511 -0.0539
 7240SOL     OW33355   0.986   4.483  15.369  0.4698  0.1963  0.5339
 7240SOL    HW133356   0.914   4.443  15.320  1.4064 -1.6755  0.6898
 7240SOL    HW233357   1.053   4.415  15.372 -0.2583 -0.6632 -2.4632
 7241SOL     OW33358   4.511   1.128   0.658 -0.5184  0.1559 -0.0532
 7241SOL    HW133359   4.459   1.068   0.605  0.5931 -0.7558 -0.1115
 7241SOL    HW233360   4.460   1.205   0.632 -0.7929 -0.8115 -2.3959
 7242SOL     OW33361   1.974   1.167  14.840 -0.2245 -0.1235 -0.1309
 7242SOL    HW133362   1.906   1.127  14.786 -0.5365 -0.7210  0.7106
 7242SOL    HW233363   1.940   1.253  14.865  0.7220  0.3912 -0.6042
 7243SOL     OW33364   4.273   1.334  16.039 -0.5448 -0.2730  0.1981
 7243SOL    HW133365   4.179   1.353  16.043  0.0572  2.8872 -0.9288
 7243SOL    HW233366   4.294   1.289  16.120 -1.1368 -0.4009  0.2849
 7244SOL     OW33367   2.573   2.295   2.378 -0.0742  0.3284  0.0071
 7244SOL    HW133368   2.562   2.373   2.323  0.2840  0.8819  0.7139
 7244SOL    HW233369   2.543   2.229   2.316  0.8455 -0.3698  0.3022
 7245SOL     OW33370   4.603   1.873  14.019  0.2131 -0.0703 -0.3898
 7245SOL    HW133371   4.597   1.793  14.071 -0.3947  0.3965  0.2561
 7245SOL    HW233372   4.696   1.893  14.027  0.6296 -2.3322  0.3654
 7246SOL     OW33373   1.320   4.047   4.119 -0.4519 -0.2007 -0.1369
 7246SOL    HW133374   1.404   4.048   4.073 -0.5853 -2.4144 -0.4183
 7246SOL    HW233375   1.346   3.993   4.193 -2.0807 -2.4337 -1.1980
 7247SOL     OW33376   3.009   1.466  14.123 -0.2146  0.3762 -0.2660
 7247SOL    HW133377   2.991   1.412  14.046  1.1987 -1.2888  0.5588
 7247SOL    HW233378   2.967   1.410  14.188 -1.4030  1.0139 -0.4847
 7248SOL     OW33379   3.544   4.334   2.172  0.2278  0.5866 -0.5971
 7248SOL    HW133380   3.534   4.404   2.237  0.6761  0.4627 -0.3995
 7248SOL    HW233381   3.513   4.390   2.101 -0.4582  0.1292 -0.6590
 7249SOL     OW33382   1.684   4.698  10.889  0.0660  0.3244  0.3687
 7249SOL    HW133383   1.761   0.017  10.903 -0.4308  1.8338 -2.7155
 7249SOL    HW233384   1.613   0.026  10.905  1.4959  2.2386 -0.8843
 7250SOL     OW33385   0.951   2.229   5.758 -0.3084 -0.4236  0.2226
 7250SOL    HW133386   1.024   2.288   5.778  0.4228 -0.7973 -1.3511
 7250SOL    HW233387   0.878   2.283   5.788  0.0901  1.7831 -2.8014
 7251SOL     OW33388   4.492   2.760   5.371 -0.3093 -0.2316  0.1309
 7251SOL    HW133389   4.521   2.691   5.431 -0.6075  0.2506  0.8296
 7251SOL    HW233390   4.462   2.706   5.298 -1.1964  0.6438 -0.1568
 7252SOL     OW33391   1.988   2.671   1.831 -0.4974 -0.6266 -0.0388
 7252SOL    HW133392   1.966   2.743   1.772  0.6119 -0.2973 -0.0477
 7252SOL    HW233393   2.033   2.613   1.770 -2.5638 -1.6505 -0.6197
 7253SOL     OW33394   2.277   3.397   0.989 -0.9196  0.7509 -0.1141
 7253SOL    HW133395   2.372   3.396   0.991 -0.9030  1.3551 -0.3127
 7253SOL    HW233396   2.259   3.356   1.073  0.7978 -0.8366 -0.5442
 7254SOL     OW33397   0.331   0.555  14.794  0.1936  0.4275 -0.6439
 7254SOL    HW133398   0.240   0.551  14.822  0.4077  0.3592  0.0467
 7254SOL    HW233399   0.376   0.556  14.879  0.8083 -0.4819 -0.9624
 7255SOL     OW33400   3.776   1.342   6.177 -0.0702 -0.1935 -0.5315
 7255SOL    HW133401   3.860   1.298   6.164  2.1017  4.1272 -1.4096
 7255SOL    HW233402   3.758   1.378   6.090 -2.8861  0.2094  0.2119
 7256SOL     OW33403   1.209   0.220  14.058  0.3951  0.4599  0.4845
 7256SOL    HW133404   1.267   0.261  13.994  1.3032 -1.1340  0.2925
 7256SOL    HW233405   1.178   0.146  14.006 -3.3250  0.6878  2.3661
 7257SOL     OW33406   2.310   1.938   3.189 -0.7834  0.2296  0.3435
 7257SOL    HW133407   2.286   1.993   3.263  0.2066 -1.0344  1.6014
 7257SOL    HW233408   2.356   2.008   3.142 -0.7209  0.1289  0.2534
 7258SOL     OW33409   1.463   4.505   6.369  0.3210 -0.7744  0.0481
 7258SOL    HW133410   1.554   4.524   6.345  0.2870 -2.1153 -1.2067
 7258SOL    HW233411   1.441   4.594   6.395  0.2176 -0.2346 -1.8563
 7259SOL     OW33412   4.575   0.754  14.810 -0.3118 -0.4748  0.7728
 7259SOL    HW133413   4.521   0.768  14.888 -2.2142  1.3013 -0.8440
 7259SOL    HW233414   4.540   0.672  14.775  3.4718 -1.1529 -1.4592
 7260SOL     OW33415   2.166   3.656   7.010 -0.6078 -0.5598 -0.1937
 7260SOL    HW133416   2.119   3.657   6.927 -1.1154 -0.8430  0.0922
 7260SOL    HW233417   2.217   3.735   6.989 -0.7283 -0.5627 -0.4955
 7261SOL     OW33418   0.548   0.350   0.320 -0.2314 -0.0190 -0.5654
 7261SOL    HW133419   0.527   0.409   0.247 -0.8641 -1.3400 -1.4338
 7261SOL    HW233420   0.523   0.412   0.389 -1.7176 -1.8072  0.4826
 7262SOL     OW33421   4.723   4.272   3.934 -0.3210  0.0015 -0.1511
 7262SOL    HW133422   4.684   4.259   4.020 -1.2642 -0.6100 -0.6606
 7262SOL    HW233423   0.067   4.221   3.948 -0.0498 -0.2329 -2.5439
 7263SOL     OW33424   1.492   4.376   4.911  0.1999 -0.2330 -0.5279
 7263SOL    HW133425   1.503   4.441   4.841  2.6404 -0.7854 -0.6332
 7263SOL    HW233426   1.397   4.363   4.907  0.1337 -0.5372  2.0929
 7264SOL     OW33427   0.598   2.915   3.144 -0.0377 -0.2496 -0.2824
 7264SOL    HW133428   0.586   2.891   3.236 -2.3516  1.1168 -0.2376
 7264SOL    HW233429   0.513   2.899   3.104 -0.8190  1.2713  0.7996
 7265SOL     OW33430   1.870   0.098   5.692 -0.5330 -0.2287 -0.3024
 7265SOL    HW133431   1.911   0.013   5.676  0.1251 -0.4740  2.6171
 7265SOL    HW233432   1.862   0.137   5.605 -1.6101 -0.2249 -0.1910
 7266SOL     OW33433   0.122   3.201  13.389  0.0114 -0.0157  0.3733
 7266SOL    HW133434   0.063   3.129  13.410 -3.0435  2.8121  1.4902
 7266SOL    HW233435   0.127   3.204  13.293  0.6126 -0.3738  0.3944
 7267SOL     OW33436   2.601   1.314   9.029  0.2232  0.0756  0.3365
 7267SOL    HW133437   2.660   1.343   9.098  0.6956 -3.2602  1.3465
 7267SOL    HW233438   2.523   1.287   9.078 -1.2400  0.3253 -1.8262
 7268SOL     OW33439   2.658   4.200   6.610  0.2099 -0.0522 -0.1043
 7268SOL    HW133440   2.594   4.162   6.550 -0.6414  0.8897  0.2303
 7268SOL    HW233441   2.721   4.127   6.614 -0.3996 -0.5002  1.0428
 7269SOL     OW33442   1.352   2.474   6.373  0.7871 -0.3868  0.2111
 7269SOL    HW133443   1.439   2.441   6.351 -0.2816 -2.2090 -1.2667
 7269SOL    HW233444   1.370   2.495   6.465 -1.0544 -1.4067  0.8045
 7270SOL     OW33445   1.366   0.336   6.311  0.2805  0.0580 -0.2215
 7270SOL    HW133446   1.283   0.313   6.354  0.7759  0.1342  0.7730
 7270SOL    HW233447   1.432   0.356   6.378  0.5858  1.1875 -0.8546
 7271SOL     OW33448   3.840   3.356   6.190 -0.0190 -0.2589 -0.1724
 7271SOL    HW133449   3.931   3.347   6.161 -0.7502 -0.3952 -2.4082
 7271SOL    HW233450   3.807   3.412   6.119  1.7571  0.8098 -0.1427
 7272SOL     OW33451   4.398   0.519   9.475  0.0005 -0.7300 -0.1621
 7272SOL    HW133452   4.472   0.538   9.419  0.7733 -1.1854  0.7091
 7272SOL    HW233453   4.429   0.581   9.541 -0.7172 -0.6530  0.1101
 7273SOL     OW33454   2.612   2.133  13.670 -0.7696 -0.8699  0.3628
 7273SOL    HW133455   2.584   2.174  13.752  2.2044  0.0572  0.9371
 7273SOL    HW233456   2.698   2.176  13.667 -0.7613 -0.8419  1.0564
 7274SOL     OW33457   3.203   1.268   9.899  0.0625 -0.5569  0.1688
 7274SOL    HW133458   3.129   1.207   9.898 -0.2718 -0.1690  0.9421
 7274SOL    HW233459   3.161   1.328   9.961  2.1711 -1.0846  2.1023
 7275SOL     OW33460   3.137   3.006   1.873  0.6891 -0.2598  0.2806
 7275SOL    HW133461   3.128   3.044   1.960 -0.8784 -0.1120  0.0605
 7275SOL    HW233462   3.189   2.929   1.892  0.9667 -0.2085 -0.2802
 7276SOL     OW33463   3.139   3.879   7.990  0.0176 -0.4630  0.5850
 7276SOL    HW133464   3.200   3.949   8.013  0.2762 -1.1349  1.9302
 7276SOL    HW233465   3.132   3.881   7.894 -2.3243 -0.6417  0.7462
 7277SOL     OW33466   0.304   4.679   8.614  0.0061  0.4785  0.2639
 7277SOL    HW133467   0.343   4.707   8.696  0.2522 -2.6035  1.1904
 7277SOL    HW233468   0.306   4.583   8.621  1.2062  0.5827  1.1589
 7278SOL     OW33469   0.708   1.379   3.900  0.3711 -0.8424  0.1383
 7278SOL    HW133470   0.648   1.304   3.894 -1.3301  0.4626  0.7300
 7278SOL    HW233471   0.700   1.400   3.807  1.7037 -0.4884  0.1092
 7279SOL     OW33472   1.666   2.034   6.825 -0.4844  0.3872  0.4553
 7279SOL    HW133473   1.620   2.071   6.900 -0.7864 -0.0178  0.4729
 7279SOL    HW233474   1.753   2.072   6.828 -0.5441  0.4509  1.2313
 7280SOL     OW33475   2.889   0.715   7.846 -0.6537  0.5419  0.1473
 7280SOL    HW133476   2.823   0.716   7.916 -0.0479 -0.4396  0.7182
 7280SOL    HW233477   2.914   0.807   7.844  0.6409  0.2223  1.6791
 7281SOL     OW33478   2.681   4.511  16.802 -0.3716  0.0004 -0.1108
 7281SOL    HW133479   2.672   4.439  16.864  0.3360  0.3894  0.4465
 7281SOL    HW233480   2.761   4.560  16.823 -0.1149  0.0567 -1.1780
 7282SOL     OW33481   0.381   1.094  17.724 -0.4235  0.3903 -0.3672
 7282SOL    HW133482   0.471   1.094  17.693  0.5913 -1.7068  2.6219
 7282SOL    HW233483   0.393   1.153   0.058 -0.0749  1.5122 -1.3216
 7283SOL     OW33484   0.358   1.075   8.639 -0.2031 -0.2978  0.0170
 7283SOL    HW133485   0.304   1.154   8.649  0.9872  0.2445  2.3803
 7283SOL    HW233486   0.300   1.000   8.648 -0.4227 -0.3183 -1.5953
 7284SOL     OW33487   2.853   0.457   9.465  0.1472 -0.0962  0.1431
 7284SOL    HW133488   2.859   0.361   9.471 -2.3986 -0.2419  0.4576
 7284SOL    HW233489   2.916   0.485   9.531 -1.5390  2.8349  0.4846
 7285SOL     OW33490   4.359   4.491   2.813 -0.5760  0.3343 -0.1628
 7285SOL    HW133491   4.395   4.546   2.882 -0.6001  0.3145 -0.1346
 7285SOL    HW233492   4.386   4.400   2.827 -2.9172 -0.6859 -2.2229
 7286SOL     OW33493   3.337   0.292   6.805  0.1623  0.3894  0.2636
 7286SOL    HW133494   3.292   0.361   6.757  1.2272  0.1011 -1.1677
 7286SOL    HW233495   3.268   0.249   6.855 -1.5228  2.4676 -0.2988
 7287SOL     OW33496   1.663   1.118   3.774  0.2018  0.1642 -0.0279
 7287SOL    HW133497   1.613   1.037   3.768 -0.8115  0.7982 -0.0061
 7287SOL    HW233498   1.689   1.132   3.682 -1.0209 -1.9126 -0.6727
 7288SOL     OW33499   4.268   1.679   5.513  0.3415 -0.0550  0.4034
 7288SOL    HW133500   4.258   1.663   5.607  1.0410 -1.5521  0.2288
 7288SOL    HW233501   4.201   1.623   5.474 -0.3990  0.3165  1.1322
 7289SOL     OW33502   4.510   2.834   6.394  0.2933 -0.8035 -0.0959
 7289SOL    HW133503   4.507   2.766   6.326  1.7319 -0.4185 -0.5466
 7289SOL    HW233504   4.419   2.859   6.409  0.4500 -0.1416 -0.2746
 7290SOL     OW33505   4.068   4.608   3.007  0.1335 -0.4759  0.4033
 7290SOL    HW133506   4.065   4.704   3.007 -0.5120 -0.5350  4.1747
 7290SOL    HW233507   4.164   4.615   3.001  0.0570  0.1057 -0.1880
 7291SOL     OW33508   4.561   0.860   9.018 -0.2093 -0.0182  0.5535
 7291SOL    HW133509   4.620   0.922   9.061 -0.2956  0.4310  0.0174
 7291SOL    HW233510   4.625   0.790   9.007 -0.3383  0.0975 -1.0186
 7292SOL     OW33511   2.105   0.999  10.158  0.2097 -0.4542 -1.0469
 7292SOL    HW133512   2.153   0.917  10.163 -0.7816 -1.0830 -1.8434
 7292SOL    HW233513   2.015   0.972  10.140  0.0620 -0.6394 -0.0204
 7293SOL     OW33514   0.634   1.451  13.077 -0.0322  0.6617  0.3436
 7293SOL    HW133515   0.575   1.503  13.022 -0.3365 -1.3274 -1.1945
 7293SOL    HW233516   0.717   1.484  13.043  0.3536 -0.4633  0.2054
 7294SOL     OW33517   0.726   1.376   6.712 -0.7405  0.0969  0.1808
 7294SOL    HW133518   0.771   1.397   6.631 -0.9387 -1.7914 -0.4208
 7294SOL    HW233519   0.636   1.391   6.685  0.3823  2.4309 -2.1908
 7295SOL     OW33520   1.866   1.988   4.999 -0.0331 -0.3334  0.1818
 7295SOL    HW133521   1.842   1.896   5.010  0.2330 -0.0304  3.1556
 7295SOL    HW233522   1.795   2.027   5.050  0.2597  0.8075 -0.2743
 7296SOL     OW33523   4.205   1.306   4.385 -0.5404  0.3737  0.2389
 7296SOL    HW133524   4.173   1.220   4.361 -3.3285  1.2359  0.8906
 7296SOL    HW233525   4.148   1.372   4.345  1.5497  0.8902 -1.8637
 7297SOL     OW33526   2.386   0.328   5.462 -0.0021  0.2545  1.1016
 7297SOL    HW133527   2.332   0.282   5.398  2.4818  0.2209 -0.9471
 7297SOL    HW233528   2.376   0.266   5.535 -0.0379  0.5403  1.3424
 7298SOL     OW33529   4.657   1.790  10.342  0.3277 -0.2035  0.4274
 7298SOL    HW133530   4.731   1.837  10.380 -1.7272  1.8999  1.8098
 7298SOL    HW233531   4.582   1.842  10.370  0.1813 -0.0594 -0.2420
 7299SOL     OW33532   3.227   3.448   7.185  0.1687 -0.1670  0.5396
 7299SOL    HW133533   3.173   3.471   7.260 -0.7849  1.0960 -0.5188
 7299SOL    HW233534   3.192   3.513   7.124  1.4549 -1.3329 -1.4381
 7300SOL     OW33535   3.836   1.754   5.574 -0.1305 -0.7447  0.8627
 7300SOL    HW133536   3.808   1.755   5.665 -0.6578 -1.2469  0.7010
 7300SOL    HW233537   3.875   1.667   5.567 -2.9425 -2.0766  1.8997
 7301SOL     OW33538   2.829   0.341   5.902  0.5889  0.2622  0.1234
 7301SOL    HW133539   2.921   0.319   5.916  0.7484 -0.7620 -2.4518
 7301SOL    HW233540   2.788   0.256   5.889 -0.8600  1.1541 -1.0629
 7302SOL     OW33541   2.317   2.591   0.961  0.2712  0.4664  0.2818
 7302SOL    HW133542   2.379   2.625   0.896 -1.6503  1.3023 -1.1205
 7302SOL    HW233543   2.254   2.663   0.965 -0.2603  0.0568 -0.7665
 7303SOL     OW33544   4.441   0.888   8.116  0.0622 -0.2489  0.5648
 7303SOL    HW133545   4.347   0.888   8.130  0.1522  0.2292  1.1787
 7303SOL    HW233546   4.473   0.852   8.199 -0.2739 -0.0558  0.7768
 7304SOL     OW33547   3.640   1.216  17.284 -0.2503  0.1458  0.3499
 7304SOL    HW133548   3.725   1.259  17.287  0.9664 -2.2350 -0.0552
 7304SOL    HW233549   3.637   1.192  17.377  2.2859 -0.3440  0.2812
 7305SOL     OW33550   2.106   2.409   7.395  0.2083  0.2172 -0.1176
 7305SOL    HW133551   2.117   2.490   7.444  0.7100  1.0956 -1.6913
 7305SOL    HW233552   2.149   2.442   7.316 -0.5515  1.0963 -0.1637
 7306SOL     OW33553   2.516   0.462   7.300  0.1633 -0.2369 -0.1644
 7306SOL    HW133554   2.508   0.449   7.205  1.2944 -1.8435 -0.0502
 7306SOL    HW233555   2.598   0.511   7.298  0.1805 -0.2039  1.7570
 7307SOL     OW33556   0.788   4.139   4.638  0.6229  0.0536 -0.6270
 7307SOL    HW133557   0.854   4.069   4.643  0.5243  0.0366  0.4724
 7307SOL    HW233558   0.708   4.092   4.614  0.4617  0.8193 -1.5749
 7308SOL     OW33559   3.785   1.603   7.729 -0.2193  0.2472  0.0808
 7308SOL    HW133560   3.862   1.564   7.771 -0.5618  0.7790  1.1777
 7308SOL    HW233561   3.750   1.650   7.804 -0.1778 -1.0198  0.8894
 7309SOL     OW33562   3.777   1.128  12.244 -0.6607 -0.0086 -0.1817
 7309SOL    HW133563   3.797   1.121  12.151 -1.6915 -0.5639 -0.3555
 7309SOL    HW233564   3.865   1.107  12.276  0.9195  3.0720 -2.5342
 7310SOL     OW33565   1.569   3.994   5.988  0.1134 -0.4551 -0.1852
 7310SOL    HW133566   1.572   4.050   5.910 -0.9211 -0.0167  0.0860
 7310SOL    HW233567   1.575   4.057   6.060  0.1515 -0.9563  0.2453
 7311SOL     OW33568   1.769   2.846   4.317 -0.1871 -0.6981  0.1096
 7311SOL    HW133569   1.720   2.834   4.398  0.4073  0.8664  0.7225
 7311SOL    HW233570   1.786   2.940   4.326  1.0528 -0.7793 -1.3252
 7312SOL     OW33571   3.451   0.679   4.170  0.1231  0.4668  0.2430
 7312SOL    HW133572   3.370   0.656   4.216 -0.2235  2.7603  0.7759
 7312SOL    HW233573   3.501   0.607   4.209  1.0177  1.2261  0.4973
 7313SOL     OW33574   3.839   0.977   9.654 -0.9171  0.0581 -0.2523
 7313SOL    HW133575   3.794   1.059   9.634 -2.8315 -0.6321  1.1943
 7313SOL    HW233576   3.928   1.005   9.677 -1.0980  1.9976 -1.9410
 7314SOL     OW33577   3.081   1.537  10.728  0.1804 -0.1139  0.6906
 7314SOL    HW133578   3.081   1.580  10.814  0.1958 -3.9513  2.5822
 7314SOL    HW233579   3.140   1.463  10.740 -0.7934 -0.7875  1.2668
 7315SOL     OW33580   2.426   4.198   7.101  0.0972 -0.4283  0.1456
 7315SOL    HW133581   2.510   4.162   7.128  0.5751 -0.2922 -1.1932
 7315SOL    HW233582   2.463   4.255   7.034 -1.9777 -0.1591 -0.7820
 7316SOL     OW33583   4.283   3.699   1.021  0.3841  1.0621 -0.1905
 7316SOL    HW133584   4.296   3.618   1.071  3.5332  0.6317 -1.7525
 7316SOL    HW233585   4.187   3.695   1.019  0.4418 -0.5063  0.0788
 7317SOL     OW33586   3.493   3.021   2.312 -0.6399 -0.1687 -0.4963
 7317SOL    HW133587   3.574   3.001   2.263 -0.3217  0.1525 -0.1025
 7317SOL    HW233588   3.479   2.937   2.356  0.8471  0.2413  0.7484
 7318SOL     OW33589   4.041   3.834  11.786 -0.1000  0.2859  0.0055
 7318SOL    HW133590   4.067   3.810  11.875 -1.4680 -0.1297  0.3039
 7318SOL    HW233591   4.115   3.887  11.758  0.2516  0.1362  0.6587
 7319SOL     OW33592   2.793   0.766   3.122  0.2126  0.3944  0.5886
 7319SOL    HW133593   2.883   0.799   3.127  0.0061  0.9627  0.5419
 7319SOL    HW233594   2.793   0.707   3.197 -1.9203 -0.3979 -0.0290
 7320SOL     OW33595   1.267   2.738   2.650  0.3419  0.0063  0.4525
 7320SOL    HW133596   1.217   2.770   2.725 -0.1295  0.1462  0.0857
 7320SOL    HW233597   1.295   2.816   2.602 -1.3344  0.0932 -0.3793
 7321SOL     OW33598   4.623   0.376   0.072  0.4823  0.4283  0.1566
 7321SOL    HW133599   4.641   0.362  17.718  2.2116  1.6809  0.2897
 7321SOL    HW233600   4.703   0.417   0.105  0.6047 -0.8038  1.3862
 7322SOL     OW33601   1.855   3.925   0.583 -0.0116 -0.5187 -0.1721
 7322SOL    HW133602   1.812   3.866   0.521 -1.0660  1.2351 -1.1057
 7322SOL    HW233603   1.933   3.946   0.532 -0.8874  0.4374 -1.1165
 7323SOL     OW33604   2.097   1.861   2.973  0.6780  0.1873  0.9599
 7323SOL    HW133605   2.033   1.915   3.018  1.9048  0.7478  2.0075
 7323SOL    HW233606   2.172   1.876   3.031  0.5319 -1.0978  1.4927
 7324SOL     OW33607   1.491   2.064   5.427  0.1445 -0.0171 -0.1600
 7324SOL    HW133608   1.564   2.121   5.402  0.9491 -1.1341 -0.3529
 7324SOL    HW233609   1.527   1.984   5.467  1.0000  0.3639 -0.1564
 7325SOL     OW33610   1.813   0.926   4.995  0.5530  0.5285  1.0645
 7325SOL    HW133611   1.757   0.870   4.942 -0.4173  2.2091  0.2883
 7325SOL    HW233612   1.851   0.858   5.050 -0.0734  0.1204  0.9881
 7326SOL     OW33613   4.228   3.272   1.552  0.2242 -0.4975 -0.3410
 7326SOL    HW133614   4.291   3.338   1.521 -1.4282  1.8741  1.3189
 7326SOL    HW233615   4.159   3.285   1.486 -2.6262 -0.6812  2.6323
 7327SOL     OW33616   4.198   4.581  14.237 -0.0720 -0.2378 -0.0408
 7327SOL    HW133617   4.286   4.606  14.211  0.1463  0.2855  1.2040
 7327SOL    HW233618   4.149   4.590  14.155 -0.5478 -0.8480  0.1726
 7328SOL     OW33619   1.405   1.591   0.257  0.0817  0.0038  0.0165
 7328SOL    HW133620   1.362   1.509   0.281 -2.0239 -0.1203 -4.0921
 7328SOL    HW233621   1.353   1.649   0.312 -1.9703 -1.4470 -0.3817
 7329SOL     OW33622   0.460   2.337  14.165  0.3542 -0.4849  0.5347
 7329SOL    HW133623   0.501   2.299  14.243 -0.3405  1.0115  1.6296
 7329SOL    HW233624   0.508   2.282  14.102  0.6993 -0.1140  0.4749
 7330SOL     OW33625   4.192   0.591   1.551  0.1244 -0.1470  0.6084
 7330SOL    HW133626   4.223   0.651   1.619  0.3116 -1.0408  1.3180
 7330SOL    HW233627   4.100   0.604   1.575  0.1228  3.2843 -1.2789
 7331SOL     OW33628   0.770   2.318  13.137  0.5392 -0.1335  0.1304
 7331SOL    HW133629   0.846   2.375  13.143  2.2910 -2.4968  0.2428
 7331SOL    HW233630   0.776   2.291  13.046 -0.4041 -0.6829  0.2329
 7332SOL     OW33631   1.308   1.639   3.166 -0.2623  0.0805 -0.0993
 7332SOL    HW133632   1.403   1.632   3.151 -0.0347  1.1192  0.8321
 7332SOL    HW233633   1.286   1.596   3.083 -0.1779  0.6967 -0.4357
 7333SOL     OW33634   2.640   0.476  14.250 -0.2675  0.5391 -0.5445
 7333SOL    HW133635   2.555   0.434  14.240  1.6201 -3.1727 -0.8650
 7333SOL    HW233636   2.625   0.559  14.204 -2.1852 -0.3242 -1.4916
 7334SOL     OW33637   2.801   3.226   2.562 -0.5682  0.2412 -0.0593
 7334SOL    HW133638   2.860   3.188   2.628  2.2659  2.5126 -1.3137
 7334SOL    HW233639   2.817   3.175   2.483  1.2031 -0.7913  0.9509
 7335SOL     OW33640   0.190   3.848  11.461 -0.4392  0.0841 -0.0555
 7335SOL    HW133641   0.126   3.905  11.504  0.2161  0.3150  0.6301
 7335SOL    HW233642   0.136   3.796  11.402 -2.9969  1.7485  0.7893
 7336SOL     OW33643   1.929   3.643   1.969  0.3430  0.3017 -0.4350
 7336SOL    HW133644   1.953   3.562   2.013 -0.7069 -0.2526 -0.8912
 7336SOL    HW233645   1.836   3.627   1.953  0.5259 -0.6020 -0.6060
 7337SOL     OW33646   1.833   0.319  14.402 -1.0583 -0.0505  0.0351
 7337SOL    HW133647   1.890   0.285  14.333 -0.4083  2.2772 -0.5909
 7337SOL    HW233648   1.871   0.404  14.425  0.1890 -0.1487 -1.6862
 7338SOL     OW33649   2.662   2.796   6.583  0.1501  0.0324 -0.0769
 7338SOL    HW133650   2.634   2.707   6.559  2.7260 -0.5227 -1.0169
 7338SOL    HW233651   2.579   2.844   6.590  0.7503  0.8390  1.4327
 7339SOL     OW33652   2.543   3.884  12.069  0.4947  0.3191 -0.2344
 7339SOL    HW133653   2.457   3.906  12.032  0.2188 -2.2700 -1.1034
 7339SOL    HW233654   2.554   3.966  12.118 -1.5499  1.3250 -1.4327
 7340SOL     OW33655   4.148   4.247  10.839 -0.1744 -0.4376  0.2149
 7340SOL    HW133656   4.123   4.271  10.749 -0.6516 -1.1456  0.1573
 7340SOL    HW233657   4.112   4.321  10.889 -0.7196 -1.2707  1.0507
 7341SOL     OW33658   1.966   3.855   8.563  0.0428  0.8007  0.3633
 7341SOL    HW133659   2.018   3.935   8.555 -0.2998  1.3377  3.2339
 7341SOL    HW233660   1.878   3.892   8.556  0.8842  1.9671 -4.0507
 7342SOL     OW33661   1.495   4.287  12.983  0.3459  0.1506  0.4330
 7342SOL    HW133662   1.472   4.203  13.023  0.0694 -0.3048 -0.6631
 7342SOL    HW233663   1.561   4.319  13.044 -0.0758 -0.9473  1.4730
 7343SOL     OW33664   0.486   2.947   4.336 -0.2941  0.1476 -0.1937
 7343SOL    HW133665   0.540   2.903   4.401  1.7217 -0.6705 -2.4287
 7343SOL    HW233666   0.467   3.032   4.377  2.0594  0.1245  0.9287
 7344SOL     OW33667   2.857   0.923   1.221  0.4619  0.1911 -0.1203
 7344SOL    HW133668   2.825   0.847   1.270  2.8970 -0.7747 -0.0391
 7344SOL    HW233669   2.847   0.989   1.290  1.5003  0.4871 -0.2552
 7345SOL     OW33670   3.773   3.900  12.022  0.0327 -0.7880 -0.4426
 7345SOL    HW133671   3.784   3.893  11.927  0.3387 -0.0324 -0.4625
 7345SOL    HW233672   3.711   3.829  12.038 -1.2725  0.0728 -1.7281
 7346SOL     OW33673   4.253   3.205   7.319  0.7233  0.2898  0.0678
 7346SOL    HW133674   4.292   3.160   7.245 -1.3434  2.0544 -2.0917
 7346SOL    HW233675   4.303   3.287   7.311  1.2491 -0.0243  0.1695
 7347SOL     OW33676   3.107   1.357   2.437  0.3105 -0.4894  0.4972
 7347SOL    HW133677   3.129   1.431   2.380 -0.0286 -1.3428 -0.7203
 7347SOL    HW233678   3.089   1.291   2.371 -0.7415 -0.1165  0.4193
 7348SOL     OW33679   3.171   1.114  12.706 -0.4611 -0.1807 -0.2235
 7348SOL    HW133680   3.210   1.085  12.624 -0.6271 -1.0550  0.0117
 7348SOL    HW233681   3.210   1.052  12.767 -1.6601 -2.2932 -1.6113
 7349SOL     OW33682   2.498   1.995   9.053 -1.0300 -0.0765 -0.8473
 7349SOL    HW133683   2.473   2.088   9.054 -3.2658 -0.6673 -0.5983
 7349SOL    HW233684   2.584   2.007   9.092 -1.1772  2.3003 -1.2337
 7350SOL     OW33685   1.369   1.519   3.521 -0.1485 -0.1745 -0.3283
 7350SOL    HW133686   1.277   1.517   3.493 -0.2336 -0.9217 -0.0073
 7350SOL    HW233687   1.404   1.579   3.455 -0.3485 -0.4023 -0.6492
 7351SOL     OW33688   1.441   3.417   4.833  0.1619 -0.2109 -0.2861
 7351SOL    HW133689   1.450   3.481   4.762  0.2663  1.3240  1.1009
 7351SOL    HW233690   1.513   3.423   4.895  0.3234  1.3280 -0.6210
 7352SOL     OW33691   2.768   2.826   6.282 -0.3728 -0.3033 -0.1431
 7352SOL    HW133692   2.697   2.772   6.315 -1.6947  0.5627 -1.5669
 7352SOL    HW233693   2.729   2.912   6.294  0.9085  0.8820 -4.2485
 7353SOL     OW33694   2.666   0.220   5.025  0.0199  1.0545  0.3868
 7353SOL    HW133695   2.696   0.226   5.115  1.3458  1.3981 -0.0745
 7353SOL    HW233696   2.596   0.155   5.019  0.7385  0.2638  0.6266
 7354SOL     OW33697   4.108   1.911  15.907  0.2196  0.3652 -0.0127
 7354SOL    HW133698   4.130   2.004  15.919 -2.5672  1.0184  0.1560
 7354SOL    HW233699   4.112   1.906  15.812 -2.7756 -0.7072 -0.0868
 7355SOL     OW33700   4.221   1.326   5.124  0.0564  0.2803  0.2046
 7355SOL    HW133701   4.226   1.374   5.041  2.8177 -0.8234 -0.2956
 7355SOL    HW233702   4.139   1.364   5.153 -0.2310  0.5172 -0.9081
 7356SOL     OW33703   4.300   2.346   2.643 -0.0371 -0.5163  1.0243
 7356SOL    HW133704   4.309   2.334   2.738 -0.8756 -0.9593  1.0489
 7356SOL    HW233705   4.207   2.368   2.644  0.0257 -0.1649 -0.4016
 7357SOL     OW33706   1.217   0.071   8.093  0.3901 -0.1609 -0.2815
 7357SOL    HW133707   1.215   0.166   8.083 -0.0751 -0.0872  0.5262
 7357SOL    HW233708   1.162   0.046   8.018  0.3172  1.2543 -0.6886
 7358SOL     OW33709   0.050   3.648  15.185  0.0749  0.0839  0.4011
 7358SOL    HW133710   0.032   3.694  15.267  1.1937  0.0432  0.6655
 7358SOL    HW233711   0.135   3.681  15.157  0.4063 -1.8237 -0.8319
 7359SOL     OW33712   2.433   2.159   3.108  0.2763 -0.1411  0.1338
 7359SOL    HW133713   2.486   2.168   3.187  1.6821 -1.8083 -0.6040
 7359SOL    HW233714   2.481   2.219   3.050  1.7379 -1.4476 -0.0308
 7360SOL     OW33715   2.347   4.596   0.256  0.0117 -0.1106 -0.1142
 7360SOL    HW133716   2.382   4.508   0.271  3.1316  1.5438  2.2244
 7360SOL    HW233717   2.337   4.634   0.344 -0.9084  0.6210 -0.5287
 7361SOL     OW33718   2.329   2.468  12.931 -0.1555 -0.1201  0.4113
 7361SOL    HW133719   2.300   2.478  12.840  1.5907  0.1648 -0.1114
 7361SOL    HW233720   2.246   2.466  12.979  0.0307 -0.3468  0.7182
 7362SOL     OW33721   4.011   3.841   3.061  0.1541 -0.2644 -0.4692
 7362SOL    HW133722   3.993   3.749   3.079  2.2504 -0.7216 -0.7416
 7362SOL    HW233723   3.932   3.860   3.010  0.1422  1.0715  0.0452
 7363SOL     OW33724   3.089   1.647   8.671  0.3585 -0.2830 -0.1422
 7363SOL    HW133725   3.089   1.559   8.633 -0.3861  0.6417 -2.2794
 7363SOL    HW233726   3.117   1.703   8.598 -2.0029  0.0556 -0.8226
 7364SOL     OW33727   2.079   1.201  13.521 -0.6688  0.1897 -0.1454
 7364SOL    HW133728   2.052   1.283  13.561  0.1182  0.2304  0.2851
 7364SOL    HW233729   2.085   1.237  13.432 -1.7510  1.1928  0.1858
 7365SOL     OW33730   3.070   4.619  16.742 -0.2566  0.6729  0.3967
 7365SOL    HW133731   3.002   4.671  16.785 -0.8583 -0.1293  0.4135
 7365SOL    HW233732   3.144   4.651  16.794  0.4908 -1.1814  0.4568
 7366SOL     OW33733   1.863   0.984   8.675  0.1339 -0.1581 -0.0395
 7366SOL    HW133734   1.939   0.933   8.647  1.0468  0.3015  1.5609
 7366SOL    HW233735   1.823   0.927   8.741 -0.6992  0.3978 -0.0609
 7367SOL     OW33736   4.204   2.900   5.092  0.1871  0.6029 -0.6318
 7367SOL    HW133737   4.294   2.897   5.059 -0.3069 -0.9660 -1.8503
 7367SOL    HW233738   4.164   2.963   5.031  1.3388  1.1786 -0.7872
 7368SOL     OW33739   1.746   0.195  12.807 -0.5316  0.1059  0.0829
 7368SOL    HW133740   1.656   0.206  12.835  0.0809 -0.3610  2.2146
 7368SOL    HW233741   1.753   0.280  12.763  0.8148 -0.5102 -0.9113
 7369SOL     OW33742   1.436   4.395  17.546 -0.1075 -0.4609 -0.0859
 7369SOL    HW133743   1.366   4.360  17.601  0.6186  0.5531  1.4689
 7369SOL    HW233744   1.391   4.475  17.517 -0.2414 -0.6004 -0.2615
 7370SOL     OW33745   1.469   3.210   6.250 -0.6657 -0.0718  0.0145
 7370SOL    HW133746   1.561   3.236   6.250 -0.7663  0.2923  0.1492
 7370SOL    HW233747   1.463   3.188   6.343 -0.1169 -3.5374 -0.7988
 7371SOL     OW33748   1.159   0.447   4.012 -0.3093 -0.0930 -0.2544
 7371SOL    HW133749   1.109   0.528   4.020  3.0201  1.8034  1.3609
 7371SOL    HW233750   1.117   0.396   4.082 -2.1415  2.6283  0.6128
 7372SOL     OW33751   2.839   2.109   7.307 -0.3745  0.3175  0.2232
 7372SOL    HW133752   2.789   2.115   7.389 -1.5083 -0.9900 -0.3621
 7372SOL    HW233753   2.888   2.029   7.327  1.1459  1.3078  0.3994
 7373SOL     OW33754   3.301   0.903   3.382  0.3170 -0.1780 -0.9061
 7373SOL    HW133755   3.352   0.929   3.306 -0.2797  2.5013 -0.3938
 7373SOL    HW233756   3.353   0.826   3.407 -2.0183 -1.0636  1.3194
 7374SOL     OW33757   2.835   4.230   3.767 -0.1468  0.0914 -0.4543
 7374SOL    HW133758   2.894   4.294   3.728 -1.1795  1.1764 -0.2167
 7374SOL    HW233759   2.814   4.168   3.698 -1.5310 -0.4308  0.4409
 7375SOL     OW33760   2.298   3.722   6.152 -0.6300 -0.6324 -0.2119
 7375SOL    HW133761   2.284   3.787   6.221  0.0136 -0.0531 -0.6304
 7375SOL    HW233762   2.209   3.715   6.116  0.0065  0.2086 -1.9362
 7376SOL     OW33763   1.441   0.589   7.307 -0.6830  0.0218 -0.7392
 7376SOL    HW133764   1.383   0.602   7.382  1.0584 -2.1121  0.9936
 7376SOL    HW233765   1.389   0.530   7.253 -1.1949 -0.0835 -0.1298
 7377SOL     OW33766   2.108   3.004   7.023  0.1191 -0.0011 -0.2809
 7377SOL    HW133767   2.128   3.096   7.041  0.4415  0.2983 -2.1293
 7377SOL    HW233768   2.117   2.999   6.928  0.7354  0.1486 -0.2260
 7378SOL     OW33769   2.733   4.406   1.657  0.0406  0.5842  0.0717
 7378SOL    HW133770   2.683   4.479   1.622  0.0595  0.4534 -0.2247
 7378SOL    HW233771   2.801   4.457   1.701  0.7622 -1.0386  0.8581
 7379SOL     OW33772   4.653   0.259  12.911  0.3431 -0.0501  0.3751
 7379SOL    HW133773   4.637   0.317  12.837 -0.5086 -1.7379 -0.7645
 7379SOL    HW233774   4.577   0.202  12.926  2.4498 -3.1561 -0.6563
 7380SOL     OW33775   0.497   1.280   9.848  0.0519 -0.1617  0.0273
 7380SOL    HW133776   0.578   1.257   9.894  0.3506 -2.1966 -1.5012
 7380SOL    HW233777   0.526   1.303   9.760  0.5404 -1.2052 -0.0848
 7381SOL     OW33778   0.408   4.239   4.559  0.4405 -0.0879  0.7108
 7381SOL    HW133779   0.339   4.234   4.494  0.2728 -0.9108  0.9612
 7381SOL    HW233780   0.486   4.209   4.512 -0.1694 -2.1566  1.0146
 7382SOL     OW33781   0.721   3.974  17.692  0.5464 -0.3962 -0.4208
 7382SOL    HW133782   0.775   3.898  17.714  1.8209  1.3173  2.3793
 7382SOL    HW233783   0.645   3.978   0.011  0.2046  0.7080 -0.9420
 7383SOL     OW33784   1.921   3.805   3.091 -0.7854 -0.1216  0.7655
 7383SOL    HW133785   2.009   3.813   3.054  0.3252 -2.0399  2.9113
 7383SOL    HW233786   1.865   3.748   3.039  2.0131 -0.9229 -1.3839
 7384SOL     OW33787   2.763   0.622  16.540 -0.0059 -0.3685  0.0005
 7384SOL    HW133788   2.707   0.654  16.469 -1.4185  0.3709  1.4334
 7384SOL    HW233789   2.841   0.599  16.490  2.4772  1.0711  3.1730
 7385SOL     OW33790   1.408   2.950   1.955  0.1357  0.3543 -0.4044
 7385SOL    HW133791   1.387   3.021   2.015  0.2779 -1.2233  1.5071
 7385SOL    HW233792   1.477   2.994   1.905  0.6717  0.8077  0.7441
 7386SOL     OW33793   1.876   3.393   8.832  0.1778 -0.3372 -0.3751
 7386SOL    HW133794   1.819   3.469   8.824 -0.1708 -0.5740 -0.1797
 7386SOL    HW233795   1.828   3.324   8.786  0.0440  0.1425 -0.9412
 7387SOL     OW33796   2.600   1.296   4.773 -0.5615  0.3925  0.4985
 7387SOL    HW133797   2.579   1.202   4.779 -2.2106  0.7570  0.4046
 7387SOL    HW233798   2.605   1.317   4.866  0.8495  0.8834  0.2989
 7388SOL     OW33799   0.482   3.800   6.052  0.1959 -0.0621 -0.0751
 7388SOL    HW133800   0.563   3.771   6.011 -0.9790  0.1045 -2.4676
 7388SOL    HW233801   0.434   3.821   5.972  0.1769  1.4454  0.3402
 7389SOL     OW33802   0.802   4.529   5.009 -0.0493  0.3113 -0.1320
 7389SOL    HW133803   0.848   4.497   5.087  2.0715  1.3414 -0.9748
 7389SOL    HW233804   0.819   4.454   4.952  1.4344  0.5486  0.0002
 7390SOL     OW33805   4.349   2.597  15.985  0.0190  0.0153 -0.6109
 7390SOL    HW133806   4.304   2.669  16.028  0.2020 -0.2958  0.1151
 7390SOL    HW233807   4.370   2.636  15.901  0.2014 -1.2831 -1.1759
 7391SOL     OW33808   0.056   1.980   6.625 -0.2293  0.0363  0.7840
 7391SOL    HW133809   0.000   1.913   6.586 -2.1319  2.7795 -1.2359
 7391SOL    HW233810   0.139   1.975   6.577  0.4173  0.9023  1.8021
 7392SOL     OW33811   0.170   0.862   8.656  0.1978  0.3354 -0.0817
 7392SOL    HW133812   0.184   0.822   8.570  2.2353  0.4333  0.1976
 7392SOL    HW233813   0.084   0.830   8.683 -0.4982  1.1574 -1.3341
 7393SOL     OW33814   3.370   1.201   1.658  0.2793  0.2368  0.0826
 7393SOL    HW133815   3.378   1.237   1.570  0.1145 -0.7901 -0.3525
 7393SOL    HW233816   3.459   1.207   1.692  0.3754 -0.4244 -0.0693
 7394SOL     OW33817   4.057   4.269  11.723  0.0645  0.8642  0.7974
 7394SOL    HW133818   4.044   4.275  11.628  1.3037 -1.7802  0.4670
 7394SOL    HW233819   4.137   4.217  11.729 -2.3138 -3.1837 -2.4399
 7395SOL     OW33820   1.665   1.091   2.944 -0.2016  0.6569 -0.4621
 7395SOL    HW133821   1.601   1.106   3.013 -0.0761  1.7524 -0.5822
 7395SOL    HW233822   1.738   1.146   2.972  0.8663 -1.6245  1.1853
 7396SOL     OW33823   0.267   3.497  15.359 -0.4805 -0.0126  0.0308
 7396SOL    HW133824   0.337   3.453  15.311 -2.0426 -1.2087 -1.1750
 7396SOL    HW233825   0.317   3.567  15.399  0.2446  0.6809 -2.0750
 7397SOL     OW33826   0.004   0.241   3.406 -0.3261  0.0471 -0.1574
 7397SOL    HW133827   4.734   0.249   3.501 -2.4106 -1.0673 -0.1670
 7397SOL    HW233828   0.083   0.290   3.382 -0.8008  1.6829  1.6471
 7398SOL     OW33829   0.629   2.239  15.483  0.2467 -0.3878 -0.1727
 7398SOL    HW133830   0.547   2.204  15.447 -1.1438  1.5844  1.0282
 7398SOL    HW233831   0.675   2.290  15.417 -0.4814  0.4631 -0.0231
 7399SOL     OW33832   1.639   3.787   5.286  0.0234 -0.0644  0.1721
 7399SOL    HW133833   1.727   3.771   5.319  0.4145  0.3150 -0.6937
 7399SOL    HW233834   1.636   3.883   5.289  0.5198 -0.0739  1.2316
 7400SOL     OW33835   2.570   3.494  11.732 -0.2784  0.2277  0.3612
 7400SOL    HW133836   2.655   3.537  11.742 -0.0660 -0.6494  2.2684
 7400SOL    HW233837   2.528   3.560  11.677  2.3492  1.7641  0.2130
 7401SOL     OW33838   2.150   3.046   5.464  0.1276  0.3696  0.0808
 7401SOL    HW133839   2.175   3.134   5.435  1.0614 -0.2224 -0.8961
 7401SOL    HW233840   2.172   3.040   5.557  0.8672  0.9377 -0.0577
 7402SOL     OW33841   3.570   3.406   3.996  0.0791  0.0006  0.0989
 7402SOL    HW133842   3.627   3.436   3.926  1.3013 -2.0456  0.2074
 7402SOL    HW233843   3.512   3.480   4.014 -0.7057 -0.8122  0.9605
 7403SOL     OW33844   3.370   1.098   4.560  0.0584 -0.6254  0.2576
 7403SOL    HW133845   3.283   1.138   4.555  0.2803 -0.1069  0.5553
 7403SOL    HW233846   3.434   1.169   4.569 -2.6030  1.8737 -0.2012
 7404SOL     OW33847   4.224   2.226  13.942 -0.0534 -0.2875 -0.3202
 7404SOL    HW133848   4.173   2.212  14.022 -0.2577 -0.1398 -0.4263
 7404SOL    HW233849   4.255   2.136  13.942  1.6321  0.3022 -0.9534
 7405SOL     OW33850   0.827   0.701  12.774 -0.4802  0.0767 -0.1395
 7405SOL    HW133851   0.802   0.792  12.756 -0.3585 -0.2983 -2.2551
 7405SOL    HW233852   0.827   0.677  12.681  0.1876  1.1914 -0.4286
 7406SOL     OW33853   2.844   0.225   7.704 -0.0429 -0.2923  0.7366
 7406SOL    HW133854   2.766   0.279   7.692 -0.4588 -0.8747  0.8419
 7406SOL    HW233855   2.914   0.290   7.695  0.2463 -0.8013 -0.8179
 7407SOL     OW33856   2.825   3.633  15.188  0.6224  0.5833 -0.1700
 7407SOL    HW133857   2.775   3.712  15.206  0.0986  0.2449 -0.1544
 7407SOL    HW233858   2.766   3.579  15.136 -0.9035 -0.6174  2.8558
 7408SOL     OW33859   4.588   0.348   5.361  0.1881  0.0500  0.1140
 7408SOL    HW133860   4.501   0.366   5.396 -0.8755 -1.0408 -2.0202
 7408SOL    HW233861   4.585   0.252   5.360  0.6673  0.0442 -0.6817
 7409SOL     OW33862   2.531   1.518  14.610 -0.4323 -0.1334 -0.2197
 7409SOL    HW133863   2.573   1.439  14.645 -1.7144  0.0600  1.7049
 7409SOL    HW233864   2.445   1.478  14.595  0.9425 -2.5288 -1.8076
 7410SOL     OW33865   2.493   0.791  13.572  0.3029  0.0811 -0.3077
 7410SOL    HW133866   2.572   0.844  13.569 -0.0021  0.3713 -2.9765
 7410SOL    HW233867   2.422   0.854  13.580  1.1903  0.7873  2.1188
 7411SOL     OW33868   0.418   2.488  12.801 -0.2471 -0.8516  0.2517
 7411SOL    HW133869   0.455   2.418  12.855 -0.1940  0.6671  2.1448
 7411SOL    HW233870   0.440   2.455  12.714  0.9010  0.6983 -0.0313
 7412SOL     OW33871   1.999   4.094  10.225 -0.2936  0.4296 -0.3031
 7412SOL    HW133872   1.986   4.011  10.271  3.1979  0.4675  0.7226
 7412SOL    HW233873   1.928   4.097  10.160 -0.7093 -0.7513  0.0930
 7413SOL     OW33874   4.557   1.018   2.952 -0.5101 -0.8816 -0.2684
 7413SOL    HW133875   4.572   1.012   2.857 -1.6472  2.0067 -0.6063
 7413SOL    HW233876   4.486   1.081   2.955 -0.5636 -0.9081 -0.9536
 7414SOL     OW33877   2.800   2.425  12.643 -0.3939  0.1986 -0.1380
 7414SOL    HW133878   2.846   2.343  12.664  0.6056  0.6576 -0.5511
 7414SOL    HW233879   2.728   2.417  12.706  0.6878  1.0559  1.2086
 7415SOL     OW33880   3.191   2.712   8.889  0.4870 -0.1137 -0.1412
 7415SOL    HW133881   3.250   2.768   8.839  0.4397 -1.3518 -1.5747
 7415SOL    HW233882   3.112   2.764   8.897 -0.1933 -1.4000  1.6138
 7416SOL     OW33883   3.067   0.905   7.102  0.2823 -0.1780 -0.0388
 7416SOL    HW133884   3.057   0.975   7.038  2.3472 -0.3413 -0.5462
 7416SOL    HW233885   3.153   0.925   7.138  0.1592 -0.7503  0.5572
 7417SOL     OW33886   1.988   1.970   3.752  0.0120 -0.2539 -0.1327
 7417SOL    HW133887   1.981   1.891   3.806  1.4573 -1.1935 -1.3277
 7417SOL    HW233888   1.947   2.036   3.809 -0.9520 -0.1765 -0.9272
 7418SOL     OW33889   3.594   4.501   3.529 -1.0324  0.2571  0.2527
 7418SOL    HW133890   3.649   4.544   3.464 -1.2157 -2.0084 -1.3815
 7418SOL    HW233891   3.610   4.561   3.603 -0.1282 -2.1289  1.9874
 7419SOL     OW33892   4.702   1.439   1.239 -0.4240 -0.0017 -0.1448
 7419SOL    HW133893   4.618   1.436   1.284 -1.5570 -1.3838 -2.3336
 7419SOL    HW233894   0.009   1.372   1.293 -1.3240 -0.5416 -0.1074
 7420SOL     OW33895   3.776   4.010   1.519 -0.2009  0.1269 -0.0531
 7420SOL    HW133896   3.714   3.979   1.585 -0.5504 -1.7486 -1.2469
 7420SOL    HW233897   3.796   4.098   1.550  1.7346 -0.7957  1.2973
 7421SOL     OW33898   1.181   4.413   7.159  0.6016 -0.4146 -0.3437
 7421SOL    HW133899   1.240   4.398   7.085  1.0745  1.5214 -0.3510
 7421SOL    HW233900   1.182   4.326   7.200  0.8445 -0.0473  0.4177
 7422SOL     OW33901   1.752   0.613   4.331 -0.2041 -0.7614 -0.0899
 7422SOL    HW133902   1.840   0.649   4.319 -0.0641 -0.8739  0.5668
 7422SOL    HW233903   1.735   0.559   4.254  3.8265  0.3809 -1.7596
 7423SOL     OW33904   4.426   2.622   7.462  0.4020 -0.2351 -0.0837
 7423SOL    HW133905   4.386   2.708   7.444 -2.6078 -1.9046 -1.4291
 7423SOL    HW233906   4.512   2.639   7.423  0.6103 -1.0078  0.0509
 7424SOL     OW33907   2.676   1.958   4.319  1.1116 -0.2751 -0.2733
 7424SOL    HW133908   2.634   1.984   4.237  1.1584 -0.7845 -0.4572
 7424SOL    HW233909   2.611   1.898   4.357  0.7264  1.2645  1.5299
 7425SOL     OW33910   2.501   3.144   9.745  0.4666 -0.3831  0.5871
 7425SOL    HW133911   2.508   3.199   9.667 -1.0462  1.5131  1.7739
 7425SOL    HW233912   2.568   3.078   9.723 -1.5651 -2.4821  0.7187
 7426SOL     OW33913   0.523   1.247   1.142  0.5879  0.1560  0.8540
 7426SOL    HW133914   0.488   1.235   1.231 -0.9240 -1.3815  0.0559
 7426SOL    HW233915   0.462   1.308   1.102 -0.4114  0.4957  2.8696
 7427SOL     OW33916   2.355   4.135  13.495 -0.2496  0.3030 -0.9199
 7427SOL    HW133917   2.387   4.048  13.470 -1.4059 -0.3112 -0.2392
 7427SOL    HW233918   2.389   4.140  13.585 -2.2847 -0.8171 -0.0817
 7428SOL     OW33919   1.039   2.778  11.588 -0.2033 -0.0678  0.1798
 7428SOL    HW133920   1.083   2.851  11.545 -3.1841  1.4462 -0.3169
 7428SOL    HW233921   1.075   2.791  11.675 -1.9392  0.3673  0.8321
 7429SOL     OW33922   4.146   2.611   7.633  0.0992 -0.1502 -0.2132
 7429SOL    HW133923   4.075   2.646   7.580 -0.4128 -1.2290 -0.2489
 7429SOL    HW233924   4.130   2.517   7.623 -0.2892 -0.2054  0.8601
 7430SOL     OW33925   1.191   1.472   5.187  0.0668 -0.3344 -0.0617
 7430SOL    HW133926   1.245   1.500   5.261  1.4997  0.1342 -1.2766
 7430SOL    HW233927   1.239   1.511   5.113 -3.7454  1.4438 -1.5949
 7431SOL     OW33928   3.655   0.362   6.194 -0.0380  0.0335  0.0623
 7431SOL    HW133929   3.693   0.376   6.281 -0.0707  0.2442  0.0436
 7431SOL    HW233930   3.593   0.435   6.190 -1.8976 -1.5674  0.3677
 7432SOL     OW33931   0.385   0.455  11.230  0.2702  0.2904  0.3326
 7432SOL    HW133932   0.420   0.454  11.141 -0.5050  2.6314 -0.0139
 7432SOL    HW233933   0.311   0.514  11.218  0.7038  0.5289 -1.2459
 7433SOL     OW33934   2.746   0.793   0.677  0.9023  0.2552  0.6086
 7433SOL    HW133935   2.800   0.827   0.748  1.8516 -0.7477  0.3580
 7433SOL    HW233936   2.807   0.786   0.604  0.0896 -0.2386 -0.0310
 7434SOL     OW33937   0.333   1.810   3.839  0.0050  0.5887 -0.0814
 7434SOL    HW133938   0.244   1.782   3.818  1.0169 -1.2080 -1.9482
 7434SOL    HW233939   0.363   1.841   3.754 -2.0656  0.8051 -0.7125
 7435SOL     OW33940   3.904   2.098   4.093 -0.0475 -0.7189  0.0581
 7435SOL    HW133941   3.991   2.075   4.126  0.0226 -1.8671 -0.9269
 7435SOL    HW233942   3.870   2.008   4.092 -0.5436 -0.5669  1.8655
 7436SOL     OW33943   3.566   2.918   4.055 -0.1973 -0.0746 -0.0652
 7436SOL    HW133944   3.547   2.846   3.995  2.9997 -3.8202  3.3343
 7436SOL    HW233945   3.532   2.992   4.006  1.1295 -0.4617 -1.5649
 7437SOL     OW33946   3.183   0.244  11.557  0.4975 -0.2139  0.6371
 7437SOL    HW133947   3.099   0.264  11.516  1.3482 -0.0542 -1.0421
 7437SOL    HW233948   3.173   0.166  11.611 -1.4542 -0.2127  0.2902
 7438SOL     OW33949   3.442   1.812  17.061  0.2070  0.3351  0.0920
 7438SOL    HW133950   3.485   1.793  16.978  2.1136  1.5102  0.8264
 7438SOL    HW233951   3.365   1.855  17.023  1.5286  0.6678 -2.1990
 7439SOL     OW33952   4.175   0.457   4.895 -0.4027 -0.4913 -0.0979
 7439SOL    HW133953   4.168   0.399   4.820  0.3963  2.1180 -2.1814
 7439SOL    HW233954   4.241   0.520   4.866  0.4593 -1.6224 -0.5904
 7440SOL     OW33955   3.825   0.252  14.348 -0.2136  0.1834 -0.5288
 7440SOL    HW133956   3.775   0.217  14.422 -1.0140 -0.4217 -1.3638
 7440SOL    HW233957   3.762   0.321  14.324  0.1335  0.7960  0.2906
 7441SOL     OW33958   4.252   1.444  14.246 -0.4335  0.3673 -0.0389
 7441SOL    HW133959   4.188   1.373  14.239 -1.2914  1.0851  0.4482
 7441SOL    HW233960   4.320   1.404  14.300 -1.3244  0.3372  1.0438
 7442SOL     OW33961   0.757   2.671   6.860  0.2489 -0.3418  0.0086
 7442SOL    HW133962   0.745   2.640   6.770 -2.7612 -0.9630  0.6270
 7442SOL    HW233963   0.833   2.620   6.889 -0.5881 -1.2733  0.5725
 7443SOL     OW33964   4.720   1.070  17.046  0.2018  0.0188  0.4817
 7443SOL    HW133965   4.731   0.976  17.054  0.2380  0.0719  1.0054
 7443SOL    HW233966   4.633   1.087  17.081 -0.5500  0.0230 -1.3884
 7444SOL     OW33967   1.019   2.132   9.238 -0.0700  0.1323  0.1832
 7444SOL    HW133968   1.044   2.168   9.323 -0.2411 -1.1450  0.7578
 7444SOL    HW233969   1.098   2.155   9.188 -0.6560 -0.6770 -1.1164
 7445SOL     OW33970   2.911   1.795  17.514 -0.4521  0.3217 -0.5556
 7445SOL    HW133971   2.938   1.740  17.587  1.3011  1.3957 -0.3788
 7445SOL    HW233972   2.826   1.823  17.547  0.1740 -0.8283  1.9822
 7446SOL     OW33973   3.149   2.540   8.435 -0.1268  0.1350  0.6874
 7446SOL    HW133974   3.142   2.635   8.448  3.4055  0.5267 -0.0140
 7446SOL    HW233975   3.094   2.507   8.505 -1.0693  0.5392  0.1285
 7447SOL     OW33976   3.631   2.992   4.417  0.1158 -0.5000 -0.2828
 7447SOL    HW133977   3.554   3.049   4.422 -0.9466 -1.8614 -0.8019
 7447SOL    HW233978   3.697   3.049   4.456  2.5568 -1.7304 -2.5940
 7448SOL     OW33979   2.554   0.952   7.727  0.4216 -0.0599 -0.0698
 7448SOL    HW133980   2.470   0.994   7.708 -0.4222 -1.1136  1.2703
 7448SOL    HW233981   2.582   1.005   7.802 -2.4724 -0.2200  1.1250
 7449SOL     OW33982   1.383   3.661   1.682 -0.2127  0.0574  0.2145
 7449SOL    HW133983   1.327   3.591   1.716  0.9775 -0.5027  0.9918
 7449SOL    HW233984   1.322   3.695   1.616  0.3544 -1.5969 -1.1568
 7450SOL     OW33985   2.052   1.337   2.190 -0.5781 -0.0003 -0.5850
 7450SOL    HW133986   2.102   1.410   2.226  1.2495 -1.8737  0.6886
 7450SOL    HW233987   2.084   1.257   2.232 -1.2191  0.3284  0.5211
 7451SOL     OW33988   4.113   2.211   1.044 -0.4207 -0.4719 -1.0362
 7451SOL    HW133989   4.066   2.134   1.012 -1.5659 -0.0069 -0.4674
 7451SOL    HW233990   4.185   2.212   0.981  0.1862 -0.1232 -0.3300
 7452SOL     OW33991   2.127   0.681  17.672 -0.3010  0.0783 -0.4262
 7452SOL    HW133992   2.054   0.718  17.623 -0.5159 -0.6564 -0.6694
 7452SOL    HW233993   2.189   0.673  17.599 -0.5932 -0.8445 -0.5713
 7453SOL     OW33994   1.794   4.563   9.133  0.0139  0.4969  0.6729
 7453SOL    HW133995   1.834   4.494   9.081 -0.0630 -0.1009  1.4115
 7453SOL    HW233996   1.866   4.624   9.150 -0.7187  1.3425  0.7629
 7454SOL     OW33997   1.715   4.002   8.505  0.4383 -0.1467 -0.0531
 7454SOL    HW133998   1.714   4.068   8.435  0.4657 -0.6410 -0.5128
 7454SOL    HW233999   1.637   3.956   8.476  1.2970 -0.2746 -2.1622
 7455SOL     OW34000   1.121   3.624   7.776  0.6996 -0.1033  0.5672
 7455SOL    HW134001   1.187   3.559   7.799  3.2228  2.1776 -0.2543
 7455SOL    HW234002   1.096   3.585   7.692 -0.9509  0.3561  0.8358
 7456SOL     OW34003   4.482   0.937   2.676 -0.2231 -0.1895  0.3887
 7456SOL    HW134004   4.544   0.948   2.603  0.4232  1.3793  1.1909
 7456SOL    HW234005   4.436   1.019   2.659 -2.1079 -0.9133  2.1306
 7457SOL     OW34006   4.134   4.171   5.443 -0.3463  0.1591  0.1234
 7457SOL    HW134007   4.151   4.140   5.532  0.1722  0.3972  0.1043
 7457SOL    HW234008   4.048   4.209   5.462 -0.4953 -0.5464  0.8578
 7458SOL     OW34009   0.524   0.579   4.101 -0.2470  0.2338  0.5817
 7458SOL    HW134010   0.576   0.547   4.175  1.8786  1.2192 -0.4905
 7458SOL    HW234011   0.532   0.674   4.102  0.3276  0.1935 -0.0062
 7459SOL     OW34012   0.639   3.513   7.856  0.3642 -0.0727  0.4276
 7459SOL    HW134013   0.664   3.499   7.947 -0.7451 -1.1105  0.5665
 7459SOL    HW234014   0.688   3.440   7.816 -0.2800  0.3275 -1.1198
 7460SOL     OW34015   1.717   3.417   9.407  0.3138  0.3428 -0.3963
 7460SOL    HW134016   1.660   3.374   9.470  1.3298  0.4115  0.5599
 7460SOL    HW234017   1.762   3.338   9.376  0.2050 -0.3241  1.1827
 7461SOL     OW34018   4.038   2.362   6.891 -0.3396  0.4274 -0.1192
 7461SOL    HW134019   3.980   2.407   6.953  0.6672  2.3478 -0.5474
 7461SOL    HW234020   4.089   2.427   6.842  0.0637 -1.1414 -1.7710
 7462SOL     OW34021   1.745   4.614   7.573  0.1630 -0.3006 -0.2264
 7462SOL    HW134022   1.725   4.671   7.647  2.1746  0.1993 -0.0864
 7462SOL    HW234023   1.768   4.537   7.624  1.5780 -0.4602 -1.1075
 7463SOL     OW34024   3.399   3.918   9.849  0.1802 -0.6286 -0.0405
 7463SOL    HW134025   3.421   4.008   9.827  1.2663 -0.6011  1.1609
 7463SOL    HW234026   3.338   3.887   9.782  1.2242 -1.0375 -0.7876
 7464SOL     OW34027   4.511   0.131  10.564 -0.3290 -0.3352 -0.1993
 7464SOL    HW134028   4.492   0.071  10.637  3.5500 -1.4888 -0.1311
 7464SOL    HW234029   4.429   0.125  10.514 -1.0514 -0.2842  0.9801
 7465SOL     OW34030   0.234   1.564   4.431  0.0191 -0.5526  0.0807
 7465SOL    HW134031   0.219   1.515   4.350 -0.1366  1.8255 -1.3372
 7465SOL    HW234032   0.329   1.555   4.443  0.1321 -2.4009 -2.1329
 7466SOL     OW34033   2.931   2.819   6.641 -0.1308  0.4624  0.0969
 7466SOL    HW134034   2.841   2.794   6.622  0.5375 -0.1876 -2.2172
 7466SOL    HW234035   2.967   2.733   6.619 -0.2044  0.5948 -0.5410
 7467SOL     OW34036   1.271   3.856   3.156 -0.4241 -0.3808  0.3703
 7467SOL    HW134037   1.296   3.884   3.244  0.6330  0.1819 -0.1106
 7467SOL    HW234038   1.356   3.860   3.113 -0.1409 -4.4070  0.6105
 7468SOL     OW34039   4.428   2.942   0.940 -0.3307  0.1715 -0.4133
 7468SOL    HW134040   4.517   2.971   0.918 -1.0996  1.1666 -2.2039
 7468SOL    HW234041   4.439   2.872   1.005  1.7860  1.0302  0.1815
 7469SOL     OW34042   3.166   4.044  15.815  0.3839 -0.2444  0.0099
 7469SOL    HW134043   3.081   4.057  15.771  0.9141 -0.2415 -1.0253
 7469SOL    HW234044   3.219   4.055  15.736 -0.5475  0.3858 -0.5317
 7470SOL     OW34045   4.558   1.338   2.450  0.3692  0.1493 -0.0197
 7470SOL    HW134046   4.503   1.411   2.421 -0.7546 -0.9219 -0.5620
 7470SOL    HW234047   4.647   1.375   2.452  0.1003  0.8573 -1.5616
 7471SOL     OW34048   1.993   1.717   5.410 -0.8239  0.4136 -0.2743
 7471SOL    HW134049   1.972   1.765   5.330  0.3168 -1.0715 -1.4760
 7471SOL    HW234050   1.913   1.672   5.435  0.8737 -2.8216 -0.5883
 7472SOL     OW34051   4.660   0.766  13.765 -0.0282  0.5305  0.2699
 7472SOL    HW134052   4.701   0.793  13.683  1.9179  1.9200  1.6698
 7472SOL    HW234053   4.598   0.836  13.782 -0.5343  0.1970 -0.2185
 7473SOL     OW34054   2.749   4.178   9.013  0.0716 -0.1099  0.6443
 7473SOL    HW134055   2.659   4.201   9.035  0.2660 -1.6004  3.0911
 7473SOL    HW234056   2.733   4.122   8.937 -0.7170  0.8285  0.1276
 7474SOL     OW34057   3.199   2.908   6.507  0.0444  0.0487  0.9425
 7474SOL    HW134058   3.144   2.984   6.528  0.5612  0.5510  0.4909
 7474SOL    HW234059   3.132   2.853   6.467  0.3608  0.8424 -0.6641
 7475SOL     OW34060   3.683   0.151  12.354 -0.4020  0.8135  0.8481
 7475SOL    HW134061   3.649   0.092  12.421 -1.5506 -1.8670 -2.1126
 7475SOL    HW234062   3.728   0.215  12.409  0.5516 -0.5226  1.6373
 7476SOL     OW34063   4.607   3.959   9.923 -0.0557 -0.2701 -0.1772
 7476SOL    HW134064   4.622   3.905   9.846  0.4722 -0.3826  0.0079
 7476SOL    HW234065   4.665   3.925   9.991  1.1314 -0.1872 -1.1483
 7477SOL     OW34066   2.834   1.785   4.146 -0.4197 -0.2920  0.4127
 7477SOL    HW134067   2.774   1.851   4.179 -0.2131  0.0548  0.0838
 7477SOL    HW234068   2.792   1.770   4.061 -0.9602 -0.5535  0.7216
 7478SOL     OW34069   3.818   3.983   4.587 -0.0588  1.2428 -0.5593
 7478SOL    HW134070   3.860   3.973   4.501 -1.0406 -2.4706 -0.5768
 7478SOL    HW234071   3.897   3.989   4.641  0.8719 -0.5843 -1.7258
 7479SOL     OW34072   2.298   3.639   2.065 -0.2884  0.2192 -0.5424
 7479SOL    HW134073   2.264   3.549   2.069  0.4386 -0.0574 -0.6710
 7479SOL    HW234074   2.356   3.633   1.989 -1.0190 -0.5228 -1.0512
 7480SOL     OW34075   2.577   3.774  15.074 -0.2772  0.1475 -0.4736
 7480SOL    HW134076   2.507   3.825  15.033  0.3527  0.7148 -0.8502
 7480SOL    HW234077   2.579   3.792  15.168 -0.1024 -1.4315 -0.1802
 7481SOL     OW34078   2.853   4.720  16.891  0.5126  0.8132 -0.1531
 7481SOL    HW134079   2.883   0.013  16.977 -1.9566  0.6849  0.7670
 7481SOL    HW234080   2.797   0.058  16.864 -1.9633 -1.1537 -0.3401
 7482SOL     OW34081   2.273   4.057   2.044  0.0596  0.1227  0.0174
 7482SOL    HW134082   2.360   4.095   2.053  0.0221  0.3101 -0.4462
 7482SOL    HW234083   2.280   3.992   1.975 -0.2337  1.5602 -1.3570
 7483SOL     OW34084   3.812   2.620   5.815  0.0946 -0.2508 -0.3320
 7483SOL    HW134085   3.878   2.687   5.796  0.2947 -0.7946 -1.5907
 7483SOL    HW234086   3.834   2.591   5.903  1.0153 -2.3251 -1.2295
 7484SOL     OW34087   0.757   3.243   5.560 -0.3028  0.0463  0.2028
 7484SOL    HW134088   0.667   3.232   5.591 -0.8755  2.7244 -0.5361
 7484SOL    HW234089   0.799   3.169   5.605  0.8383  0.1370 -0.7141
 7485SOL     OW34090   2.055   3.600   9.031  0.2111 -0.2772  0.4119
 7485SOL    HW134091   2.034   3.655   8.955  0.3694 -0.2225  0.4070
 7485SOL    HW234092   2.069   3.666   9.099  0.5623  0.4296 -0.3411
 7486SOL     OW34093   2.101   4.342  10.263 -0.5998  0.4957 -0.5375
 7486SOL    HW134094   2.129   4.330  10.172 -2.6765 -0.4452 -1.0636
 7486SOL    HW234095   2.050   4.262  10.277  2.0316 -0.9688  0.5355
 7487SOL     OW34096   4.503   0.251   3.270  0.2644 -0.4358 -0.4904
 7487SOL    HW134097   4.579   0.243   3.327  0.1401  1.6906 -0.0464
 7487SOL    HW234098   4.453   0.177   3.305  0.8306  1.0097  3.2513
 7488SOL     OW34099   3.554   4.714   1.527 -0.1957  0.0433  0.3431
 7488SOL    HW134100   3.576   4.710   1.434  1.7911 -1.2607  0.8736
 7488SOL    HW234101   3.576   0.068   1.554 -3.1427  0.9982 -0.4207
 7489SOL     OW34102   1.056   3.768   2.205  0.1256  0.2835 -0.1778
 7489SOL    HW134103   1.018   3.834   2.147 -0.1277 -0.3178 -0.6850
 7489SOL    HW234104   0.972   3.745   2.245  0.8228 -1.8511  0.0627
 7490SOL     OW34105   1.008   2.482   2.919  0.3825  0.5507  0.2569
 7490SOL    HW134106   0.999   2.412   2.984  2.0042 -0.0768 -0.1985
 7490SOL    HW234107   1.102   2.480   2.904  0.8625  1.1188  3.2420
 7491SOL     OW34108   3.359   0.222   8.047 -0.2973 -0.0957  0.1353
 7491SOL    HW134109   3.344   0.301   7.996  0.9443 -0.1355 -0.2738
 7491SOL    HW234110   3.446   0.251   8.073  0.6520 -0.5721 -2.5517
 7492SOL     OW34111   3.913   4.457   9.441  0.0605 -0.0310  0.0285
 7492SOL    HW134112   3.917   4.366   9.469  0.2170 -0.4215 -1.2604
 7492SOL    HW234113   3.931   4.445   9.347  0.8172  0.6921  0.0821
 7493SOL     OW34114   1.266   1.421  12.401 -0.5612  0.6247  0.2519
 7493SOL    HW134115   1.196   1.486  12.389 -1.5971 -0.3641  0.9287
 7493SOL    HW234116   1.295   1.451  12.487 -0.0182 -0.5142  0.4657
 7494SOL     OW34117   3.871   2.483   7.105  0.4692 -0.0870  0.1525
 7494SOL    HW134118   3.960   2.515   7.118 -0.8215  2.8097  1.6866
 7494SOL    HW234119   3.826   2.538   7.169  1.4547  0.6577  0.2016
 7495SOL     OW34120   2.541   3.606  12.027  0.0007  0.0991  0.0576
 7495SOL    HW134121   2.520   3.699  12.035  0.2455  0.1219  0.4511
 7495SOL    HW234122   2.493   3.566  12.100  0.3692 -0.4185  0.0094
 7496SOL     OW34123   1.806   2.790   4.026  0.0750  0.3070 -0.7609
 7496SOL    HW134124   1.855   2.803   4.107 -0.5457 -2.4646  0.0324
 7496SOL    HW234125   1.724   2.746   4.046 -0.8215  2.3520  0.1172
 7497SOL     OW34126   1.151   4.130   7.750  0.2272  0.1036 -0.0220
 7497SOL    HW134127   1.202   4.123   7.669 -0.5779 -1.6874 -0.3793
 7497SOL    HW234128   1.204   4.187   7.806  0.3913  1.5624 -1.6810
 7498SOL     OW34129   3.711   2.251   4.502 -0.0627  0.1823  0.0533
 7498SOL    HW134130   3.723   2.248   4.407 -1.8890  0.4233 -0.1735
 7498SOL    HW234131   3.623   2.215   4.503  0.0386  0.0557  3.5620
 7499SOL     OW34132   3.831   0.741   7.080  0.0587 -0.2617  0.4328
 7499SOL    HW134133   3.797   0.809   7.139  0.8705 -0.2839  0.9303
 7499SOL    HW234134   3.752   0.701   7.044  0.7985 -0.3177 -1.1348
 7500SOL     OW34135   1.689   1.401  14.850 -0.2789 -0.4413 -0.5313
 7500SOL    HW134136   1.596   1.424  14.853 -0.2412 -0.3679 -0.0291
 7500SOL    HW234137   1.715   1.461  14.780 -0.1346 -1.5286 -1.4039
 7501SOL     OW34138   0.882   4.164   7.638  0.1067 -0.5638  0.4038
 7501SOL    HW134139   0.865   4.217   7.560 -3.5729 -0.4308  1.3133
 7501SOL    HW234140   0.971   4.192   7.659  0.0064 -1.3194  1.8863
 7502SOL     OW34141   3.643   1.373   7.692  0.1958 -0.4353  0.1584
 7502SOL    HW134142   3.691   1.340   7.768 -0.5234 -1.4302  0.1947
 7502SOL    HW234143   3.683   1.459   7.687  2.3011 -1.3274  1.5528
 7503SOL     OW34144   1.170   2.946   6.703  0.3136 -0.7320  0.5680
 7503SOL    HW134145   1.159   2.861   6.746  0.6696 -0.4752  1.1629
 7503SOL    HW234146   1.253   2.927   6.659  0.8301  3.2190 -0.1995
 7504SOL     OW34147   1.657   4.597   7.330 -0.2445 -0.4850  0.0904
 7504SOL    HW134148   1.614   4.512   7.343  0.3877 -1.0862 -1.7637
 7504SOL    HW234149   1.700   4.604   7.415  0.6064  1.4976 -0.4956
 7505SOL     OW34150   4.439   1.712  13.565  0.1859 -0.2471  0.1638
 7505SOL    HW134151   4.402   1.746  13.646  1.6052  0.8983  0.3346
 7505SOL    HW234152   4.528   1.718  13.600 -0.2394  1.9299  0.8776
 7506SOL     OW34153   2.548   2.942   3.030  0.0625 -0.2213  0.2351
 7506SOL    HW134154   2.460   2.907   3.015  1.0906 -2.6057 -0.1407
 7506SOL    HW234155   2.552   2.940   3.126  3.0375  0.5199  0.1431
 7507SOL     OW34156   1.702   1.268   4.337  0.3626 -0.8783 -0.1414
 7507SOL    HW134157   1.607   1.258   4.342  0.8231 -4.1330  1.8579
 7507SOL    HW234158   1.735   1.181   4.315  0.7837 -0.9521  0.7771
 7508SOL     OW34159   0.056   2.782   5.354  0.1626 -0.0995 -0.0271
 7508SOL    HW134160   0.027   2.815   5.268 -2.4094 -1.3660  0.3481
 7508SOL    HW234161   0.150   2.789   5.337 -0.1942  1.0964 -1.5531
 7509SOL     OW34162   3.373   3.354  16.082  0.0000  0.2504 -0.2915
 7509SOL    HW134163   3.428   3.430  16.098  1.2716 -0.5815 -0.7030
 7509SOL    HW234164   3.315   3.339  16.157 -0.4883  4.6433  0.2324
 7510SOL     OW34165   2.550   0.598   0.725 -0.2619  0.3090  0.0839
 7510SOL    HW134166   2.612   0.670   0.713 -1.5160  1.4695  0.5384
 7510SOL    HW234167   2.497   0.620   0.802 -1.3720  1.8389 -1.1317
 7511SOL     OW34168   0.612   0.930   0.421  0.7936 -0.0677 -0.6493
 7511SOL    HW134169   0.582   1.016   0.450  0.5363  0.5958 -2.8954
 7511SOL    HW234170   0.704   0.940   0.397  1.2225 -2.4680 -0.0333
 7512SOL     OW34171   0.160   4.044  13.073 -0.5098  0.1672  0.0836
 7512SOL    HW134172   0.250   4.075  13.069 -1.1068  1.9392  0.5142
 7512SOL    HW234173   0.159   4.005  12.985  0.8434  0.0503  0.1178
 7513SOL     OW34174   2.832   0.878   0.923  0.6551 -0.3750  0.2106
 7513SOL    HW134175   2.831   0.878   1.019 -0.4484  0.2904  0.2011
 7513SOL    HW234176   2.922   0.853   0.901 -0.0540 -1.3588 -1.5275
 7514SOL     OW34177   4.561   0.008   2.727  0.0388  0.1751 -0.9210
 7514SOL    HW134178   4.483   0.062   2.735  2.4914  3.7031 -0.5885
 7514SOL    HW234179   4.622   0.077   2.751  0.2539 -0.3681  0.1091
 7515SOL     OW34180   4.437   1.619   3.408  0.0695 -0.6343  0.3025
 7515SOL    HW134181   4.394   1.558   3.468  1.6812 -0.1980  1.9123
 7515SOL    HW234182   4.379   1.616   3.332  1.1971  1.0279 -0.6210
 7516SOL     OW34183   1.666   2.656  12.286 -0.8658  0.4701 -0.3064
 7516SOL    HW134184   1.651   2.562  12.299 -2.3834  0.8900  1.1305
 7516SOL    HW234185   1.739   2.672  12.346 -1.2239  1.2211 -0.0619
 7517SOL     OW34186   4.315   3.983  14.795 -0.0998  0.5091 -0.3408
 7517SOL    HW134187   4.375   3.978  14.721  0.8216 -0.9969  0.5240
 7517SOL    HW234188   4.244   3.928  14.760 -1.3119  0.2970  2.4211
 7518SOL     OW34189   1.042   4.474   4.668 -0.2367  0.4413  0.5295
 7518SOL    HW134190   0.980   4.515   4.607  2.6114  0.4021 -2.3683
 7518SOL    HW234191   0.980   4.406   4.695 -0.1201 -0.0418 -0.4117
 7519SOL     OW34192   3.046   3.147   2.096 -0.2336  0.3792  0.4890
 7519SOL    HW134193   3.009   3.223   2.141 -2.4391 -2.0542  2.7633
 7519SOL    HW234194   3.139   3.161   2.110 -0.2536  2.0862 -1.0749
 7520SOL     OW34195   3.633   1.105   1.583 -0.1886  0.0249 -0.2560
 7520SOL    HW134196   3.711   1.159   1.567 -0.0979  0.1233  0.5149
 7520SOL    HW234197   3.657   1.053   1.661  0.4256 -0.2898 -0.6509
 7521SOL     OW34198   2.252   3.289   5.036  0.4006  0.2446 -0.0132
 7521SOL    HW134199   2.229   3.376   5.002 -0.3304 -0.8756 -2.4238
 7521SOL    HW234200   2.314   3.297   5.107  0.0955 -1.5963  0.4525
 7522SOL     OW34201   3.648   0.346  15.521  0.4666 -0.0517  0.4389
 7522SOL    HW134202   3.582   0.414  15.534 -1.5719 -1.5632 -1.9236
 7522SOL    HW234203   3.687   0.336  15.608  1.9786  0.8785 -0.1369
 7523SOL     OW34204   2.022   4.304   2.310  0.7180  0.6531  0.3677
 7523SOL    HW134205   2.084   4.231   2.308  1.0371  0.9889 -1.5418
 7523SOL    HW234206   2.006   4.318   2.217  0.2641 -1.1246  0.1907
 7524SOL     OW34207   0.861   0.766   5.321  0.1893  0.0597  0.0219
 7524SOL    HW134208   0.768   0.742   5.315  0.0298 -0.0757  2.9232
 7524SOL    HW234209   0.882   0.750   5.229  0.1720 -0.5688  0.1264
 7525SOL     OW34210   3.324   3.115   5.071 -0.2365 -0.0649 -0.0373
 7525SOL    HW134211   3.332   3.139   4.978 -0.3194  0.6486  0.1415
 7525SOL    HW234212   3.372   3.032   5.070  1.0011  0.6496  0.8037
 7526SOL     OW34213   0.863   2.865  13.669 -0.1899 -0.5191  0.7248
 7526SOL    HW134214   0.880   2.929  13.599  1.7223 -1.1966  0.5749
 7526SOL    HW234215   0.853   2.924  13.745  0.9774  0.9398 -0.2449
 7527SOL     OW34216   1.380   1.720   6.726  0.4940 -0.4438  0.3539
 7527SOL    HW134217   1.469   1.687   6.738  0.1295 -0.9972  1.5388
 7527SOL    HW234218   1.345   1.717   6.815 -0.2400  1.7943  0.1406
 7528SOL     OW34219   3.387   1.476   6.718  0.0746 -0.0169  0.2460
 7528SOL    HW134220   3.378   1.473   6.623 -1.7913  2.0284  0.3507
 7528SOL    HW234221   3.313   1.534   6.738  0.6232 -0.8649  4.7575
 7529SOL     OW34222   2.835   2.893   5.558  0.0857  0.2389  1.0402
 7529SOL    HW134223   2.890   2.970   5.543  0.2528  0.1127  1.0176
 7529SOL    HW234224   2.883   2.831   5.505  0.9407  2.3502 -0.6771
 7530SOL     OW34225   0.976   3.006  16.778  0.1073  0.8314  0.3190
 7530SOL    HW134226   0.969   3.088  16.729 -1.8074  0.5503  0.0907
 7530SOL    HW234227   0.924   2.947  16.723  1.0635 -0.3336  0.6747
 7531SOL     OW34228   4.537   3.953   6.983  0.0891  0.1373  0.0816
 7531SOL    HW134229   4.553   4.010   6.908 -1.3398  0.2535 -0.1436
 7531SOL    HW234230   4.626   3.939   7.015  0.0721 -0.4682 -0.1322
 7532SOL     OW34231   0.077   2.330   7.124  0.0929  0.3160 -0.7838
 7532SOL    HW134232   0.011   2.398   7.111 -1.5768 -1.1925 -0.2516
 7532SOL    HW234233   0.152   2.365   7.077 -0.3262 -0.9774 -2.3910
 7533SOL     OW34234   0.209   2.061  15.912 -0.1871 -0.4306 -0.0564
 7533SOL    HW134235   0.288   2.103  15.945  0.3659 -2.8314  1.7096
 7533SOL    HW234236   0.156   2.130  15.872  0.6089  0.3728  0.2885
 7534SOL     OW34237   0.879   3.466   9.063 -0.0116 -0.1279  0.5449
 7534SOL    HW134238   0.955   3.507   9.104 -1.0446  0.8335  1.4908
 7534SOL    HW234239   0.917   3.413   8.992 -0.8237 -1.7454  1.3162
 7535SOL     OW34240   2.203   0.274   7.208  0.7503  0.3952  0.0628
 7535SOL    HW134241   2.121   0.226   7.197  0.7026  0.2409  1.0738
 7535SOL    HW234242   2.232   0.280   7.117  0.3780  3.4699  0.1402
 7536SOL     OW34243   3.019   4.360   9.301  0.1145 -0.1370  0.1628
 7536SOL    HW134244   2.929   4.379   9.275  0.4459  0.9503 -0.2123
 7536SOL    HW234245   3.063   4.359   9.216  0.5536  0.7107  0.3689
 7537SOL     OW34246   3.304   0.511   9.704 -0.3666 -0.0877 -0.4606
 7537SOL    HW134247   3.378   0.564   9.732  0.8106 -1.1173 -1.5971
 7537SOL    HW234248   3.271   0.486   9.790  1.1311 -1.3996 -0.2831
 7538SOL     OW34249   4.722   0.247   3.736 -0.0533 -0.2734 -0.6396
 7538SOL    HW134250   0.069   0.290   3.711  0.1603  0.5135  1.4463
 7538SOL    HW234251   4.674   0.321   3.773  1.3149 -0.3683  1.3073
 7539SOL     OW34252   1.298   2.353  16.297 -0.0016 -0.7177  0.1588
 7539SOL    HW134253   1.310   2.258  16.297  2.2429 -0.4460  2.3429
 7539SOL    HW234254   1.383   2.396  16.288 -0.8885  1.0729  0.3828
 7540SOL     OW34255   2.062   2.658  10.336 -0.2363 -0.2448 -0.1755
 7540SOL    HW134256   2.039   2.573  10.373  0.3404 -2.0434 -4.0040
 7540SOL    HW234257   1.991   2.714  10.369 -0.3985 -0.4227 -0.2204
 7541SOL     OW34258   2.509   0.054  12.472 -0.1768  0.1623  0.2124
 7541SOL    HW134259   2.415   0.071  12.476  0.0083  1.0961  0.5676
 7541SOL    HW234260   2.516   4.700  12.506  0.2222 -0.1147 -0.6124
 7542SOL     OW34261   3.663   1.460   9.198 -0.5732 -0.5590  0.0615
 7542SOL    HW134262   3.753   1.483   9.221 -0.3476 -0.2473 -1.1278
 7542SOL    HW234263   3.613   1.502   9.268 -1.7974 -2.2122  0.1719
 7543SOL     OW34264   0.101   1.525   3.051 -0.1689  0.2456  0.2379
 7543SOL    HW134265   0.146   1.540   2.968 -0.5691  0.8138  0.1201
 7543SOL    HW234266   0.013   1.536   3.016  0.1274  1.3161 -0.1799
 7544SOL     OW34267   4.542   1.587   5.335  0.5970 -0.0673 -0.0758
 7544SOL    HW134268   4.518   1.588   5.428 -0.5909 -0.2126 -0.3693
 7544SOL    HW234269   4.529   1.495   5.311  0.3506  0.0944 -0.5673
 7545SOL     OW34270   4.048   1.827   6.804  0.3796 -0.3145  0.2398
 7545SOL    HW134271   4.081   1.908   6.843  0.6295  0.6940 -2.1258
 7545SOL    HW234272   4.122   1.815   6.745 -0.8013 -2.4100 -0.8117
 7546SOL     OW34273   3.811   0.922  10.899 -0.2754  0.6093  0.9216
 7546SOL    HW134274   3.885   0.956  10.948 -1.0902  2.0665  1.1256
 7546SOL    HW234275   3.848   0.925  10.811  0.1632 -0.6239  1.0507
 7547SOL     OW34276   3.143   0.344   0.957 -0.1927 -0.1507 -0.2634
 7547SOL    HW134277   3.228   0.302   0.940  0.7335  1.3604  0.5933
 7547SOL    HW234278   3.091   0.303   0.889  0.3963  1.6361 -1.7943
 7548SOL     OW34279   0.581   1.151   5.116  0.1496  0.0511 -0.0525
 7548SOL    HW134280   0.525   1.196   5.180 -0.7919 -0.9321 -0.1799
 7548SOL    HW234281   0.519   1.094   5.070  0.0338  0.6033 -0.5841
 7549SOL     OW34282   4.036   2.713   3.255  0.8152  0.3606  0.6356
 7549SOL    HW134283   3.989   2.632   3.235  0.4497  0.5768  0.6132
 7549SOL    HW234284   4.118   2.703   3.208  0.5320 -0.1997  0.2530
 7550SOL     OW34285   0.533   0.213  10.340  0.0426 -0.8038 -0.2977
 7550SOL    HW134286   0.464   0.147  10.327 -0.6162 -0.4108  1.2629
 7550SOL    HW234287   0.585   0.189  10.416 -1.3962 -3.4435 -0.1404
 7551SOL     OW34288   2.765   2.030   3.444 -0.2612 -0.1050 -0.2753
 7551SOL    HW134289   2.779   2.013   3.537 -1.1273  0.9695  0.0465
 7551SOL    HW234290   2.840   2.088   3.431  0.5128 -1.7140 -3.0539
 7552SOL     OW34291   3.751   2.821  13.079 -0.2041 -0.3167  0.1722
 7552SOL    HW134292   3.837   2.790  13.108  0.4378 -0.0350 -1.4087
 7552SOL    HW234293   3.733   2.876  13.155 -3.1092  0.9701 -1.4306
 7553SOL     OW34294   3.219   2.386   3.379 -0.3603 -0.6532  0.0153
 7553SOL    HW134295   3.303   2.405   3.419 -0.2881  0.0632 -0.4629
 7553SOL    HW234296   3.242   2.406   3.288 -0.0174  1.3488  0.5451
 7554SOL     OW34297   0.858   4.712  11.924  0.0399  0.0298  1.1529
 7554SOL    HW134298   0.910   4.679  11.997  1.8329 -1.8312 -0.9516
 7554SOL    HW234299   0.902   4.686  11.843 -1.1233  1.8938 -0.0771
 7555SOL     OW34300   3.252   0.647  17.561 -0.0210 -0.2372 -0.0298
 7555SOL    HW134301   3.222   0.563  17.526 -0.7299 -0.2793  0.6863
 7555SOL    HW234302   3.176   0.662  17.617  1.1440  1.8976  0.9611
 7556SOL     OW34303   1.927   2.267   6.119  0.2060  0.3936  0.2664
 7556SOL    HW134304   1.944   2.253   6.212 -1.7972 -0.8778  0.4447
 7556SOL    HW234305   1.923   2.178   6.086  1.0472 -0.1859  1.7572
 7557SOL     OW34306   0.337   4.152  14.832  0.0744  0.0859  0.4466
 7557SOL    HW134307   0.273   4.184  14.769  0.9096  0.1148 -0.3923
 7557SOL    HW234308   0.325   4.058  14.824 -0.1728  0.1632 -0.0716
 7558SOL     OW34309   3.631   3.442   4.525 -0.4632  0.4622  0.4998
 7558SOL    HW134310   3.542   3.438   4.489  0.2148 -0.7500 -1.0707
 7558SOL    HW234311   3.626   3.418   4.617 -1.4054  2.0673  0.8532
 7559SOL     OW34312   2.939   4.685   2.996  0.4485 -0.2444 -0.0593
 7559SOL    HW134313   2.889   4.687   3.077  0.3411 -0.3526 -0.1233
 7559SOL    HW234314   2.980   4.601   3.017  0.0802 -0.7563 -1.3433
 7560SOL     OW34315   3.641   2.652   6.913  0.1082  0.0287  0.3717
 7560SOL    HW134316   3.686   2.727   6.875  1.2540 -0.8644 -0.0285
 7560SOL    HW234317   3.674   2.583   6.855 -2.8697 -1.0253 -0.0645
 7561SOL     OW34318   1.226   0.639   6.595  0.3016 -0.1934  0.0023
 7561SOL    HW134319   1.160   0.618   6.529  1.4894 -1.0393 -0.9162
 7561SOL    HW234320   1.205   0.733   6.593  0.1025 -0.2392 -0.0057
 7562SOL     OW34321   2.462   0.885   2.101  0.2001 -0.0204 -0.0944
 7562SOL    HW134322   2.545   0.849   2.133 -2.0795 -1.9219  3.6105
 7562SOL    HW234323   2.490   0.975   2.087  1.1455 -0.4692 -1.0429
 7563SOL     OW34324   2.630   3.424   7.673  0.3681  0.0296 -0.0035
 7563SOL    HW134325   2.600   3.510   7.703 -1.6836 -1.8005  3.1777
 7563SOL    HW234326   2.594   3.429   7.585 -1.4450 -2.2902  0.6153
 7564SOL     OW34327   0.560   3.343   3.232 -0.2110 -0.0239 -0.2511
 7564SOL    HW134328   0.574   3.283   3.159 -1.4368 -2.6792  1.6549
 7564SOL    HW234329   0.483   3.302   3.273  0.9784 -0.8672  1.1482
 7565SOL     OW34330   0.574   2.912   5.827 -0.1868 -0.2419 -0.1085
 7565SOL    HW134331   0.644   2.935   5.888  0.0055  2.6948 -1.4079
 7565SOL    HW234332   0.535   2.834   5.866 -3.5135  1.2542 -0.3912
 7566SOL     OW34333   3.125   2.419  17.459 -0.4737  0.5443  0.1600
 7566SOL    HW134334   3.198   2.479  17.471 -1.6676  1.8333  0.9684
 7566SOL    HW234335   3.065   2.451  17.527 -0.3396  1.2291 -0.0548
 7567SOL     OW34336   3.625   2.037   7.141  0.4785  0.1130  0.5089
 7567SOL    HW134337   3.588   1.984   7.070 -0.8229 -1.6347  2.4685
 7567SOL    HW234338   3.690   2.092   7.097 -2.2556  2.1312 -1.0202
 7568SOL     OW34339   1.923   0.612  14.193  0.0023  0.0792  0.6143
 7568SOL    HW134340   1.875   0.627  14.274 -0.5593 -0.9513  0.4719
 7568SOL    HW234341   1.951   0.696  14.158 -1.7344  1.4205  2.4911
 7569SOL     OW34342   3.908   0.850   1.531  0.3375  0.0523 -0.0693
 7569SOL    HW134343   3.949   0.924   1.487  1.6470  0.7412  2.3153
 7569SOL    HW234344   3.816   0.868   1.509  0.4564  2.0200  1.0110
 7570SOL     OW34345   2.314   0.930   0.929 -0.1633 -0.2095 -0.2146
 7570SOL    HW134346   2.386   0.867   0.931 -1.0316 -1.0590  3.4541
 7570SOL    HW234347   2.304   0.938   0.834 -0.4798 -1.8459 -0.3158
 7571SOL     OW34348   1.351   3.810  17.562 -0.3824 -0.1180  0.3933
 7571SOL    HW134349   1.430   3.757  17.550  0.2276  0.9330 -0.2152
 7571SOL    HW234350   1.382   3.881  17.619 -1.9886  1.2469 -0.4466
 7572SOL     OW34351   0.734   2.193   6.156  0.1776  0.0561  0.6408
 7572SOL    HW134352   0.759   2.183   6.248 -0.5946  1.6274  1.0095
 7572SOL    HW234353   0.785   2.118   6.125 -1.3254 -1.2755  1.3571
 7573SOL     OW34354   0.089   3.722   4.344  0.4034 -0.1979 -0.2640
 7573SOL    HW134355   0.039   3.645   4.372 -0.8210  0.9164  0.6186
 7573SOL    HW234356   0.180   3.702   4.322  0.8136  1.6694 -0.2658
 7574SOL     OW34357   4.245   0.509   8.861 -0.2559 -0.2734 -0.3357
 7574SOL    HW134358   4.306   0.490   8.790 -0.3312 -0.1886 -0.4236
 7574SOL    HW234359   4.303   0.538   8.932 -1.4706 -0.1436  0.6125
 7575SOL     OW34360   0.846   1.516   0.044 -0.1463 -0.1443  0.1823
 7575SOL    HW134361   0.794   1.442   0.012 -1.3185  0.8479 -0.2293
 7575SOL    HW234362   0.885   1.552  17.704  1.3338 -1.1631  0.4499
 7576SOL     OW34363   2.936   2.805   8.936 -0.1065  0.1371 -0.0749
 7576SOL    HW134364   2.907   2.719   8.968 -1.6171  0.0851 -1.5870
 7576SOL    HW234365   2.917   2.861   9.011  0.6773  0.9241 -0.4575
 7577SOL     OW34366   2.159   3.025   8.057 -0.5044 -0.2949  0.0708
 7577SOL    HW134367   2.204   3.053   7.978  1.9255 -2.7525  0.5600
 7577SOL    HW234368   2.067   3.035   8.034 -1.4598 -0.8183  3.6512
 7578SOL     OW34369   1.901   1.182   6.892  0.3569 -0.0454 -0.0258
 7578SOL    HW134370   1.990   1.161   6.864  0.1505  0.7646 -1.2760
 7578SOL    HW234371   1.909   1.266   6.936 -2.0001  0.6754 -0.9869
 7579SOL     OW34372   1.629   3.844   0.887  0.1463  0.3116  0.1065
 7579SOL    HW134373   1.656   3.752   0.880  0.1657  0.6423 -4.2956
 7579SOL    HW234374   1.688   3.883   0.822  0.2580  0.4146  0.2708
 7580SOL     OW34375   3.604   0.137   5.222  0.0393  0.0465  0.1013
 7580SOL    HW134376   3.521   0.108   5.185 -0.8338  1.6074  0.8391
 7580SOL    HW234377   3.580   0.153   5.313  0.6395  1.0733  0.0844
 7581SOL     OW34378   3.381   4.647   7.718 -0.4609  0.3169 -0.5679
 7581SOL    HW134379   3.333   4.573   7.682  1.3775 -0.9783 -0.3228
 7581SOL    HW234380   3.363   4.707   7.646 -1.3038 -0.5745 -1.0949
 7582SOL     OW34381   0.984   4.418   0.584  0.9774  0.3086 -0.0193
 7582SOL    HW134382   1.028   4.368   0.653  2.8133  3.0944  0.8681
 7582SOL    HW234383   1.010   4.377   0.502  0.1051 -1.8666  0.8016
 7583SOL     OW34384   1.639   1.677   4.011 -0.3555 -0.3268 -0.0060
 7583SOL    HW134385   1.724   1.715   3.987  0.6938 -0.4740  3.4464
 7583SOL    HW234386   1.639   1.586   3.982 -1.0701 -0.3203 -0.0168
 7584SOL     OW34387   4.030   3.507  17.170  0.3363 -0.1032 -0.2532
 7584SOL    HW134388   3.940   3.521  17.141 -0.4119 -2.6213  0.8719
 7584SOL    HW234389   4.037   3.413  17.186 -0.1169  0.0832  1.0309
 7585SOL     OW34390   1.202   3.485   7.131 -0.3954 -0.6038 -0.0392
 7585SOL    HW134391   1.270   3.535   7.176 -0.2572  0.8913 -1.9194
 7585SOL    HW234392   1.236   3.396   7.141  0.3685 -0.0280  2.3992
 7586SOL     OW34393   3.239   3.396  16.317 -0.7652 -0.2664 -0.4580
 7586SOL    HW134394   3.152   3.379  16.353  0.4103 -1.6610  1.7209
 7586SOL    HW234395   3.282   3.420  16.399  2.1654 -2.4109 -1.3944
 7587SOL     OW34396   0.763   4.286   6.593 -0.2147  0.3750  0.2091
 7587SOL    HW134397   0.823   4.218   6.625 -0.8473  0.0964  0.8098
 7587SOL    HW234398   0.803   4.363   6.635 -0.3142  1.3375 -1.4759
 7588SOL     OW34399   2.918   3.386   7.661 -0.0632 -0.4255 -0.4485
 7588SOL    HW134400   2.824   3.401   7.673  0.1099 -0.1128  0.4920
 7588SOL    HW234401   2.968   3.445   7.718 -1.5300  0.6657 -0.2947
 7589SOL     OW34402   3.808   0.745   3.022 -0.4091  0.4522  0.0396
 7589SOL    HW134403   3.854   0.829   3.025 -0.1678  0.2497  2.3055
 7589SOL    HW234404   3.728   0.789   2.993 -0.1255  0.5393 -0.5982
 7590SOL     OW34405   2.240   0.188   4.364 -0.4231 -0.4122  0.0636
 7590SOL    HW134406   2.284   0.264   4.401  0.2288  0.0715 -1.6907
 7590SOL    HW234407   2.271   0.203   4.275  0.1589 -2.3439 -0.0665
 7591SOL     OW34408   3.147   4.258   6.428 -0.1848  0.2630  0.1599
 7591SOL    HW134409   3.157   4.218   6.515  0.4011  2.0344  0.9186
 7591SOL    HW234410   3.094   4.192   6.384  0.1393 -1.4071  2.2523
 7592SOL     OW34411   1.511   4.477   2.495 -0.4118  0.3257 -0.0409
 7592SOL    HW134412   1.583   4.430   2.453 -0.6546  1.1980 -1.4176
 7592SOL    HW234413   1.533   4.568   2.475  0.1248  0.1593 -0.2216
 7593SOL     OW34414   4.142   2.479   3.827 -0.7269  0.1719 -0.3412
 7593SOL    HW134415   4.075   2.547   3.835 -0.2767  0.7556 -1.5488
 7593SOL    HW234416   4.089   2.400   3.834 -1.0355  0.2565 -1.8272
 7594SOL     OW34417   4.367   1.658  10.328 -0.3455 -0.2777  0.2604
 7594SOL    HW134418   4.461   1.670  10.337 -0.4564  0.7674  0.1138
 7594SOL    HW234419   4.363   1.572  10.369  1.7785 -0.2618  0.4709
 7595SOL     OW34420   1.678   1.806   6.127 -0.1189  0.2536 -0.2648
 7595SOL    HW134421   1.767   1.836   6.108 -0.7768  1.6123 -1.1767
 7595SOL    HW234422   1.654   1.851   6.208 -0.7591 -3.4703  1.6247
 7596SOL     OW34423   3.733   3.686  10.915  0.1421  0.0502 -0.0354
 7596SOL    HW134424   3.678   3.759  10.943  0.7561  0.8695 -0.9606
 7596SOL    HW234425   3.670   3.615  10.926 -0.0439  0.3592  0.8437
 7597SOL     OW34426   1.503   3.089   8.440  0.0719 -0.2996 -0.0035
 7597SOL    HW134427   1.449   3.025   8.394 -2.6600  0.3029  2.3805
 7597SOL    HW234428   1.443   3.128   8.504  1.7421  2.0503  0.1530
 7598SOL     OW34429   3.420   3.631   5.638  0.7167 -0.4848  0.1772
 7598SOL    HW134430   3.400   3.702   5.576  1.4037  1.2693  1.9813
 7598SOL    HW234431   3.334   3.635   5.680 -0.0047  0.4592 -1.3342
 7599SOL     OW34432   3.807   1.053   8.780  0.0600 -0.4199  0.3335
 7599SOL    HW134433   3.777   1.001   8.855  0.4528 -0.2749  0.5972
 7599SOL    HW234434   3.900   1.062   8.800  0.3868 -2.7382 -0.2088
 7600SOL     OW34435   3.903   2.969  13.388 -0.4904 -0.5048 -0.1909
 7600SOL    HW134436   3.940   2.883  13.368  2.1796  1.2780 -2.7858
 7600SOL    HW234437   3.825   2.938  13.435 -0.3214 -1.6295 -0.6518
 7601SOL     OW34438   0.323   3.275   3.862  0.1375 -0.5571  0.4720
 7601SOL    HW134439   0.297   3.239   3.946 -0.0670  0.9484  1.0481
 7601SOL    HW234440   0.411   3.300   3.890 -0.9880  3.0260  0.8884
 7602SOL     OW34441   4.061   2.955   9.090 -0.3178  0.3259 -0.4810
 7602SOL    HW134442   4.022   3.033   9.051 -2.6878 -1.5393 -1.8196
 7602SOL    HW234443   4.025   2.960   9.178 -0.8858  2.2288 -0.8172
 7603SOL     OW34444   1.117   2.242   9.782 -0.0995  0.1501  0.8172
 7603SOL    HW134445   1.031   2.206   9.761 -0.2845 -0.0940  1.9585
 7603SOL    HW234446   1.164   2.173   9.829  1.2310 -1.3220 -2.6860
 7604SOL     OW34447   3.573   4.184   4.836 -0.2405 -0.0744 -0.1195
 7604SOL    HW134448   3.656   4.214   4.872 -1.4827  2.1670  0.9102
 7604SOL    HW234449   3.519   4.260   4.856 -1.5365 -0.9509 -0.2640
 7605SOL     OW34450   3.015   4.297  13.752  0.2995 -0.4122 -0.0188
 7605SOL    HW134451   3.011   4.300  13.656 -0.3016  0.5595  0.0332
 7605SOL    HW234452   3.030   4.204  13.769  1.7623 -0.5091 -1.7461
 7606SOL     OW34453   0.091   2.592  16.580  0.1830 -0.6503  0.2406
 7606SOL    HW134454   0.186   2.600  16.569  0.1202 -2.7875 -1.8521
 7606SOL    HW234455   0.063   2.628  16.496  0.7806 -1.5525 -0.3548
 7607SOL     OW34456   0.767   4.511   1.431 -0.3903  0.0642 -0.0244
 7607SOL    HW134457   0.754   4.586   1.373 -1.0803  1.0090  1.3412
 7607SOL    HW234458   0.679   4.499   1.469  0.5572 -0.3320  2.0491
 7608SOL     OW34459   4.618   1.828   7.051 -0.2552  0.0474 -0.2463
 7608SOL    HW134460   4.613   1.900   7.114 -1.4754 -0.4410  0.2070
 7608SOL    HW234461   4.696   1.851   6.999  1.6406 -0.1476  2.4872
 7609SOL     OW34462   2.958   0.125  17.129 -0.2535  0.1775  0.2822
 7609SOL    HW134463   3.036   0.161  17.085  1.1521  1.1594  3.5591
 7609SOL    HW234464   2.925   0.201  17.178 -0.7272 -1.2213  2.1334
 7610SOL     OW34465   4.335   4.561   2.296 -0.4652  0.5481 -0.1715
 7610SOL    HW134466   4.296   4.646   2.315  1.6464  1.8234 -1.5421
 7610SOL    HW234467   4.337   4.517   2.381  0.0637  0.4445 -0.2378
 7611SOL     OW34468   3.095   0.794   0.732 -0.2980  0.1597  0.1688
 7611SOL    HW134469   3.132   0.883   0.730  1.3850 -0.5789 -2.0293
 7611SOL    HW234470   3.096   0.778   0.637 -1.0169  0.9121  0.0282
 7612SOL     OW34471   1.770   1.452  10.233  0.7995 -0.5488 -0.5273
 7612SOL    HW134472   1.852   1.404  10.245 -0.2297 -2.4548 -1.2252
 7612SOL    HW234473   1.754   1.410  10.149  1.1275  0.0398 -0.8852
 7613SOL     OW34474   1.583   3.188   9.569  0.2423  0.0245 -0.1238
 7613SOL    HW134475   1.517   3.159   9.631 -1.3587  1.4392 -1.1757
 7613SOL    HW234476   1.667   3.154   9.601  0.0438  1.0086  1.4413
 7614SOL     OW34477   3.684   1.218   4.445  0.9042 -0.0778 -0.1120
 7614SOL    HW134478   3.713   1.156   4.512 -0.1269  0.6526  1.0191
 7614SOL    HW234479   3.736   1.198   4.367  0.0790  3.2104 -1.4849
 7615SOL     OW34480   0.095   2.006   3.316  0.3393 -0.0768  0.0140
 7615SOL    HW134481   0.035   1.996   3.390 -0.9211 -2.0590 -1.2532
 7615SOL    HW234482   0.116   1.914   3.302  1.5501  0.2556 -0.3440
 7616SOL     OW34483   1.545   0.199  15.455  0.3596 -0.4725 -0.5186
 7616SOL    HW134484   1.463   0.159  15.426  0.5583 -0.8982 -0.4901
 7616SOL    HW234485   1.517   0.291  15.458 -1.4935 -1.1016  1.8035
 7617SOL     OW34486   2.927   3.642   9.580  0.0080  0.1612  0.0476
 7617SOL    HW134487   2.950   3.694   9.657 -0.2344  1.6185 -0.8603
 7617SOL    HW234488   2.845   3.677   9.544  0.4675  2.0078  0.8138
 7618SOL     OW34489   3.724   2.192  16.646 -0.1855 -0.3267  0.1801
 7618SOL    HW134490   3.656   2.210  16.580  0.9028 -0.4292 -0.9660
 7618SOL    HW234491   3.777   2.270  16.628  1.5670 -1.2209  1.5838
 7619SOL     OW34492   2.813   2.952   9.133  0.3560 -0.0251  0.2241
 7619SOL    HW134493   2.802   3.044   9.109 -1.9468 -0.4359 -0.3068
 7619SOL    HW234494   2.871   2.956   9.209  0.0150  1.8888  0.3961
 7620SOL     OW34495   3.295   3.789   6.623 -0.0587 -0.2320 -0.3422
 7620SOL    HW134496   3.239   3.866   6.623  1.2433  0.7056  1.0751
 7620SOL    HW234497   3.291   3.777   6.528 -1.7955 -1.1157 -0.1535
 7621SOL     OW34498   2.804   2.196  11.152 -0.5049  0.1678  0.0277
 7621SOL    HW134499   2.844   2.283  11.155  2.7976 -1.3967  2.4195
 7621SOL    HW234500   2.727   2.209  11.207  1.2218  0.8045  2.3462
 7622SOL     OW34501   1.830   2.450   6.831  0.0982 -0.5541  0.0246
 7622SOL    HW134502   1.801   2.530   6.875  2.9733  0.7502 -0.4307
 7622SOL    HW234503   1.774   2.465   6.755 -0.4636  1.0072  0.7536
 7623SOL     OW34504   1.025   0.114   5.936 -0.3417 -0.4350  0.4493
 7623SOL    HW134505   1.042   0.154   5.851  2.1353 -0.1312  1.0737
 7623SOL    HW234506   1.090   0.163   5.988 -0.7389  0.6217 -0.0530
 7624SOL     OW34507   3.057   0.841   1.847 -0.5073 -0.0098 -0.2082
 7624SOL    HW134508   3.032   0.843   1.939 -1.4441  2.4646 -0.5192
 7624SOL    HW234509   3.125   0.908   1.846 -0.7631  0.2371 -1.9238
 7625SOL     OW34510   0.068   3.868   7.021  0.2092  0.1525 -0.4912
 7625SOL    HW134511   0.093   3.782   7.056  1.7662  0.9764  0.4155
 7625SOL    HW234512   0.145   3.923   7.034  0.0352  0.3054 -0.0895
 7626SOL     OW34513   0.825   0.245  16.923 -0.1571  0.1790  0.5065
 7626SOL    HW134514   0.733   0.228  16.945 -0.0426  1.1292  1.7274
 7626SOL    HW234515   0.817   0.298  16.844  0.7147  0.1129  0.3715
 7627SOL     OW34516   3.698   3.862   8.460 -0.4144 -0.6543 -0.3236
 7627SOL    HW134517   3.768   3.917   8.426 -1.7868  1.3762  0.1279
 7627SOL    HW234518   3.699   3.789   8.398 -0.8064 -1.2680  0.3801
 7628SOL     OW34519   1.778   2.095  16.145  0.0150 -0.4650 -0.0776
 7628SOL    HW134520   1.856   2.045  16.122  0.3723  0.6057 -1.1966
 7628SOL    HW234521   1.819   2.178  16.168  0.4378 -1.2279  1.9541
 7629SOL     OW34522   2.797   0.612   7.038  0.5471 -0.0948 -0.4738
 7629SOL    HW134523   2.768   0.624   7.128 -3.2761 -1.0820 -1.5544
 7629SOL    HW234524   2.772   0.520   7.035 -2.0644  0.5700  0.2694
 7630SOL     OW34525   1.601   4.406   5.225  0.3998 -0.9557  0.6085
 7630SOL    HW134526   1.516   4.390   5.184  0.8523 -1.0340 -0.3033
 7630SOL    HW234527   1.593   4.387   5.318  0.7198 -0.2000  0.7952
 7631SOL     OW34528   0.629   2.733  10.956 -0.0620 -0.2298 -0.3868
 7631SOL    HW134529   0.647   2.808  10.900 -0.2990 -1.6911 -2.4321
 7631SOL    HW234530   0.701   2.728  11.018 -0.2197 -1.0139 -0.2634
 7632SOL     OW34531   3.308   3.595   3.000 -0.3086 -0.3853 -0.2186
 7632SOL    HW134532   3.264   3.595   2.915 -1.6633 -1.5918  0.4820
 7632SOL    HW234533   3.381   3.653   2.978 -1.9176  2.2282  1.3027
 7633SOL     OW34534   3.279   4.422   3.647 -0.4012 -0.0748 -0.6281
 7633SOL    HW134535   3.336   4.394   3.575 -1.2275  1.1672 -1.7670
 7633SOL    HW234536   3.337   4.398   3.719  0.4836 -1.9061 -1.9208
 7634SOL     OW34537   3.503   2.417   4.282  0.0025  0.6575  0.0042
 7634SOL    HW134538   3.443   2.407   4.208 -1.0726  0.9182  0.8425
 7634SOL    HW234539   3.577   2.421   4.222 -0.7502  0.9238 -0.9012
 7635SOL     OW34540   1.711   4.640   6.019 -0.2872 -0.1618  0.1020
 7635SOL    HW134541   1.717   4.733   5.994  1.1775  0.1962  1.7816
 7635SOL    HW234542   1.704   4.598   5.933  0.3849 -1.5250  0.7197
 7636SOL     OW34543   0.932   1.047  17.464  0.3540 -0.2627 -0.0903
 7636SOL    HW134544   0.886   1.124  17.429  1.2288  0.0251 -0.5930
 7636SOL    HW234545   1.017   1.064  17.424  0.1917 -1.0191 -0.7528
 7637SOL     OW34546   4.285   2.842   3.575 -0.3259 -0.2421  0.1452
 7637SOL    HW134547   4.326   2.913   3.525 -1.7578  0.8172  0.4811
 7637SOL    HW234548   4.206   2.891   3.599 -2.2047 -2.6839 -1.0504
 7638SOL     OW34549   0.354   2.986  16.668 -0.0149  0.1965  0.0762
 7638SOL    HW134550   0.289   2.952  16.730 -3.5184  1.7427 -2.7300
 7638SOL    HW234551   0.398   3.045  16.729  1.2313 -3.3249  2.5774
 7639SOL     OW34552   2.821   2.497   6.719  0.1614 -0.6234  0.4546
 7639SOL    HW134553   2.861   2.523   6.802  0.1266  0.8009  0.0200
 7639SOL    HW234554   2.737   2.538   6.740  1.0402  1.2916  0.2686
 7640SOL     OW34555   3.992   3.188  17.277 -0.2152  0.8553 -0.2715
 7640SOL    HW134556   3.926   3.185  17.347  0.0451  1.0826 -0.0194
 7640SOL    HW234557   4.061   3.130  17.311  0.8136  2.5491  0.5089
 7641SOL     OW34558   1.002   2.320   1.099 -0.1343 -0.1960  0.4940
 7641SOL    HW134559   0.924   2.327   1.154 -0.5305 -0.1323 -0.0766
 7641SOL    HW234560   1.064   2.321   1.172  0.5033 -0.9850 -0.0418
 7642SOL     OW34561   0.671   0.621  14.027 -0.4861  0.0368  0.0407
 7642SOL    HW134562   0.724   0.597  13.951  1.5413  0.9003  1.1884
 7642SOL    HW234563   0.663   0.715  14.009  0.4256  0.4165  1.6838
 7643SOL     OW34564   0.340   1.047   9.741 -0.2553 -0.2432 -0.4299
 7643SOL    HW134565   0.371   1.127   9.699  1.3034  0.1312  1.4266
 7643SOL    HW234566   0.417   1.035   9.797 -0.1106 -0.9097 -0.7813
 7644SOL     OW34567   3.797   0.199  12.094 -0.3933 -0.0041  0.6319
 7644SOL    HW134568   3.764   0.195  12.183  1.7218  1.9247  1.5007
 7644SOL    HW234569   3.865   0.264  12.111  0.4076  0.0247 -2.7117
 7645SOL     OW34570   3.435   3.362   4.952 -0.1331  0.1688 -0.2282
 7645SOL    HW134571   3.500   3.423   4.989  2.4678 -2.0366 -1.1739
 7645SOL    HW234572   3.437   3.304   5.028  2.4163 -1.7550 -1.7767
 7646SOL     OW34573   0.495   0.792   3.296  0.1687 -0.4682 -0.2607
 7646SOL    HW134574   0.570   0.848   3.274  0.8720 -0.2383  2.7133
 7646SOL    HW234575   0.481   0.806   3.390 -0.9767 -1.2554 -0.3248
 7647SOL     OW34576   3.285   2.665   7.877 -0.0480 -0.0341  0.4409
 7647SOL    HW134577   3.197   2.692   7.901  0.2516  1.1133  0.2892
 7647SOL    HW234578   3.316   2.740   7.825 -2.7414  0.3544 -0.5942
 7648SOL     OW34579   3.818   2.138   8.235  0.0009  0.3130 -0.2779
 7648SOL    HW134580   3.865   2.098   8.162 -0.2427 -0.1156 -0.1973
 7648SOL    HW234581   3.764   2.068   8.271 -2.0852  1.2666 -1.5586
 7649SOL     OW34582   2.306   2.229  14.075 -0.3927 -0.0872  0.1842
 7649SOL    HW134583   2.309   2.261  13.984  0.3656 -3.4255 -0.9756
 7649SOL    HW234584   2.364   2.154  14.069 -1.7681 -1.1549  0.2562
 7650SOL     OW34585   1.912   1.564   1.206 -0.1673 -0.5403 -0.0365
 7650SOL    HW134586   1.895   1.540   1.297  2.5376 -2.7457 -0.1383
 7650SOL    HW234587   1.924   1.658   1.221 -0.0502 -0.5695  0.0533
 7651SOL     OW34588   1.488   2.002   5.800  0.1022  0.0540  0.1981
 7651SOL    HW134589   1.426   1.994   5.727  2.9101 -0.6453 -2.0604
 7651SOL    HW234590   1.464   2.083   5.846  0.0068 -1.0229  2.0197
 7652SOL     OW34591   1.944   3.960   4.079 -0.3906  0.2020  0.4359
 7652SOL    HW134592   2.022   3.995   4.037  0.5158 -0.5803  1.4850
 7652SOL    HW234593   1.906   4.041   4.114  1.5847  0.7422  1.3141
 7653SOL     OW34594   1.264   2.938  10.242 -0.3393 -0.1665  0.3784
 7653SOL    HW134595   1.316   2.922  10.164 -1.1422 -0.0439 -0.1806
 7653SOL    HW234596   1.317   2.908  10.316 -0.9522 -1.4297  0.3050
 7654SOL     OW34597   2.385   3.139   4.500  0.0312  0.9580 -0.5758
 7654SOL    HW134598   2.341   3.134   4.585 -0.0352  0.7818 -0.6206
 7654SOL    HW234599   2.422   3.227   4.501  0.4023  0.7758  1.5900
 7655SOL     OW34600   3.862   1.006   6.722 -0.3705 -0.7515  0.5760
 7655SOL    HW134601   3.898   0.999   6.810  0.9391 -0.6091  0.0625
 7655SOL    HW234602   3.836   1.096   6.705  2.5865 -0.2610 -1.4173
 7656SOL     OW34603   3.168   0.539   3.421 -0.6569 -0.1465  0.0650
 7656SOL    HW134604   3.112   0.594   3.366  3.5183  2.5595 -1.4907
 7656SOL    HW234605   3.169   0.587   3.505  1.5358  0.7324 -0.4655
 7657SOL     OW34606   4.628   0.265  13.819  0.3129  0.3524 -0.3598
 7657SOL    HW134607   4.543   0.286  13.858  0.3694  1.1788 -0.6679
 7657SOL    HW234608   4.671   0.351  13.819  0.1201  0.4635  2.4050
 7658SOL     OW34609   0.332   1.279   2.718  0.5558 -0.0801 -0.4488
 7658SOL    HW134610   0.324   1.288   2.623 -1.3656 -1.6943 -0.4299
 7658SOL    HW234611   0.417   1.237   2.732 -0.0999 -0.4055  2.6157
 7659SOL     OW34612   1.946   0.663   7.497 -0.7693 -0.2170 -0.1590
 7659SOL    HW134613   1.998   0.598   7.450 -1.0252 -0.9120  0.5345
 7659SOL    HW234614   1.877   0.683   7.434  1.2288  1.2361 -1.9026
 7660SOL     OW34615   2.371   1.726   2.828  0.2537  0.6750  0.7229
 7660SOL    HW134616   2.410   1.670   2.761 -2.9065  0.5622 -1.0062
 7660SOL    HW234617   2.341   1.793   2.767 -0.8437  1.7620  2.4480
 7661SOL     OW34618   4.246   0.667   6.300 -0.8341  0.0675 -0.1233
 7661SOL    HW134619   4.304   0.669   6.376  0.2757 -1.2916 -0.9367
 7661SOL    HW234620   4.298   0.672   6.219  0.2140  0.2402  0.5564
 7662SOL     OW34621   1.383   2.017   9.384  1.3692  0.3922 -0.2203
 7662SOL    HW134622   1.364   1.924   9.397 -0.4433  0.6086 -1.3493
 7662SOL    HW234623   1.412   2.050   9.470  0.6733  0.0049  0.1623
 7663SOL     OW34624   4.529   0.282   2.597  0.1511 -0.0848  0.2716
 7663SOL    HW134625   4.521   0.358   2.539  1.5315 -0.0585  0.1314
 7663SOL    HW234626   4.436   0.256   2.600  0.6082 -2.0849 -2.2687
 7664SOL     OW34627   0.548   3.654   4.113 -0.0412 -0.5389  0.5736
 7664SOL    HW134628   0.637   3.618   4.112 -0.1440 -0.7035 -1.5931
 7664SOL    HW234629   0.525   3.660   4.021  1.8470  0.7848  0.1689
 7665SOL     OW34630   2.517   3.879   7.950  0.0942 -0.1370  0.2578
 7665SOL    HW134631   2.581   3.948   7.964  1.5423 -1.1466 -1.3533
 7665SOL    HW234632   2.565   3.801   7.976  2.1142  0.8085 -0.6889
 7666SOL     OW34633   1.839   3.013   6.805 -0.2580 -0.4017 -0.4393
 7666SOL    HW134634   1.753   3.053   6.810 -0.3225 -0.0803 -3.8953
 7666SOL    HW234635   1.879   3.089   6.762  1.1597 -1.5479 -1.1936
 7667SOL     OW34636   1.405   2.487  10.385  0.6261  0.1236  0.2992
 7667SOL    HW134637   1.413   2.443  10.470 -0.1552 -2.3579 -0.9261
 7667SOL    HW234638   1.355   2.427  10.329  0.2364 -1.3948  2.2570
 7668SOL     OW34639   0.810   3.763   3.805 -0.4484 -0.3467 -0.2722
 7668SOL    HW134640   0.823   3.690   3.745  0.5962 -2.0189  1.9656
 7668SOL    HW234641   0.898   3.802   3.808 -1.7981  2.6755 -0.0630
 7669SOL     OW34642   3.121   4.529   9.730  0.3169  0.6420  0.1933
 7669SOL    HW134643   3.176   4.461   9.691 -1.4284 -1.5740  1.6496
 7669SOL    HW234644   3.146   4.596   9.665  0.1020 -0.0256 -0.5771
 7670SOL     OW34645   3.021   1.797   4.958 -0.3872  0.3891 -0.4580
 7670SOL    HW134646   3.097   1.740   4.967 -0.0852  0.8355 -0.2070
 7670SOL    HW234647   3.058   1.855   4.891 -0.3288  0.0744 -0.6962
 7671SOL     OW34648   4.059   0.298   3.976 -0.4280  0.1172  0.0690
 7671SOL    HW134649   3.999   0.333   3.910  2.3686  2.7010 -1.1573
 7671SOL    HW234650   4.104   0.376   4.009  0.3557 -0.6917  0.9145
 7672SOL     OW34651   3.035   1.479  17.609  0.1453  0.9082 -0.1635
 7672SOL    HW134652   3.050   1.564  17.651  0.9809 -0.5829  2.5633
 7672SOL    HW234653   3.110   1.429  17.641  0.6933  1.9106  0.1238
 7673SOL     OW34654   3.906   3.560   9.016  0.3124  0.5437 -0.6202
 7673SOL    HW134655   3.900   3.653   9.038  1.8518 -0.3061  3.4310
 7673SOL    HW234656   3.854   3.512   9.081  0.4097 -1.5519 -2.1074
 7674SOL     OW34657   1.965   2.163   7.362  0.2374 -0.2652  0.0789
 7674SOL    HW134658   1.910   2.231   7.401 -0.3480 -0.2197 -0.8464
 7674SOL    HW234659   2.048   2.210   7.356  1.1398 -1.8263  0.3703
 7675SOL     OW34660   0.724   3.380   8.086  0.1727 -0.1424  0.7809
 7675SOL    HW134661   0.810   3.341   8.068  0.1851 -0.8501  2.4654
 7675SOL    HW234662   0.724   3.384   8.181 -0.3561  0.4375  0.7521
 7676SOL     OW34663   3.047   4.528   4.539 -0.6744  0.0062  0.1169
 7676SOL    HW134664   3.067   4.619   4.517 -3.4830 -0.0296 -2.5410
 7676SOL    HW234665   3.137   4.496   4.543 -0.8392 -0.8477 -3.3939
 7677SOL     OW34666   3.741   1.112   5.163 -0.0168  0.2746  0.1863
 7677SOL    HW134667   3.812   1.124   5.100  0.2028  0.4598  0.4657
 7677SOL    HW234668   3.668   1.113   5.102  1.6313 -2.1247 -1.8189
 7678SOL     OW34669   1.984   1.474   4.600 -0.3094 -0.5308  0.1450
 7678SOL    HW134670   1.979   1.570   4.600 -0.4949 -0.5400  0.6165
 7678SOL    HW234671   2.004   1.458   4.508  1.6866  1.9700  0.1413
 7679SOL     OW34672   2.350   0.881   6.136 -0.4064 -0.8021 -0.3194
 7679SOL    HW134673   2.258   0.890   6.111 -0.9005 -1.2798  1.3590
 7679SOL    HW234674   2.365   0.788   6.148  2.2268 -0.5686 -1.9204
 7680SOL     OW34675   0.459   2.453   1.797 -0.4746  0.2036 -0.3568
 7680SOL    HW134676   0.428   2.422   1.712 -2.9099  0.0091  0.6037
 7680SOL    HW234677   0.539   2.401   1.806 -0.3935  0.5667  0.9595
 7681SOL     OW34678   1.259   4.230   3.138  0.2339 -0.1149  0.1212
 7681SOL    HW134679   1.191   4.292   3.165 -0.2470 -1.1996  1.4363
 7681SOL    HW234680   1.214   4.195   3.061 -0.3800 -2.7672  1.6900
 7682SOL     OW34681   0.372   3.402  17.242 -0.1182 -0.2866 -0.5662
 7682SOL    HW134682   0.426   3.473  17.276 -0.1168 -1.0333  0.9387
 7682SOL    HW234683   0.402   3.403  17.151 -2.5222  0.8950 -1.3486
 7683SOL     OW34684   3.977   1.983  16.963 -0.2159 -0.5886  0.5184
 7683SOL    HW134685   3.933   2.066  16.982  0.6563 -0.5522  2.3800
 7683SOL    HW234686   3.913   1.914  16.976  1.2025 -2.2794 -1.3661
 7684SOL     OW34687   2.441   3.468   3.969  0.4734  0.0309 -1.1461
 7684SOL    HW134688   2.422   3.441   3.879  0.4367  0.4592 -1.2680
 7684SOL    HW234689   2.519   3.521   3.957  1.3078 -0.9989 -0.1735
 7685SOL     OW34690   1.882   2.068   3.501 -0.4218 -0.5618 -0.2862
 7685SOL    HW134691   1.793   2.088   3.529 -0.1030  0.2861  0.1238
 7685SOL    HW234692   1.921   2.067   3.589 -2.4809 -2.9344  0.6095
 7686SOL     OW34693   2.515   0.492   8.738  0.2921 -0.2731 -0.1744
 7686SOL    HW134694   2.510   0.397   8.746  0.1654 -0.0851  2.2234
 7686SOL    HW234695   2.590   0.500   8.797  2.3213  0.4293 -2.8660
 7687SOL     OW34696   1.744   0.875  12.540 -0.3966  0.2206  0.0711
 7687SOL    HW134697   1.674   0.939  12.530 -1.5362 -0.8610  1.1165
 7687SOL    HW234698   1.815   0.893  12.478 -0.8416 -1.6455 -0.9889
 7688SOL     OW34699   2.780   2.145   4.468 -0.4061  0.0443  0.5343
 7688SOL    HW134700   2.762   2.071   4.410  0.3396 -0.5224  1.0283
 7688SOL    HW234701   2.746   2.219   4.418  0.8919 -0.0878 -0.5341
 7689SOL     OW34702   3.249   0.007   7.482  0.3380  0.1080  0.1217
 7689SOL    HW134703   3.270   0.100   7.489 -0.8502  0.3247  0.8422
 7689SOL    HW234704   3.186   0.002   7.411  0.6063  2.7898 -0.3240
 7690SOL     OW34705   3.486   2.652   4.747  0.0929  0.4292  0.0201
 7690SOL    HW134706   3.451   2.707   4.677 -1.4392  1.4594  1.6016
 7690SOL    HW234707   3.510   2.579   4.690  0.0257  1.7224 -1.6603
 7691SOL     OW34708   0.849   4.387   4.050  0.3135  0.4734  0.7280
 7691SOL    HW134709   0.862   4.456   4.115 -1.8131  0.0250  1.6069
 7691SOL    HW234710   0.929   4.336   4.063 -0.6233 -1.8128 -2.3341
 7692SOL     OW34711   1.354   0.862   3.213 -0.0855  0.1511 -0.3401
 7692SOL    HW134712   1.330   0.949   3.244  0.4995  0.3760 -0.5172
 7692SOL    HW234713   1.443   0.865   3.179  0.1296 -2.8165 -0.0983
 7693SOL     OW34714   3.984   3.500  14.655 -0.3436  0.0275 -0.2487
 7693SOL    HW134715   4.079   3.489  14.643 -0.4127 -1.2504  0.3854
 7693SOL    HW234716   3.952   3.514  14.565 -1.0239  2.5679  0.4006
 7694SOL     OW34717   0.603   3.265   9.516 -1.0871 -0.6052 -0.5210
 7694SOL    HW134718   0.536   3.302   9.458  1.0683 -0.7146 -3.0741
 7694SOL    HW234719   0.679   3.319   9.494 -1.0279 -0.0080  1.1956
 7695SOL     OW34720   1.809   2.955   8.787 -0.6019 -0.7364  0.0425
 7695SOL    HW134721   1.746   2.916   8.726 -0.4535 -0.4111 -0.3145
 7695SOL    HW234722   1.856   2.878   8.820  0.9203  0.6849  1.2384
 7696SOL     OW34723   0.558   2.791   7.830  0.4247  0.1896 -0.1443
 7696SOL    HW134724   0.620   2.732   7.787  0.3757  1.0811 -1.4444
 7696SOL    HW234725   0.548   2.743   7.912  0.2306 -0.1665 -0.3775
 7697SOL     OW34726   3.983   4.598   4.211  0.0186 -0.0480  0.3313
 7697SOL    HW134727   3.987   4.558   4.298 -3.3199 -1.0686  0.0457
 7697SOL    HW234728   4.074   4.621   4.194 -0.3210  1.5996  0.7202
 7698SOL     OW34729   2.262   4.499   0.021 -0.4173  0.7899  0.0316
 7698SOL    HW134730   2.262   4.554   0.099  0.1608 -1.7321  1.7796
 7698SOL    HW234731   2.182   4.449   0.037 -0.0235  0.2966  0.4313
 7699SOL     OW34732   2.898   0.209  11.554  0.3594 -0.0676 -1.0001
 7699SOL    HW134733   2.809   0.231  11.581  0.1383 -0.7235 -1.1951
 7699SOL    HW234734   2.916   0.158  11.633  1.3694 -0.1266 -1.2711
 7700SOL     OW34735   3.975   1.528   9.575 -0.1508 -0.2753  0.5225
 7700SOL    HW134736   4.064   1.562   9.563 -0.6511 -0.1885 -2.9888
 7700SOL    HW234737   3.930   1.600   9.531 -1.2871 -1.2548  0.1135
 7701SOL     OW34738   2.299   4.369  13.863 -0.2802  0.0809 -0.3318
 7701SOL    HW134739   2.235   4.429  13.825  0.9462  0.7898 -1.2728
 7701SOL    HW234740   2.381   4.416  13.846  0.6859 -1.4685  0.0516
 7702SOL     OW34741   3.165   4.503   7.587  0.4694  0.2103 -0.1726
 7702SOL    HW134742   3.213   4.432   7.544 -2.1672 -1.8454  0.2690
 7702SOL    HW234743   3.202   4.584   7.551 -0.7101  0.3488 -1.0956
 7703SOL     OW34744   1.754   0.897  14.267 -0.2901 -0.7141 -0.7430
 7703SOL    HW134745   1.772   0.987  14.294 -0.9217  0.0421 -2.8000
 7703SOL    HW234746   1.804   0.891  14.185 -0.9875 -2.1923 -1.0518
 7704SOL     OW34747   4.274   1.494   1.805 -0.2230  0.3526  0.3726
 7704SOL    HW134748   4.337   1.453   1.865 -2.2327 -2.0334  0.8421
 7704SOL    HW234749   4.260   1.418   1.749  0.4781  0.0422  0.6138
 7705SOL     OW34750   3.330   3.881   5.456  0.6154 -0.2874  0.3102
 7705SOL    HW134751   3.353   3.956   5.511  0.8480  0.7143 -1.1420
 7705SOL    HW234752   3.263   3.911   5.395 -0.6881  0.6754  2.2329
 7706SOL     OW34753   1.091   3.154   2.666  0.5290  0.2176  0.2080
 7706SOL    HW134754   1.014   3.197   2.701 -0.8703 -2.4880  0.4491
 7706SOL    HW234755   1.089   3.172   2.572 -1.5504 -0.4626  0.1189
 7707SOL     OW34756   2.212   2.138   6.832  0.3202  0.6374  0.1825
 7707SOL    HW134757   2.299   2.163   6.863  0.2346  0.4873  0.5393
 7707SOL    HW234758   2.221   2.110   6.741  1.0310  0.4114  0.3241
 7708SOL     OW34759   3.304   4.520  14.911  0.5316  0.2400  0.4594
 7708SOL    HW134760   3.220   4.497  14.951  0.4607 -0.1107  0.1132
 7708SOL    HW234761   3.363   4.490  14.980 -2.3919 -0.3569  2.7094
 7709SOL     OW34762   0.271   0.278  15.634  0.6575  0.0778  0.0501
 7709SOL    HW134763   0.291   0.274  15.727  0.0075  1.3977  0.2442
 7709SOL    HW234764   0.229   0.191  15.634 -1.0184  0.8918  1.0718
 7710SOL     OW34765   1.244   2.823   8.145  0.0278  0.1363 -0.2111
 7710SOL    HW134766   1.211   2.759   8.208  1.0847 -0.6331 -0.4438
 7710SOL    HW234767   1.212   2.903   8.186  1.8458  1.3843 -1.2748
 7711SOL     OW34768   4.661   4.735   4.957 -0.1574 -0.2812  0.1628
 7711SOL    HW134769   4.661   0.074   4.896 -3.0434  0.6266  1.2800
 7711SOL    HW234770   0.005   4.688   4.930  0.0755  0.6385 -0.7441
 7712SOL     OW34771   1.334   0.773   4.709  0.2246  0.0291  0.4331
 7712SOL    HW134772   1.296   0.859   4.694 -1.9636 -0.8065  1.1006
 7712SOL    HW234773   1.280   0.721   4.649  2.7518  0.1316 -1.9355
 7713SOL     OW34774   3.749   0.700   8.882  0.1883 -0.1505  0.7213
 7713SOL    HW134775   3.698   0.693   8.801 -1.3069  1.1757  1.5388
 7713SOL    HW234776   3.707   0.623   8.921  0.1009 -0.7595 -0.5877
 7714SOL     OW34777   0.814   0.041   2.764 -0.2211  0.5253  0.4695
 7714SOL    HW134778   0.738   0.073   2.714 -1.1099 -2.1838  0.0630
 7714SOL    HW234779   0.869   4.722   2.708  1.0607 -0.0255  2.2714
 7715SOL     OW34780   2.633   3.453  14.762 -0.1520 -0.2444  0.3323
 7715SOL    HW134781   2.705   3.444  14.824 -1.3589  0.0103  1.7875
 7715SOL    HW234782   2.573   3.515  14.803  1.2636  1.6483 -0.4669
 7716SOL     OW34783   2.534   4.580   5.162  0.2393  0.5282  0.2465
 7716SOL    HW134784   2.560   4.584   5.070 -1.4517 -0.0031 -0.2446
 7716SOL    HW234785   2.588   4.507   5.191  0.2513  0.1417 -0.7295
 7717SOL     OW34786   4.100   1.887   5.253  0.6822  0.0629 -0.0261
 7717SOL    HW134787   4.083   1.928   5.168 -1.7645  0.8484  0.8545
 7717SOL    HW234788   4.196   1.887   5.255  0.6810 -0.4583 -0.0894
 7718SOL     OW34789   4.469   4.604   4.703  0.0915  0.1403 -0.1324
 7718SOL    HW134790   4.446   4.573   4.790 -1.7359  0.4598 -0.5098
 7718SOL    HW234791   4.547   4.551   4.690  1.0883  2.0946 -2.1578
 7719SOL     OW34792   1.465   3.889  17.240 -0.6848  0.0536  0.3509
 7719SOL    HW134793   1.459   3.963  17.300 -0.7143 -0.5840  1.1426
 7719SOL    HW234794   1.390   3.895  17.181 -2.4023  2.1824  2.7719
 7720SOL     OW34795   0.358   0.493   6.249  0.2750  0.1535  0.2770
 7720SOL    HW134796   0.373   0.585   6.225  2.9927  0.1572  1.9017
 7720SOL    HW234797   0.317   0.515   6.333 -0.8769 -3.0306  0.5303
 7721SOL     OW34798   4.117   3.025   2.846  0.2700 -0.6303 -0.2405
 7721SOL    HW134799   4.108   3.062   2.934  3.0643  0.4120 -0.3857
 7721SOL    HW234800   4.115   2.932   2.865 -0.5755 -0.5881 -0.1199
 7722SOL     OW34801   4.325   2.065   7.000  0.5311 -0.0982  0.2205
 7722SOL    HW134802   4.410   2.086   7.039  0.7862 -1.5280  0.4409
 7722SOL    HW234803   4.273   2.089   7.076 -2.9099 -4.0435 -0.8863
 7723SOL     OW34804   2.196   3.361   2.434 -0.3119  0.6144  0.2938
 7723SOL    HW134805   2.103   3.365   2.414  0.1493  1.1061 -1.7256
 7723SOL    HW234806   2.234   3.373   2.347 -1.1814  2.1516  0.1254
 7724SOL     OW34807   1.363   0.718   9.188 -0.0010  0.0411  0.2245
 7724SOL    HW134808   1.375   0.768   9.269 -1.7537 -1.3018  1.3169
 7724SOL    HW234809   1.290   0.658   9.207  0.0758 -0.3379 -0.6635
 7725SOL     OW34810   4.074   3.165   4.953 -0.1837 -0.1210  0.5409
 7725SOL    HW134811   4.057   3.163   5.047  0.8384 -0.7258  0.7075
 7725SOL    HW234812   4.102   3.256   4.942  0.8629 -0.5365 -0.2274
 7726SOL     OW34813   4.224   0.776   1.289 -0.1114 -0.3626 -0.0894
 7726SOL    HW134814   4.246   0.811   1.375 -0.6071 -0.5898  0.1341
 7726SOL    HW234815   4.277   0.697   1.276  0.3379  0.0096 -0.5150
 7727SOL     OW34816   1.045   4.696   5.036  0.6731 -0.2309 -0.5929
 7727SOL    HW134817   1.068   4.651   5.118  2.8819  1.3026 -0.3766
 7727SOL    HW234818   0.965   4.649   5.012 -0.5187  0.7821  1.3748
 7728SOL     OW34819   3.249   1.084   9.213  0.1505 -0.1896 -0.7268
 7728SOL    HW134820   3.321   1.121   9.264  1.1358  0.7639 -2.8185
 7728SOL    HW234821   3.208   1.029   9.280  3.0082  0.0087  1.1967
 7729SOL     OW34822   1.532   1.037   8.711  0.3182  0.0844 -0.2219
 7729SOL    HW134823   1.572   1.122   8.694  1.9820 -0.2999  1.7590
 7729SOL    HW234824   1.544   0.990   8.629  0.2368 -0.3683  0.0284
 7730SOL     OW34825   4.319   4.541   6.105 -0.2011  0.4245  0.1387
 7730SOL    HW134826   4.285   4.520   6.018 -0.9753 -1.4532  0.8900
 7730SOL    HW234827   4.272   4.624   6.111  1.1105  1.4121 -3.1509
 7731SOL     OW34828   4.009   0.681  10.536 -0.1565 -0.7835  0.0598
 7731SOL    HW134829   4.027   0.665  10.443 -1.3121  0.3131 -0.3509
 7731SOL    HW234830   4.094   0.656  10.571  0.6119 -0.3733 -1.4733
 7732SOL     OW34831   3.525   0.738   3.426 -0.4123  0.2163  0.2362
 7732SOL    HW134832   3.575   0.806   3.470 -0.7597 -0.3039  1.4435
 7732SOL    HW234833   3.537   0.758   3.333 -2.0110  2.4551  0.5046
 7733SOL     OW34834   4.541   3.327   6.932 -0.3435  0.0056  0.5244
 7733SOL    HW134835   4.587   3.243   6.941 -0.1627  0.2825  2.2199
 7733SOL    HW234836   4.457   3.299   6.896  0.2279  0.1750 -0.9692
 7734SOL     OW34837   2.281   1.001   7.741  0.2783 -0.1711 -0.1180
 7734SOL    HW134838   2.229   0.943   7.796  0.8222  0.2213  0.8155
 7734SOL    HW234839   2.224   1.003   7.665  0.9091 -1.6526 -0.6189
 7735SOL     OW34840   3.742   0.749  11.988  0.0924 -0.6456  0.2379
 7735SOL    HW134841   3.686   0.711  12.056 -1.0693  0.2168 -0.2351
 7735SOL    HW234842   3.690   0.826  11.962  2.5538  1.3383  1.2087
 7736SOL     OW34843   0.360   4.724   3.377  0.3259  0.1496 -0.0931
 7736SOL    HW134844   0.293   4.682   3.431  1.4340 -2.6324 -0.8468
 7736SOL    HW234845   0.299   0.008   3.306 -0.1205 -0.3972  0.1368
 7737SOL     OW34846   1.315   3.857   3.771  0.2166  0.4534 -0.1346
 7737SOL    HW134847   1.338   3.942   3.735  1.7479  0.1814  0.1967
 7737SOL    HW234848   1.344   3.797   3.702 -0.9879 -0.4410  0.1335
 7738SOL     OW34849   4.656   0.925   4.781  0.4414  0.3924  0.4368
 7738SOL    HW134850   4.643   0.861   4.852 -2.1251  1.0488  0.5666
 7738SOL    HW234851   4.632   1.003   4.830 -1.8968  0.5118 -0.8812
 7739SOL     OW34852   3.007   4.279  15.434  0.8256  0.2615  0.4977
 7739SOL    HW134853   2.978   4.295  15.345 -1.8255 -1.4565  1.0718
 7739SOL    HW234854   3.077   4.216  15.416  0.6929  0.3877 -0.4098
 7740SOL     OW34855   4.648   0.378   9.044  0.3320  0.1944  0.1136
 7740SOL    HW134856   4.579   0.444   9.052  1.7753  1.7032  0.2019
 7740SOL    HW234857   4.654   0.344   9.133  0.0180  0.8542  0.3875
 7741SOL     OW34858   2.350   3.730   2.308 -0.1483 -0.4735 -0.1241
 7741SOL    HW134859   2.443   3.711   2.318  0.1214  1.5089  0.9379
 7741SOL    HW234860   2.326   3.692   2.223  2.0570  0.9111 -1.3743
 7742SOL     OW34861   3.646   0.259   4.481 -0.2131 -0.1414 -0.1802
 7742SOL    HW134862   3.613   0.190   4.538  1.3706 -0.4080  0.4343
 7742SOL    HW234863   3.697   0.207   4.419  2.6925  0.0120  2.0182
 7743SOL     OW34864   1.864   4.255   7.203  0.3041 -0.0248 -0.9326
 7743SOL    HW134865   1.784   4.305   7.187 -0.5054 -1.6198 -1.8582
 7743SOL    HW234866   1.928   4.317   7.168  1.3171  0.8100  2.3580
 7744SOL     OW34867   2.413   4.249   9.372  0.9162 -0.9827  0.3707
 7744SOL    HW134868   2.386   4.265   9.462 -0.9500 -0.3022 -0.3086
 7744SOL    HW234869   2.507   4.260   9.382  0.5850 -0.2206  2.4968
 7745SOL     OW34870   0.365   3.906   0.856 -0.0120 -0.1908  0.1082
 7745SOL    HW134871   0.350   3.980   0.798 -0.6537  0.1662  0.7270
 7745SOL    HW234872   0.277   3.871   0.870  0.3493 -1.2386 -0.1716
 7746SOL     OW34873   0.408   2.146   5.169  0.0509 -0.1990  0.7571
 7746SOL    HW134874   0.452   2.071   5.130  0.3175 -0.7268  2.0633
 7746SOL    HW234875   0.449   2.226   5.135 -1.5454 -1.5827 -4.3610
 7747SOL     OW34876   4.435   3.720   0.070  0.3689  0.2219  0.3997
 7747SOL    HW134877   4.460   3.632   0.042 -0.6064  0.4280 -1.0997
 7747SOL    HW234878   4.410   3.698   0.159  2.9213  0.5894  1.2190
 7748SOL     OW34879   4.044   1.596   0.706 -0.1943 -0.5150 -0.0463
 7748SOL    HW134880   3.952   1.607   0.683 -0.2963 -1.3150 -0.0075
 7748SOL    HW234881   4.037   1.512   0.751 -1.3587 -0.9395 -0.9992
 7749SOL     OW34882   4.274   1.021  15.679 -0.0078  0.0188  0.1940
 7749SOL    HW134883   4.336   1.086  15.711  1.4031 -2.1463  1.8350
 7749SOL    HW234884   4.197   1.078  15.677 -0.6868 -0.9592 -2.1950
 7750SOL     OW34885   1.384   1.762   7.239 -0.0660 -0.0114 -0.4059
 7750SOL    HW134886   1.314   1.812   7.281  1.0740  1.9563 -0.8409
 7750SOL    HW234887   1.413   1.694   7.300  1.3928 -0.7587 -1.9439
 7751SOL     OW34888   1.169   1.559   2.346  0.1305  0.2493 -0.8486
 7751SOL    HW134889   1.183   1.538   2.438 -0.2881 -1.7819 -1.2620
 7751SOL    HW234890   1.112   1.635   2.361  0.8822  0.8583 -1.0867
 7752SOL     OW34891   2.978   1.823   6.628 -0.2673 -0.0094 -0.0822
 7752SOL    HW134892   3.062   1.862   6.653  0.4041 -2.3396  1.2076
 7752SOL    HW234893   2.982   1.827   6.532  1.7846  0.0374  0.0149
 7753SOL     OW34894   1.753   0.663  14.405 -0.6908 -0.8445 -0.9556
 7753SOL    HW134895   1.739   0.744  14.357 -2.4407 -1.7113 -1.9066
 7753SOL    HW234896   1.687   0.676  14.473  0.4361  0.7881 -0.1726
 7754SOL     OW34897   0.781   1.536   6.178 -0.0282 -0.3737  0.0569
 7754SOL    HW134898   0.870   1.525   6.209  0.7765  3.0801 -1.0410
 7754SOL    HW234899   0.777   1.479   6.101 -1.6165 -0.1625 -0.0189
 7755SOL     OW34900   1.046   4.357  11.640  0.3770 -0.0884  0.0923
 7755SOL    HW134901   1.046   4.376  11.547  0.3058  0.4688  0.2080
 7755SOL    HW234902   1.011   4.438  11.678  0.0463  0.5831 -1.6663
 7756SOL     OW34903   1.119   3.980   2.489 -0.3911 -0.1501  0.1300
 7756SOL    HW134904   1.052   4.006   2.426  0.2475  0.3318 -0.3547
 7756SOL    HW234905   1.081   3.905   2.534  0.9475  0.6962  2.6725
 7757SOL     OW34906   2.309   0.297   4.020  0.5686  0.0780  0.0549
 7757SOL    HW134907   2.224   0.262   4.047 -0.3051  1.4000 -0.9797
 7757SOL    HW234908   2.336   0.221   3.968 -2.2568 -1.2254  0.4816
 7758SOL     OW34909   2.013   0.013   7.581 -0.3496 -0.3133  0.5538
 7758SOL    HW134910   1.952   4.677   7.603  0.1422 -1.7527 -2.7147
 7758SOL    HW234911   1.991   0.033   7.490  0.7582  2.6192  0.9364
 7759SOL     OW34912   1.888   1.498   8.490  0.0326  0.6858 -0.1320
 7759SOL    HW134913   1.813   1.545   8.527 -1.5922 -0.6029 -1.8138
 7759SOL    HW234914   1.943   1.509   8.567 -0.7100 -0.8986  0.6313
 7760SOL     OW34915   3.746   2.201   6.966  0.0560  0.1901  0.1685
 7760SOL    HW134916   3.751   2.190   6.871 -1.4945  1.5232 -0.0704
 7760SOL    HW234917   3.789   2.281   6.995  0.0741  0.4180 -0.5004
 7761SOL     OW34918   2.599   0.809   3.405  0.1915  0.1133  0.4470
 7761SOL    HW134919   2.663   0.879   3.411  2.0190 -1.5419  0.4406
 7761SOL    HW234920   2.630   0.732   3.454  3.8997  0.8020 -0.7893
 7762SOL     OW34921   2.369   1.184   5.396 -0.5752  0.4117  0.4270
 7762SOL    HW134922   2.293   1.242   5.397 -0.7430  0.1919  0.4623
 7762SOL    HW234923   2.441   1.246   5.399 -0.1609 -0.0158 -0.4769
 7763SOL     OW34924   1.868   2.120  11.180  0.6855  0.3622 -0.3975
 7763SOL    HW134925   1.863   2.044  11.123 -0.8090  1.0134 -1.1469
 7763SOL    HW234926   1.942   2.100  11.237  0.4424 -3.1112 -1.3187
 7764SOL     OW34927   2.933   0.268   6.672 -0.2186 -0.2381 -0.5492
 7764SOL    HW134928   2.910   0.212   6.598  2.3757 -0.6275 -1.0954
 7764SOL    HW234929   2.943   0.201   6.739  0.2733 -0.7050 -1.0855
 7765SOL     OW34930   4.393   0.765  10.218 -0.4726  0.6345 -0.0349
 7765SOL    HW134931   4.471   0.816  10.241 -1.1526  2.0925 -0.9450
 7765SOL    HW234932   4.423   0.674  10.215 -0.6986  0.6170 -1.8291
 7766SOL     OW34933   3.737   4.614   8.830 -0.0704 -0.3845 -0.4394
 7766SOL    HW134934   3.721   4.669   8.907 -0.0900  0.0441 -0.7507
 7766SOL    HW234935   3.696   4.535   8.866 -1.1238  0.5318  0.3805
 7767SOL     OW34936   2.512   0.070   0.959 -0.0302 -0.1505  0.3041
 7767SOL    HW134937   2.499   0.165   0.962 -1.7478 -0.3637 -0.2109
 7767SOL    HW234938   2.574   0.059   1.031  1.4840  2.6955 -0.5873
 7768SOL     OW34939   1.288   1.628   0.015 -0.1227  0.5762 -0.2924
 7768SOL    HW134940   1.336   1.595   0.092  1.1646  1.1972 -0.8314
 7768SOL    HW234941   1.252   1.548  17.718  0.7729  0.0200  0.0529
 7769SOL     OW34942   0.331   0.765   1.103 -0.5697 -0.3534 -0.2159
 7769SOL    HW134943   0.256   0.816   1.074 -0.4921 -1.0524 -1.6435
 7769SOL    HW234944   0.301   0.766   1.194  0.2738 -0.5148  0.0642
 7770SOL     OW34945   1.209   3.293   3.343 -0.3643 -0.3490  0.1286
 7770SOL    HW134946   1.221   3.263   3.253  2.9596 -0.7291  0.6906
 7770SOL    HW234947   1.142   3.232   3.374  1.5903 -2.2098  0.7426
 7771SOL     OW34948   3.864   0.100   5.490 -0.0071  0.3655  0.0438
 7771SOL    HW134949   3.917   0.099   5.410 -0.6857  0.6876 -0.4138
 7771SOL    HW234950   3.853   0.194   5.502 -3.2612  0.1384 -1.0989
 7772SOL     OW34951   2.089   4.312   5.161 -0.2690 -0.0358 -0.4004
 7772SOL    HW134952   2.114   4.223   5.137 -0.0341  0.5034 -2.1449
 7772SOL    HW234953   2.166   4.364   5.137 -0.0181 -1.3294 -2.3517
 7773SOL     OW34954   2.590   2.712   7.113  0.1328  0.1245  0.0641
 7773SOL    HW134955   2.588   2.636   7.171  1.0861 -0.1151 -0.2112
 7773SOL    HW234956   2.525   2.776   7.142 -0.1935 -0.1756 -0.0026
 7774SOL     OW34957   3.800   3.186   4.521  0.2638  0.1894 -0.5747
 7774SOL    HW134958   3.762   3.237   4.593  0.0303 -0.3562 -0.3172
 7774SOL    HW234959   3.752   3.227   4.449 -0.5210 -0.9599 -0.7061
 7775SOL     OW34960   1.990   0.031   9.216  0.3713 -0.2462  0.0664
 7775SOL    HW134961   2.026   0.119   9.209 -0.8456  0.3092  0.6686
 7775SOL    HW234962   2.072   4.718   9.225  0.4921  0.0804  0.7679
 7776SOL     OW34963   0.983   1.024   7.922  0.1777 -0.3973 -0.7479
 7776SOL    HW134964   0.995   1.042   7.829 -0.6435 -2.8466 -1.3285
 7776SOL    HW234965   0.929   0.947   7.939  0.0242 -0.5639 -2.0338
 7777SOL     OW34966   2.249   3.932   6.594  0.9438 -0.4974  0.5308
 7777SOL    HW134967   2.324   3.955   6.649  0.9637  0.2484  0.1838
 7777SOL    HW234968   2.180   3.920   6.658  0.1774  0.0062 -0.1966
 7778SOL     OW34969   3.412   2.271   4.792  0.2212  0.0075 -0.3745
 7778SOL    HW134970   3.359   2.340   4.752 -0.8590 -0.2560  0.5973
 7778SOL    HW234971   3.434   2.312   4.875 -0.1660 -1.5836  0.5129
 7779SOL     OW34972   1.087   0.465   7.307  0.3614 -0.4334  0.1036
 7779SOL    HW134973   1.143   0.387   7.310 -0.9818 -1.4071 -0.4094
 7779SOL    HW234974   1.126   0.510   7.232 -0.8871  1.5461  0.6591
 7780SOL     OW34975   2.707   0.189   4.553  0.4551 -0.3152 -0.0126
 7780SOL    HW134976   2.747   0.275   4.548 -1.3650  0.6116  1.4176
 7780SOL    HW234977   2.688   0.191   4.647  1.1547 -0.9316  0.1370
 7781SOL     OW34978   3.531   2.776  17.420  0.2038  0.2188  0.1304
 7781SOL    HW134979   3.622   2.753  17.435  0.8320  3.4095  1.2397
 7781SOL    HW234980   3.528   2.722  17.341 -2.6315 -1.6699  1.5135
 7782SOL     OW34981   1.321   2.845   1.356 -0.0938 -0.0178 -0.2494
 7782SOL    HW134982   1.310   2.910   1.426 -1.2014 -1.0248  0.5087
 7782SOL    HW234983   1.279   2.773   1.403 -1.1329  2.0408  2.0191
 7783SOL     OW34984   4.221   3.440  16.139 -0.1920 -0.0158 -0.0392
 7783SOL    HW134985   4.212   3.533  16.161 -0.0763 -0.1060  0.3835
 7783SOL    HW234986   4.162   3.424  16.065  1.0921  0.1658 -1.1025
 7784SOL     OW34987   0.019   3.444   8.141 -0.3022 -0.0554  0.4775
 7784SOL    HW134988   4.693   3.390   8.190  0.1960  0.6220  1.8272
 7784SOL    HW234989   4.705   3.526   8.142  0.5487  0.4366  1.2013
 7785SOL     OW34990   0.865   2.653   3.091  0.3406  0.2360  0.8091
 7785SOL    HW134991   0.915   2.593   3.035 -1.0526 -0.2921  0.1401
 7785SOL    HW234992   0.785   2.603   3.105  0.5071 -0.1395  0.4231
 7786SOL     OW34993   0.763   2.533  15.053  0.1011  0.1551  0.2219
 7786SOL    HW134994   0.792   2.539  14.962  0.4883  1.4323  0.4349
 7786SOL    HW234995   0.814   2.607  15.084 -0.4861  0.1018  1.2959
 7787SOL     OW34996   0.756   1.854   3.672  0.1270  0.2275 -0.1539
 7787SOL    HW134997   0.846   1.831   3.649  0.0142 -1.1909  0.8277
 7787SOL    HW234998   0.760   1.802   3.752 -1.1368 -0.8461 -0.7904
 7788SOL     OW34999   1.610   1.484   1.438  0.3061  0.9475 -0.0341
 7788SOL    HW135000   1.601   1.473   1.344  1.1327  1.1203 -0.1300
 7788SOL    HW235001   1.703   1.505   1.447  0.9221 -1.8197 -0.2098
 7789SOL     OW35002   0.153   0.746  16.069 -0.2058  0.2016 -0.1046
 7789SOL    HW135003   0.112   0.664  16.041  0.7389  0.0362 -1.0243
 7789SOL    HW235004   0.095   0.771  16.141 -2.2074  0.8864 -1.9564
 7790SOL     OW35005   4.170   3.269  11.252  0.5822 -0.5694  0.1871
 7790SOL    HW135006   4.116   3.279  11.174 -0.2799  0.6717  0.9201
 7790SOL    HW235007   4.187   3.361  11.272 -2.3399  0.4124 -1.8224
 7791SOL     OW35008   3.656   1.640   3.869 -0.0728 -0.0610  0.0098
 7791SOL    HW135009   3.630   1.569   3.811  1.8439 -1.4204  0.8017
 7791SOL    HW235010   3.722   1.604   3.928 -0.8762  1.5158  1.8819
 7792SOL     OW35011   4.594   1.286   8.437 -0.3666  0.0406 -0.1589
 7792SOL    HW135012   4.564   1.293   8.346 -0.3185 -1.0677 -0.2664
 7792SOL    HW235013   4.640   1.370   8.441  1.7608 -1.0351 -2.1252
 7793SOL     OW35014   0.238   2.936   8.231 -0.7012 -0.2268  0.4321
 7793SOL    HW135015   0.291   2.965   8.157 -1.0874 -0.6311 -0.0029
 7793SOL    HW235016   0.220   2.847   8.200 -1.4863  0.3972 -0.9076
 7794SOL     OW35017   1.017   1.085   1.611  0.2150  0.3657  0.3262
 7794SOL    HW135018   0.972   1.111   1.531 -0.2095 -0.7425  0.1998
 7794SOL    HW235019   1.108   1.108   1.593  0.4759  0.2035  1.4369
 7795SOL     OW35020   2.516   1.382   3.492  0.1266  0.1026 -0.1097
 7795SOL    HW135021   2.539   1.342   3.408 -1.8263 -1.2205  0.0000
 7795SOL    HW235022   2.587   1.446   3.491 -0.4128  0.6955 -0.4055
 7796SOL     OW35023   2.401   0.156  16.506  0.2194  0.7303 -0.5742
 7796SOL    HW135024   2.495   0.177  16.501  0.3416  0.3857  0.3142
 7796SOL    HW235025   2.389   0.079  16.450 -0.9672 -1.1430  2.2755
 7797SOL     OW35026   3.254   1.300   5.979 -0.3519 -0.6770  0.0507
 7797SOL    HW135027   3.203   1.370   6.019 -0.3899 -1.9192  2.1702
 7797SOL    HW235028   3.307   1.350   5.917 -0.0056  0.5484  1.3331
 7798SOL     OW35029   0.069   2.129   7.313  0.4790 -0.3449  0.2769
 7798SOL    HW135030   0.094   2.194   7.247 -1.2610  0.6436  0.5962
 7798SOL    HW235031   0.111   2.168   7.390 -1.4099  1.5955  0.3148
 7799SOL     OW35032   0.954   2.576   0.682  0.4841  0.0166 -0.1842
 7799SOL    HW135033   1.001   2.579   0.765  1.2892  0.7415 -0.6611
 7799SOL    HW235034   1.014   2.624   0.625  1.5538 -1.1305 -0.0189
 7800SOL     OW35035   1.905   1.231   2.977  0.1325 -0.6828  0.0637
 7800SOL    HW135036   1.881   1.244   3.069  2.5033 -0.5255  0.6500
 7800SOL    HW235037   1.882   1.321   2.954 -0.2166 -0.9497 -0.6284
 7801SOL     OW35038   2.108   0.627   2.231 -0.6884  0.0356 -0.1117
 7801SOL    HW135039   2.078   0.591   2.147 -0.7098  1.4599 -0.7063
 7801SOL    HW235040   2.054   0.705   2.240 -1.2031 -0.3124 -0.2035
 7802SOL     OW35041   4.678   3.401   5.912  0.1630 -0.3636  0.8118
 7802SOL    HW135042   4.655   3.327   5.856 -1.4484  0.3282  0.5845
 7802SOL    HW235043   4.703   3.357   5.994  0.5291  0.0809  0.9400
 7803SOL     OW35044   4.311   2.069  16.178  0.6128  0.1718  0.7898
 7803SOL    HW135045   4.325   2.069  16.273 -0.4934 -1.3332  0.9303
 7803SOL    HW235046   4.254   2.145  16.167 -0.0710 -0.0146  3.0144
 7804SOL     OW35047   2.047   2.293   2.529  0.1186  0.1990 -0.2945
 7804SOL    HW135048   2.068   2.386   2.521 -0.1366  0.2427 -0.4435
 7804SOL    HW235049   2.132   2.256   2.507 -0.3162 -0.9544 -0.0368
 7805SOL     OW35050   4.656   1.396   4.087 -0.1698 -0.5177 -0.1027
 7805SOL    HW135051   4.628   1.480   4.051 -3.3005 -1.7363 -0.5976
 7805SOL    HW235052   4.675   1.352   4.004  2.1417 -2.1515  1.3066
 7806SOL     OW35053   2.315   3.890  12.419 -0.1148 -0.0934 -0.6711
 7806SOL    HW135054   2.354   3.970  12.455 -0.0168 -0.0849 -0.7952
 7806SOL    HW235055   2.241   3.876  12.479 -0.6190  1.2138 -0.9848
 7807SOL     OW35056   0.224   4.400   5.713 -0.3689  0.0501 -0.5805
 7807SOL    HW135057   0.177   4.444   5.783  0.8412  0.4774 -0.0302
 7807SOL    HW235058   0.255   4.320   5.756  1.4388  0.7003 -0.6745
 7808SOL     OW35059   1.984   3.152  14.285 -0.0128  0.5369 -0.1638
 7808SOL    HW135060   1.930   3.155  14.364 -0.3579  0.1891 -0.3898
 7808SOL    HW235061   2.043   3.217  14.323  0.2232 -0.2150  0.7580
 7809SOL     OW35062   3.061   0.056   7.282 -0.3139 -0.2589  0.1918
 7809SOL    HW135063   3.115   0.127   7.248  0.2365 -0.4867  0.6018
 7809SOL    HW235064   2.984   0.106   7.309 -1.1026 -0.5462 -1.5232
 7810SOL     OW35065   0.723   4.481   8.717  0.0708 -0.2134  0.1585
 7810SOL    HW135066   0.671   4.534   8.776  1.1878  2.7117 -1.4751
 7810SOL    HW235067   0.693   4.505   8.629  1.0345  2.9582  0.7048
 7811SOL     OW35068   4.597   1.472   7.291 -0.0933  0.7019 -0.7076
 7811SOL    HW135069   4.638   1.461   7.377 -0.3537 -0.6869 -0.7684
 7811SOL    HW235070   4.560   1.560   7.302  0.7583  0.7575  1.7231
 7812SOL     OW35071   1.919   2.914   6.108 -0.3137  0.2662 -0.2049
 7812SOL    HW135072   1.933   2.821   6.088 -1.8829  0.2257 -1.0897
 7812SOL    HW235073   1.828   2.908   6.137 -0.4022 -1.0067 -0.7412
 7813SOL     OW35074   3.115   3.597   2.165  0.7251 -0.3287 -0.0104
 7813SOL    HW135075   3.156   3.583   2.250 -0.8406 -1.4427  0.5725
 7813SOL    HW235076   3.144   3.686   2.145 -0.5986 -0.5557 -3.0199
 7814SOL     OW35077   0.904   0.758  12.211  0.0707 -1.1102  0.3519
 7814SOL    HW135078   0.988   0.793  12.242 -0.9164  2.7209 -1.3489
 7814SOL    HW235079   0.888   0.683  12.269  4.9146 -2.3981  0.0989
 7815SOL     OW35080   4.032   2.318   7.854 -0.0274 -0.1125  0.2578
 7815SOL    HW135081   4.041   2.370   7.934  1.1442 -2.0624  1.4066
 7815SOL    HW235082   3.939   2.334   7.836  0.1008  1.4213  0.9326
 7816SOL     OW35083   3.028   0.423  10.535  0.3643  0.2318 -0.2398
 7816SOL    HW135084   3.033   0.449  10.627 -0.3232  0.5085 -0.2775
 7816SOL    HW235085   3.006   0.510  10.502  1.4079  1.7849  3.1287
 7817SOL     OW35086   0.492   3.204   5.984 -0.9523 -0.1536 -0.2005
 7817SOL    HW135087   0.521   3.130   6.037 -1.2922 -0.3080 -0.2296
 7817SOL    HW235088   0.548   3.266   6.030 -0.9497 -1.9240  2.1797
 7818SOL     OW35089   0.803   1.605   1.880 -0.2948 -0.3616 -0.5630
 7818SOL    HW135090   0.879   1.625   1.826 -0.6535 -0.7645 -1.2136
 7818SOL    HW235091   0.731   1.661   1.851 -1.3682 -1.1114  0.6265
 7819SOL     OW35092   4.345   3.997   5.097  0.0976  0.2764 -0.6634
 7819SOL    HW135093   4.389   4.033   5.173 -3.1697  0.5621  1.0978
 7819SOL    HW235094   4.281   3.944   5.145 -1.0707  1.4199 -0.9691
 7820SOL     OW35095   0.736   1.423  14.175  0.2016 -0.1806  0.6412
 7820SOL    HW135096   0.806   1.428  14.110  0.1989  1.8656  0.7974
 7820SOL    HW235097   0.690   1.348  14.137  1.3256 -1.0626  1.0441
 7821SOL     OW35098   1.278   3.450   2.760 -0.5301  0.3309  0.0618
 7821SOL    HW135099   1.201   3.505   2.750 -1.5991 -1.1072  0.4549
 7821SOL    HW235100   1.314   3.436   2.672 -1.7746  1.1162 -0.5581
 7822SOL     OW35101   4.413   3.453   8.174  0.7102  0.0283  0.2544
 7822SOL    HW135102   4.475   3.525   8.186 -0.3953  0.9608  0.4393
 7822SOL    HW235103   4.457   3.399   8.240 -0.1968 -0.2783  0.6088
 7823SOL     OW35104   4.724   2.931   6.171 -0.2735 -0.6001  0.3281
 7823SOL    HW135105   4.691   2.884   6.248 -1.0791 -1.7297 -0.6964
 7823SOL    HW235106   0.079   2.900   6.160  0.3604  2.2232 -2.4543
 7824SOL     OW35107   3.467   1.026   6.618  0.4654  0.3051  0.5718
 7824SOL    HW135108   3.485   1.062   6.704  1.1113  0.0214  0.5556
 7824SOL    HW235109   3.418   1.094   6.572 -2.9129 -2.7752 -0.4139
 7825SOL     OW35110   2.629   2.989   8.539  0.2846 -0.4033 -0.1674
 7825SOL    HW135111   2.624   3.016   8.631 -0.9901 -0.0096 -0.3604
 7825SOL    HW235112   2.656   2.898   8.550 -1.7855 -0.7914  1.7182
 7826SOL     OW35113   3.860   1.823   1.096 -0.1142  0.6102 -0.0583
 7826SOL    HW135114   3.861   1.747   1.038  1.4794  0.1618  0.5812
 7826SOL    HW235115   3.829   1.883   1.028 -0.5043 -1.5102 -1.7726
 7827SOL     OW35116   4.299   4.219   4.987 -0.1436  0.4107  0.0561
 7827SOL    HW135117   4.217   4.242   5.031 -1.2283 -0.7451 -1.3291
 7827SOL    HW235118   4.315   4.131   5.020  0.9553  0.6838  0.2506
 7828SOL     OW35119   3.970   4.655   9.649 -0.0131  0.0913  0.2902
 7828SOL    HW135120   4.009   4.614   9.572 -0.2493  0.7691 -0.1872
 7828SOL    HW235121   4.010   0.007   9.656 -0.7160  0.4777 -0.5359
 7829SOL     OW35122   3.841   2.830  17.314  0.4270 -0.2636  0.5577
 7829SOL    HW135123   3.835   2.769  17.241 -0.0155 -0.3265  0.6410
 7829SOL    HW235124   3.772   2.891  17.286  0.4794 -0.2668  0.4234
 7830SOL     OW35125   2.416   0.142   0.473  0.0009 -0.2349  0.1238
 7830SOL    HW135126   2.340   0.139   0.531  0.9063 -0.9263  1.2721
 7830SOL    HW235127   2.488   0.156   0.535  0.7629  0.5168 -0.9269
 7831SOL     OW35128   3.198   2.169  15.566 -0.1653  0.3899  0.3321
 7831SOL    HW135129   3.211   2.172  15.471 -0.4258  0.8146  0.3089
 7831SOL    HW235130   3.240   2.253  15.585  0.7290 -0.2475  1.1509
 7832SOL     OW35131   4.442   0.060  13.968 -0.1287 -0.8579 -0.2690
 7832SOL    HW135132   4.452   0.155  13.967 -1.4146 -0.7165 -1.1892
 7832SOL    HW235133   4.370   0.046  13.906  0.8597 -0.0803 -1.5869
 7833SOL     OW35134   2.985   3.111   7.626  0.0829 -0.5517 -0.2568
 7833SOL    HW135135   2.903   3.075   7.593 -1.4229  1.0338  1.7473
 7833SOL    HW235136   2.965   3.204   7.641  0.7675 -0.8007  2.1609
 7834SOL     OW35137   0.892   3.287   2.771  0.7300 -0.0805 -0.1899
 7834SOL    HW135138   0.838   3.365   2.757 -0.8472 -1.3574 -1.2708
 7834SOL    HW235139   0.873   3.271   2.864  1.6442 -2.6437 -0.4418
 7835SOL     OW35140   3.659   3.947   6.090  0.6950  1.2932 -0.0573
 7835SOL    HW135141   3.600   3.873   6.075  3.3588 -0.4011 -2.0966
 7835SOL    HW235142   3.706   3.914   6.166 -0.7158  0.3603  0.4024
 7836SOL     OW35143   4.435   1.604   8.537 -0.5082  0.0518  0.1697
 7836SOL    HW135144   4.477   1.681   8.575 -0.6681  0.4655 -0.4854
 7836SOL    HW235145   4.341   1.622   8.550 -0.3377  1.7972 -0.9512
 7837SOL     OW35146   0.512   1.041   5.732  0.0036 -0.8424 -0.0848
 7837SOL    HW135147   0.541   0.952   5.713  2.0725 -0.4712  1.3388
 7837SOL    HW235148   0.559   1.085   5.661 -0.1817  0.7799  0.7899
 7838SOL     OW35149   1.184   2.226   4.308  0.3391 -0.2212  0.4617
 7838SOL    HW135150   1.173   2.241   4.214  0.7188  0.6306  0.5556
 7838SOL    HW235151   1.196   2.310   4.351 -0.7613 -0.6391  1.5632
 7839SOL     OW35152   0.833   2.491  11.785 -0.1134  0.1603 -0.6714
 7839SOL    HW135153   0.787   2.516  11.865  0.3505  0.2116 -0.4258
 7839SOL    HW235154   0.776   2.533  11.721  0.9395  1.0332 -1.0330
 7840SOL     OW35155   2.626   3.177   3.923  0.4565  0.6155  0.9052
 7840SOL    HW135156   2.692   3.109   3.913  0.5078  0.7310  0.4641
 7840SOL    HW235157   2.643   3.207   4.012  0.3682  2.2934  0.3653
 7841SOL     OW35158   2.590   0.449   0.498  0.1448 -0.5673  0.0739
 7841SOL    HW135159   2.514   0.464   0.441  0.3500  0.4276  0.0722
 7841SOL    HW235160   2.558   0.491   0.578  0.5903 -0.8276  0.3923
 7842SOL     OW35161   0.824   1.184   6.329  0.1239 -0.0041 -0.1306
 7842SOL    HW135162   0.870   1.126   6.269 -1.5201 -3.4907  1.9896
 7842SOL    HW235163   0.759   1.118   6.353  0.3901 -0.3838 -0.4735
 7843SOL     OW35164   3.600   1.190   8.661 -0.0510 -0.2592  0.0955
 7843SOL    HW135165   3.638   1.255   8.602 -0.8747 -1.3952 -1.6778
 7843SOL    HW235166   3.675   1.153   8.707  0.7900  0.5044 -0.6720
 7844SOL     OW35167   1.659   2.897   5.835 -0.7339  0.0677 -0.2427
 7844SOL    HW135168   1.680   2.894   5.928  2.6194 -0.4496 -1.0249
 7844SOL    HW235169   1.727   2.844   5.794 -0.9141 -1.8873  1.9787
 7845SOL     OW35170   1.264   3.123   3.970  0.1631  0.1738 -0.1751
 7845SOL    HW135171   1.274   3.090   3.880 -0.1824  0.9614 -0.4998
 7845SOL    HW235172   1.307   3.208   3.963 -1.1934  1.1269  3.2983
 7846SOL     OW35173   2.356   1.337  13.875 -0.0535 -0.1899  0.0515
 7846SOL    HW135174   2.310   1.341  13.791 -0.0128 -2.2581 -0.0715
 7846SOL    HW235175   2.335   1.422  13.914 -1.2728  0.1866 -1.4466
 7847SOL     OW35176   3.371   1.151   5.194  0.1565 -0.4110  0.1706
 7847SOL    HW135177   3.282   1.161   5.230 -0.1319  1.9961 -1.2309
 7847SOL    HW235178   3.405   1.088   5.258  0.1642 -0.5190  0.0605
 7848SOL     OW35179   2.951   0.554   4.015 -0.1173 -0.3421 -0.1736
 7848SOL    HW135180   2.870   0.503   4.007 -1.3241  1.6256 -0.5634
 7848SOL    HW235181   3.008   0.513   3.949 -0.6944 -0.3460 -0.6726
 7849SOL     OW35182   1.858   0.803   0.527  0.4445  0.3740  0.0907
 7849SOL    HW135183   1.847   0.741   0.600  1.0993  0.8918  0.6290
 7849SOL    HW235184   1.801   0.758   0.465  1.8885 -0.0435 -0.8985
 7850SOL     OW35185   4.470   1.666   1.018 -0.1933  0.0172 -0.1645
 7850SOL    HW135186   4.525   1.652   1.095 -0.5453  0.8035  0.2407
 7850SOL    HW235187   4.525   1.718   0.959  1.3541 -0.8448  0.5301
 7851SOL     OW35188   0.571   1.022   7.911  0.4953  0.2458  0.0078
 7851SOL    HW135189   0.521   1.063   7.841 -0.0699 -2.1506 -1.0129
 7851SOL    HW235190   0.552   0.928   7.907  1.1775  0.1234 -0.3574
 7852SOL     OW35191   2.149   1.724  13.097 -0.0307 -0.4733 -0.0943
 7852SOL    HW135192   2.168   1.639  13.057  1.2782  0.0949 -0.6798
 7852SOL    HW235193   2.063   1.737  13.056  1.4572  1.5809 -2.5904
 7853SOL     OW35194   1.527   2.112   4.636 -0.1662  0.0563 -0.4170
 7853SOL    HW135195   1.554   2.153   4.554 -1.7860  0.1779 -0.8848
 7853SOL    HW235196   1.537   2.020   4.613 -3.3365 -0.2858 -0.3565
 7854SOL     OW35197   2.095   0.594   6.532 -0.4279  0.1128 -0.3633
 7854SOL    HW135198   2.122   0.542   6.457 -1.6622  0.4595 -1.0539
 7854SOL    HW235199   2.054   0.670   6.491  1.0158  0.2405 -1.5360
 7855SOL     OW35200   4.411   0.484   8.670 -0.7881 -0.1796  0.0516
 7855SOL    HW135201   4.383   0.395   8.652 -0.6569 -0.7971  2.9695
 7855SOL    HW235202   4.402   0.521   8.582  0.1804  0.1875  0.1040
 7856SOL     OW35203   3.467   0.236  10.887  0.2441  0.0897 -0.3843
 7856SOL    HW135204   3.465   0.205  10.797  2.3079  1.4845 -0.9070
 7856SOL    HW235205   3.389   0.197  10.927 -0.5369  1.3819 -0.6561
 7857SOL     OW35206   1.912   1.083   6.327  0.4485  0.1717  0.2154
 7857SOL    HW135207   1.932   1.105   6.417 -0.7797  0.6227  0.3828
 7857SOL    HW235208   1.889   1.171   6.297 -0.6596 -0.1599  0.0949
 7858SOL     OW35209   0.611   1.564   3.303  0.3580  0.2995 -0.2852
 7858SOL    HW135210   0.554   1.492   3.330  0.8613 -0.8710 -2.3474
 7858SOL    HW235211   0.571   1.577   3.216  0.8460 -0.7352 -0.6585
 7859SOL     OW35212   4.473   4.240  16.462 -0.4957  0.0428 -0.6376
 7859SOL    HW135213   4.432   4.248  16.376  0.7840  1.7939 -1.0975
 7859SOL    HW235214   4.536   4.312  16.461 -0.8820  0.4337  1.7605
 7860SOL     OW35215   4.598   0.842   5.916 -0.2872  0.2144 -0.1779
 7860SOL    HW135216   4.590   0.935   5.935  1.9048  0.7755 -2.0192
 7860SOL    HW235217   4.686   0.830   5.879 -0.5551 -0.1039 -0.7107
 7861SOL     OW35218   0.835   0.663   1.926  0.1442  0.2001  0.5283
 7861SOL    HW135219   0.840   0.579   1.881 -0.6626 -0.8719  2.4024
 7861SOL    HW235220   0.897   0.719   1.880  0.0009  1.2349  1.5710
 7862SOL     OW35221   0.258   2.616   6.190 -0.7019  0.9572 -0.6810
 7862SOL    HW135222   0.220   2.643   6.107  0.4175 -0.8198 -1.7660
 7862SOL    HW235223   0.191   2.633   6.256  1.8818 -1.4232  2.5604
 7863SOL     OW35224   1.173   3.026  13.641  0.1619  0.1383  0.5132
 7863SOL    HW135225   1.139   2.984  13.563 -1.6545 -0.1420  1.4658
 7863SOL    HW235226   1.113   3.096  13.666  0.1328 -0.5630  2.4172
 7864SOL     OW35227   0.188   3.156  17.023  0.5122  0.7762  0.3316
 7864SOL    HW135228   0.160   3.212  16.950  0.8271  2.3315  1.3945
 7864SOL    HW235229   0.272   3.117  16.999  0.0530 -2.0373  3.3175
 7865SOL     OW35230   1.232   2.021   9.898  0.4050 -0.0715  0.1670
 7865SOL    HW135231   1.208   2.002   9.989  0.3688  1.9053  0.5664
 7865SOL    HW235232   1.325   1.996   9.894  0.9193  1.4531  2.2933
 7866SOL     OW35233   1.246   1.315   6.342  0.0025  0.2216 -0.3002
 7866SOL    HW135234   1.306   1.312   6.417  1.0389  0.8269 -1.1098
 7866SOL    HW235235   1.305   1.269   6.283 -1.4150 -1.1887 -0.6230
 7867SOL     OW35236   0.768   4.424   5.544 -0.0379 -0.2183 -0.3927
 7867SOL    HW135237   0.842   4.448   5.488  0.6657 -2.8853 -0.5987
 7867SOL    HW235238   0.723   4.509   5.550  0.7276  0.0404  1.7700
 7868SOL     OW35239   3.664   1.191   9.520 -0.2348 -0.5722 -0.4474
 7868SOL    HW135240   3.743   1.209   9.468 -0.1373 -0.5213 -0.2841
 7868SOL    HW235241   3.701   1.222   9.603 -0.9769  1.1094 -0.7411
 7869SOL     OW35242   0.251   0.650  11.709  0.3410  0.0770  0.3270
 7869SOL    HW135243   0.263   0.558  11.729 -1.5796 -0.3244 -0.3045
 7869SOL    HW235244   0.208   0.686  11.787  1.8961  2.0706  0.2732
 7870SOL     OW35245   1.646   0.818   6.850  0.1369  0.2201 -0.1617
 7870SOL    HW135246   1.698   0.739   6.868  0.2407  0.2264 -0.4386
 7870SOL    HW235247   1.632   0.844   6.941 -2.5794 -0.4396 -0.3965
 7871SOL     OW35248   3.275   2.398   8.246 -0.2096 -0.4838  0.5960
 7871SOL    HW135249   3.330   2.353   8.310 -2.2300  0.3991  2.9644
 7871SOL    HW235250   3.222   2.447   8.309  0.9625  1.1329  0.3187
 7872SOL     OW35251   3.040   3.643  14.952  0.6452 -0.7762 -0.3375
 7872SOL    HW135252   3.000   3.589  14.884  2.2655 -0.4654 -1.5235
 7872SOL    HW235253   2.960   3.685  14.986  0.0397 -1.7640 -0.5537
 7873SOL     OW35254   4.685   3.295   6.530  0.0627  0.1689 -0.3958
 7873SOL    HW135255   4.732   3.312   6.449  1.5217 -0.7205  0.2818
 7873SOL    HW235256   0.018   3.283   6.596  2.1613 -0.6152 -2.7352
 7874SOL     OW35257   0.163   1.236  13.791 -1.1006 -0.5094  0.2000
 7874SOL    HW135258   0.228   1.303  13.813 -1.5733 -0.1402  0.4894
 7874SOL    HW235259   0.082   1.286  13.785  0.6471  1.9505 -3.0152
 7875SOL     OW35260   2.693   1.978   3.136  0.0657  0.5254  0.8001
 7875SOL    HW135261   2.696   2.064   3.178 -1.5750  0.3727  1.2573
 7875SOL    HW235262   2.786   1.968   3.118 -0.2142  0.0659 -0.3390
 7876SOL     OW35263   4.331   1.915  14.690  0.7651 -0.1066 -0.2475
 7876SOL    HW135264   4.387   1.848  14.729  0.8021  0.0580 -0.0190
 7876SOL    HW235265   4.397   1.971  14.650  0.9234 -1.0079 -1.2288
 7877SOL     OW35266   0.076   0.444  14.681  0.2023 -0.3581 -0.2145
 7877SOL    HW135267   0.026   0.499  14.622  2.3784 -0.5568 -2.2300
 7877SOL    HW235268   0.068   0.483  14.768  1.2661  0.5134 -0.5157
 7878SOL     OW35269   4.369   1.257  10.089  0.0666  0.0520  0.0548
 7878SOL    HW135270   4.358   1.316  10.014 -0.7838  1.2201  1.0746
 7878SOL    HW235271   4.451   1.293  10.122  1.5510 -2.6883 -0.7053
 7879SOL     OW35272   2.379   2.108   5.489  0.3746 -0.3724 -0.0033
 7879SOL    HW135273   2.427   2.161   5.426 -0.3760  1.5706  1.0762
 7879SOL    HW235274   2.297   2.104   5.440 -0.0758  0.2164  0.7085
 7880SOL     OW35275   4.706   0.939   4.215  0.1504  0.0618 -0.0787
 7880SOL    HW135276   4.680   0.885   4.289  0.5281  2.8850  2.1015
 7880SOL    HW235277   4.702   1.023   4.260 -1.4452 -0.6668  1.1282
 7881SOL     OW35278   2.153   4.554   4.941  0.0307 -0.1311  0.3464
 7881SOL    HW135279   2.140   4.465   4.971  1.1137 -0.5960 -0.5594
 7881SOL    HW235280   2.064   4.582   4.920  0.5116  1.8445  0.8966
 7882SOL     OW35281   3.086   3.963   8.430  0.4939  0.3133  0.4194
 7882SOL    HW135282   3.168   3.982   8.385 -0.2958  0.4501 -0.9387
 7882SOL    HW235283   3.074   3.872   8.404  2.2064  0.2882 -0.2991
 7883SOL     OW35284   3.313   0.717   3.927 -0.5999  0.0861 -0.3860
 7883SOL    HW135285   3.378   0.676   3.983  0.6225  2.0176 -0.4136
 7883SOL    HW235286   3.324   0.811   3.939 -0.4660 -0.1695  1.5182
 7884SOL     OW35287   3.670   1.383   8.450 -0.7383  0.0493  0.0860
 7884SOL    HW135288   3.702   1.326   8.380 -0.6133  0.6983 -0.3909
 7884SOL    HW235289   3.739   1.449   8.462 -1.2408  0.6172 -0.1209
 7885SOL     OW35290   1.581   3.912   4.003  0.1484  0.3742  0.2016
 7885SOL    HW135291   1.639   3.891   4.076 -1.3022  4.4477  2.5347
 7885SOL    HW235292   1.590   3.832   3.952  0.5224 -0.0827  1.0001
 7886SOL     OW35293   3.871   4.445   5.172  1.1978 -0.0653  0.3797
 7886SOL    HW135294   3.868   4.397   5.256  1.6854 -0.7728 -0.0050
 7886SOL    HW235295   3.838   4.530   5.201  1.7444  0.0630  0.6377
 7887SOL     OW35296   1.260   3.909   5.337 -0.6820 -0.2261 -0.0105
 7887SOL    HW135297   1.276   3.973   5.406  0.0375 -0.6538  0.2111
 7887SOL    HW235298   1.331   3.848   5.352 -0.9403 -0.1666  1.3925
 7888SOL     OW35299   0.768   4.340  15.278 -0.1330 -0.0785 -1.2592
 7888SOL    HW135300   0.691   4.313  15.328  0.3496  1.5031  0.3534
 7888SOL    HW235301   0.746   4.308  15.191  1.8313 -0.9938 -1.4165
 7889SOL     OW35302   2.069   0.291   8.863 -0.3578 -0.0439 -0.3369
 7889SOL    HW135303   2.110   0.369   8.900  0.3803  0.4067 -2.0793
 7889SOL    HW235304   2.056   0.334   8.778  1.0391 -1.3557 -1.2075
 7890SOL     OW35305   1.133   2.411   2.650  0.6527  0.0154 -0.1454
 7890SOL    HW135306   1.079   2.343   2.691  0.1755  0.5614  0.1384
 7890SOL    HW235307   1.191   2.440   2.720 -1.9553 -0.1257  2.0909
 7891SOL     OW35308   4.177   0.921  16.884  0.1495 -0.2992  0.6878
 7891SOL    HW135309   4.104   0.869  16.852 -0.5833  0.0612  1.7892
 7891SOL    HW235310   4.239   0.853  16.913  1.4216  0.2203 -0.7984
 7892SOL     OW35311   2.405   0.370   8.129 -0.0480  0.0608 -0.0067
 7892SOL    HW135312   2.489   0.407   8.103 -1.0118  0.8481 -2.0216
 7892SOL    HW235313   2.372   0.433   8.192 -2.1993 -0.2811 -0.7835
 7893SOL     OW35314   1.247   4.214   2.580  0.5241  0.4984 -0.2177
 7893SOL    HW135315   1.300   4.212   2.500  0.6008 -1.9648 -0.1046
 7893SOL    HW235316   1.194   4.136   2.563 -0.3607  0.8868  0.7258
 7894SOL     OW35317   1.499   1.015   5.954  0.0152  0.2501 -0.5395
 7894SOL    HW135318   1.513   0.958   6.029  2.0218  0.8556 -0.4342
 7894SOL    HW235319   1.440   1.079   5.993  2.0310  2.5941 -1.3280
 7895SOL     OW35320   1.132   3.693   5.442 -0.1120 -0.5030  0.6159
 7895SOL    HW135321   1.159   3.718   5.530 -1.5597  1.4927  0.5028
 7895SOL    HW235322   1.181   3.759   5.392 -0.4627 -1.2052 -0.6632
 7896SOL     OW35323   0.492   0.442   6.563  0.3221  0.2074 -0.6030
 7896SOL    HW135324   0.431   0.512   6.541  1.6633  1.6872  0.3274
 7896SOL    HW235325   0.467   0.434   6.655  0.3076  0.4228 -0.5873
 7897SOL     OW35326   4.482   4.163  13.716 -0.4846 -0.3845  0.3566
 7897SOL    HW135327   4.530   4.147  13.635 -1.0571  2.8132 -0.5756
 7897SOL    HW235328   4.555   4.202  13.764 -0.6322 -1.1334  1.2025
 7898SOL     OW35329   1.086   3.599   9.163  0.2160  0.5796 -0.2304
 7898SOL    HW135330   1.176   3.632   9.167 -0.2712  2.0304 -1.5261
 7898SOL    HW235331   1.118   3.519   9.122  1.2430  0.4470  0.7992
 7899SOL     OW35332   3.521   0.901  10.408  0.5823 -0.3442 -0.6126
 7899SOL    HW135333   3.584   0.830  10.419  0.1123 -0.9063 -1.5449
 7899SOL    HW235334   3.570   0.960  10.465 -1.0362 -1.5375  2.0235
 7900SOL     OW35335   0.383   3.571   2.910  0.3951  0.3538 -0.3659
 7900SOL    HW135336   0.368   3.636   2.841  0.2151  1.2542  0.5116
 7900SOL    HW235337   0.476   3.580   2.933  0.9327  0.7338 -2.7418
 7901SOL     OW35338   3.209   3.479   6.041  0.0037 -0.2067  0.3735
 7901SOL    HW135339   3.124   3.437   6.057  0.3409 -0.7470  0.7337
 7901SOL    HW235340   3.181   3.568   6.018 -0.8538 -0.1971  1.4667
 7902SOL     OW35341   0.029   4.458   7.353  0.0744  0.2193  0.0811
 7902SOL    HW135342   0.090   4.389   7.328 -3.5257 -2.6296 -0.9241
 7902SOL    HW235343   0.071   4.501   7.428  0.1611  1.2158 -0.5385
 7903SOL     OW35344   3.767   3.275   8.497  0.6797 -1.0235 -0.1824
 7903SOL    HW135345   3.694   3.236   8.450  0.4484 -2.3059  1.2535
 7903SOL    HW235346   3.771   3.364   8.461 -0.6180 -0.4894  0.9496
 7904SOL     OW35347   3.474   2.180   4.069 -0.0890 -0.3192 -0.4288
 7904SOL    HW135348   3.415   2.252   4.045  0.3278 -0.1294 -0.8779
 7904SOL    HW235349   3.423   2.099   4.071 -0.0083 -0.2994  1.8986
 7905SOL     OW35350   4.281   3.823   4.592 -0.5621  0.5742 -0.4112
 7905SOL    HW135351   4.243   3.825   4.504 -2.3943  0.8076  0.3801
 7905SOL    HW235352   4.368   3.860   4.576 -0.6548  0.7574 -0.4970
 7906SOL     OW35353   4.402   0.781   4.371 -0.7185  0.2754 -0.5595
 7906SOL    HW135354   4.343   0.772   4.445 -2.6164 -2.0415 -2.3528
 7906SOL    HW235355   4.476   0.827   4.410 -1.7749  1.7038 -0.2511
 7907SOL     OW35356   3.224   1.602   5.612  0.4601  0.3153  0.2875
 7907SOL    HW135357   3.139   1.619   5.652 -0.0283  3.4320 -1.9463
 7907SOL    HW235358   3.246   1.694   5.594 -0.2111  0.7856  1.9463
 7908SOL     OW35359   3.894   4.022   6.503  0.2668  0.4056 -0.0591
 7908SOL    HW135360   3.958   4.074   6.553 -0.8953  0.9422  0.8750
 7908SOL    HW235361   3.817   4.009   6.558 -0.0494  2.1375 -0.1212
 7909SOL     OW35362   2.768   3.440   8.285  0.1505 -0.4039 -0.4295
 7909SOL    HW135363   2.847   3.408   8.327 -0.5473 -3.4404 -1.4627
 7909SOL    HW235364   2.789   3.468   8.195 -0.9506  0.4861 -0.4103
 7910SOL     OW35365   0.864   3.441  13.205  0.4151 -0.0496 -0.2321
 7910SOL    HW135366   0.784   3.481  13.240 -0.2119 -1.1297 -0.4200
 7910SOL    HW235367   0.863   3.476  13.116  2.1095  0.4169 -0.0615
 7911SOL     OW35368   4.223   0.337   7.230 -0.1320 -0.1705 -0.7273
 7911SOL    HW135369   4.190   0.255   7.267 -0.6226 -0.6890 -2.3156
 7911SOL    HW235370   4.192   0.340   7.139  2.1332  0.3547 -1.4759
 7912SOL     OW35371   0.788   1.830  17.154 -0.0882  0.4525 -0.0174
 7912SOL    HW135372   0.706   1.856  17.112 -0.5859 -0.4809  0.3788
 7912SOL    HW235373   0.778   1.734  17.154 -0.1342  0.4655 -1.7284
 7913SOL     OW35374   1.573   1.423   5.006  0.2659  0.1703 -0.1661
 7913SOL    HW135375   1.596   1.330   5.011  0.0223  0.1023 -0.3315
 7913SOL    HW235376   1.625   1.443   4.928  1.8430 -0.7850  0.6237
 7914SOL     OW35377   0.411   3.357   1.620 -0.0310 -0.0865  0.4766
 7914SOL    HW135378   0.447   3.430   1.670 -1.0117  1.3448 -0.8916
 7914SOL    HW235379   0.415   3.286   1.684  0.9465 -1.4805 -1.1347
 7915SOL     OW35380   4.125   1.580  15.060  0.5941  0.0063 -0.4495
 7915SOL    HW135381   4.177   1.594  14.982  1.5708  1.8832  0.5313
 7915SOL    HW235382   4.161   1.493  15.078  1.3204  0.0210 -1.9137
 7916SOL     OW35383   2.730   1.009  15.905 -0.0451 -0.1319 -0.4954
 7916SOL    HW135384   2.662   0.966  15.958  1.7961 -2.3156  0.0865
 7916SOL    HW235385   2.726   1.099  15.937 -2.2797 -0.6995  0.8252
 7917SOL     OW35386   1.201   3.608  10.528  0.2141  0.4405  0.6818
 7917SOL    HW135387   1.160   3.522  10.543 -1.4553  0.9717 -0.8085
 7917SOL    HW235388   1.272   3.610  10.593  3.1700  0.7222 -2.5817
 7918SOL     OW35389   4.550   0.331  16.925 -0.0404 -0.2710 -0.3487
 7918SOL    HW135390   4.633   0.318  16.971 -0.2991 -0.6738 -0.0045
 7918SOL    HW235391   4.561   0.416  16.881 -2.4997 -0.2003 -0.8200
 7919SOL     OW35392   0.231   3.431  12.753  0.0107 -0.7622 -0.3622
 7919SOL    HW135393   0.179   3.427  12.833  0.2075  0.3461 -0.1791
 7919SOL    HW235394   0.193   3.514  12.724  0.7037 -1.1105 -2.2417
 7920SOL     OW35395   1.016   1.290   2.459  0.5247  0.0703 -0.1768
 7920SOL    HW135396   1.016   1.199   2.427 -1.6850 -0.5967  1.6463
 7920SOL    HW235397   1.066   1.325   2.385 -1.0462 -1.7617 -2.1199
 7921SOL     OW35398   1.782   0.575   9.158 -0.5144  0.0108 -0.3050
 7921SOL    HW135399   1.768   0.595   9.250  1.4568 -1.0410  0.2334
 7921SOL    HW235400   1.694   0.566   9.122 -1.7038 -2.3594  3.2310
 7922SOL     OW35401   2.527   0.036   5.380 -0.1850 -0.4147  0.3112
 7922SOL    HW135402   2.456   0.086   5.340 -1.8038 -1.8172  1.4313
 7922SOL    HW235403   2.519   4.696   5.322 -0.8636 -1.2442  1.4914
 7923SOL     OW35404   0.212   3.005  10.220 -0.2368  0.2803  0.2449
 7923SOL    HW135405   0.189   3.026  10.311  0.6477  1.7197  0.1459
 7923SOL    HW235406   0.192   2.912  10.221  0.4670  0.1363  1.8002
 7924SOL     OW35407   1.504   4.675   2.729  0.5585 -0.8637  0.0078
 7924SOL    HW135408   1.530   4.587   2.703 -1.5033 -0.7842 -2.2590
 7924SOL    HW235409   1.586   4.725   2.733 -1.8597  3.0242  1.2148
 7925SOL     OW35410   2.000   4.364   8.318 -0.1331  0.1072 -0.0008
 7925SOL    HW135411   2.004   4.283   8.267  0.6018 -0.6388  1.2212
 7925SOL    HW235412   1.938   4.420   8.272 -0.6709  0.1190  0.7289
 7926SOL     OW35413   3.979   1.251   3.424 -0.2417 -0.0686 -0.0375
 7926SOL    HW135414   4.059   1.217   3.384  0.6446 -0.3869  2.0175
 7926SOL    HW235415   3.960   1.331   3.374  1.7944 -0.6066 -1.6445
 7927SOL     OW35416   0.027   3.626   7.695 -0.5829  0.2045 -0.0987
 7927SOL    HW135417   0.098   3.577   7.655  0.1949 -0.1436  1.6883
 7927SOL    HW235418   4.696   3.559   7.713 -2.1485  1.5910 -0.6542
 7928SOL     OW35419   0.802   1.520   4.526  0.4696 -0.2605 -0.3693
 7928SOL    HW135420   0.788   1.615   4.523 -3.8872 -0.9215 -0.3826
 7928SOL    HW235421   0.815   1.514   4.621  0.5429  0.2230 -0.3470
 7929SOL     OW35422   2.468   0.273   6.885 -0.0850  0.1839 -0.5560
 7929SOL    HW135423   2.470   0.368   6.893  0.1687  0.2316 -1.2520
 7929SOL    HW235424   2.521   0.246   6.960 -0.7139 -0.5327 -0.3657
 7930SOL     OW35425   1.411   2.352   8.209 -0.2341  0.2817 -0.3026
 7930SOL    HW135426   1.495   2.398   8.208 -1.0584  1.8087  1.6193
 7930SOL    HW235427   1.374   2.411   8.274  0.0138  0.4604 -0.3243
 7931SOL     OW35428   0.367   3.780  15.030  0.1998  0.4004  0.1217
 7931SOL    HW135429   0.359   3.809  15.121 -0.4945  1.8723 -0.4094
 7931SOL    HW235430   0.443   3.830  15.000 -0.0690  1.2124  0.7595
 7932SOL     OW35431   2.698   1.601   3.447  0.7919  0.0815  0.2209
 7932SOL    HW135432   2.633   1.671   3.436  0.3117 -0.6411 -1.4836
 7932SOL    HW235433   2.753   1.610   3.370  2.6195  1.1145  1.6577
 7933SOL     OW35434   1.226   2.448   3.296  0.4848 -0.3965 -0.5254
 7933SOL    HW135435   1.254   2.530   3.254 -0.2064  0.3009  0.4003
 7933SOL    HW235436   1.180   2.465   3.378  3.2603 -0.2944  1.0260
 7934SOL     OW35437   3.280   1.916   7.372 -0.2377  0.3156 -0.5926
 7934SOL    HW135438   3.334   1.855   7.422  1.2567 -0.6074 -3.3863
 7934SOL    HW235439   3.270   1.989   7.434 -0.7525  1.6492 -2.2439
 7935SOL     OW35440   2.951   1.304   0.844 -1.0783  0.2844  0.1186
 7935SOL    HW135441   2.857   1.296   0.862 -0.8197  0.4278  1.5320
 7935SOL    HW235442   2.940   1.377   0.784 -2.3468  1.4959  1.8350
 7936SOL     OW35443   4.586   2.617   4.174  0.2790 -0.0390  0.2344
 7936SOL    HW135444   4.640   2.682   4.129 -0.5016  0.3827 -0.0880
 7936SOL    HW235445   4.607   2.640   4.265 -1.6004  0.5157  0.5170
 7937SOL     OW35446   3.952   3.980   3.294 -0.4438  0.3695  0.3946
 7937SOL    HW135447   3.999   3.898   3.282 -0.7528 -0.2838  3.5062
 7937SOL    HW235448   3.975   4.028   3.215 -1.0781 -1.2484 -0.7762
 7938SOL     OW35449   0.923   2.642   8.003  0.0761 -0.6548 -0.4147
 7938SOL    HW135450   0.981   2.576   8.041 -0.2387  0.4507  1.9830
 7938SOL    HW235451   0.975   2.723   7.996 -2.1129  0.6676 -1.1886
 7939SOL     OW35452   4.268   0.355  17.105 -0.1195 -0.1172  0.1297
 7939SOL    HW135453   4.300   0.390  17.188 -3.8015  1.9218  0.6850
 7939SOL    HW235454   4.351   0.363  17.058 -0.3544 -1.2266 -0.4827
 7940SOL     OW35455   0.415   1.313   7.306  0.0853  0.3634 -0.5606
 7940SOL    HW135456   0.464   1.237   7.274  1.4334  1.0328 -0.0856
 7940SOL    HW235457   0.476   1.333   7.377 -2.1822  1.8047  0.9691
 7941SOL     OW35458   4.090   1.049   4.050 -0.6785 -0.6137  0.1631
 7941SOL    HW135459   4.159   1.059   4.115  0.0707 -1.1972 -0.5463
 7941SOL    HW235460   4.057   0.961   4.070  0.1387 -0.8213  0.5720
 7942SOL     OW35461   2.225   0.215   9.819 -0.7763 -0.8286 -0.6195
 7942SOL    HW135462   2.233   0.284   9.885  0.4793 -0.7036 -0.9023
 7942SOL    HW235463   2.242   0.138   9.873  0.1149  1.9787  3.1019
 7943SOL     OW35464   3.122   0.707   9.953 -0.4610 -0.4551 -0.1869
 7943SOL    HW135465   3.044   0.691  10.007 -0.6831 -0.5031 -0.5249
 7943SOL    HW235466   3.141   0.794   9.988  0.3178 -0.5924 -0.2691
 7944SOL     OW35467   0.850   3.565   4.345 -0.6940  0.0913 -0.0059
 7944SOL    HW135468   0.889   3.478   4.355 -1.0840 -0.1732 -0.8404
 7944SOL    HW235469   0.848   3.562   4.250 -0.1171  0.0665 -0.0128
 7945SOL     OW35470   3.600   1.941   9.640  0.3522 -0.3403  0.2783
 7945SOL    HW135471   3.531   1.964   9.702 -1.1451 -1.6533 -0.8992
 7945SOL    HW235472   3.683   1.948   9.687 -0.4599  0.3023  1.6071
 7946SOL     OW35473   4.277   3.983  11.746 -0.5211  0.0530  0.0945
 7946SOL    HW135474   4.304   3.925  11.818  1.1628  0.7800  0.0652
 7946SOL    HW235475   4.292   4.069  11.787  0.1685  0.9876 -2.1352
 7947SOL     OW35476   3.748   1.183   5.712  0.1727 -0.3871  0.0604
 7947SOL    HW135477   3.837   1.173   5.676  1.1429 -0.5105  2.4633
 7947SOL    HW235478   3.704   1.102   5.685  1.8692 -1.2811 -0.0422
 7948SOL     OW35479   2.659   4.683   0.073 -0.5444  0.4868  0.2138
 7948SOL    HW135480   2.633   4.593   0.095 -1.1591  0.7879  0.7001
 7948SOL    HW235481   2.625   4.725   0.152  0.2324  0.2809  0.6617
 7949SOL     OW35482   4.596   4.100   5.981  0.7629 -0.4796 -0.2411
 7949SOL    HW135483   4.519   4.044   5.971 -0.4269  1.3100 -1.1688
 7949SOL    HW235484   4.561   4.170   5.927  0.7146 -1.3865 -1.3883
 7950SOL     OW35485   3.282   0.357   1.702 -0.2594  0.0499  0.1984
 7950SOL    HW135486   3.232   0.424   1.747 -1.1395 -0.2538 -0.3077
 7950SOL    HW235487   3.266   0.379   1.610 -2.7881 -0.5967  0.4864
 7951SOL     OW35488   1.224   0.448   8.976 -1.2014  0.1785 -0.1591
 7951SOL    HW135489   1.202   0.355   8.982  2.7566 -0.7225  0.3431
 7951SOL    HW235490   1.169   0.481   9.048 -1.5613 -2.5735  0.8206
 7952SOL     OW35491   2.040   0.706  14.737 -0.2801 -0.0785  0.0183
 7952SOL    HW135492   2.078   0.793  14.745  1.0528 -0.9615  3.3625
 7952SOL    HW235493   1.984   0.707  14.815 -0.8772 -0.8142 -0.3945
 7953SOL     OW35494   3.865   0.665   5.627 -0.2572 -0.3708 -0.2681
 7953SOL    HW135495   3.788   0.709   5.590 -0.5303  0.5986  1.4692
 7953SOL    HW235496   3.889   0.725   5.698  0.6988 -0.5908 -0.3957
 7954SOL     OW35497   1.177   3.302   0.175 -0.2520  0.2843 -0.6213
 7954SOL    HW135498   1.082   3.311   0.179 -0.2974 -1.0151  1.0112
 7954SOL    HW235499   1.197   3.214   0.206 -1.0084 -0.2266 -1.6057
 7955SOL     OW35500   2.753   1.055   2.357 -0.7035 -0.3569  0.1840
 7955SOL    HW135501   2.664   1.089   2.351 -0.7912 -0.7699 -0.8610
 7955SOL    HW235502   2.772   1.040   2.264  0.8530  0.0802  0.4334
 7956SOL     OW35503   0.976   0.962  17.712  0.0950 -0.1421 -0.0352
 7956SOL    HW135504   0.939   0.989  17.628  0.3955  2.4649  0.6824
 7956SOL    HW235505   1.066   0.939  17.688 -0.1329 -0.1573 -0.8449
 7957SOL     OW35506   3.211   3.015   7.493  0.6900  0.4159 -0.1777
 7957SOL    HW135507   3.246   3.067   7.421  1.7896  2.1168  1.5718
 7957SOL    HW235508   3.122   3.048   7.508 -0.4353 -2.4571 -0.5416
 7958SOL     OW35509   3.814   2.561   5.557  0.6360  0.2815  0.1552
 7958SOL    HW135510   3.893   2.509   5.575 -1.4115 -1.4416  4.1777
 7958SOL    HW235511   3.784   2.601   5.638 -3.2387 -1.6202 -0.3524
 7959SOL     OW35512   3.891   3.496  15.433  0.3540 -0.1943 -0.5769
 7959SOL    HW135513   3.887   3.472  15.340  0.3122 -0.4019 -0.5225
 7959SOL    HW235514   3.923   3.586  15.431  0.1156 -0.1347 -1.7710
 7960SOL     OW35515   2.048   0.878   0.813 -0.0298  0.4271  0.4154
 7960SOL    HW135516   2.110   0.912   0.749 -0.5030 -0.7419 -0.6420
 7960SOL    HW235517   1.966   0.884   0.765  0.4918  0.9668 -0.4054
 7961SOL     OW35518   1.132   1.722  13.440  0.0437  0.8054 -0.4652
 7961SOL    HW135519   1.126   1.816  13.426 -1.0777  0.4361 -2.4508
 7961SOL    HW235520   1.140   1.689  13.351  1.9245 -1.3842  0.5245
 7962SOL     OW35521   1.632   0.631   2.179  0.2864 -0.6414 -0.7906
 7962SOL    HW135522   1.609   0.555   2.232 -4.1121  0.8787 -0.5565
 7962SOL    HW235523   1.647   0.694   2.250  1.9429 -0.1970 -1.5318
 7963SOL     OW35524   0.868   0.625   2.691  0.5343 -0.2596 -0.1437
 7963SOL    HW135525   0.961   0.646   2.700  0.5694 -0.5181  0.0929
 7963SOL    HW235526   0.862   0.553   2.753 -1.6208 -1.0736 -1.2717
 7964SOL     OW35527   2.147   2.849   1.031  0.1244 -0.7833 -0.0864
 7964SOL    HW135528   2.170   2.878   0.943  0.0862 -0.8603 -0.1225
 7964SOL    HW235529   2.213   2.896   1.081 -0.4236  0.3786 -0.4451
 7965SOL     OW35530   1.796   1.962   7.280 -0.2687 -0.8415 -0.1839
 7965SOL    HW135531   1.855   2.033   7.304 -1.0478 -0.7316  1.4031
 7965SOL    HW235532   1.742   1.965   7.359  1.0550  0.4962  0.6646
 7966SOL     OW35533   0.814   2.846  17.037  0.0790  0.5404  0.4159
 7966SOL    HW135534   0.817   2.779  16.969  2.1075  2.1859 -1.0772
 7966SOL    HW235535   0.898   2.886  17.016 -0.2914  0.3146 -1.4270
 7967SOL     OW35536   3.690   3.390   7.463  0.0518  0.0846 -0.2484
 7967SOL    HW135537   3.741   3.309   7.471  1.5615  1.0527 -0.0728
 7967SOL    HW235538   3.753   3.455   7.494 -0.8760  0.6509  0.4423
 7968SOL     OW35539   2.949   3.666   5.120 -0.0640  0.2936 -0.3410
 7968SOL    HW135540   2.983   3.755   5.126  0.5371  0.1352 -1.4146
 7968SOL    HW235541   3.006   3.612   5.175 -1.3903  0.4403  1.1904
 7969SOL     OW35542   0.070   3.466  17.732 -0.3665  0.0457 -0.6167
 7969SOL    HW135543   0.032   3.426  17.654 -1.4404 -1.0515  0.4635
 7969SOL    HW235544   0.158   3.431  17.720 -0.1524 -0.2331  1.8181
 7970SOL     OW35545   4.459   1.723  10.063 -0.6683  0.9174 -0.2460
 7970SOL    HW135546   4.550   1.708  10.088  0.3259  2.7861 -2.8022
 7970SOL    HW235547   4.422   1.741  10.150 -1.7914 -1.9601 -0.1203
 7971SOL     OW35548   0.738   1.020  12.297  0.1294 -0.1445  0.1594
 7971SOL    HW135549   0.776   0.951  12.243 -3.1630  0.3202 -2.7437
 7971SOL    HW235550   0.721   1.095  12.239  1.8317 -0.1467 -0.3533
 7972SOL     OW35551   0.588   2.727   3.348  0.2168  0.0957 -0.0110
 7972SOL    HW135552   0.542   2.691   3.272  1.9776  1.3102 -1.6635
 7972SOL    HW235553   0.543   2.680   3.418 -0.1278  0.2477 -0.1256
 7973SOL     OW35554   1.198   0.824  11.060 -0.6095 -0.2069  0.3409
 7973SOL    HW135555   1.282   0.854  11.093 -0.7396  1.1567 -0.5190
 7973SOL    HW235556   1.161   0.893  11.003 -1.5214  0.8477  2.2174
 7974SOL     OW35557   2.326   1.677  14.023 -0.3894 -0.3916  0.5943
 7974SOL    HW135558   2.309   1.595  14.068 -1.7991  0.9775  2.5765
 7974SOL    HW235559   2.365   1.732  14.092  1.2886  0.0505 -0.7100
 7975SOL     OW35560   2.972   4.152   3.251  0.9652  0.1148  0.2614
 7975SOL    HW135561   2.993   4.075   3.303  1.3263 -0.4017 -0.6551
 7975SOL    HW235562   2.979   4.222   3.316 -1.2728  0.1187  0.5023
 7976SOL     OW35563   1.535   2.831   3.792 -0.6661  1.0078 -0.0855
 7976SOL    HW135564   1.585   2.829   3.710  0.2880  3.6524  0.4174
 7976SOL    HW235565   1.446   2.808   3.764 -0.1410 -0.9225 -0.1735
 7977SOL     OW35566   3.433   1.881   7.932 -0.2326 -0.1176 -0.2673
 7977SOL    HW135567   3.515   1.839   7.906  0.6259 -0.5257  3.0985
 7977SOL    HW235568   3.420   1.939   7.858 -1.0395  0.2874  0.2001
 7978SOL     OW35569   3.233   3.207   8.461  0.1117 -0.2713  0.2772
 7978SOL    HW135570   3.297   3.141   8.435  0.9681  0.5802  0.2312
 7978SOL    HW235571   3.191   3.234   8.379  3.3078 -1.5556 -1.7938
 7979SOL     OW35572   3.375   3.081   6.021  0.2209  0.5139  0.0348
 7979SOL    HW135573   3.371   3.067   6.116 -0.2223 -1.4405 -0.2654
 7979SOL    HW235574   3.402   3.172   6.013  1.5701  0.1505  0.6227
 7980SOL     OW35575   1.667   0.832   7.152  0.5008 -0.3844 -0.1399
 7980SOL    HW135576   1.758   0.862   7.142  1.5978 -2.8956  2.3499
 7980SOL    HW235577   1.677   0.741   7.179 -0.6861  0.1225  1.9930
 7981SOL     OW35578   3.420   3.892   7.609  0.0884 -0.7682 -0.6187
 7981SOL    HW135579   3.512   3.900   7.582  0.3081  2.6143  1.1157
 7981SOL    HW235580   3.411   3.985   7.631  1.6254 -0.3465 -1.7337
 7982SOL     OW35581   4.320   2.154   5.177 -0.0089 -0.0633  0.3833
 7982SOL    HW135582   4.336   2.083   5.239  0.7033 -0.3758 -0.1427
 7982SOL    HW235583   4.359   2.236   5.208 -0.4366  0.1585  0.3267
 7983SOL     OW35584   2.809   4.091   7.464 -0.2296  0.0191 -0.3158
 7983SOL    HW135585   2.892   4.060   7.430 -0.9717 -0.1445 -1.9886
 7983SOL    HW235586   2.761   4.012   7.489 -1.1099  0.8160  0.5181
 7984SOL     OW35587   4.195   4.156  13.816  0.3461 -0.7256 -0.3886
 7984SOL    HW135588   4.270   4.145  13.757  0.0366  1.1274 -1.1285
 7984SOL    HW235589   4.143   4.209  13.755  1.3545  0.8971  0.1915
 7985SOL     OW35590   0.212   0.701   2.065  0.0927  0.2604 -0.2205
 7985SOL    HW135591   0.177   0.632   2.121 -0.8857  1.5608  0.7640
 7985SOL    HW235592   0.307   0.684   2.068  0.1076  0.1927 -0.9930
 7986SOL     OW35593   4.232   1.239  14.533 -0.7666  0.4675 -0.3186
 7986SOL    HW135594   4.277   1.182  14.470  2.2659  0.1516  2.1526
 7986SOL    HW235595   4.148   1.194  14.522 -0.8144  0.5762 -0.4037
 7987SOL     OW35596   3.816   2.988   5.166 -0.1211 -0.3011  0.4533
 7987SOL    HW135597   3.750   3.044   5.207  2.1195  2.8707 -0.3256
 7987SOL    HW235598   3.894   3.037   5.190 -0.4592 -0.9404  2.8630
 7988SOL     OW35599   2.017   3.623   9.943  0.7060  0.3080  0.4106
 7988SOL    HW135600   2.084   3.664   9.998 -0.2499  1.2957  0.8348
 7988SOL    HW235601   1.958   3.693   9.916 -2.1744 -1.9619  0.8334
 7989SOL     OW35602   4.179   0.640   7.172  0.1819  0.1105 -0.2254
 7989SOL    HW135603   4.137   0.554   7.176  2.5479 -1.0036  0.3733
 7989SOL    HW235604   4.269   0.616   7.195 -0.0964  0.7150  1.4623
 7990SOL     OW35605   3.304   4.531   8.964 -0.2623  0.4119 -0.0711
 7990SOL    HW135606   3.333   4.610   9.010  0.8647 -1.0005  1.6697
 7990SOL    HW235607   3.223   4.561   8.924  0.1099  0.4386 -0.7885
 7991SOL     OW35608   0.800   0.870  13.450  0.3465  1.0669  0.0717
 7991SOL    HW135609   0.788   0.775  13.451  1.0785  0.9755  0.8176
 7991SOL    HW235610   0.797   0.872  13.546  0.7330  1.1018  0.0846
 7992SOL     OW35611   2.542   0.275   3.361  0.4834 -0.2167 -0.0365
 7992SOL    HW135612   2.469   0.293   3.421  1.5581 -0.5601  1.3577
 7992SOL    HW235613   2.519   0.335   3.289 -0.6987 -1.0001 -0.3076
 7993SOL     OW35614   0.251   1.099   5.465 -0.2954  0.0033 -0.3116
 7993SOL    HW135615   0.342   1.107   5.436 -0.7433 -1.7323 -2.2163
 7993SOL    HW235616   0.249   1.133   5.554  1.5001  0.7215 -0.5438
 7994SOL     OW35617   3.302   1.452  14.326 -0.7191 -0.0910  0.3319
 7994SOL    HW135618   3.207   1.462  14.317 -0.7416 -1.1026 -0.5870
 7994SOL    HW235619   3.309   1.389  14.397 -1.3726  1.0592  1.4040
 7995SOL     OW35620   4.679   2.898   7.234 -0.0494  0.8759 -0.5920
 7995SOL    HW135621   4.650   2.823   7.285  0.4256  2.9121  2.6838
 7995SOL    HW235622   0.026   2.927   7.275  0.5609 -0.2211 -1.0343
 7996SOL     OW35623   3.045   3.263  11.120 -0.3083  0.1476  0.2098
 7996SOL    HW135624   3.083   3.350  11.117 -1.5062  0.6443 -0.8102
 7996SOL    HW235625   3.077   3.241  11.207  2.8329 -4.4953 -2.1258
 7997SOL     OW35626   3.395   1.796  14.417  0.3316  0.4082  0.3094
 7997SOL    HW135627   3.448   1.875  14.419  0.4065  0.3854 -1.1381
 7997SOL    HW235628   3.416   1.757  14.502  1.3125 -2.0787 -1.0657
 7998SOL     OW35629   3.502   0.380   4.902  0.0178  0.3422  0.5326
 7998SOL    HW135630   3.578   0.321   4.902 -0.2725 -0.0416 -1.1343
 7998SOL    HW235631   3.526   0.428   4.823 -0.8714 -0.9047 -0.4893
 7999SOL     OW35632   1.138   4.096  17.719 -0.4844  0.5034 -0.3501
 7999SOL    HW135633   1.080   4.052  17.656  0.2582  0.7644 -1.2132
 7999SOL    HW235634   1.119   4.188  17.700 -1.5597  0.0326 -1.5612
 8000SOL     OW35635   2.468   4.705   3.219 -0.0791  0.8475 -0.1256
 8000SOL    HW135636   2.421   4.718   3.136  1.5740 -3.2461 -1.7123
 8000SOL    HW235637   2.509   4.619   3.207  0.1605  0.4835  3.2927
 8001SOL     OW35638   2.117   1.460   8.025  0.0265 -0.7687 -0.1026
 8001SOL    HW135639   2.165   1.478   8.106  0.4341 -0.7510 -0.3523
 8001SOL    HW235640   2.052   1.398   8.059 -0.1349  0.2197  1.3697
 8002SOL     OW35641   3.597   1.865   5.249  0.9652 -0.4866  0.0804
 8002SOL    HW135642   3.676   1.900   5.290  1.2202  2.4749 -2.9243
 8002SOL    HW235643   3.551   1.945   5.221 -1.4805 -2.0562 -0.4336
 8003SOL     OW35644   2.477   2.533  17.715 -0.1213  0.3327 -0.2017
 8003SOL    HW135645   2.520   2.485  17.644  0.0672  0.1540  0.0307
 8003SOL    HW235646   2.486   2.620  17.677  2.3775  0.0583 -0.2194
 8004SOL     OW35647   0.904   0.208  10.257 -0.2391 -0.6886 -1.0631
 8004SOL    HW135648   0.912   0.127  10.308  2.8799 -0.4782 -1.2578
 8004SOL    HW235649   0.883   0.166  10.173 -2.0743 -1.3712 -0.2772
 8005SOL     OW35650   3.958   2.837   4.100  0.1394 -0.2504  0.9553
 8005SOL    HW135651   4.033   2.781   4.121 -1.1289 -2.2813  0.0767
 8005SOL    HW235652   3.922   2.841   4.188 -1.0422  1.6045  0.3954
 8006SOL     OW35653   0.022   1.771  14.713  0.3068  0.9062  0.0056
 8006SOL    HW135654   0.002   1.849  14.661  2.0475  0.4665 -1.3006
 8006SOL    HW235655   0.040   1.817  14.795  3.1831 -0.2967  0.0441
 8007SOL     OW35656   0.798   2.664   7.758 -0.2600  0.6765  0.0574
 8007SOL    HW135657   0.804   2.571   7.737  0.7118  0.1628  2.5751
 8007SOL    HW235658   0.839   2.667   7.845  0.7625  0.6483 -0.4260
 8008SOL     OW35659   1.797   2.518   2.237 -0.1709  0.0689 -0.2436
 8008SOL    HW135660   1.866   2.560   2.287 -1.2487 -0.1683  1.4359
 8008SOL    HW235661   1.814   2.429   2.268  0.2362 -0.4199 -1.8705
 8009SOL     OW35662   4.098   3.422   6.058  0.2443  0.6064 -0.4335
 8009SOL    HW135663   4.105   3.444   5.965 -1.0270  0.5250 -0.5520
 8009SOL    HW235664   4.092   3.509   6.098 -2.2293  0.6743 -0.9756
 8010SOL     OW35665   0.190   3.991   4.352  0.9054 -0.2471  0.6212
 8010SOL    HW135666   0.161   3.905   4.383  0.3298  0.3187  1.6397
 8010SOL    HW235667   0.254   3.970   4.283 -1.7896 -1.0526 -1.6392
 8011SOL     OW35668   0.466   1.617  13.272  0.0647 -0.1440 -0.2222
 8011SOL    HW135669   0.408   1.541  13.274 -0.5831  0.3236 -1.1798
 8011SOL    HW235670   0.536   1.580  13.218  0.3716  0.5014 -0.2703
 8012SOL     OW35671   3.453   1.338   8.134 -0.2104  0.6963  0.4177
 8012SOL    HW135672   3.473   1.280   8.060 -0.2953 -0.1067  1.0264
 8012SOL    HW235673   3.495   1.286   8.202 -0.9904 -0.0697  0.3245
 8013SOL     OW35674   1.806   0.140   6.748  0.0551 -0.7809  0.1492
 8013SOL    HW135675   1.770   0.058   6.715  3.1006 -2.5453  1.1943
 8013SOL    HW235676   1.891   0.100   6.767  0.1500 -0.7698 -0.2463
 8014SOL     OW35677   3.161   1.873  11.055  1.2101  0.0813 -0.9758
 8014SOL    HW135678   3.116   1.789  11.061  1.6463 -0.1342 -0.7645
 8014SOL    HW235679   3.172   1.876  10.960  0.1418  1.3860 -1.0546
 8015SOL     OW35680   2.789   1.745  16.794  0.0324 -0.1199 -0.2691
 8015SOL    HW135681   2.745   1.660  16.795 -2.9355  1.4020  0.4754
 8015SOL    HW235682   2.793   1.757  16.889  1.0471  0.6584 -0.4151
 8016SOL     OW35683   4.352   3.205   4.626  0.4972 -0.2410 -0.4375
 8016SOL    HW135684   4.296   3.272   4.665  0.2056 -0.3519 -0.6706
 8016SOL    HW235685   4.322   3.122   4.664  0.2576 -0.5081 -1.2093
 8017SOL     OW35686   1.832   2.134   1.344  0.2850 -0.1947 -0.4241
 8017SOL    HW135687   1.780   2.080   1.404 -2.0816  1.1374 -1.2500
 8017SOL    HW235688   1.763   2.198   1.327  1.8209  1.2642 -1.0816
 8018SOL     OW35689   0.035   3.701  11.285 -0.5038 -0.5197  0.5100
 8018SOL    HW135690   0.084   3.686  11.205  1.2853 -0.4788  1.6123
 8018SOL    HW235691   4.726   3.779  11.251 -0.9154 -1.5906 -1.3808
 8019SOL     OW35692   3.474   1.600   4.406 -0.1114  0.5180 -0.0660
 8019SOL    HW135693   3.465   1.508   4.431  0.6042 -0.0495 -1.8757
 8019SOL    HW235694   3.507   1.641   4.485 -1.8174  1.4260  0.1788
 8020SOL     OW35695   1.538   1.147   3.201 -0.2703 -0.4481  0.2753
 8020SOL    HW135696   1.503   1.177   3.285  1.2826 -0.2460  0.8536
 8020SOL    HW235697   1.630   1.135   3.227 -0.8428  1.0621  3.0396
 8021SOL     OW35698   3.442   1.557   8.442  0.5751  0.0609  0.2875
 8021SOL    HW135699   3.367   1.546   8.501  0.5077 -0.5179  0.0873
 8021SOL    HW235700   3.480   1.470   8.439 -0.0201 -0.1383 -1.3786
 8022SOL     OW35701   2.396   3.428   6.599  0.1884  0.6151 -0.8265
 8022SOL    HW135702   2.420   3.441   6.507  2.7681  0.7577 -0.1421
 8022SOL    HW235703   2.368   3.516   6.620 -1.7199 -0.2245  0.0898
 8023SOL     OW35704   0.699   3.649  15.035 -0.3255 -0.1727  0.0569
 8023SOL    HW135705   0.718   3.597  14.957  1.1439  0.3844  0.0494
 8023SOL    HW235706   0.740   3.589  15.098  1.8637 -0.3146 -1.5389
 8024SOL     OW35707   1.657   0.276   3.653  0.3799  0.0506  0.2875
 8024SOL    HW135708   1.571   0.293   3.614  0.6572  0.2083 -0.2650
 8024SOL    HW235709   1.639   0.196   3.702 -2.3746  0.3654 -0.1948
 8025SOL     OW35710   1.900   1.941   7.023 -0.2609 -0.2403 -0.3023
 8025SOL    HW135711   1.859   1.927   7.109 -1.3523  1.5357 -0.5410
 8025SOL    HW235712   1.876   2.032   7.010 -2.1118 -0.6889 -0.1128
 8026SOL     OW35713   0.406   3.067  11.931 -0.1961 -0.1605 -0.3317
 8026SOL    HW135714   0.417   3.133  12.000  1.5051  0.2188 -0.9613
 8026SOL    HW235715   0.493   3.065  11.891  0.2491 -0.9431  0.6533
 8027SOL     OW35716   3.073   0.394   6.898  0.0614 -0.4989  0.1341
 8027SOL    HW135717   3.046   0.481   6.926 -0.7067 -0.7951  0.3235
 8027SOL    HW235718   3.005   0.368   6.836 -0.8068 -0.8405  1.2372
 8028SOL     OW35719   3.995   2.266   3.885  0.9119 -0.4750 -0.2246
 8028SOL    HW135720   4.038   2.206   3.946  0.4329  1.3264  1.8932
 8028SOL    HW235721   3.911   2.274   3.930  1.6584 -0.3433  1.1394
 8029SOL     OW35722   0.290   2.764  16.287  0.3195 -1.0944 -0.0178
 8029SOL    HW135723   0.196   2.772  16.304  0.4602 -1.1750  0.8051
 8029SOL    HW235724   0.330   2.766  16.374  1.2201  0.5771 -0.4868
 8030SOL     OW35725   4.118   4.494   2.672  0.0003 -0.3292 -0.7339
 8030SOL    HW135726   4.200   4.498   2.722 -1.2064  1.5829  1.0859
 8030SOL    HW235727   4.126   4.559   2.602  0.1174 -0.0712 -0.4801
 8031SOL     OW35728   4.226   4.730   0.619 -0.3317  0.2643 -0.4580
 8031SOL    HW135729   4.299   4.678   0.584  0.0263 -0.8091  1.8857
 8031SOL    HW235730   4.263   0.080   0.641  1.7957 -1.0341  1.0006
 8032SOL     OW35731   4.661   1.781  10.712 -0.1939 -0.3368 -0.2128
 8032SOL    HW135732   4.649   1.757  10.804 -1.8075 -0.8143 -0.5503
 8032SOL    HW235733   4.629   1.869  10.730  0.9262  0.4067 -1.8190
 8033SOL     OW35734   4.353   1.980  13.970  0.5569  0.8705  0.3670
 8033SOL    HW135735   4.438   1.954  14.006  0.7117 -1.4921 -1.7020
 8033SOL    HW235736   4.302   1.901  13.988 -0.8743  1.7583  0.2340
 8034SOL     OW35737   1.207   1.623   0.476 -0.3188  0.4363  0.0347
 8034SOL    HW135738   1.283   1.582   0.518 -0.8487  1.1116  1.6372
 8034SOL    HW235739   1.168   1.548   0.430  0.1807 -0.2093  0.6631
 8035SOL     OW35740   1.312   4.457   8.097  0.5387 -0.4269  0.4319
 8035SOL    HW135741   1.225   4.469   8.058  0.7192  2.2956  0.8553
 8035SOL    HW235742   1.345   4.372   8.068  2.1211  0.3146  0.0572
 8036SOL     OW35743   2.247   1.617  13.343 -0.7249  0.1031 -0.3253
 8036SOL    HW135744   2.259   1.703  13.385 -1.7921  1.2868 -2.4116
 8036SOL    HW235745   2.210   1.651  13.262 -2.4946 -0.0352  0.4190
 8037SOL     OW35746   0.640   0.200   5.014 -0.3161 -0.3091 -0.5765
 8037SOL    HW135747   0.582   0.230   5.084  1.2961  0.0312  0.6233
 8037SOL    HW235748   0.589   0.146   4.955 -1.3399 -0.4832  0.4873
 8038SOL     OW35749   3.802   1.427   2.199 -0.2249 -0.1609  0.4704
 8038SOL    HW135750   3.870   1.484   2.235  1.0656 -2.2743  1.3638
 8038SOL    HW235751   3.761   1.494   2.144 -1.9304  1.2810  3.5040
 8039SOL     OW35752   2.014   0.197  14.221 -0.0235  0.6590  0.5773
 8039SOL    HW135753   2.092   0.237  14.182  0.8773  1.7163  3.4745
 8039SOL    HW235754   1.980   0.156  14.141 -0.1031 -0.6195  1.2574
 8040SOL     OW35755   0.897   3.512   7.260  0.8465 -0.3746 -0.3831
 8040SOL    HW135756   0.987   3.503   7.227  1.4823  1.5116  0.8040
 8040SOL    HW235757   0.869   3.576   7.194  0.6462 -0.8624 -0.7666
 8041SOL     OW35758   2.176   2.565   7.812  0.3199 -0.3141 -0.2374
 8041SOL    HW135759   2.193   2.513   7.734 -0.8611 -0.4573 -0.3977
 8041SOL    HW235760   2.096   2.617   7.803  0.1525 -0.4637  0.3923
 8042SOL     OW35761   1.954   3.276   8.535  0.0677  0.5326  0.4266
 8042SOL    HW135762   1.869   3.274   8.490 -0.4726  0.5517  1.4593
 8042SOL    HW235763   1.945   3.193   8.582  0.2548 -0.3958 -1.1681
 8043SOL     OW35764   3.017   3.283   8.591  0.1526  0.2976 -0.6219
 8043SOL    HW135765   3.083   3.230   8.547  0.2295 -1.1051  1.1728
 8043SOL    HW235766   2.934   3.243   8.566 -0.7213  1.2165  0.8336
 8044SOL     OW35767   3.611   3.740   4.681  0.3754  0.3722  0.6948
 8044SOL    HW135768   3.621   3.660   4.630 -0.8741 -1.6491  3.5514
 8044SOL    HW235769   3.600   3.803   4.610  3.1759 -0.1663 -0.1809
 8045SOL     OW35770   0.996   4.652   0.418 -0.2085 -0.0075 -0.0518
 8045SOL    HW135771   0.912   4.697   0.427  0.7259  1.9711 -1.4663
 8045SOL    HW235772   0.979   4.571   0.467  0.3069 -0.3121 -0.3768
 8046SOL     OW35773   3.313   0.903   7.548  0.3565  0.3945 -0.1265
 8046SOL    HW135774   3.219   0.891   7.559 -0.2622  3.7943 -1.7292
 8046SOL    HW235775   3.312   0.998   7.559  0.3480  0.1945  1.5806
 8047SOL     OW35776   1.214   4.047   1.454  0.0205 -0.1616  0.7860
 8047SOL    HW135777   1.266   4.099   1.515  0.6294 -0.6839  0.7241
 8047SOL    HW235778   1.198   4.095   1.373  0.6032 -0.2581  0.6083
 8048SOL     OW35779   1.882   4.127  15.271  0.1704 -0.1766 -0.8025
 8048SOL    HW135780   1.888   4.183  15.194 -1.1481 -0.3808 -1.0637
 8048SOL    HW235781   1.943   4.055  15.260  2.5285  1.6336  0.4242
 8049SOL     OW35782   0.676   2.726   8.486  0.0277  0.7371 -0.0425
 8049SOL    HW135783   0.586   2.711   8.455  0.6244  0.0123 -1.4251
 8049SOL    HW235784   0.722   2.696   8.407 -0.3132  2.7489 -1.0257
 8050SOL     OW35785   1.237   3.776   5.678 -0.4314  0.4981  0.1434
 8050SOL    HW135786   1.269   3.712   5.742 -1.1889 -1.4293 -1.4042
 8050SOL    HW235787   1.289   3.750   5.603  0.6546  0.8737  0.7713
 8051SOL     OW35788   0.110   0.471   7.941 -0.4764 -0.5219 -0.1956
 8051SOL    HW135789   0.146   0.425   8.017  1.2890  1.6620  0.3139
 8051SOL    HW235790   0.168   0.547   7.935 -1.8516  0.3853 -2.1468
 8052SOL     OW35791   0.075   3.089   4.864 -0.5939  0.5859 -0.5248
 8052SOL    HW135792   4.731   3.131   4.897 -0.7803  0.0569 -0.3040
 8052SOL    HW235793   0.047   2.998   4.858 -1.2292  0.6544  1.3147
 8053SOL     OW35794   1.202   2.375  15.193 -0.1722  0.1924  0.1863
 8053SOL    HW135795   1.131   2.352  15.133 -1.0975  1.8088  0.6399
 8053SOL    HW235796   1.160   2.360  15.278  0.4777 -1.0314  0.2794
 8054SOL     OW35797   0.191   4.593   4.636  0.2695  0.1944  0.0966
 8054SOL    HW135798   0.197   4.681   4.673 -1.4100  0.7471 -0.9486
 8054SOL    HW235799   0.245   4.533   4.688 -0.7619  0.0510  1.0034
 8055SOL     OW35800   0.347   2.464   0.081 -0.5117  0.4964 -0.1759
 8055SOL    HW135801   0.441   2.450   0.087 -0.4722  1.5932  1.8162
 8055SOL    HW235802   0.315   2.382   0.117  0.3761 -0.7596 -2.2632
 8056SOL     OW35803   3.307   1.006   7.169 -0.1110 -0.0234 -0.2421
 8056SOL    HW135804   3.266   1.078   7.217  0.5625 -0.7080  1.3689
 8056SOL    HW235805   3.364   1.054   7.108 -0.6141 -0.1826 -0.8380
 8057SOL     OW35806   1.847   1.551   9.563  0.2277 -0.1779  0.1629
 8057SOL    HW135807   1.885   1.472   9.526  1.0316  1.2809 -2.0826
 8057SOL    HW235808   1.902   1.620   9.525 -1.6779  2.2287  1.7479
 8058SOL     OW35809   3.958   1.756  16.208 -0.1639 -0.4816 -0.1522
 8058SOL    HW135810   4.053   1.764  16.204  0.0077 -2.3846  0.1688
 8058SOL    HW235811   3.957   1.776  16.301  2.1419 -0.9707 -0.0206
 8059SOL     OW35812   4.554   1.986   7.297 -0.4981  0.3605 -0.0208
 8059SOL    HW135813   4.645   2.012   7.286 -0.5682 -0.4488 -2.4096
 8059SOL    HW235814   4.509   2.061   7.258  0.0119  1.1075  0.8060
 8060SOL     OW35815   1.032   3.697   4.067 -0.2093  0.5063  0.0947
 8060SOL    HW135816   1.122   3.682   4.039 -0.7847 -1.9795 -0.4263
 8060SOL    HW235817   1.029   3.649   4.150  0.0562  2.1860  1.0627
 8061SOL     OW35818   2.420   1.098   3.964  0.0285 -0.1089 -0.0052
 8061SOL    HW135819   2.491   1.055   4.012 -0.9625  0.1661  1.7101
 8061SOL    HW235820   2.442   1.186   3.992 -1.1989  0.3312 -0.4056
 8062SOL     OW35821   1.153   1.930   7.688 -0.6094  0.1798 -0.0330
 8062SOL    HW135822   1.125   1.845   7.655  1.8016 -0.8996  0.7486
 8062SOL    HW235823   1.241   1.911   7.721 -1.0261 -0.4558  0.7072
 8063SOL     OW35824   3.266   4.323   0.904  0.6107 -0.0302 -0.6272
 8063SOL    HW135825   3.266   4.230   0.926 -1.9765  0.0283 -0.4423
 8063SOL    HW235826   3.200   4.326   0.835  0.5230 -1.5678 -0.6115
 8064SOL     OW35827   1.131   3.682   6.067  0.1023 -0.9180  0.4164
 8064SOL    HW135828   1.069   3.718   6.004  1.1992 -0.7369 -0.5572
 8064SOL    HW235829   1.211   3.727   6.040 -1.8762  1.3237 -1.6924
 8065SOL     OW35830   3.661   0.349   2.790  0.2050 -0.0644  0.1601
 8065SOL    HW135831   3.711   0.419   2.832 -1.1618  0.4779  0.8552
 8065SOL    HW235832   3.713   0.330   2.711  1.4280  2.0393  0.4509
 8066SOL     OW35833   0.200   0.238   8.084 -0.0806 -0.5567  0.0962
 8066SOL    HW135834   0.263   0.166   8.079 -1.8339 -2.2581  2.1760
 8066SOL    HW235835   0.124   0.188   8.053 -2.2564  3.8537 -1.5514
 8067SOL     OW35836   1.385   1.157  14.284  0.5746  0.3781  0.1757
 8067SOL    HW135837   1.431   1.195  14.210 -1.1081 -0.6760 -1.4068
 8067SOL    HW235838   1.399   1.220  14.354 -2.0242  0.2042  0.8505
 8068SOL     OW35839   0.779   4.047   7.881 -0.0443 -0.5203  0.4337
 8068SOL    HW135840   0.834   4.069   7.806 -1.4447 -0.7269 -0.6783
 8068SOL    HW235841   0.832   3.974   7.912 -1.1253 -0.4710  2.4284
 8069SOL     OW35842   3.023   2.077   6.287  0.1570  0.2119 -0.6838
 8069SOL    HW135843   3.039   2.067   6.193  2.0128 -2.2514 -0.1153
 8069SOL    HW235844   3.111   2.062   6.323  0.6057 -1.4413 -2.4652
 8070SOL     OW35845   2.122   3.404  16.660 -0.2946 -0.4000 -0.3538
 8070SOL    HW135846   2.046   3.348  16.672 -1.0983  0.0584 -3.3734
 8070SOL    HW235847   2.081   3.477  16.613 -0.3759 -0.5051 -0.4450
 8071SOL     OW35848   4.367   2.173   6.654  0.3898  0.5773  0.1134
 8071SOL    HW135849   4.338   2.239   6.591 -1.5045 -0.8535 -0.5650
 8071SOL    HW235850   4.434   2.208   6.712  0.5640 -0.3729  0.4838
 8072SOL     OW35851   2.594   1.220   3.287  0.9597  0.3783  0.5968
 8072SOL    HW135852   2.518   1.162   3.295  1.0944 -0.3396 -3.3484
 8072SOL    HW235853   2.593   1.238   3.193  1.5821  2.2787  0.9527
 8073SOL     OW35854   4.346   1.517  15.864  0.4561  0.1984 -0.0085
 8073SOL    HW135855   4.326   1.449  15.927  0.0910  0.9568  0.7011
 8073SOL    HW235856   4.406   1.574  15.912 -0.3473 -0.0741  1.3133
 8074SOL     OW35857   1.487   2.522   3.092  0.6937  0.1040 -1.2677
 8074SOL    HW135858   1.482   2.601   3.146 -0.3332 -0.4067 -0.6078
 8074SOL    HW235859   1.518   2.568   3.014  1.1189  1.7731 -0.1208
 8075SOL     OW35860   1.817   2.459   7.963 -0.2315  1.0008  0.3345
 8075SOL    HW135861   1.799   2.549   7.993 -0.1328  1.2487 -0.3509
 8075SOL    HW235862   1.737   2.430   7.919 -0.0973 -0.3836  0.9965
 8076SOL     OW35863   4.144   2.523   4.937 -0.1343 -0.0054  0.0409
 8076SOL    HW135864   4.073   2.472   4.898  0.1175  0.5483 -1.1437
 8076SOL    HW235865   4.103   2.575   5.005 -1.0281  2.1082 -2.0919
 8077SOL     OW35866   2.226   4.436  16.071  0.4003 -0.2087 -0.3988
 8077SOL    HW135867   2.146   4.388  16.049 -1.0623  2.6577 -1.2841
 8077SOL    HW235868   2.236   4.488  15.992 -0.0189  0.3746 -0.0629
 8078SOL     OW35869   0.932   3.092   7.635 -0.5193  0.1387  0.1075
 8078SOL    HW135870   0.893   3.067   7.551 -1.6356  1.9368  0.0881
 8078SOL    HW235871   0.945   3.006   7.674  0.5535  0.3537  0.2318
 8079SOL     OW35872   2.725   2.969  11.884  0.1583  0.3272 -0.0396
 8079SOL    HW135873   2.644   2.987  11.837 -0.2591 -0.5486  0.3561
 8079SOL    HW235874   2.720   3.038  11.950 -0.0880  1.2030 -0.9539
 8080SOL     OW35875   3.668   1.198  16.168 -0.1804  0.2359  0.4709
 8080SOL    HW135876   3.624   1.265  16.115  1.4718  0.2689 -0.8721
 8080SOL    HW235877   3.748   1.247  16.189 -0.4700  1.9551 -2.4272
 8081SOL     OW35878   2.189   0.517   6.307 -0.6172 -0.2670 -0.1410
 8081SOL    HW135879   2.285   0.518   6.313 -0.4321  1.5417 -3.2992
 8081SOL    HW235880   2.190   0.549   6.217  0.2960 -0.0807 -0.0621
 8082SOL     OW35881   2.601   1.590   8.441  0.0058 -0.0208 -0.1975
 8082SOL    HW135882   2.665   1.540   8.492  0.3865 -1.7167 -2.3264
 8082SOL    HW235883   2.575   1.653   8.508 -2.0867  0.4183 -1.4330
 8083SOL     OW35884   4.264   1.235   7.429 -0.4923 -0.4279  0.0146
 8083SOL    HW135885   4.180   1.257   7.390 -0.9565 -2.3083 -0.0675
 8083SOL    HW235886   4.285   1.314   7.478 -2.1039  0.3760 -0.6154
 8084SOL     OW35887   1.654   3.155  13.873  0.0532  0.4751  0.1621
 8084SOL    HW135888   1.597   3.221  13.833 -1.3213 -0.3215  0.7976
 8084SOL    HW235889   1.741   3.190  13.855  0.4845  0.4446  2.2083
 8085SOL     OW35890   0.074   3.910   9.563  0.7821 -0.3437 -0.1894
 8085SOL    HW135891   0.089   3.871   9.477 -0.6581  0.4206 -0.7914
 8085SOL    HW235892   0.015   3.852   9.611  0.2539  0.5398  0.2415
 8086SOL     OW35893   3.776   3.460  13.750  0.3421  1.0382 -0.0110
 8086SOL    HW135894   3.728   3.383  13.720 -0.3647 -0.0252  3.8171
 8086SOL    HW235895   3.722   3.470  13.829  1.8457  1.0177  1.0043
 8087SOL     OW35896   3.490   4.649   4.303 -0.3890 -0.2652  0.1098
 8087SOL    HW135897   3.467   4.693   4.220 -0.9306  0.1095  0.4558
 8087SOL    HW235898   3.578   4.687   4.303 -0.6216  0.2970 -1.9637
 8088SOL     OW35899   3.397   0.783   0.117  0.0739  0.4114 -0.2162
 8088SOL    HW135900   3.446   0.861   0.141 -0.2988 -0.1778  2.4309
 8088SOL    HW235901   3.387   0.783   0.022  1.1222  1.6854 -0.3168
 8089SOL     OW35902   1.490   3.178   2.640  0.5082 -0.5193  0.2578
 8089SOL    HW135903   1.447   3.263   2.632  0.9995 -0.3780 -1.0156
 8089SOL    HW235904   1.582   3.203   2.634  0.3300  0.2711  0.8869
 8090SOL     OW35905   3.457   4.406  11.770 -0.0234  0.2785  0.0455
 8090SOL    HW135906   3.486   4.494  11.745 -2.1897  1.0009  0.0384
 8090SOL    HW235907   3.539   4.361  11.751  0.5772  0.2948  2.5950
 8091SOL     OW35908   0.889   2.871   7.004 -0.6111  0.6475 -0.1641
 8091SOL    HW135909   0.860   2.902   7.090  1.1036  0.4570  0.4753
 8091SOL    HW235910   0.833   2.800   6.973  0.9139 -1.1985  1.3016
 8092SOL     OW35911   4.555   0.990  10.230  0.2388 -0.0393  0.1163
 8092SOL    HW135912   4.611   0.997  10.307 -0.4889  0.2890  0.6101
 8092SOL    HW235913   4.624   1.004  10.165  0.7178 -1.0528  0.3956
 8093SOL     OW35914   0.219   1.513   4.775 -0.0307 -0.0278  0.1900
 8093SOL    HW135915   0.152   1.580   4.764 -0.3918 -0.1778  1.4717
 8093SOL    HW235916   0.199   1.454   4.702  3.1868 -0.1653 -0.5796
 8094SOL     OW35917   0.667   1.473  12.779 -0.8275  0.0823 -0.2318
 8094SOL    HW135918   0.735   1.406  12.768  0.7989  1.5360  0.9557
 8094SOL    HW235919   0.598   1.438  12.724 -0.7172 -2.1060  1.0285
 8095SOL     OW35920   0.057   4.199  16.927 -0.1658 -0.1640  0.0179
 8095SOL    HW135921   0.083   4.273  16.871 -1.4802  1.3422  1.3938
 8095SOL    HW235922   0.139   4.180  16.971  0.4165  0.6824 -0.6895
 8096SOL     OW35923   1.033   2.349  11.647  0.2806  0.4578  0.2324
 8096SOL    HW135924   0.972   2.413  11.683 -0.2755  0.6358 -1.0327
 8096SOL    HW235925   1.042   2.289  11.722 -3.4360 -1.2281 -0.6901
 8097SOL     OW35926   1.323   1.796   8.571  0.1271 -0.7016 -0.7056
 8097SOL    HW135927   1.292   1.707   8.584  0.5130 -0.7780 -0.3083
 8097SOL    HW235928   1.284   1.849   8.641 -0.8712  0.3546 -2.0468
 8098SOL     OW35929   2.681   4.110   7.187 -0.5837  0.0561 -0.1034
 8098SOL    HW135930   2.720   4.101   7.274  0.0097  1.9641 -0.1620
 8098SOL    HW235931   2.657   4.019   7.170  1.3336 -0.9214  2.3191
 8099SOL     OW35932   3.710   0.971  15.711 -0.2670 -0.0681  0.3071
 8099SOL    HW135933   3.768   1.043  15.687 -0.3830  0.1944  0.8401
 8099SOL    HW235934   3.715   0.918  15.631  2.5286  1.1810 -0.3272
 8100SOL     OW35935   3.996   0.755   4.707  0.5579 -0.4312  0.5073
 8100SOL    HW135936   3.929   0.686   4.711 -0.1186  0.1305 -1.2585
 8100SOL    HW235937   4.007   0.774   4.800 -0.2861  1.1993  0.2684
 8101SOL     OW35938   0.731   2.984  12.784 -0.3861  0.2051  0.2945
 8101SOL    HW135939   0.806   3.023  12.828 -3.0234  2.3784  2.7877
 8101SOL    HW235940   0.744   2.889  12.773 -1.1857  0.0053  1.1689
 8102SOL     OW35941   4.555   1.395   8.176  0.3072 -0.2852 -0.0727
 8102SOL    HW135942   4.515   1.317   8.140  2.1814 -0.4803 -1.7627
 8102SOL    HW235943   4.632   1.402   8.119  0.9432 -2.6090  0.5249
 8103SOL     OW35944   1.158   4.284   8.773  0.7077 -0.3652 -0.1072
 8103SOL    HW135945   1.098   4.292   8.699  3.0930  1.0972 -1.8999
 8103SOL    HW235946   1.223   4.353   8.754  0.0559 -0.4989 -2.8553
 8104SOL     OW35947   1.981   2.588  10.049 -0.0513  0.1088  0.5802
 8104SOL    HW135948   2.058   2.567   9.996  0.6730 -0.8452  2.0233
 8104SOL    HW235949   2.032   2.631  10.118  1.6971 -1.4796  0.2581
 8105SOL     OW35950   2.260   1.529   5.040  0.0226  0.2237  0.2954
 8105SOL    HW135951   2.346   1.497   5.067  1.4430  1.8421 -2.3473
 8105SOL    HW235952   2.254   1.485   4.955  1.1460  1.5277 -0.4543
 8106SOL     OW35953   0.221   0.251   9.461 -0.2076 -0.1617  0.0400
 8106SOL    HW135954   0.233   0.298   9.544 -1.5865  1.2981 -0.6013
 8106SOL    HW235955   0.162   0.183   9.493  0.2553 -0.6459 -0.1302
 8107SOL     OW35956   2.978   4.438   7.778  0.3953  0.2101 -0.2936
 8107SOL    HW135957   2.945   4.527   7.793 -0.6828  0.0020 -1.3979
 8107SOL    HW235958   3.029   4.445   7.698 -1.0080  1.0848 -1.1137
 8108SOL     OW35959   0.925   4.189   3.707  0.1423  0.0781 -0.1186
 8108SOL    HW135960   0.834   4.212   3.721 -0.0343 -0.0284 -1.1106
 8108SOL    HW235961   0.925   4.097   3.731 -1.8922  0.2592  0.5361
 8109SOL     OW35962   4.714   3.824   3.068  0.2504 -0.1778  0.1161
 8109SOL    HW135963   4.627   3.831   3.028 -0.1858 -2.3591  0.6762
 8109SOL    HW235964   0.026   3.768   3.005  0.9888  2.1573 -1.4203
 8110SOL     OW35965   1.855   1.906  11.019 -0.1621 -0.0126 -0.4620
 8110SOL    HW135966   1.879   1.814  11.021 -1.2268 -0.2772  0.0773
 8110SOL    HW235967   1.774   1.900  10.968 -0.8177  1.1597  0.4154
 8111SOL     OW35968   3.290   3.932   2.823  0.4651 -0.3661  0.2547
 8111SOL    HW135969   3.280   3.837   2.827 -1.0892 -0.1234  1.8477
 8111SOL    HW235970   3.243   3.956   2.903 -0.6947 -0.8194 -0.2901
 8112SOL     OW35971   0.181   0.232   4.320  0.2811  0.0747  0.1600
 8112SOL    HW135972   0.260   0.202   4.366  1.2038  0.7664 -0.9605
 8112SOL    HW235973   0.192   0.194   4.232 -1.9798 -3.1771  1.3052
 8113SOL     OW35974   3.907   4.441   6.610  0.2017  0.1545 -0.0750
 8113SOL    HW135975   3.885   4.490   6.689 -1.1682 -0.7425  0.1074
 8113SOL    HW235976   3.981   4.494   6.581 -2.2545  1.8014 -3.3119
 8114SOL     OW35977   0.791   3.973   5.153  0.0450 -0.3670 -0.1443
 8114SOL    HW135978   0.740   3.908   5.202  0.6985 -2.0844 -1.7502
 8114SOL    HW235979   0.882   3.946   5.162 -0.5486 -2.9633 -1.6885
 8115SOL     OW35980   2.755   1.888   2.549 -0.6008  0.3749 -0.2703
 8115SOL    HW135981   2.673   1.932   2.572  0.1324  1.3491  0.4837
 8115SOL    HW235982   2.814   1.944   2.599 -0.4419  0.8273 -0.9687
 8116SOL     OW35983   3.569   0.563   5.602 -0.6299  0.1649 -0.2306
 8116SOL    HW135984   3.486   0.528   5.572 -0.9556 -1.1493  2.2011
 8116SOL    HW235985   3.595   0.485   5.651  0.6724  1.8983  1.8790
 8117SOL     OW35986   0.021   0.901  15.273 -0.2430 -0.6386  0.1610
 8117SOL    HW135987   0.040   0.873  15.363 -0.9421  0.9545  0.8027
 8117SOL    HW235988   4.665   0.926  15.289  0.3900  1.3314  0.6917
 8118SOL     OW35989   3.049   2.341  12.939 -0.4411 -0.0261 -0.1418
 8118SOL    HW135990   3.051   2.433  12.966  2.7021 -0.2024  0.2021
 8118SOL    HW235991   3.139   2.315  12.919 -0.3859  0.3654 -0.4069
 8119SOL     OW35992   3.360   1.643   8.917  0.6527  0.5535  0.0461
 8119SOL    HW135993   3.409   1.563   8.901 -1.5371 -0.2226 -2.7525
 8119SOL    HW235994   3.275   1.600   8.922  0.1339  1.6259  0.5158
 8120SOL     OW35995   1.914   1.590   0.878  0.0745 -1.0464  0.2174
 8120SOL    HW135996   1.954   1.589   0.964  0.4938 -0.0097  0.0369
 8120SOL    HW235997   1.990   1.561   0.828 -0.9046  0.5076 -2.1869
 8121SOL     OW35998   4.150   3.899   4.820 -0.0674 -0.2711  0.1727
 8121SOL    HW135999   4.133   3.816   4.865 -2.0532  0.8920  1.6142
 8121SOL    HW236000   4.193   3.876   4.738 -0.3185  1.3988 -0.4157
 8122SOL     OW36001   0.748   4.240   8.831 -0.0863 -0.0227 -0.0659
 8122SOL    HW136002   0.718   4.252   8.921 -2.8812 -0.8496 -0.8544
 8122SOL    HW236003   0.730   4.324   8.789 -0.0216 -0.6159 -1.3046
 8123SOL     OW36004   3.561   3.239   2.019  0.0226 -0.4295 -0.2786
 8123SOL    HW136005   3.635   3.197   1.976 -2.6508 -1.6157 -3.7200
 8123SOL    HW236006   3.613   3.303   2.068  1.2805 -2.0637  0.5324
 8124SOL     OW36007   3.041   3.859   5.606 -0.1705 -0.3957  0.1860
 8124SOL    HW136008   2.962   3.828   5.564 -0.7521  0.4141  0.6745
 8124SOL    HW236009   3.045   3.954   5.609  0.7147 -0.4048 -0.9696
 8125SOL     OW36010   4.304   4.698   8.638 -0.2236  0.3133 -0.0221
 8125SOL    HW136011   4.300   4.648   8.720  0.6706  1.8520  0.9707
 8125SOL    HW236012   4.238   4.646   8.593 -0.0789  1.4158 -1.5019
 8126SOL     OW36013   1.096   1.065   6.348 -0.0690 -0.3082  0.1959
 8126SOL    HW136014   1.094   1.159   6.329 -2.3953 -0.7121 -1.6398
 8126SOL    HW236015   1.086   1.027   6.260  0.1742 -0.2915  0.1612
 8127SOL     OW36016   2.207   2.075   8.078  0.3610  0.0540 -0.7349
 8127SOL    HW136017   2.297   2.107   8.078 -0.5531  2.6293  0.3981
 8127SOL    HW236018   2.159   2.152   8.109  1.8188  0.4483  0.5502
 8128SOL     OW36019   2.165   3.999   2.708  0.2155  0.1084 -0.8660
 8128SOL    HW136020   2.233   3.955   2.657 -0.2158 -0.8226 -0.6272
 8128SOL    HW236021   2.211   4.081   2.724  0.9273 -0.5507  0.4613
 8129SOL     OW36022   1.246   2.772   8.902 -0.1535 -0.0124 -0.4056
 8129SOL    HW136023   1.290   2.718   8.836 -2.0531 -0.2025 -1.5195
 8129SOL    HW236024   1.257   2.717   8.979 -0.3082 -0.7686 -0.9234
 8130SOL     OW36025   3.218   1.061   7.973  0.2806  0.2866  0.4375
 8130SOL    HW136026   3.206   1.047   8.067 -0.9130  0.5195  0.3096
 8130SOL    HW236027   3.222   1.156   7.958 -2.7753  0.2087 -0.7719
 8131SOL     OW36028   1.363   3.248  13.128  0.1323  0.1629 -0.9607
 8131SOL    HW136029   1.358   3.312  13.056  1.5173  0.1849 -1.0248
 8131SOL    HW236030   1.336   3.166  13.087 -1.1576  0.1877 -0.1502
 8132SOL     OW36031   4.104   4.577   8.455  0.0282 -0.0474 -0.1240
 8132SOL    HW136032   4.043   4.535   8.395 -0.2207  1.7796 -1.1214
 8132SOL    HW236033   4.102   4.665   8.418 -0.8719  0.0737  0.2186
 8133SOL     OW36034   2.051   1.206  13.929  0.3311  0.8841 -0.5210
 8133SOL    HW136035   2.139   1.209  13.968 -0.0155  1.7664  0.1816
 8133SOL    HW236036   2.010   1.285  13.964  2.0300  1.4879  0.0799
 8134SOL     OW36037   2.396   2.773   4.242  0.6946 -0.3369 -0.6329
 8134SOL    HW136038   2.449   2.830   4.299 -0.9788 -0.7626  1.3629
 8134SOL    HW236039   2.384   2.695   4.296  0.5227 -0.8407 -1.4026
 8135SOL     OW36040   2.067   1.884   0.548 -0.2223 -0.1152 -0.1190
 8135SOL    HW136041   2.004   1.895   0.619  0.2620  1.4032  0.0709
 8135SOL    HW236042   2.092   1.975   0.533 -1.4800  0.2567  0.0935
 8136SOL     OW36043   0.966   1.167   4.752 -0.3026 -0.3561  0.3784
 8136SOL    HW136044   0.930   1.238   4.804 -2.0224  0.1871 -1.5636
 8136SOL    HW236045   0.932   1.092   4.801 -1.1250 -0.4767 -0.3760
 8137SOL     OW36046   3.909   3.124  16.055 -0.1341 -0.1979 -0.0694
 8137SOL    HW136047   3.923   3.211  16.092  1.4734 -0.6723  0.4480
 8137SOL    HW236048   3.998   3.093  16.038 -0.2500 -0.4585 -0.2062
 8138SOL     OW36049   3.180   4.530  13.983  0.3737  0.2037 -0.0738
 8138SOL    HW136050   3.107   4.586  14.011 -0.1917 -0.3627 -0.4043
 8138SOL    HW236051   3.140   4.443  13.990 -0.5206  0.5504 -0.8130
 8139SOL     OW36052   3.135   3.002  10.194  0.2170  0.1249  0.5047
 8139SOL    HW136053   3.101   3.075  10.143 -0.0009  0.2152  0.7803
 8139SOL    HW236054   3.051   2.963  10.216  0.2751  1.6996  3.5476
 8140SOL     OW36055   0.465   3.759  10.107  0.1859 -0.1602 -0.3708
 8140SOL    HW136056   0.421   3.806  10.177 -1.0113  0.6839 -1.7051
 8140SOL    HW236057   0.404   3.762  10.033  1.2225  1.9465 -1.1402
 8141SOL     OW36058   1.939   2.903  10.949 -0.1236  0.2763 -0.2274
 8141SOL    HW136059   1.914   2.811  10.955 -0.9686  0.5601  0.4870
 8141SOL    HW236060   1.938   2.901  10.853  0.6092  1.2596 -0.2557
 8142SOL     OW36061   3.028   1.556   8.278 -0.3930  0.5194  0.4889
 8142SOL    HW136062   3.041   1.479   8.222  1.1132  1.2500 -0.1513
 8142SOL    HW236063   2.961   1.607   8.232 -2.0729 -2.7750 -0.8114
 8143SOL     OW36064   4.550   1.686  11.802  0.0665  0.1169 -0.3998
 8143SOL    HW136065   4.492   1.615  11.828 -0.1616  0.8242  1.0659
 8143SOL    HW236066   4.520   1.758  11.858  2.3713  1.0459 -0.3362
 8144SOL     OW36067   0.729   2.946   4.596  0.5946  0.2605  0.1861
 8144SOL    HW136068   0.770   2.859   4.591 -0.9298 -0.3063 -2.7117
 8144SOL    HW236069   0.778   2.962   4.676  0.4651  0.7309  0.1682
 8145SOL     OW36070   1.877   2.197   6.909 -0.4347  0.4079  0.5751
 8145SOL    HW136071   1.932   2.169   6.837 -0.8647 -1.0736  0.8334
 8145SOL    HW236072   1.859   2.289   6.886  0.3660  0.2323 -0.7213
 8146SOL     OW36073   1.409   1.329   5.370 -0.0923 -0.2410 -0.0198
 8146SOL    HW136074   1.429   1.418   5.340  1.0905 -0.4279  0.1816
 8146SOL    HW236075   1.314   1.332   5.366 -0.0908  1.6504  1.0526
 8147SOL     OW36076   2.711   2.358   6.146 -0.2228 -0.8277 -0.0759
 8147SOL    HW136077   2.791   2.372   6.197 -0.6136  1.1931 -0.0252
 8147SOL    HW236078   2.662   2.440   6.149  1.8215  0.3575  1.5298
 8148SOL     OW36079   3.382   4.367   2.432  0.0560  0.3873 -0.3067
 8148SOL    HW136080   3.294   4.351   2.466 -0.4586 -0.5912 -2.0979
 8148SOL    HW236081   3.406   4.279   2.404  0.1921 -0.0878  1.2991
 8149SOL     OW36082   0.853   4.462   6.784 -0.6302 -0.5734  0.0796
 8149SOL    HW136083   0.910   4.484   6.857  1.6041  0.0881 -1.8619
 8149SOL    HW236084   0.820   4.548   6.758 -0.8641 -0.8455 -0.5249
 8150SOL     OW36085   0.430   1.807   6.918  0.4820  0.2970  0.3032
 8150SOL    HW136086   0.351   1.763   6.948  0.6380  1.1042  1.8812
 8150SOL    HW236087   0.441   1.759   6.836  0.2188  1.8721 -0.6476
 8151SOL     OW36088   0.651   4.612   7.966  0.3176  0.2164  0.2046
 8151SOL    HW136089   0.674   4.527   8.001 -2.5774 -0.3302  0.7975
 8151SOL    HW236090   0.564   4.599   7.927 -0.3390  1.3536  1.2834
 8152SOL     OW36091   1.144   2.227   1.737  0.2280 -0.1587 -0.1906
 8152SOL    HW136092   1.175   2.256   1.823 -0.9205 -0.0189  0.1819
 8152SOL    HW236093   1.083   2.156   1.758 -1.3954  1.1526 -0.5263
 8153SOL     OW36094   0.937   0.619   6.011 -0.1007 -0.1669 -0.0939
 8153SOL    HW136095   1.030   0.596   6.009  0.3067  1.5610 -0.6319
 8153SOL    HW236096   0.911   0.527   6.005 -2.2834  0.6069 -2.3537
 8154SOL     OW36097   4.420   1.644  12.196 -0.0458  0.0747  0.5753
 8154SOL    HW136098   4.494   1.683  12.148  1.0426 -2.3704  0.2312
 8154SOL    HW236099   4.432   1.688  12.279 -0.5018  0.7435  0.2797
 8155SOL     OW36100   0.788   1.964   8.178 -0.1806 -0.2186  0.6442
 8155SOL    HW136101   0.780   1.883   8.228 -3.6139 -0.0340  0.4271
 8155SOL    HW236102   0.860   1.960   8.115 -1.1877 -0.6555 -0.4995
 8156SOL     OW36103   3.032   0.173   8.516 -0.0754 -0.2720 -0.3789
 8156SOL    HW136104   2.988   0.095   8.484 -0.1253 -0.3377 -0.1456
 8156SOL    HW236105   2.964   0.212   8.571  0.0113 -0.4072 -0.1765
 8157SOL     OW36106   3.710   1.476   5.050 -0.5696  0.2996  0.0499
 8157SOL    HW136107   3.743   1.554   5.006  2.6901 -0.9778  0.2102
 8157SOL    HW236108   3.687   1.425   4.973 -0.4453 -1.0150  0.8714
 8158SOL     OW36109   1.052   3.885   6.827  0.3909  0.0153  0.1517
 8158SOL    HW136110   1.085   3.857   6.912  1.4340 -1.9525 -0.8872
 8158SOL    HW236111   1.091   3.815   6.774  0.5208 -0.0589  0.3454
 8159SOL     OW36112   1.985   4.440   7.069  0.4781 -0.7111  0.1128
 8159SOL    HW136113   1.972   4.439   6.974  0.0764 -1.5551  0.1799
 8159SOL    HW236114   2.080   4.438   7.075  0.4953 -0.3194 -0.0494
 8160SOL     OW36115   4.556   3.664   2.295  0.1866  0.9746  0.4390
 8160SOL    HW136116   4.472   3.628   2.268  0.6014  0.8324 -0.6494
 8160SOL    HW236117   4.555   3.738   2.234  0.0342  0.6369  0.0343
 8161SOL     OW36118   2.864   3.500  10.260 -0.1616  0.2788 -0.0011
 8161SOL    HW136119   2.905   3.473  10.178 -0.3334 -0.4296  0.1407
 8161SOL    HW236120   2.897   3.434  10.321 -2.0133 -0.0271  0.6807
 8162SOL     OW36121   4.220   4.153   4.695  0.3570  0.1201 -0.0776
 8162SOL    HW136122   4.190   4.234   4.736 -0.4065 -0.8033  1.1884
 8162SOL    HW236123   4.229   4.090   4.767 -1.6768  0.0012  0.0730
 8163SOL     OW36124   4.437   4.235   2.512 -0.2414 -0.6957 -0.4386
 8163SOL    HW136125   4.526   4.207   2.495  0.0270  0.6928 -1.3458
 8163SOL    HW236126   4.404   4.233   2.422  3.3840  0.1750 -1.7605
 8164SOL     OW36127   2.572   3.570  13.176 -0.1857  0.5190 -0.1078
 8164SOL    HW136128   2.586   3.655  13.134  0.6816  0.6320  0.4123
 8164SOL    HW236129   2.525   3.526  13.104  1.6188 -1.0381 -0.3372
 8165SOL     OW36130   4.409   0.649   1.776  0.3355  0.7310  0.0438
 8165SOL    HW136131   4.502   0.629   1.787  0.1798  0.9257  1.6247
 8165SOL    HW236132   4.372   0.573   1.821 -1.0217  0.6765 -1.1601
 8166SOL     OW36133   4.497   3.054   2.118  0.6009  1.0274 -0.2411
 8166SOL    HW136134   4.429   3.103   2.072  0.9358  1.5273 -0.1979
 8166SOL    HW236135   4.571   3.114   2.122  1.4153  0.0301 -0.4703
 8167SOL     OW36136   1.657   2.379   1.262 -0.4240  0.1807 -0.1002
 8167SOL    HW136137   1.577   2.333   1.238  0.0036 -0.6330  0.0515
 8167SOL    HW236138   1.617   2.455   1.304  2.4765  1.2893  0.6077
 8168SOL     OW36139   0.313   3.064   5.841 -0.4027  0.2441  0.0219
 8168SOL    HW136140   0.383   3.005   5.810  1.6977  3.3444 -1.0975
 8168SOL    HW236141   0.363   3.130   5.888 -0.0766  0.7494 -1.0271
 8169SOL     OW36142   3.025   1.848  16.707 -0.1445  0.8018 -0.0458
 8169SOL    HW136143   2.933   1.822  16.710  0.5542 -1.3945  2.8574
 8169SOL    HW236144   3.070   1.766  16.688  0.7264  1.1178  0.5779
 8170SOL     OW36145   4.613   4.190   5.488 -0.5129 -0.3754  0.1117
 8170SOL    HW136146   4.635   4.112   5.541  0.2463 -1.4507 -1.7975
 8170SOL    HW236147   4.527   4.164   5.456 -1.3998  1.5510  0.9241
 8171SOL     OW36148   4.141   4.729   5.716 -0.1508  0.2493  0.2779
 8171SOL    HW136149   4.187   0.049   5.652 -2.3929  2.5857  0.6832
 8171SOL    HW236150   4.057   0.039   5.717 -1.0305 -1.3206 -2.0455
 8172SOL     OW36151   1.116   1.849  11.231 -0.2048 -0.0719  0.2675
 8172SOL    HW136152   1.077   1.771  11.189  0.2627  0.3610 -0.9577
 8172SOL    HW236153   1.118   1.900  11.150 -1.1513 -0.3882  0.0454
 8173SOL     OW36154   1.981   1.517  11.704  0.3397  0.0465 -0.4633
 8173SOL    HW136155   1.977   1.606  11.738 -2.9434 -0.8787  1.5162
 8173SOL    HW236156   1.989   1.463  11.782 -0.4410 -0.8741 -1.0222
 8174SOL     OW36157   0.076   0.807   6.489  0.4152  0.5334 -0.1144
 8174SOL    HW136158   0.082   0.892   6.533 -1.3014  0.6506 -0.0995
 8174SOL    HW236159   0.082   0.837   6.398 -0.0357  2.5629  0.5257
 8175SOL     OW36160   4.108   3.334   2.268  0.0673 -0.2588  0.0696
 8175SOL    HW136161   4.057   3.266   2.312  0.5364 -0.1075  0.8491
 8175SOL    HW236162   4.070   3.412   2.308  1.3321 -1.2519  3.2417
 8176SOL     OW36163   1.485   0.808   2.649 -0.3830  0.0592 -0.0567
 8176SOL    HW136164   1.478   0.900   2.676 -0.3942 -0.2447  0.9930
 8176SOL    HW236165   1.503   0.770   2.736 -1.4124  1.2513  0.6784
 8177SOL     OW36166   3.636   3.494  13.980 -0.3236  0.0803 -0.0382
 8177SOL    HW136167   3.619   3.424  14.043 -0.5245  0.8699  0.7929
 8177SOL    HW236168   3.631   3.565  14.045  1.9225  0.3963 -0.2087
 8178SOL     OW36169   2.118   1.362   3.671 -0.2404  0.1647  0.4984
 8178SOL    HW136170   2.165   1.378   3.589  0.5364 -2.1306  0.4880
 8178SOL    HW236171   2.175   1.410   3.731 -1.3307  0.9357  0.9070
 8179SOL     OW36172   2.960   0.874   8.737 -0.3518 -0.5418 -0.1047
 8179SOL    HW136173   2.990   0.876   8.828  0.1548  1.0835 -0.2960
 8179SOL    HW236174   2.943   0.963   8.704  2.6349 -0.6911 -1.9792
 8180SOL     OW36175   1.521   3.362  13.729 -0.4202  0.0897 -0.1932
 8180SOL    HW136176   1.430   3.338  13.713 -0.3211 -0.4032  0.0095
 8180SOL    HW236177   1.564   3.348  13.644 -1.6098  0.1727 -0.8057
 8181SOL     OW36178   1.882   1.546   2.786 -0.0271  1.0102  0.3999
 8181SOL    HW136179   1.951   1.548   2.853 -0.3675 -1.3997  0.8296
 8181SOL    HW236180   1.912   1.610   2.721 -0.2772 -0.3252 -1.0037
 8182SOL     OW36181   3.179   0.558   5.360 -0.0250  0.6000 -0.3299
 8182SOL    HW136182   3.146   0.606   5.436 -2.7925 -1.1000 -0.4342
 8182SOL    HW236183   3.119   0.600   5.298 -0.5443  1.1113  0.5241
 8183SOL     OW36184   2.085   2.415   8.916 -0.1530 -0.0853  0.4285
 8183SOL    HW136185   2.098   2.322   8.930  5.2636  0.7400  1.0917
 8183SOL    HW236186   2.124   2.428   8.829 -1.1111 -0.8360 -0.1083
 8184SOL     OW36187   2.490   2.860  17.502  0.6603  0.1015 -0.1698
 8184SOL    HW136188   2.577   2.822  17.491  0.7568  0.6009 -1.1076
 8184SOL    HW236189   2.508   2.948  17.534  1.2885  0.0072 -0.2721
 8185SOL     OW36190   4.404   2.640   6.822 -0.2666 -0.2374 -0.5317
 8185SOL    HW136191   4.397   2.733   6.845  1.4667 -0.1010 -0.5230
 8185SOL    HW236192   4.322   2.601   6.793 -0.7329  0.6694 -0.4226
 8186SOL     OW36193   1.573   0.191   3.947  0.1816 -0.6065 -0.2234
 8186SOL    HW136194   1.490   0.143   3.951  0.5701 -1.1574  1.2975
 8186SOL    HW236195   1.555   0.284   3.955 -0.5172 -0.7471 -0.1268
 8187SOL     OW36196   4.013   2.379   2.414 -0.6379 -0.3984  0.3358
 8187SOL    HW136197   4.067   2.300   2.415  1.0136  0.7064 -1.0972
 8187SOL    HW236198   4.081   2.443   2.394 -1.0620 -0.6065 -1.8247
 8188SOL     OW36199   2.701   4.454   6.526  0.2646  0.3339  0.0426
 8188SOL    HW136200   2.691   4.361   6.546  0.0850  0.9811  2.8613
 8188SOL    HW236201   2.792   4.468   6.552  0.4116  1.6915 -1.1747
 8189SOL     OW36202   2.556   4.125   2.574  0.1422  0.5387  0.0414
 8189SOL    HW136203   2.476   4.159   2.613 -0.1917 -0.7710  0.4909
 8189SOL    HW236204   2.624   4.166   2.627  0.2549 -0.2111  0.4749
 8190SOL     OW36205   4.320   0.203   2.262  0.0774 -0.3475  0.1265
 8190SOL    HW136206   4.311   0.223   2.355  0.8305  2.3163 -0.3881
 8190SOL    HW236207   4.315   0.291   2.225  1.7010 -0.2046  0.2414
 8191SOL     OW36208   0.221   2.780   4.463  0.1669 -0.0191 -0.3272
 8191SOL    HW136209   0.243   2.808   4.552  0.0097  0.8093 -0.5517
 8191SOL    HW236210   0.281   2.706   4.453  0.1847 -0.2206  1.2292
 8192SOL     OW36211   4.520   2.287  15.561  1.0948 -0.0198 -0.3095
 8192SOL    HW136212   4.491   2.376  15.579  2.3380  0.5241 -0.9431
 8192SOL    HW236213   4.449   2.231  15.592  1.7896  0.2384  1.7510
 8193SOL     OW36214   1.780   2.711  15.744  0.0614  0.3498  0.4615
 8193SOL    HW136215   1.769   2.804  15.723  2.3262  0.8449  1.3436
 8193SOL    HW236216   1.784   2.669  15.659 -0.6460  0.5661  0.3238
 8194SOL     OW36217   0.661   4.490   6.318  0.4092 -0.3490 -0.5217
 8194SOL    HW136218   0.709   4.408   6.322  0.2271 -0.5829 -3.1708
 8194SOL    HW236219   0.677   4.516   6.227  1.5595  0.6472 -0.0441
 8195SOL     OW36220   3.240   2.552  11.053 -0.8909  0.4028  0.4634
 8195SOL    HW136221   3.198   2.492  10.992 -2.6511  1.2990  0.7843
 8195SOL    HW236222   3.334   2.532  11.052 -1.1654 -0.8733  0.6188
 8196SOL     OW36223   2.811   1.323   2.647  0.1720  0.2349 -0.1413
 8196SOL    HW136224   2.751   1.361   2.711 -0.2328 -0.3319 -0.1873
 8196SOL    HW236225   2.860   1.398   2.613  1.9111 -1.6777 -1.9354
 8197SOL     OW36226   3.251   4.241   4.797  0.0129 -0.0660 -0.2079
 8197SOL    HW136227   3.244   4.151   4.828 -1.3286 -0.0888 -0.5638
 8197SOL    HW236228   3.201   4.289   4.863  1.3149  0.0683  0.6658
 8198SOL     OW36229   0.634   0.242   8.343  0.1827  0.4810  0.3838
 8198SOL    HW136230   0.580   0.172   8.380 -2.0604 -0.0282 -3.9242
 8198SOL    HW236231   0.711   0.227   8.397 -0.2007 -0.7392  0.5989
 8199SOL     OW36232   2.598   0.967   5.739 -0.4629 -0.4331 -0.6998
 8199SOL    HW136233   2.503   0.958   5.743 -0.5009 -0.2183 -1.1560
 8199SOL    HW236234   2.620   0.880   5.771 -0.7547  0.6655  2.5495
 8200SOL     OW36235   3.738   1.996   2.740  0.1171  0.3142 -0.0187
 8200SOL    HW136236   3.679   2.065   2.709  0.5999  0.6657 -0.1523
 8200SOL    HW236237   3.693   1.914   2.720 -0.7218  0.8958 -0.5018
 8201SOL     OW36238   2.597   0.738  11.096  0.0467  0.3806 -0.1049
 8201SOL    HW136239   2.644   0.769  11.019  2.3765  1.7848  1.9040
 8201SOL    HW236240   2.652   0.775  11.165  0.1476  0.5237 -0.2610
 8202SOL     OW36241   1.184   0.408  13.127 -0.0461  0.0778  0.5428
 8202SOL    HW136242   1.200   0.501  13.107 -1.0292 -0.0772 -1.0313
 8202SOL    HW236243   1.171   0.384  13.035  2.3630 -2.0792  0.7839
 8203SOL     OW36244   2.186   2.948   1.833 -0.5243 -0.6469  0.1493
 8203SOL    HW136245   2.181   2.895   1.754 -0.8386 -3.4603  2.0467
 8203SOL    HW236246   2.262   2.919   1.883  2.9734  3.6957 -2.7519
 8204SOL     OW36247   0.250   3.491  14.549  0.0619  0.2526  0.1575
 8204SOL    HW136248   0.294   3.519  14.630 -0.9042  0.8253  0.4862
 8204SOL    HW236249   0.320   3.492  14.484 -0.1315 -2.1012 -0.0749
 8205SOL     OW36250   4.603   0.093   1.657  0.6645  0.4362  0.3118
 8205SOL    HW136251   4.695   0.089   1.632  0.5130  0.5169 -0.2671
 8205SOL    HW236252   4.556   0.022   1.613 -0.0854  0.9146  0.3268
 8206SOL     OW36253   0.635   0.541   7.997  0.3608  0.0771  0.0328
 8206SOL    HW136254   0.688   0.477   7.949  1.2064 -0.0946  1.1894
 8206SOL    HW236255   0.642   0.499   8.083 -0.5098  2.1080  1.1085
 8207SOL     OW36256   1.639   2.100   3.624  0.5237  0.0283  0.2693
 8207SOL    HW136257   1.563   2.047   3.600 -0.3788  1.5252 -0.1846
 8207SOL    HW236258   1.590   2.181   3.641  0.3263  0.1272 -0.7704
 8208SOL     OW36259   4.695   4.075   2.259 -0.5662 -0.4897 -0.5446
 8208SOL    HW136260   4.694   4.136   2.332 -0.5977 -1.2361  0.0769
 8208SOL    HW236261   4.697   4.137   2.186 -0.1685 -0.0034 -0.1271
 8209SOL     OW36262   4.654   0.273   1.981 -0.8604 -0.4635 -0.1862
 8209SOL    HW136263   4.721   0.213   1.949 -0.0538  1.5007 -2.1399
 8209SOL    HW236264   4.585   0.214   2.012  0.8336 -1.7413  1.0956
 8210SOL     OW36265   1.746   2.591   6.164 -0.4862 -0.0992 -0.2777
 8210SOL    HW136266   1.656   2.597   6.130 -0.3787  2.3574 -0.1192
 8210SOL    HW236267   1.743   2.649   6.239 -0.2083 -0.5540  0.0797
 8211SOL     OW36268   1.963   4.710   6.374 -0.1167 -0.0367 -0.3008
 8211SOL    HW136269   2.031   4.677   6.433 -2.2356 -1.5680  1.2878
 8211SOL    HW236270   1.993   0.064   6.356 -0.5101  0.6510  2.3839
 8212SOL     OW36271   4.096   3.519   7.028 -0.0305 -0.5257 -0.0078
 8212SOL    HW136272   4.027   3.531   6.963 -2.7150  0.1026  2.9729
 8212SOL    HW236273   4.137   3.435   7.008 -1.0177 -1.1040  0.4530
 8213SOL     OW36274   0.003   1.848   1.790 -0.1748  0.0303 -0.0201
 8213SOL    HW136275   0.093   1.843   1.759 -0.3769 -1.2349 -0.4071
 8213SOL    HW236276   0.025   1.849   1.883  3.7700  1.1978 -0.9577
 8214SOL     OW36277   2.953   2.906  13.230  1.1228 -0.0792  0.1532
 8214SOL    HW136278   2.866   2.917  13.192  0.6875 -1.6244  0.7350
 8214SOL    HW236279   3.008   2.890  13.153 -0.7252 -0.4801 -1.0567
 8215SOL     OW36280   2.830   3.555   5.468  0.5482  0.2441  0.3748
 8215SOL    HW136281   2.888   3.571   5.543  0.4355 -0.7874  0.6736
 8215SOL    HW236282   2.775   3.485   5.502  1.5673 -0.0729  1.3546
 8216SOL     OW36283   1.740   2.732   2.547  0.4185  0.2175  0.1106
 8216SOL    HW136284   1.688   2.701   2.473 -0.9582 -2.3392  2.1563
 8216SOL    HW236285   1.670   2.761   2.605  0.6878  0.3344  0.3765
 8217SOL     OW36286   2.989   1.853   8.833 -0.2235  0.6533  0.7957
 8217SOL    HW136287   3.022   1.774   8.789 -1.1241  1.4774 -1.3398
 8217SOL    HW236288   2.966   1.812   8.917  1.2846 -0.1403  0.8325
 8218SOL     OW36289   0.915   3.893   2.906 -0.4717 -0.0561 -0.0530
 8218SOL    HW136290   0.897   3.910   2.813  1.2507 -0.9961 -0.5562
 8218SOL    HW236291   0.904   3.799   2.916  0.5406 -0.1622  0.0388
 8219SOL     OW36292   1.394   2.094   2.477  0.5400 -0.0006 -0.3707
 8219SOL    HW136293   1.309   2.083   2.435  0.3971 -1.4874  0.3023
 8219SOL    HW236294   1.369   2.149   2.551  0.6984 -1.2821  0.6491
 8220SOL     OW36295   2.354   4.112   1.233 -0.2770 -0.0325 -0.3112
 8220SOL    HW136296   2.385   4.022   1.221 -0.7701 -0.7946  4.2219
 8220SOL    HW236297   2.435   4.157   1.257 -1.6854  1.8252  0.9229
 8221SOL     OW36298   0.582   0.395  15.217  0.1301 -0.4194 -0.0482
 8221SOL    HW136299   0.556   0.410  15.308  3.1522  1.7584  0.4122
 8221SOL    HW236300   0.552   0.304  15.207 -2.7503  0.7260 -2.0066
 8222SOL     OW36301   1.494   0.811   0.836  0.2502  0.1258  0.6315
 8222SOL    HW136302   1.563   0.745   0.846  1.0835  0.9439  0.2480
 8222SOL    HW236303   1.433   0.771   0.898  1.3474 -0.7991  1.1114
 8223SOL     OW36304   0.506   2.993   5.162  0.4647  0.1499  0.0785
 8223SOL    HW136305   0.567   3.008   5.234  0.1335  1.7577  0.0111
 8223SOL    HW236306   0.572   2.962   5.100 -0.3971  0.7640 -1.1368
 8224SOL     OW36307   0.762   0.077   0.542 -0.3926 -0.2256  0.0030
 8224SOL    HW136308   0.799   0.138   0.606  1.8362 -1.0433 -0.5323
 8224SOL    HW236309   0.752   4.734   0.596  0.6466 -0.7889 -0.6307
 8225SOL     OW36310   1.772   2.802   0.706  0.2410  0.1478  0.6651
 8225SOL    HW136311   1.767   2.852   0.625 -1.6593 -1.5187 -0.2367
 8225SOL    HW236312   1.686   2.768   0.728  0.2070  0.4124  0.9313
 8226SOL     OW36313   0.521   2.430  15.119  0.2951  0.2027  0.0249
 8226SOL    HW136314   0.611   2.462  15.115  0.1429  0.6601  0.3211
 8226SOL    HW236315   0.515   2.346  15.073  2.4242  0.5225 -0.8542
 8227SOL     OW36316   4.305   3.767   3.653 -0.4446  0.5945 -0.1685
 8227SOL    HW136317   4.295   3.852   3.610  0.8562 -0.7861 -3.1715
 8227SOL    HW236318   4.309   3.785   3.747  1.8177  0.6031 -0.2679
 8228SOL     OW36319   2.250   3.901  13.217  0.1165 -0.7871  0.2573
 8228SOL    HW136320   2.242   3.832  13.283  0.1063 -1.2793 -0.2582
 8228SOL    HW236321   2.177   3.956  13.243  2.0142  1.1791  1.3914
 8229SOL     OW36322   0.733   0.191  14.043  0.2612 -0.4874 -0.1947
 8229SOL    HW136323   0.685   0.257  14.094  1.0085  0.9478 -1.3575
 8229SOL    HW236324   0.810   0.247  14.036 -0.0373 -0.0273  0.1626
 8230SOL     OW36325   3.080   1.592  12.996 -0.3584  0.1886  0.5380
 8230SOL    HW136326   3.139   1.542  13.052  0.9968  2.2418  0.9565
 8230SOL    HW236327   3.134   1.591  12.917 -0.3985 -0.1566  0.5143
 8231SOL     OW36328   3.304   1.563  11.114 -0.2164  0.4119  0.7936
 8231SOL    HW136329   3.331   1.591  11.202  0.3851  2.1612  0.0509
 8231SOL    HW236330   3.375   1.599  11.062  1.1839  0.5831  2.8167
 8232SOL     OW36331   2.014   1.296   3.315 -0.0996 -0.3354  0.4713
 8232SOL    HW136332   2.097   1.273   3.356  1.8024 -0.1178 -3.2501
 8232SOL    HW236333   1.992   1.374   3.366 -1.1837  0.3323 -0.9936
 8233SOL     OW36334   2.293   0.819  12.354 -0.0592  0.2745 -0.3390
 8233SOL    HW136335   2.369   0.776  12.314  0.6125  0.6260  0.5602
 8233SOL    HW236336   2.340   0.893  12.392 -0.5002  0.3368  0.0906
 8234SOL     OW36337   1.051   0.724  10.544 -0.1060 -0.1412  0.1110
 8234SOL    HW136338   1.071   0.752  10.454 -1.3664 -2.6089 -0.9301
 8234SOL    HW236339   1.133   0.734  10.591 -0.6575  1.2393  0.8025
 8235SOL     OW36340   4.262   1.437   4.893  0.1802 -0.1341 -0.3228
 8235SOL    HW136341   4.348   1.473   4.915 -0.1210  0.9647 -0.9388
 8235SOL    HW236342   4.264   1.422   4.799  0.7353 -2.3741  0.0323
 8236SOL     OW36343   1.634   4.424  12.635 -0.4388 -0.2985  0.3972
 8236SOL    HW136344   1.667   4.336  12.613 -1.5817 -0.6617  0.1103
 8236SOL    HW236345   1.539   4.420  12.630 -0.4568  1.6451 -1.0576
 8237SOL     OW36346   2.008   2.218   6.374 -0.8054  0.0484 -0.0872
 8237SOL    HW136347   1.938   2.232   6.437 -2.1313 -0.2838 -1.5087
 8237SOL    HW236348   2.078   2.187   6.433 -0.2180  0.4589 -0.5619
 8238SOL     OW36349   1.533   2.747   3.507 -0.0057 -0.6428  0.4053
 8238SOL    HW136350   1.573   2.791   3.432  0.3188 -1.5051  0.0658
 8238SOL    HW236351   1.580   2.664   3.502 -1.3927 -1.2824 -2.5104
 8239SOL     OW36352   1.024   2.208   3.455 -0.2098  0.4726 -0.2678
 8239SOL    HW136353   1.065   2.133   3.412  2.5810  2.7526 -1.6217
 8239SOL    HW236354   0.944   2.208   3.404 -0.9668 -0.6549  0.9355
 8240SOL     OW36355   1.072   4.286   0.350 -0.6019 -0.6755 -0.1104
 8240SOL    HW136356   1.065   4.202   0.394 -3.7308  0.3890  1.4443
 8240SOL    HW236357   1.039   4.266   0.263 -2.5943  1.3157  0.1827
 8241SOL     OW36358   1.445   2.025   1.815  0.4259 -0.1771 -0.3305
 8241SOL    HW136359   1.520   2.060   1.864 -0.6474  1.6255  0.0148
 8241SOL    HW236360   1.396   1.995   1.891 -0.7776 -1.0398 -1.4578
 8242SOL     OW36361   0.396   2.840  11.310 -0.0652  0.0155 -0.6219
 8242SOL    HW136362   0.327   2.872  11.251 -0.1278 -0.7809 -0.9814
 8242SOL    HW236363   0.457   2.788  11.259 -1.1234 -0.5358 -1.3398
 8243SOL     OW36364   3.399   4.107   9.266 -0.0772 -1.1946  0.3753
 8243SOL    HW136365   3.344   4.155   9.204  0.1215  0.1513  1.2634
 8243SOL    HW236366   3.334   4.078   9.330  1.1970 -0.4010  1.9928
 8244SOL     OW36367   0.854   0.741   7.976 -0.5140  0.7759 -0.4093
 8244SOL    HW136368   0.776   0.697   8.012 -0.4942  1.4637  0.4801
 8244SOL    HW236369   0.860   0.711   7.886  0.7864 -0.9136  0.2418
 8245SOL     OW36370   1.534   4.630   5.103 -0.2875  0.4306  0.2979
 8245SOL    HW136371   1.524   4.604   5.012 -0.8392  0.7666  0.2579
 8245SOL    HW236372   1.564   4.549   5.143 -1.9977 -0.5426 -0.4190
 8246SOL     OW36373   1.182   0.278  17.248  0.9675  0.2260 -0.5806
 8246SOL    HW136374   1.263   0.292  17.296  1.8856  1.4296 -2.4537
 8246SOL    HW236375   1.187   0.183  17.249  1.2753  0.2355 -1.0773
 8247SOL     OW36376   1.762   1.232   2.542  0.3720  0.3661  0.3038
 8247SOL    HW136377   1.723   1.297   2.600  0.4557  0.1986  0.5490
 8247SOL    HW236378   1.748   1.159   2.602 -0.0246  0.0023 -0.2274
 8248SOL     OW36379   4.657   1.786  12.095 -0.0297  0.2132  0.3281
 8248SOL    HW136380   4.722   1.745  12.038  0.3852  2.1750 -0.6166
 8248SOL    HW236381   4.654   1.874  12.056 -1.6951  0.1323  0.2742
 8249SOL     OW36382   0.368   3.611   8.412 -0.2336  0.3863  0.3146
 8249SOL    HW136383   0.315   3.640   8.486 -0.7703  1.3146 -0.4350
 8249SOL    HW236384   0.425   3.684   8.388 -2.4967  2.2823  0.7529
 8250SOL     OW36385   3.384   1.331   8.617  0.0934  0.1230 -0.2810
 8250SOL    HW136386   3.387   1.370   8.704  1.7957  0.5741 -0.5441
 8250SOL    HW236387   3.449   1.262   8.626 -1.0076 -0.7725  0.6549
 8251SOL     OW36388   2.035   3.555   4.610  0.2392 -0.1089  0.1287
 8251SOL    HW136389   1.941   3.542   4.624  0.6308 -2.1036  0.8616
 8251SOL    HW236390   2.054   3.646   4.636  1.0115 -0.6237  1.4029
 8252SOL     OW36391   2.794   1.153   4.940  0.0828 -0.0279  0.1455
 8252SOL    HW136392   2.811   1.239   4.903  1.4758 -0.4279 -0.1746
 8252SOL    HW236393   2.802   1.105   4.858 -1.6539 -0.2860  0.1306
 8253SOL     OW36394   2.687   2.989   8.863  0.6886  0.0763 -0.3003
 8253SOL    HW136395   2.766   2.936   8.876 -0.5584 -0.9498  3.0274
 8253SOL    HW236396   2.703   3.057   8.928 -0.5275 -0.5931  0.7037
 8254SOL     OW36397   4.037   2.831   7.394 -0.1785  0.4181 -0.0763
 8254SOL    HW136398   3.974   2.816   7.464  1.7268 -1.7095  1.1942
 8254SOL    HW236399   3.978   2.796   7.328  1.8062  0.5783 -1.9539
 8255SOL     OW36400   1.641   1.059   2.349  0.2015 -0.1519 -0.7532
 8255SOL    HW136401   1.679   1.074   2.262 -1.0790  0.1761 -1.2485
 8255SOL    HW236402   1.708   1.093   2.409 -1.4103  1.8980 -0.1552
 8256SOL     OW36403   4.394   3.177  14.893 -0.2500 -0.5253 -0.0879
 8256SOL    HW136404   4.385   3.143  14.982 -0.2682 -1.9338 -0.6316
 8256SOL    HW236405   4.308   3.216  14.875 -0.7145 -0.6977  1.6993
 8257SOL     OW36406   0.394   2.102   1.796  0.4416 -0.3265  0.2007
 8257SOL    HW136407   0.306   2.114   1.832  1.2781  1.4460  1.6709
 8257SOL    HW236408   0.438   2.053   1.866 -0.4417 -0.0272  0.9551
 8258SOL     OW36409   0.166   0.740   6.900 -0.4904 -0.3589  0.2682
 8258SOL    HW136410   0.147   0.647   6.900  0.3118 -0.5112 -3.1864
 8258SOL    HW236411   0.262   0.736   6.905 -0.3503 -0.0141 -2.2755
 8259SOL     OW36412   3.444   0.062   4.802 -0.1070  0.0187 -0.4605
 8259SOL    HW136413   3.388   0.100   4.869  1.1734  2.9146 -1.0449
 8259SOL    HW236414   3.532   0.098   4.813 -0.4679  0.8779 -0.3561
 8260SOL     OW36415   2.496   1.039  12.412 -0.1596  0.1580  0.0442
 8260SOL    HW136416   2.577   1.041  12.463 -0.5951  0.7377  0.7112
 8260SOL    HW236417   2.542   1.050  12.329 -1.2167  0.6075 -0.4820
 8261SOL     OW36418   1.516   3.290   2.035 -0.1555 -0.0144  0.0800
 8261SOL    HW136419   1.426   3.297   2.005  0.5706 -1.3506 -2.3506
 8261SOL    HW236420   1.561   3.221   1.985  1.0844  1.3531 -0.6775
 8262SOL     OW36421   2.374   2.816   2.001  0.1522 -0.2325 -0.0480
 8262SOL    HW136422   2.456   2.835   2.047  0.6245  0.1393 -1.0424
 8262SOL    HW236423   2.397   2.774   1.918  1.4537 -2.1322  1.2618
 8263SOL     OW36424   1.984   2.871   7.430 -0.0710  0.0649  0.4655
 8263SOL    HW136425   1.960   2.944   7.373  0.8596  0.5354  0.6789
 8263SOL    HW236426   1.904   2.863   7.481 -1.2949  1.2774 -1.2644
 8264SOL     OW36427   0.257   1.754  14.534 -0.2120 -0.1558 -0.4575
 8264SOL    HW136428   0.227   1.699  14.462  0.4878 -2.5049  1.0234
 8264SOL    HW236429   0.182   1.769  14.593  1.4805 -1.1376  1.9612
 8265SOL     OW36430   2.726   1.827  13.979  0.3474  0.0145 -0.1686
 8265SOL    HW136431   2.779   1.765  13.929 -0.3137 -0.2664 -0.5135
 8265SOL    HW236432   2.782   1.834  14.056 -1.0406  0.9405  0.7483
 8266SOL     OW36433   0.363   3.200   3.347 -0.4662  0.2523  0.1784
 8266SOL    HW136434   0.344   3.226   3.437 -0.5591 -3.1956  1.1387
 8266SOL    HW236435   0.408   3.117   3.365  0.3130  1.0602  1.9662
 8267SOL     OW36436   0.763   4.194   6.960  0.1224  0.1646  0.2251
 8267SOL    HW136437   0.786   4.280   6.924  0.2211  0.5364  1.1733
 8267SOL    HW236438   0.767   4.221   7.051  0.6320 -1.4566  0.6761
 8268SOL     OW36439   3.608   2.294   1.607 -0.0985  0.3804  0.0717
 8268SOL    HW136440   3.701   2.314   1.592  0.6919 -1.8822  1.9510
 8268SOL    HW236441   3.588   2.212   1.562  1.6621 -0.0498  0.0525
 8269SOL     OW36442   3.378   1.153   0.179 -0.0398  0.5963  0.5313
 8269SOL    HW136443   3.436   1.092   0.224 -1.2365 -1.2495 -0.4401
 8269SOL    HW236444   3.323   1.091   0.131 -1.3756  1.4243  0.9715
 8270SOL     OW36445   0.143   3.503   2.661 -0.3442  0.4305 -0.1954
 8270SOL    HW136446   0.159   3.589   2.699  0.0246 -0.0431  0.7383
 8270SOL    HW236447   0.071   3.526   2.602 -0.9030  1.5097  0.9066
 8271SOL     OW36448   2.230   3.552   5.285 -0.1605  0.0198  0.2246
 8271SOL    HW136449   2.315   3.568   5.243  0.7327  0.2131  2.0842
 8271SOL    HW236450   2.240   3.614   5.357 -0.7977  2.4909 -1.8073
 8272SOL     OW36451   1.702   1.597   7.209  0.0426  0.3999 -0.3561
 8272SOL    HW136452   1.631   1.562   7.155  1.0836 -1.3419 -0.5995
 8272SOL    HW236453   1.750   1.633   7.135  0.3248  0.7956  0.0182
 8273SOL     OW36454   1.613   1.513   7.637 -0.0503  0.3595 -0.2278
 8273SOL    HW136455   1.662   1.592   7.660  1.0783 -0.9050  1.7302
 8273SOL    HW236456   1.628   1.462   7.717  0.2728 -1.2514 -1.3116
 8274SOL     OW36457   1.329   3.549  11.627  0.0687  0.4200  0.5128
 8274SOL    HW136458   1.372   3.533  11.543 -1.5736  1.0973 -0.4697
 8274SOL    HW236459   1.387   3.513  11.694 -0.0066 -2.4264 -0.9591
 8275SOL     OW36460   2.551   3.766  10.564 -0.4723  0.2375  0.3888
 8275SOL    HW136461   2.496   3.764  10.486 -0.2026 -1.3255  0.2419
 8275SOL    HW236462   2.493   3.810  10.626  1.2231  2.8057  0.1638
 8276SOL     OW36463   0.655   4.212   7.469 -0.0108  0.2022  0.2830
 8276SOL    HW136464   0.560   4.199   7.466 -0.2456  2.0829 -0.0825
 8276SOL    HW236465   0.678   4.128   7.509 -0.1663  0.9546  1.9409
 8277SOL     OW36466   3.003   4.321  16.101  0.4319  0.5251 -0.4420
 8277SOL    HW136467   3.047   4.403  16.124 -0.9754  1.8849 -2.5975
 8277SOL    HW236468   2.958   4.348  16.020 -0.2984 -0.0594 -0.2353
 8278SOL     OW36469   2.601   2.592  16.795  0.1932  0.0645  0.1926
 8278SOL    HW136470   2.616   2.615  16.703 -2.1437  0.2573 -0.1286
 8278SOL    HW236471   2.694   2.592  16.819  0.1395  1.0859  0.4152
 8279SOL     OW36472   2.551   3.121   4.953  0.2411 -0.3970  0.3443
 8279SOL    HW136473   2.578   3.176   4.879  1.9520  0.2578  1.4512
 8279SOL    HW236474   2.503   3.180   5.010 -2.7589 -2.2610 -0.2888
 8280SOL     OW36475   4.682   1.780  12.368 -0.5718  0.2805  0.0707
 8280SOL    HW136476   4.670   1.686  12.382 -1.0995  0.2049 -0.9666
 8280SOL    HW236477   4.728   1.782  12.284  0.0506 -0.6813  0.3785
 8281SOL     OW36478   0.320   4.309   6.905 -0.3202  1.2556  0.6530
 8281SOL    HW136479   0.410   4.292   6.880 -1.4937 -0.4797 -2.3970
 8281SOL    HW236480   0.334   4.324   6.999 -1.0608  0.0376  0.9670
 8282SOL     OW36481   2.458   2.753  14.072  0.2309  0.2197 -0.6953
 8282SOL    HW136482   2.379   2.701  14.087 -1.1317  2.2205 -0.8393
 8282SOL    HW236483   2.422   2.836  14.040  0.1550 -0.1985 -1.6841
 8283SOL     OW36484   4.027   1.364  17.233  0.2117 -0.0333  0.1438
 8283SOL    HW136485   4.087   1.295  17.262  2.2316  1.0194 -1.5250
 8283SOL    HW236486   4.005   1.402  17.318 -0.4850  1.4073 -0.6770
 8284SOL     OW36487   3.331   0.641   5.038 -0.1628 -0.5392 -0.2982
 8284SOL    HW136488   3.353   0.697   5.111  0.8672 -0.2511 -0.8259
 8284SOL    HW236489   3.274   0.569   5.066 -1.9616  1.3066  0.6905
 8285SOL     OW36490   1.095   2.535   3.537  0.3155 -0.1280  0.6255
 8285SOL    HW136491   1.117   2.625   3.562 -1.3086  0.4263  0.0801
 8285SOL    HW236492   1.009   2.517   3.576  0.0371  0.9031  0.5081
 8286SOL     OW36493   1.104   4.012   9.153  0.2331  0.1170  0.2178
 8286SOL    HW136494   1.113   4.107   9.142 -0.6706  0.4299  2.3710
 8286SOL    HW236495   1.199   3.997   9.157  0.4458  1.9949  2.2211
 8287SOL     OW36496   3.089   2.151   4.030 -0.2707  0.4769 -0.0332
 8287SOL    HW136497   3.068   2.209   4.103  0.8100 -1.3615  1.7334
 8287SOL    HW236498   3.066   2.070   4.076 -2.3804  0.3153 -1.3722
 8288SOL     OW36499   3.492   1.278   3.412  0.3314 -0.5386  0.1566
 8288SOL    HW136500   3.542   1.345   3.458  0.4850  0.0323 -0.8438
 8288SOL    HW236501   3.448   1.338   3.352 -1.0179  0.3519  2.0372
 8289SOL     OW36502   2.148   3.545   4.032  0.2368 -0.4841  0.5420
 8289SOL    HW136503   2.241   3.565   4.019  0.3402 -2.0794 -1.1568
 8289SOL    HW236504   2.130   3.600   4.108 -0.0465  1.0933 -0.6614
 8290SOL     OW36505   2.842   2.410  11.868  0.3011 -0.3187 -0.7987
 8290SOL    HW136506   2.831   2.428  11.961  0.0872  0.6558 -1.0139
 8290SOL    HW236507   2.831   2.498  11.832  0.1137 -1.1912 -2.8455
 8291SOL     OW36508   3.964   1.125  16.685 -0.1255 -0.3920  0.4331
 8291SOL    HW136509   3.883   1.076  16.695 -1.0012  1.2368  1.3953
 8291SOL    HW236510   3.993   1.106  16.774 -1.2050  1.1092  1.0969
 8292SOL     OW36511   3.212   3.538   4.853  0.4330 -0.2193  0.1489
 8292SOL    HW136512   3.280   3.591   4.895 -2.0821  1.9185  1.5021
 8292SOL    HW236513   3.236   3.448   4.876  1.2038 -0.0331  0.0670
 8293SOL     OW36514   2.634   0.909   8.896 -0.0194  0.1266  0.1396
 8293SOL    HW136515   2.559   0.919   8.837 -0.0350  3.2519  0.7116
 8293SOL    HW236516   2.595   0.850   8.961  1.1099 -0.1768  0.5384
 8294SOL     OW36517   1.989   1.752   4.601 -0.3301  0.4432  0.2979
 8294SOL    HW136518   1.927   1.808   4.649 -0.1766  1.1522 -0.3251
 8294SOL    HW236519   2.075   1.782   4.631 -0.4011  0.7513  0.1878
 8295SOL     OW36520   0.312   3.397  17.618  0.0004  0.5567  0.0411
 8295SOL    HW136521   0.384   3.418  17.557 -0.1432 -1.6473 -0.8864
 8295SOL    HW236522   0.340   3.309  17.644  1.5336  0.7309 -0.9652
 8296SOL     OW36523   2.384   2.913  13.293  0.0267  0.1063  0.0337
 8296SOL    HW136524   2.317   2.971  13.330 -0.7114 -0.1842 -0.8531
 8296SOL    HW236525   2.436   2.967  13.233 -0.5069 -0.6779 -1.1393
 8297SOL     OW36526   2.689   2.226   5.731 -0.3856 -0.2229 -0.5559
 8297SOL    HW136527   2.765   2.227   5.673 -0.6174  1.4785 -0.8461
 8297SOL    HW236528   2.660   2.136   5.719 -0.6997 -0.5031  2.2191
 8298SOL     OW36529   4.546   0.462  17.208 -0.0001 -0.5532 -0.0157
 8298SOL    HW136530   4.491   0.442  17.284 -0.0168  0.4871  0.2474
 8298SOL    HW236531   4.636   0.470  17.242  0.5954 -2.5993 -1.1063
 8299SOL     OW36532   0.135   1.154   2.455 -0.4704  0.1419  0.0013
 8299SOL    HW136533   0.184   1.236   2.454  0.1125 -0.1900  1.1843
 8299SOL    HW236534   0.202   1.096   2.419  1.4205  2.6466 -0.5430
 8300SOL     OW36535   2.156   4.510   4.450 -0.3450 -0.4456  0.2620
 8300SOL    HW136536   2.248   4.486   4.436  0.3932  1.9658  1.0224
 8300SOL    HW236537   2.175   4.597   4.485  0.5954 -0.8767  0.8243
 8301SOL     OW36538   0.212   2.616  13.529  0.5195 -0.0731  0.4693
 8301SOL    HW136539   0.290   2.614  13.585 -0.1296  1.3279  1.4214
 8301SOL    HW236540   0.169   2.698  13.551 -0.4964 -0.9136  1.6302
 8302SOL     OW36541   1.325   2.859   5.034  0.4446  0.3917 -0.0672
 8302SOL    HW136542   1.387   2.931   5.031  0.2167  0.6332  0.9819
 8302SOL    HW236543   1.247   2.905   5.003 -0.4856 -1.4961 -0.5851
 8303SOL     OW36544   1.940   2.382  14.825  0.8526  0.3326 -0.5049
 8303SOL    HW136545   1.920   2.463  14.779  0.1152  0.7809  0.6152
 8303SOL    HW236546   1.854   2.345  14.844  0.4249  1.4858 -0.2010
 8304SOL     OW36547   3.470   2.425   2.474  0.1206 -0.2225  0.1643
 8304SOL    HW136548   3.436   2.354   2.419  2.6194 -0.1292 -1.4806
 8304SOL    HW236549   3.556   2.386   2.492 -1.3656 -2.7096  1.8959
 8305SOL     OW36550   1.154   1.203  10.547  0.1263  0.7963 -0.3144
 8305SOL    HW136551   1.222   1.265  10.520  1.0486 -0.7554 -1.5809
 8305SOL    HW236552   1.205   1.136  10.593 -3.2097 -1.2239  0.3812
 8306SOL     OW36553   2.253   2.704   9.537  0.2157 -0.6090  0.1001
 8306SOL    HW136554   2.204   2.626   9.511  0.1970 -0.7905  0.6886
 8306SOL    HW236555   2.181   2.759   9.569  0.1339 -1.1909  0.9379
 8307SOL     OW36556   1.835   0.287  17.208 -0.1637  0.3517  0.2974
 8307SOL    HW136557   1.790   0.210  17.175 -0.5489  0.6612  0.0892
 8307SOL    HW236558   1.911   0.293  17.150 -0.3371 -1.9135 -0.1368
 8308SOL     OW36559   2.431   4.639   2.316  0.5633  0.0667 -0.5944
 8308SOL    HW136560   2.404   4.646   2.224  0.5775 -0.4355 -0.6371
 8308SOL    HW236561   2.407   4.721   2.359 -0.4094  0.1711 -1.3307
 8309SOL     OW36562   3.886   1.805   6.158 -0.3331  0.5573 -0.3686
 8309SOL    HW136563   3.828   1.742   6.114 -1.5514  1.5877 -0.2313
 8309SOL    HW236564   3.963   1.751   6.174 -0.7812  0.1299  0.3796
 8310SOL     OW36565   4.006   1.138  12.403  0.0428  0.5362  0.1206
 8310SOL    HW136566   4.014   1.074  12.474 -0.8862  0.4056  0.1067
 8310SOL    HW236567   4.095   1.173  12.400  0.5811 -0.8185  0.3719
 8311SOL     OW36568   2.092   2.990   1.432  0.2986 -0.1840  0.4535
 8311SOL    HW136569   2.041   2.980   1.513  0.9086 -1.6283  0.6514
 8311SOL    HW236570   2.132   3.075   1.451  0.3717 -0.0459 -0.3507
 8312SOL     OW36571   2.406   2.798   9.899  0.4583 -0.5002 -0.2541
 8312SOL    HW136572   2.390   2.811   9.992  3.1859  1.1135  0.0021
 8312SOL    HW236573   2.468   2.870   9.884  0.0493  0.2179  1.5411
 8313SOL     OW36574   0.091   4.022   7.410 -0.0856 -0.0671  0.2470
 8313SOL    HW136575   4.735   4.048   7.398 -0.3992  0.4677  3.6846
 8313SOL    HW236576   0.139   4.101   7.382  1.7099 -0.9192  0.9041
 8314SOL     OW36577   4.270   0.130   2.754  0.7152  0.2329  0.1973
 8314SOL    HW136578   4.185   0.115   2.796  0.8692 -2.5460 -0.4897
 8314SOL    HW236579   4.314   0.191   2.814  0.9787 -0.2108  0.4601
 8315SOL     OW36580   4.013   0.390  16.991  0.6432 -0.5753 -0.5424
 8315SOL    HW136581   3.971   0.409  17.075  2.3873 -2.2415  0.7415
 8315SOL    HW236582   4.105   0.374  17.014  0.3041 -0.9570  0.5267
 8316SOL     OW36583   2.740   2.972   5.846 -0.0054  0.5298  0.2848
 8316SOL    HW136584   2.762   2.978   5.753 -0.5841  5.0790  0.4509
 8316SOL    HW236585   2.693   2.889   5.839 -0.1078  0.7364 -1.3939
 8317SOL     OW36586   4.578   0.280  15.354 -0.1808  0.0046  0.5091
 8317SOL    HW136587   4.549   0.216  15.419 -0.7248  0.5408  0.7912
 8317SOL    HW236588   4.630   0.332  15.414  2.7016 -0.8165 -1.2581
 8318SOL     OW36589   1.966   3.265   6.682  0.6305  0.0034 -0.6060
 8318SOL    HW136590   1.876   3.287   6.703 -0.0929 -0.3728 -3.3473
 8318SOL    HW236591   2.002   3.333   6.739 -1.4838  2.4370 -2.1775
 8319SOL     OW36592   2.567   2.566   6.190  0.1792  0.1975 -0.0265
 8319SOL    HW136593   2.474   2.545   6.191  0.6985 -2.1388 -1.1097
 8319SOL    HW236594   2.565   2.656   6.157 -0.2659  0.0621 -0.3795
 8320SOL     OW36595   2.469   2.714   2.792 -0.1852 -0.0494  0.0066
 8320SOL    HW136596   2.452   2.721   2.698  2.4256  1.4062 -0.3569
 8320SOL    HW236597   2.496   2.805   2.807  2.4282 -1.0041  1.0075
 8321SOL     OW36598   0.622   2.540   4.651 -0.3935  0.1195  0.0135
 8321SOL    HW136599   0.529   2.521   4.656 -0.2409 -0.6146  0.1024
 8321SOL    HW236600   0.628   2.632   4.677 -0.3893 -0.1965  1.1197
 8322SOL     OW36601   3.420   0.598   2.135 -0.6479  0.0187  0.0207
 8322SOL    HW136602   3.449   0.689   2.148 -0.3985 -0.2161  1.1057
 8322SOL    HW236603   3.442   0.591   2.042  0.9484 -0.8422  0.4674
 8323SOL     OW36604   1.132   1.569   8.296 -0.0126  0.3695  0.0432
 8323SOL    HW136605   1.157   1.580   8.388 -0.3342 -0.0181  0.1782
 8323SOL    HW236606   1.217   1.545   8.260 -0.8832  0.1292 -1.8117
 8324SOL     OW36607   3.287   3.755   3.235 -0.1834 -0.3485  0.2349
 8324SOL    HW136608   3.202   3.712   3.240 -0.1948 -0.3775 -0.2849
 8324SOL    HW236609   3.311   3.743   3.143  0.0584 -0.7056  0.3416
 8325SOL     OW36610   3.030   3.725  11.991 -0.0095  0.2605  0.2638
 8325SOL    HW136611   2.948   3.682  11.967 -1.1851  2.1086  0.9736
 8325SOL    HW236612   3.049   3.683  12.075 -2.4866  1.2085  1.2908
 8326SOL     OW36613   3.591   4.036   3.957 -0.1585  0.1787  0.2267
 8326SOL    HW136614   3.512   4.014   3.907  0.3978 -1.7883  0.1956
 8326SOL    HW236615   3.620   4.115   3.911  0.2570 -0.1482 -0.0826
 8327SOL     OW36616   3.685   2.090  10.309  0.1751  0.2722 -0.3994
 8327SOL    HW136617   3.689   2.139  10.391  0.6938  2.1830 -1.5654
 8327SOL    HW236618   3.716   2.006  10.342 -2.3949  0.5760  2.7402
 8328SOL     OW36619   4.358   1.822  14.991  0.0165  0.0779 -0.4144
 8328SOL    HW136620   4.425   1.886  14.965 -0.0045  0.8922  1.6112
 8328SOL    HW236621   4.301   1.864  15.054  1.1087  0.4955  0.3035
 8329SOL     OW36622   1.605   2.652  15.944 -0.3090 -0.3599 -0.3217
 8329SOL    HW136623   1.681   2.690  15.900  0.2246  0.3365  1.2302
 8329SOL    HW236624   1.601   2.570  15.894  2.5775 -1.4136  1.1980
 8330SOL     OW36625   1.004   2.288   4.677  0.4751  0.5411 -0.1404
 8330SOL    HW136626   0.999   2.193   4.683  1.9296  0.4555 -0.3370
 8330SOL    HW236627   0.970   2.295   4.588 -0.9574 -1.6598  0.2508
 8331SOL     OW36628   3.378   0.449   1.213 -0.4070 -0.4871  0.1639
 8331SOL    HW136629   3.368   0.543   1.199 -0.3794 -0.3784  0.8503
 8331SOL    HW236630   3.358   0.415   1.126  0.8602  0.1336 -0.3627
 8332SOL     OW36631   0.325   3.434  13.833  0.6368 -0.3315 -0.0677
 8332SOL    HW136632   0.290   3.493  13.766  0.9332  0.5877  0.5868
 8332SOL    HW236633   0.272   3.450  13.911  0.7429  0.7154 -0.2085
 8333SOL     OW36634   2.209   1.597   2.171  0.0841  0.1355  0.0733
 8333SOL    HW136635   2.283   1.603   2.232 -0.0077  2.9558 -0.1111
 8333SOL    HW236636   2.246   1.649   2.100 -1.3858 -0.9168 -1.4704
 8334SOL     OW36637   1.072   3.567   4.741  0.0538  0.4368 -0.8179
 8334SOL    HW136638   1.004   3.601   4.683  0.0725  0.5163 -0.7922
 8334SOL    HW236639   1.113   3.498   4.688 -1.7976 -1.4916  0.2675
 8335SOL     OW36640   1.270   1.304   8.578 -0.3309 -0.2440  0.4771
 8335SOL    HW136641   1.225   1.389   8.570  0.2507  0.2258  2.0643
 8335SOL    HW236642   1.355   1.335   8.611 -0.0512 -2.2077  1.5933
 8336SOL     OW36643   1.420   1.231  12.011  0.1079  0.6040 -0.1170
 8336SOL    HW136644   1.460   1.317  12.003 -0.5253  0.9359  0.3227
 8336SOL    HW236645   1.386   1.233  12.100 -0.5218 -0.5018 -0.3320
 8337SOL     OW36646   1.894   3.301  15.131  0.1778  0.0736 -0.1021
 8337SOL    HW136647   1.892   3.269  15.221  0.1480  2.6706  0.7978
 8337SOL    HW236648   1.812   3.259  15.104  0.6071  1.2033 -3.1305
 8338SOL     OW36649   3.210   2.318   7.012  0.4400  0.1420 -0.4267
 8338SOL    HW136650   3.186   2.242   7.065  0.9364 -0.1779 -0.6576
 8338SOL    HW236651   3.185   2.388   7.072 -0.7232  0.1801 -0.9593
 8339SOL     OW36652   3.765   2.324   9.398 -0.3994 -0.3550  0.3103
 8339SOL    HW136653   3.814   2.278   9.466  0.3968 -1.9105 -1.3298
 8339SOL    HW236654   3.730   2.248   9.352 -1.4393  1.5073 -1.9818
 8340SOL     OW36655   4.671   0.788  15.870 -0.3056 -0.0906  0.3604
 8340SOL    HW136656   4.679   0.696  15.898  1.7410  0.3436  1.1944
 8340SOL    HW236657   4.576   0.793  15.860 -0.6819 -2.5883  2.7477
 8341SOL     OW36658   0.437   3.123   2.678  0.3314  0.1449 -0.3703
 8341SOL    HW136659   0.420   3.192   2.742 -0.6492 -0.9026  0.5026
 8341SOL    HW236660   0.529   3.103   2.696  0.3370  1.7262  1.3458
 8342SOL     OW36661   0.758   4.223  12.905  0.2235  0.1795  0.6317
 8342SOL    HW136662   0.685   4.244  12.964 -1.0028  1.3045 -1.2730
 8342SOL    HW236663   0.785   4.305  12.864 -2.7225  0.7237 -0.2305
 8343SOL     OW36664   1.543   1.376  12.623  0.1298 -0.0379  0.2830
 8343SOL    HW136665   1.472   1.313  12.606 -0.0655 -0.1468  1.4913
 8343SOL    HW236666   1.613   1.312  12.617  0.7916  0.7265 -0.1088
 8344SOL     OW36667   3.994   1.172   5.582  0.1840 -0.5454 -0.2884
 8344SOL    HW136668   4.023   1.206   5.498  0.6411 -0.6554 -0.1760
 8344SOL    HW236669   4.074   1.130   5.613  0.8669  1.2688  0.3898
 8345SOL     OW36670   3.762   2.894   5.967  0.2541  0.1647  0.1783
 8345SOL    HW136671   3.728   2.805   5.955 -0.2116  0.6101 -1.7276
 8345SOL    HW236672   3.843   2.894   5.916  0.2104 -0.7670  0.1067
 8346SOL     OW36673   3.142   1.404  17.360  0.1492  0.4979  0.2237
 8346SOL    HW136674   3.093   1.452  17.427 -1.6031 -1.8510  0.6334
 8346SOL    HW236675   3.187   1.331  17.401  1.0532  1.7560  1.4384
 8347SOL     OW36676   2.816   1.401   4.572 -0.7389  0.4474 -0.1921
 8347SOL    HW136677   2.904   1.428   4.598 -1.2380  0.2906  1.6904
 8347SOL    HW236678   2.780   1.366   4.654 -1.1685 -0.2140 -0.6533
 8348SOL     OW36679   4.593   1.698   6.073  0.1921 -0.5314  0.7541
 8348SOL    HW136680   4.598   1.689   5.978  1.3212 -2.4310  1.0007
 8348SOL    HW236681   4.536   1.775   6.065  0.7787 -0.1578  0.1998
 8349SOL     OW36682   2.749   1.786   3.894  0.7308  0.3849 -0.2502
 8349SOL    HW136683   2.775   1.727   3.823  2.7162  0.9048  0.0627
 8349SOL    HW236684   2.659   1.752   3.903  0.0391  2.7791  2.0023
 8350SOL     OW36685   1.012   4.553   6.987 -0.4049 -0.0211 -0.0093
 8350SOL    HW136686   1.046   4.499   7.059  0.7834  0.4183 -0.2441
 8350SOL    HW236687   1.010   4.643   7.021 -2.5933  0.2174 -0.7832
 8351SOL     OW36688   2.289   1.002  13.504 -0.0363  0.5615 -0.0479
 8351SOL    HW136689   2.281   0.939  13.432  1.4427 -0.4949  0.6918
 8351SOL    HW236690   2.215   1.060  13.490 -0.6156 -0.1797 -0.0184
 8352SOL     OW36691   0.067   0.950  14.746 -0.0743  0.4951  0.0777
 8352SOL    HW136692   4.732   0.886  14.755  1.3567 -0.8063  1.9296
 8352SOL    HW236693   0.095   0.963  14.837  0.6664  1.1686 -0.2488
 8353SOL     OW36694   4.724   0.537   4.646 -0.3480 -0.0677 -0.1709
 8353SOL    HW136695   4.689   0.498   4.726  0.9922  0.7506  0.8167
 8353SOL    HW236696   0.001   0.454   4.599 -2.1257 -1.0094  1.0706
 8354SOL     OW36697   2.100   4.238   7.438 -0.1956 -0.0207  0.2168
 8354SOL    HW136698   2.006   4.252   7.439  0.3129  3.2329  1.3930
 8354SOL    HW236699   2.126   4.323   7.401 -0.1945 -0.3678 -0.5815
 8355SOL     OW36700   3.514   1.490  12.222  0.6929  0.0252  0.5095
 8355SOL    HW136701   3.579   1.482  12.153  1.6546  1.6923  1.2091
 8355SOL    HW236702   3.453   1.555  12.187  0.7226  0.0048  0.4205
 8356SOL     OW36703   0.171   3.389   3.175 -0.1547 -0.6935 -0.4624
 8356SOL    HW136704   0.078   3.370   3.192  0.4559 -2.5606  0.7107
 8356SOL    HW236705   0.208   3.326   3.237 -1.5397 -0.6540  0.4154
 8357SOL     OW36706   0.236   2.335  17.324  0.0865  0.4307 -0.2550
 8357SOL    HW136707   0.271   2.396  17.389 -0.4769  0.8472 -0.3363
 8357SOL    HW236708   0.285   2.256  17.346  0.6017  1.4433  2.2453
 8358SOL     OW36709   4.625   2.045   2.606 -0.4327  0.5871  0.1609
 8358SOL    HW136710   4.531   2.065   2.600 -0.5792 -0.1562  0.0469
 8358SOL    HW236711   4.635   2.035   2.512 -1.5049  2.8005 -0.1951
 8359SOL     OW36712   2.750   1.139   5.904  0.1873  0.3567 -0.0137
 8359SOL    HW136713   2.727   1.090   5.983  1.9317 -2.1811 -1.0802
 8359SOL    HW236714   2.706   1.087   5.837  1.6033 -0.0610 -0.6154
 8360SOL     OW36715   4.733   1.953   7.567  0.4115  0.1250 -0.6983
 8360SOL    HW136716   0.023   1.932   7.477  1.6571  1.8307 -0.7469
 8360SOL    HW236717   0.041   2.037   7.580  1.3144 -0.4991  0.3378
 8361SOL     OW36718   0.196   3.131  10.000 -0.2982  0.2253  0.2459
 8361SOL    HW136719   0.182   3.043   9.966 -0.0298 -0.0703  0.8970
 8361SOL    HW236720   0.251   3.110  10.076  0.4216  2.0014  0.2098
 8362SOL     OW36721   2.194   2.018   5.027 -0.4012 -0.1973  0.1656
 8362SOL    HW136722   2.152   1.933   5.010 -0.1844 -0.4184  0.7212
 8362SOL    HW236723   2.193   2.061   4.942 -3.5732  0.8929  0.7355
 8363SOL     OW36724   4.250   1.643  15.639  0.7098 -0.2940 -0.5623
 8363SOL    HW136725   4.337   1.630  15.602  1.4919  0.7142  0.9255
 8363SOL    HW236726   4.269   1.611  15.728 -1.4760  0.8251  0.3158
 8364SOL     OW36727   1.101   4.685   5.636 -0.3923 -0.5213  0.2399
 8364SOL    HW136728   1.118   0.004   5.559  0.6536  0.7257  1.3341
 8364SOL    HW236729   1.007   4.672   5.625 -0.3834 -2.6617  2.8091
 8365SOL     OW36730   4.465   1.229  17.686  0.1599 -0.3190  0.6895
 8365SOL    HW136731   4.540   1.207  17.631  1.2660  0.7460  1.7797
 8365SOL    HW236732   4.496   1.260   0.031  0.8671  0.4132  0.1600
 8366SOL     OW36733   0.329   3.538   2.226 -0.1784 -0.5506 -0.1715
 8366SOL    HW136734   0.348   3.475   2.295 -1.5501 -0.3502  0.3995
 8366SOL    HW236735   0.314   3.618   2.277  0.6097 -0.2928 -0.3582
 8367SOL     OW36736   3.265   4.175  11.332  0.0684  0.5717  0.2078
 8367SOL    HW136737   3.272   4.198  11.239 -0.3057 -1.2654 -0.2698
 8367SOL    HW236738   3.215   4.242  11.380 -1.6731 -1.0311  0.6139
 8368SOL     OW36739   2.817   1.731   7.421 -0.3069  0.4498 -0.1147
 8368SOL    HW136740   2.857   1.768   7.342 -0.0765  0.1124 -0.1573
 8368SOL    HW236741   2.735   1.780   7.421 -1.7250 -1.9323 -1.2863
 8369SOL     OW36742   3.987   1.775  16.492 -0.3906 -0.6916  0.3778
 8369SOL    HW136743   3.944   1.689  16.495  0.8579 -1.4136 -2.6336
 8369SOL    HW236744   3.934   1.821  16.557  0.1491  1.2449 -0.5792
 8370SOL     OW36745   3.130   1.894   0.186  0.1526  0.1468 -0.0355
 8370SOL    HW136746   3.062   1.900   0.253  1.8727  1.1163  1.6165
 8370SOL    HW236747   3.145   1.982   0.151  1.0075 -0.8318 -2.1450
 8371SOL     OW36748   0.272   1.760   5.462 -0.3959  0.3627  0.2423
 8371SOL    HW136749   0.293   1.781   5.554 -1.3300  1.6742  0.1638
 8371SOL    HW236750   0.251   1.846   5.425 -0.8945 -0.1892 -0.7308
 8372SOL     OW36751   0.835   1.392   1.181 -0.7870 -0.6899 -0.7519
 8372SOL    HW136752   0.894   1.465   1.164  2.4840 -2.8817  1.2064
 8372SOL    HW236753   0.881   1.316   1.145  0.7167 -1.4931  2.9018
 8373SOL     OW36754   1.360   3.234   7.252 -0.1449 -0.1425 -0.0035
 8373SOL    HW136755   1.414   3.192   7.318 -1.1649  1.6487  1.9584
 8373SOL    HW236756   1.284   3.176   7.249 -0.3316  0.1035 -0.0115
 8374SOL     OW36757   1.353   4.366  11.659  0.7633 -0.0444 -0.2080
 8374SOL    HW136758   1.260   4.357  11.640  0.2846  2.1900  1.1176
 8374SOL    HW236759   1.382   4.408  11.578  0.1181  1.7354  0.4971
 8375SOL     OW36760   2.959   3.998  12.145 -0.1641  0.0598  0.4523
 8375SOL    HW136761   3.010   4.064  12.098  1.5266 -1.1066  0.6681
 8375SOL    HW236762   2.908   3.955  12.076 -0.0561  1.8459 -0.7600
 8376SOL     OW36763   1.514   3.839   3.410  0.1073  0.0268  0.0346
 8376SOL    HW136764   1.610   3.847   3.411  0.0011  1.5001 -1.1342
 8376SOL    HW236765   1.499   3.928   3.378 -2.9956 -0.5428 -0.0530
 8377SOL     OW36766   4.451   1.633   4.315 -0.4047 -0.5962 -0.0567
 8377SOL    HW136767   4.531   1.583   4.299  0.6389  0.2780  2.3731
 8377SOL    HW236768   4.428   1.625   4.408  1.8642 -0.0807  0.5493
 8378SOL     OW36769   1.877   0.836   1.047 -0.4243 -0.1236 -0.5951
 8378SOL    HW136770   1.894   0.859   1.138  0.2645 -1.2508 -0.4389
 8378SOL    HW236771   1.951   0.881   1.007 -0.0557  0.4886  0.8002
 8379SOL     OW36772   2.154   1.581   9.206 -0.3016 -0.2360 -0.2261
 8379SOL    HW136773   2.190   1.623   9.285 -1.1117  2.1256 -1.1219
 8379SOL    HW236774   2.064   1.610   9.218 -1.2544 -1.3208 -4.9085
 8380SOL     OW36775   0.352   0.018   8.109  0.2654 -0.0549 -0.7150
 8380SOL    HW136776   0.309   4.673   8.140  4.5469 -1.9851  0.2706
 8380SOL    HW236777   0.393   0.047   8.191 -1.1510  0.5372 -0.2028
 8381SOL     OW36778   3.302   3.920   8.297 -0.9779  0.2193  0.5252
 8381SOL    HW136779   3.390   3.954   8.278 -0.1273 -2.0244  0.3974
 8381SOL    HW236780   3.324   3.831   8.325  1.0056  0.4798 -0.1657
 8382SOL     OW36781   0.419   2.051  15.230 -0.0918 -0.2246 -0.0208
 8382SOL    HW136782   0.427   1.968  15.277  1.8761 -2.6868 -4.7847
 8382SOL    HW236783   0.334   2.050  15.187 -0.3983 -0.5168  0.5793
 8383SOL     OW36784   0.817   0.327   3.903 -0.6627 -0.0534  0.9516
 8383SOL    HW136785   0.883   0.384   3.864  0.4876 -1.8342  0.3173
 8383SOL    HW236786   0.771   0.406   3.932  1.6077  1.3166  0.8319
 8384SOL     OW36787   3.399   3.406   8.625  0.4542 -0.2865 -0.4099
 8384SOL    HW136788   3.323   3.454   8.660  1.3266 -0.4114  1.6741
 8384SOL    HW236789   3.356   3.335   8.578  1.2960 -0.9907 -0.1137
 8385SOL     OW36790   2.144   2.624   2.749  0.6256  0.4623 -0.5358
 8385SOL    HW136791   2.228   2.588   2.722 -0.0569  0.7660 -3.0136
 8385SOL    HW236792   2.092   2.554   2.788  0.4630  2.2184  2.4258
 8386SOL     OW36793   2.864   3.580   8.521  0.5111 -0.0853 -0.1042
 8386SOL    HW136794   2.777   3.616   8.504  0.0712 -2.4711 -2.9610
 8386SOL    HW236795   2.861   3.535   8.605 -0.5652 -0.6231 -0.4399
 8387SOL     OW36796   4.484   3.377  13.728 -0.5577  0.1982 -0.1296
 8387SOL    HW136797   4.506   3.435  13.655  2.7981 -1.0136 -0.0808
 8387SOL    HW236798   4.526   3.297  13.697 -0.7120 -0.3811  1.1864
 8388SOL     OW36799   1.052   0.895  13.214  0.0381 -0.7705  0.2439
 8388SOL    HW136800   1.033   0.987  13.234  1.8851 -0.6462  1.3725
 8388SOL    HW236801   0.962   0.862  13.212  0.8842 -3.0452  0.1845
 8389SOL     OW36802   0.462   3.795  11.478 -0.3744 -0.4209 -0.0409
 8389SOL    HW136803   0.495   3.864  11.421 -1.2364  0.3806  0.4377
 8389SOL    HW236804   0.369   3.817  11.481 -0.8599 -2.5967  1.0819
 8390SOL     OW36805   2.188   0.501   7.021 -0.0868 -0.1871  0.3377
 8390SOL    HW136806   2.177   0.573   7.083 -0.1733 -0.2097  0.3500
 8390SOL    HW236807   2.150   0.540   6.942  2.4547 -0.3894 -0.9718
 8391SOL     OW36808   3.790   1.588   3.586 -0.2819  0.0304 -0.5953
 8391SOL    HW136809   3.848   1.529   3.634 -2.6440 -0.3738  1.7697
 8391SOL    HW236810   3.705   1.549   3.606  0.4109 -0.9038  0.4642
 8392SOL     OW36811   0.005   1.368  13.547 -0.4521 -0.6029  0.8843
 8392SOL    HW136812   4.701   1.371  13.459  0.0816  1.7176  0.7354
 8392SOL    HW236813   4.667   1.393  13.603 -2.0967 -0.3653 -1.3529
 8393SOL     OW36814   3.448   3.577   6.333 -0.7112 -0.2291  0.6951
 8393SOL    HW136815   3.395   3.649   6.367  0.4405  1.6290 -1.3847
 8393SOL    HW236816   3.512   3.562   6.402 -0.4692 -0.4193  0.4338
 8394SOL     OW36817   3.009   1.376   0.184  0.0912  0.0049  0.6599
 8394SOL    HW136818   3.100   1.405   0.182 -0.6779  2.2354 -2.7730
 8394SOL    HW236819   2.987   1.353   0.274  0.5903 -1.4111  0.4238
 8395SOL     OW36820   2.075   4.590   1.594  0.5864  0.2367  0.0139
 8395SOL    HW136821   2.038   4.621   1.511 -0.1169  0.8034  0.5440
 8395SOL    HW236822   2.071   4.496   1.577  1.7990 -0.3443  2.8626
 8396SOL     OW36823   3.884   4.012   8.308  0.0861 -0.0375  0.0297
 8396SOL    HW136824   3.973   3.981   8.292  0.0142 -0.3127  0.1635
 8396SOL    HW236825   3.859   4.022   8.216  0.1367  2.1726  0.2484
 8397SOL     OW36826   4.157   1.663  14.395  0.0700  0.0834  0.2762
 8397SOL    HW136827   4.170   1.596  14.327 -0.4399  0.1248  0.1382
 8397SOL    HW236828   4.226   1.645  14.459  0.1681 -2.7449 -0.6089
 8398SOL     OW36829   0.521   2.492   0.954 -0.0967  0.4000  0.0410
 8398SOL    HW136830   0.525   2.472   1.048 -2.2102 -2.1927 -0.4404
 8398SOL    HW236831   0.444   2.548   0.944 -0.1885  0.6865  2.2237
 8399SOL     OW36832   4.318   4.575   6.392 -0.2445  0.3544 -0.6656
 8399SOL    HW136833   4.413   4.569   6.382 -0.1883  1.0151 -0.5037
 8399SOL    HW236834   4.288   4.539   6.309 -1.1837  3.3086 -1.6117
 8400SOL     OW36835   3.568   0.814   2.921  0.3013  0.4078  0.4792
 8400SOL    HW136836   3.511   0.747   2.884 -0.0633  0.0920  1.6263
 8400SOL    HW236837   3.526   0.894   2.889 -0.7142  0.1052  1.0636
 8401SOL     OW36838   1.906   0.169   9.647  0.1161  0.2498  0.1744
 8401SOL    HW136839   1.934   0.245   9.597 -0.5984 -0.4443 -1.2836
 8401SOL    HW236840   1.982   0.133   9.693 -0.0551  1.3426  1.3155
 8402SOL     OW36841   2.909   4.164  15.653  0.0978  0.1284  0.2007
 8402SOL    HW136842   2.877   4.219  15.725 -0.0995  0.7338 -0.3542
 8402SOL    HW236843   2.919   4.226  15.581 -0.8850  0.3711  0.2753
 8403SOL     OW36844   3.067   1.909   4.151 -0.0814 -0.1746 -0.0182
 8403SOL    HW136845   2.995   1.847   4.162  0.4733 -0.6133  1.1998
 8403SOL    HW236846   3.142   1.851   4.164  2.5270  2.8136 -1.5514
 8404SOL     OW36847   2.632   3.592   1.174  0.3210  0.3154 -0.0762
 8404SOL    HW136848   2.581   3.637   1.241 -0.3626 -1.7490  0.7867
 8404SOL    HW236849   2.704   3.563   1.229  1.0418  1.3911 -0.4540
 8405SOL     OW36850   3.641   0.935   0.021  0.1602 -0.3315 -0.4083
 8405SOL    HW136851   3.730   0.939   0.055  0.5236 -1.4812 -1.2253
 8405SOL    HW236852   3.627   0.840   0.021  2.4710 -0.6793 -0.8417
 8406SOL     OW36853   0.512   0.880  13.091 -0.0143 -0.0084 -0.0574
 8406SOL    HW136854   0.430   0.850  13.053  1.5747 -1.9805 -1.9366
 8406SOL    HW236855   0.525   0.956  13.034 -0.9522 -0.4206 -0.8196
 8407SOL     OW36856   1.476   0.855  15.314  0.3138  0.0192  0.5699
 8407SOL    HW136857   1.493   0.947  15.337  1.4351 -0.0793  0.1388
 8407SOL    HW236858   1.439   0.866  15.226 -0.7086 -0.2546  0.9619
 8408SOL     OW36859   2.514   4.470   8.762 -0.0835  0.1225  0.4592
 8408SOL    HW136860   2.481   4.416   8.834  0.0452 -0.6521 -0.0726
 8408SOL    HW236861   2.487   4.418   8.686  0.2660  2.0629 -0.9992
 8409SOL     OW36862   2.497   0.530   5.579 -0.4124  0.4528  0.2011
 8409SOL    HW136863   2.458   0.456   5.533 -0.8944  2.7848 -3.1507
 8409SOL    HW236864   2.517   0.587   5.505  3.1317 -0.2805  0.6251
 8410SOL     OW36865   3.835   0.066   3.124  0.4243  0.2347  0.1047
 8410SOL    HW136866   3.828   4.716   3.082  4.6309 -1.2713  2.3504
 8410SOL    HW236867   3.805   0.124   3.054  0.2878  1.4746  1.1965
 8411SOL     OW36868   3.819   1.697   6.723 -0.5599  0.3529 -0.2036
 8411SOL    HW136869   3.900   1.738   6.753  0.3258 -3.4741  2.5902
 8411SOL    HW236870   3.824   1.708   6.628  2.7710  0.9469  0.0568
 8412SOL     OW36871   3.872   1.095  12.004  0.0213  0.5752  0.3258
 8412SOL    HW136872   3.779   1.076  11.990  0.2667 -0.1287 -0.3668
 8412SOL    HW236873   3.906   1.123  11.919 -0.0135 -1.2698 -0.2988
 8413SOL     OW36874   3.609   2.781   3.528  0.4756 -0.0904  0.3871
 8413SOL    HW136875   3.519   2.812   3.529  0.5919  0.2630 -0.0098
 8413SOL    HW236876   3.594   2.717   3.458 -2.4781 -0.6406  1.5085
 8414SOL     OW36877   3.615   2.201   3.843  0.0350 -1.0061 -0.3694
 8414SOL    HW136878   3.560   2.191   3.921  1.4560 -0.3995  0.7088
 8414SOL    HW236879   3.609   2.296   3.845  3.7127 -0.7376 -1.2769
 8415SOL     OW36880   1.424   3.748   5.479  0.0069  0.1035  0.0786
 8415SOL    HW136881   1.506   3.783   5.446  0.8045  0.0809  2.0516
 8415SOL    HW236882   1.455   3.662   5.506  0.4510 -0.4057 -2.0732
 8416SOL     OW36883   0.321   2.447   8.168 -0.4954  0.1743  0.5385
 8416SOL    HW136884   0.268   2.444   8.088 -0.3606  0.3635  0.4447
 8416SOL    HW236885   0.326   2.353   8.189  2.7024  0.6683  1.9257
 8417SOL     OW36886   0.074   3.669   1.566 -0.2327 -0.0023 -0.0688
 8417SOL    HW136887   0.090   3.576   1.550  5.0560  0.3489  3.3814
 8417SOL    HW236888   0.133   3.673   1.641  2.5060 -0.2856 -2.2228
 8418SOL     OW36889   1.119   3.032  15.016  0.1619 -0.6024 -0.3233
 8418SOL    HW136890   1.184   2.986  15.071 -0.2097 -1.3776 -0.5336
 8418SOL    HW236891   1.155   3.120  15.006 -1.7421  0.1980  0.0377
 8419SOL     OW36892   0.412   3.427  13.112 -0.4692 -0.4984 -0.1432
 8419SOL    HW136893   0.503   3.455  13.124  0.3743 -2.1962 -2.5256
 8419SOL    HW236894   0.378   3.493  13.051  0.8864  0.5489  0.2273
 8420SOL     OW36895   0.984   1.429   7.440  0.5374 -0.4093  0.4527
 8420SOL    HW136896   0.961   1.345   7.479  1.6448 -1.6717 -1.5978
 8420SOL    HW236897   0.920   1.438   7.368  0.3524 -0.2586  0.6355
 8421SOL     OW36898   1.494   0.348  12.073 -0.7174  0.6093 -0.0921
 8421SOL    HW136899   1.520   0.255  12.078  1.7195  1.3699  1.3517
 8421SOL    HW236900   1.576   0.397  12.072 -0.7053  0.5579 -1.4519
 8422SOL     OW36901   2.547   4.585   6.327 -1.1731 -0.9332 -0.0803
 8422SOL    HW136902   2.607   4.564   6.398  0.0258  1.6332 -0.3585
 8422SOL    HW236903   2.601   4.611   6.253 -3.6058 -1.2210 -1.9787
 8423SOL     OW36904   0.194   2.353  14.557  0.0635  0.0355 -0.3167
 8423SOL    HW136905   0.286   2.363  14.582 -0.1941 -0.3984  0.7720
 8423SOL    HW236906   0.190   2.277  14.499  2.9072  0.3770 -0.9935
 8424SOL     OW36907   0.395   1.529   8.159 -0.2783  0.1741  0.1203
 8424SOL    HW136908   0.344   1.496   8.233  0.2950  0.4751  0.6503
 8424SOL    HW236909   0.412   1.449   8.109 -2.6618 -0.2273 -0.0771
 8425SOL     OW36910   4.590   3.446   7.719 -0.1908 -0.4673 -0.6876
 8425SOL    HW136911   4.665   3.387   7.728 -0.2254 -0.7246 -2.0974
 8425SOL    HW236912   4.522   3.379   7.710  0.3475 -1.1592  0.3346
 8426SOL     OW36913   1.334   0.316   5.236  0.4629 -0.1021  0.2966
 8426SOL    HW136914   1.386   0.282   5.309  1.6524  0.2206 -0.4029
 8426SOL    HW236915   1.334   0.235   5.185 -0.2575 -0.7562  1.3227
 8427SOL     OW36916   3.287   3.763  14.997  0.0733  0.2242 -0.2550
 8427SOL    HW136917   3.300   3.813  15.078  0.8391 -1.8161  0.8977
 8427SOL    HW236918   3.192   3.749  14.998 -0.0908  1.3761  2.4081
 8428SOL     OW36919   2.943   3.139  12.158 -0.3073 -0.3979 -0.5700
 8428SOL    HW136920   2.990   3.097  12.230 -2.6060 -1.8405  0.0948
 8428SOL    HW236921   2.968   3.083  12.084 -1.4579 -0.3891 -0.9535
 8429SOL     OW36922   2.532   3.850   6.112  0.5681 -0.1598 -0.1803
 8429SOL    HW136923   2.451   3.801   6.129  0.3631 -0.2607 -1.4615
 8429SOL    HW236924   2.543   3.904   6.190 -0.3011  0.2325 -0.3367
 8430SOL     OW36925   3.230   0.915  10.366  0.0394 -0.2328 -0.2409
 8430SOL    HW136926   3.214   0.829  10.329 -3.5430  0.1534  0.3802
 8430SOL    HW236927   3.324   0.901  10.374 -0.0264  0.2020  1.2952
 8431SOL     OW36928   3.571   3.765   9.650  0.0117 -0.0864  0.4287
 8431SOL    HW136929   3.555   3.709   9.726 -0.4202 -0.2194  0.2368
 8431SOL    HW236930   3.493   3.740   9.601  0.1654  0.8318 -0.2836
 8432SOL     OW36931   0.602   4.428   2.279  0.7324 -0.1461  0.1865
 8432SOL    HW136932   0.603   4.347   2.330  2.1464  0.2150  0.7476
 8432SOL    HW236933   0.607   4.500   2.341 -0.0760 -0.1604  0.2600
 8433SOL     OW36934   3.771   2.374   7.895 -0.1546 -0.2567 -0.6274
 8433SOL    HW136935   3.705   2.424   7.848  0.3757  0.3067 -0.7715
 8433SOL    HW236936   3.722   2.359   7.976 -0.9875  1.0922 -0.8849
 8434SOL     OW36937   2.635   0.009   1.184 -0.3942 -0.6375  0.4049
 8434SOL    HW136938   2.548   0.018   1.224 -0.0376  0.5698  0.8960
 8434SOL    HW236939   2.685   4.687   1.242 -1.8930  0.2913  2.6377
 8435SOL     OW36940   3.783   0.869   7.359 -0.0873 -0.1798 -0.5503
 8435SOL    HW136941   3.758   0.956   7.327  2.1517  0.0426 -1.6791
 8435SOL    HW236942   3.722   0.858   7.432  0.7011  2.0275  0.4378
 8436SOL     OW36943   4.097   1.694   7.599 -0.1154  0.0255 -0.4893
 8436SOL    HW136944   4.080   1.627   7.533 -0.6913  1.1692 -1.4920
 8436SOL    HW236945   4.191   1.707   7.588 -0.3198  1.5178 -0.5326
 8437SOL     OW36946   1.590   2.435   7.671  0.2089  0.3187 -0.6524
 8437SOL    HW136947   1.596   2.486   7.591 -2.7535 -0.2444 -1.1972
 8437SOL    HW236948   1.561   2.504   7.730  1.6060 -1.1183  1.7656
 8438SOL     OW36949   0.290   3.842   9.899 -0.2017  0.5022  0.1647
 8438SOL    HW136950   0.279   3.859   9.805  0.5151  1.1079  0.1959
 8438SOL    HW236951   0.384   3.851   9.910  0.3871 -4.2724 -0.9650
 8439SOL     OW36952   1.743   3.630   8.810 -0.1590  0.3395 -0.3137
 8439SOL    HW136953   1.773   3.704   8.862 -1.4773  0.2447  0.5652
 8439SOL    HW236954   1.688   3.680   8.750 -1.5575  1.3045  1.7506
 8440SOL     OW36955   2.058   0.589  11.211 -0.3977  0.0786 -0.4005
 8440SOL    HW136956   2.019   0.534  11.279 -1.3487  2.5753  1.1032
 8440SOL    HW236957   2.086   0.518  11.153  0.1409 -0.1398  0.1269
 8441SOL     OW36958   2.649   2.944  10.076  0.3647  0.7022  0.1492
 8441SOL    HW136959   2.563   2.928  10.114 -0.3489  0.8533 -1.4252
 8441SOL    HW236960   2.705   2.953  10.153 -0.1238 -0.1081  0.5971
 8442SOL     OW36961   2.953   3.014   8.223  0.6864 -0.5037 -0.2475
 8442SOL    HW136962   2.922   3.077   8.158 -0.9371 -0.4622  0.5812
 8442SOL    HW236963   3.030   2.977   8.180 -0.1280  0.2399 -2.3920
 8443SOL     OW36964   1.734   0.073   2.646 -0.4317 -0.0666  0.5638
 8443SOL    HW136965   1.770   0.148   2.692 -0.8439 -0.4317  1.4864
 8443SOL    HW236966   1.801   0.006   2.660  0.1308  0.4523  0.3237
 8444SOL     OW36967   1.368   2.152   3.469  0.2756 -0.1538 -0.2172
 8444SOL    HW136968   1.435   2.195   3.417 -0.3100  2.2688  1.0517
 8444SOL    HW236969   1.328   2.229   3.509 -0.1445 -0.7018  0.4210
 8445SOL     OW36970   1.942   3.469   6.877 -0.3529 -0.3268  0.5051
 8445SOL    HW136971   1.917   3.536   6.814  0.3577  0.0816  0.6572
 8445SOL    HW236972   1.894   3.498   6.954 -0.3295 -0.6738  0.6520
 8446SOL     OW36973   1.909   2.650   6.404 -0.9283 -0.4186 -0.1156
 8446SOL    HW136974   1.971   2.591   6.447 -0.9278 -1.1270 -1.0855
 8446SOL    HW236975   1.896   2.711   6.477 -0.1645  0.0635 -0.3798
 8447SOL     OW36976   1.761   0.861   4.727 -0.3531  0.2728  0.3531
 8447SOL    HW136977   1.836   0.914   4.753 -0.6373  1.4387 -1.1864
 8447SOL    HW236978   1.794   0.771   4.727  0.7769  0.6885  1.3477
 8448SOL     OW36979   0.682   0.845   2.561 -0.1527  0.1287  0.0194
 8448SOL    HW136980   0.669   0.797   2.643 -0.6848 -2.1455 -1.4039
 8448SOL    HW236981   0.774   0.826   2.546 -0.4921 -0.3857 -1.3935
 8449SOL     OW36982   2.748   3.692   7.378 -0.0722  0.2036  0.2812
 8449SOL    HW136983   2.831   3.715   7.419 -0.3802  0.2234  0.8831
 8449SOL    HW236984   2.772   3.601   7.359  0.0425  0.3885 -0.4670
 8450SOL     OW36985   0.003   2.819  10.005  0.3471 -0.2012  0.0747
 8450SOL    HW136986   0.018   2.806  10.098 -1.3286 -0.6893  0.2680
 8450SOL    HW236987   4.656   2.869  10.005 -0.5374 -1.6835  0.2341
 8451SOL     OW36988   0.629   1.623   5.628  0.2574  0.2315 -0.0911
 8451SOL    HW136989   0.563   1.567   5.669  1.9401 -1.4815  0.2798
 8451SOL    HW236990   0.711   1.601   5.672  0.1428 -1.8157 -0.9183
 8452SOL     OW36991   3.475   1.421   1.123 -0.4928  0.0382 -0.1559
 8452SOL    HW136992   3.403   1.464   1.076 -1.1463  0.6539  1.3800
 8452SOL    HW236993   3.443   1.417   1.213  0.4091 -1.1589  0.1079
 8453SOL     OW36994   0.155   0.896   3.593 -0.1318  0.0074  0.4719
 8453SOL    HW136995   0.209   0.845   3.654  0.4265  0.2602  0.1969
 8453SOL    HW236996   0.122   0.824   3.539 -0.3475  0.8506 -0.5133
 8454SOL     OW36997   1.567   3.102  16.602  0.4282 -0.2310  0.6506
 8454SOL    HW136998   1.649   3.055  16.587 -0.0580 -0.8468 -0.0532
 8454SOL    HW236999   1.594   3.192  16.624 -1.7221  0.2553  1.3456
 8455SOL     OW37000   1.849   4.442  16.337  0.6467 -0.2803  0.1988
 8455SOL    HW137001   1.770   4.401  16.371  0.7209  0.1856  0.9485
 8455SOL    HW237002   1.859   4.388  16.259  3.5425  0.0553  0.3469
 8456SOL     OW37003   3.626   3.847   8.751 -0.6028 -0.1547 -0.8872
 8456SOL    HW137004   3.642   3.856   8.657 -0.0374 -4.8384 -1.2782
 8456SOL    HW237005   3.535   3.819   8.748 -0.4776 -0.8913  1.9691
 8457SOL     OW37006   3.274   2.967   5.613  0.0100  0.1995 -0.2170
 8457SOL    HW137007   3.283   2.963   5.518  0.9210  3.6965 -0.2680
 8457SOL    HW237008   3.189   3.010   5.612  0.6233  1.4198  0.6231
 8458SOL     OW37009   2.224   4.107   5.929 -0.6054 -0.3163  0.2675
 8458SOL    HW137010   2.157   4.055   5.974 -0.2796  0.6750  1.8924
 8458SOL    HW237011   2.278   4.046   5.880  1.2648  0.8899  0.8456
 8459SOL     OW37012   2.843   2.201  14.420  0.2804  0.4916 -0.8336
 8459SOL    HW137013   2.909   2.195  14.351  1.4336 -0.4502  0.3712
 8459SOL    HW237014   2.888   2.243  14.493  1.4063 -2.6208  0.2527
 8460SOL     OW37015   4.686   3.030   3.356 -0.3129  0.3675 -0.0901
 8460SOL    HW137016   0.015   3.005   3.423 -0.5670  0.8618  0.3356
 8460SOL    HW237017   4.602   3.013   3.398  0.6804 -1.0574  1.3285
 8461SOL     OW37018   3.771   1.532   7.230  0.2760  0.2481  0.3253
 8461SOL    HW137019   3.703   1.598   7.218  1.9198  1.5744 -1.6654
 8461SOL    HW237020   3.796   1.546   7.321 -0.6860  0.0131  0.6275
 8462SOL     OW37021   3.199   3.249   8.162  0.1249 -0.1991  0.1541
 8462SOL    HW137022   3.177   3.161   8.131 -0.1782 -0.3977  0.9379
 8462SOL    HW237023   3.165   3.305   8.093 -0.2383 -0.2733  0.2736
 8463SOL     OW37024   1.087   2.464   8.146 -0.3816 -0.0008  0.4145
 8463SOL    HW137025   1.087   2.368   8.147 -0.6477 -0.0007  0.6399
 8463SOL    HW237026   1.127   2.482   8.230 -0.0736  1.5266 -0.0639
 8464SOL     OW37027   0.602   1.060   3.333  0.2008 -0.0680  0.4850
 8464SOL    HW137028   0.610   1.138   3.387  2.1750  0.5284 -0.6545
 8464SOL    HW237029   0.656   1.088   3.259  0.6062  0.4385  0.9742
 8465SOL     OW37030   2.326   3.465   5.919  0.4084 -0.6164  0.3986
 8465SOL    HW137031   2.312   3.557   5.941  1.6070 -0.9611  2.5899
 8465SOL    HW237032   2.237   3.439   5.896 -0.3866  2.5624 -0.1441
 8466SOL     OW37033   3.937   3.010   4.683 -0.1771 -0.4000  0.3517
 8466SOL    HW137034   3.892   3.060   4.615  2.4913  0.0729 -1.0447
 8466SOL    HW237035   3.866   3.020   4.747 -0.5266 -0.1985 -0.0686
 8467SOL     OW37036   0.975   3.281   4.813 -0.2679 -0.4631  0.1114
 8467SOL    HW137037   1.035   3.300   4.885  0.5705 -0.2132 -0.6502
 8467SOL    HW237038   1.030   3.306   4.739 -2.2706  0.3374 -1.0982
 8468SOL     OW37039   3.284   0.762   9.247  0.4135 -0.0915  0.5035
 8468SOL    HW137040   3.199   0.791   9.280  0.2636  1.1407 -0.9348
 8468SOL    HW237041   3.296   0.815   9.168  0.7533  1.0763  1.3417
 8469SOL     OW37042   0.350   4.178   2.863 -0.2238  0.0831  0.5058
 8469SOL    HW137043   0.342   4.085   2.884 -1.0437 -0.1292 -0.7039
 8469SOL    HW237044   0.351   4.213   2.952 -0.1053  0.3481  0.3986
 8470SOL     OW37045   4.531   3.810   1.019 -0.6490  0.1598  0.0703
 8470SOL    HW137046   4.565   3.721   1.008  0.7424  0.7046  0.0534
 8470SOL    HW237047   4.443   3.781   1.045 -0.9843 -0.9302 -2.2319
 8471SOL     OW37048   4.387   0.009  14.797  0.1049  0.1011  0.2298
 8471SOL    HW137049   4.409   0.079  14.736  2.2346 -0.3621  0.4668
 8471SOL    HW237050   4.425   4.672  14.746  0.2550  0.7070 -0.5059
 8472SOL     OW37051   2.617   0.214   2.100  0.2996  0.0934  0.4805
 8472SOL    HW137052   2.647   0.168   2.178 -0.2787 -1.3938 -0.1635
 8472SOL    HW237053   2.525   0.239   2.111  0.6338 -0.0891  3.5018
 8473SOL     OW37054   0.177   0.127   1.614  0.4168 -0.1492  0.3064
 8473SOL    HW137055   0.252   0.118   1.555 -0.2944  0.1612 -0.6313
 8473SOL    HW237056   0.174   0.223   1.616 -1.3207 -0.2464  2.3292
 8474SOL     OW37057   0.471   3.553   7.480 -0.4130  0.3234  0.3054
 8474SOL    HW137058   0.517   3.476   7.513  0.1541  1.0428  1.2302
 8474SOL    HW237059   0.387   3.511   7.464 -0.4710  0.2635  0.7663
 8475SOL     OW37060   4.569   4.042  13.466 -0.8559  0.2567  0.1553
 8475SOL    HW137061   4.627   4.012  13.396  0.5463 -0.3542  1.5737
 8475SOL    HW237062   4.505   3.971  13.461 -0.8288  0.2959 -0.7044
 8476SOL     OW37063   1.676   4.435  17.661  0.1394  0.0547 -0.2582
 8476SOL    HW137064   1.613   4.402  17.598  1.7172 -3.9748  0.2478
 8476SOL    HW237065   1.620   4.500  17.704  0.7343 -1.0605  2.2320
 8477SOL     OW37066   1.040   1.392   8.796  0.2183 -0.0535 -0.0309
 8477SOL    HW137067   1.126   1.393   8.839  0.1129  0.7072  0.1526
 8477SOL    HW237068   0.980   1.423   8.864 -1.8662 -1.2382 -1.3442
 8478SOL     OW37069   4.175   0.695   0.229 -0.0651 -0.2821  0.0450
 8478SOL    HW137070   4.224   0.762   0.183  0.9796 -0.1062  1.4346
 8478SOL    HW237071   4.240   0.661   0.291 -0.3304 -1.1545 -0.1491
 8479SOL     OW37072   2.432   0.330   0.897  0.0395  0.2819  0.3088
 8479SOL    HW137073   2.441   0.357   0.989 -1.0165 -0.6674  0.7009
 8479SOL    HW237074   2.355   0.384   0.878 -1.1030 -1.2561  0.5564
 8480SOL     OW37075   0.827   2.033   1.509  0.0830  0.6907  0.0606
 8480SOL    HW137076   0.909   1.986   1.492 -0.3465 -0.5071  1.2505
 8480SOL    HW237077   0.867   2.114   1.542  0.7616  0.3137  0.1691
 8481SOL     OW37078   2.343   4.255   2.732  0.1489 -0.2286 -0.2856
 8481SOL    HW137079   2.267   4.279   2.680  0.4205  0.9922 -0.1248
 8481SOL    HW237080   2.382   4.342   2.748  1.9509 -1.2702  1.0369
 8482SOL     OW37081   3.927   0.473  14.628  0.0534  0.2760 -0.7922
 8482SOL    HW137082   3.951   0.381  14.622 -0.4440 -0.0275  2.1389
 8482SOL    HW237083   3.847   0.463  14.679 -1.0412  0.0202 -2.5684
 8483SOL     OW37084   4.256   1.034   5.615 -0.3600 -0.1404 -0.5489
 8483SOL    HW137085   4.238   0.957   5.560  0.7255 -1.2348  0.6395
 8483SOL    HW237086   4.278   1.094   5.544 -0.1325 -1.7965 -1.8737
 8484SOL     OW37087   2.973   0.232   2.906  0.3239  0.2826  0.6836
 8484SOL    HW137088   2.951   0.148   2.946 -2.5681  0.5874 -0.2818
 8484SOL    HW237089   2.886   0.270   2.917  0.4493  0.3537  1.4317
 8485SOL     OW37090   4.321   1.606   3.164  0.4730 -0.3530  0.2624
 8485SOL    HW137091   4.259   1.665   3.122  2.1579  0.5106 -1.0059
 8485SOL    HW237092   4.302   1.520   3.127  1.2033  0.1463 -1.2916
 8486SOL     OW37093   0.726   1.081   1.657  0.0444  0.0826  0.3713
 8486SOL    HW137094   0.735   1.175   1.673 -2.8154  0.3554  0.2886
 8486SOL    HW237095   0.808   1.057   1.614  0.1864  0.7845  0.2336
 8487SOL     OW37096   0.643   2.820   2.339 -0.2268 -0.2057  0.5547
 8487SOL    HW137097   0.586   2.748   2.313 -1.4814  1.2047 -0.5176
 8487SOL    HW237098   0.618   2.889   2.278 -1.4333 -1.8567 -0.8045
 8488SOL     OW37099   3.811   4.038  12.252  0.0826 -0.4614  0.0350
 8488SOL    HW137100   3.805   4.125  12.211 -0.3098 -1.3207 -1.7514
 8488SOL    HW237101   3.797   3.983  12.175  1.0879 -0.3005 -0.2666
 8489SOL     OW37102   0.473   2.010   4.768 -0.1082 -0.1142 -0.1317
 8489SOL    HW137103   0.514   1.944   4.824 -1.1338  0.2504  1.0676
 8489SOL    HW237104   0.554   2.058   4.749  1.2718 -2.5480 -0.3171
 8490SOL     OW37105   2.213   4.622   2.761  0.3248  0.8019 -0.0114
 8490SOL    HW137106   2.139   4.658   2.712  0.4094  2.5208  1.1461
 8490SOL    HW237107   2.264   4.583   2.690 -1.2671 -0.6784 -0.3586
 8491SOL     OW37108   3.661   3.185   3.548 -0.1608 -0.1626 -0.0541
 8491SOL    HW137109   3.738   3.192   3.492 -1.0221 -2.4472 -1.5091
 8491SOL    HW237110   3.596   3.237   3.502 -0.3665 -0.6530 -0.3262
 8492SOL     OW37111   4.606   3.775  14.922  0.3416 -0.0041 -0.0263
 8492SOL    HW137112   4.677   3.772  14.985  1.4642 -0.2599 -1.3100
 8492SOL    HW237113   4.590   3.684  14.898 -1.0003  0.3402 -0.4941
 8493SOL     OW37114   3.319   2.936   4.099 -0.3813  0.0472 -0.4162
 8493SOL    HW137115   3.298   2.911   4.189  0.6562  0.2704 -0.1096
 8493SOL    HW237116   3.406   2.974   4.112 -1.2543  1.9220 -0.0918
 8494SOL     OW37117   3.143   3.838  16.528  0.4698  0.3014  0.3478
 8494SOL    HW137118   3.136   3.832  16.433  0.3655  3.4169  0.1611
 8494SOL    HW237119   3.196   3.918  16.528 -0.9891  1.2580 -0.7996
 8495SOL     OW37120   4.626   0.643   8.055  0.3082  0.4783  0.4810
 8495SOL    HW137121   4.687   0.631   7.982 -0.2471 -0.0693  0.1077
 8495SOL    HW237122   4.586   0.726   8.031  0.0029  0.6035  1.4291
 8496SOL     OW37123   4.145   1.974   2.393 -0.4478 -0.0949  0.1563
 8496SOL    HW137124   4.071   1.923   2.361  0.2429 -0.9700 -0.0518
 8496SOL    HW237125   4.126   1.985   2.486  1.4574  0.4977  0.4786
 8497SOL     OW37126   3.123   1.998  14.797  0.0283  0.0686  0.0245
 8497SOL    HW137127   3.161   2.063  14.738 -0.9136 -0.6803 -1.4140
 8497SOL    HW237128   3.185   1.928  14.777 -0.3294 -0.5433  1.0911
 8498SOL     OW37129   4.655   3.272  11.116 -0.4229 -0.3143  0.5079
 8498SOL    HW137130   4.604   3.321  11.180  2.3199  0.9071  1.7318
 8498SOL    HW237131   4.720   3.227  11.169  0.9877 -0.8223 -1.6341
 8499SOL     OW37132   2.196   3.555  14.547 -0.0220  0.4629 -0.2657
 8499SOL    HW137133   2.150   3.639  14.539  2.3795  1.7246 -0.6287
 8499SOL    HW237134   2.196   3.542  14.642  3.4211 -2.3550 -0.6832
 8500SOL     OW37135   3.318   0.114  11.346 -0.1015 -0.1819 -0.6974
 8500SOL    HW137136   3.284   0.174  11.413  1.6032  1.0546 -0.9492
 8500SOL    HW237137   3.248   0.051  11.362 -0.5406 -0.3767 -3.5198
 8501SOL     OW37138   3.364   4.725   1.024 -0.8715  0.4659  0.1487
 8501SOL    HW137139   3.406   4.642   1.043  0.1311  0.2627 -2.9550
 8501SOL    HW237140   3.442   0.046   1.024  1.1058 -2.2768 -1.2258
 8502SOL     OW37141   3.076   2.555   4.750 -0.3056  0.1414 -0.0103
 8502SOL    HW137142   3.009   2.521   4.810  1.1109 -1.3829  0.6915
 8502SOL    HW237143   3.131   2.606   4.809 -1.6084 -0.3552  1.6418
 8503SOL     OW37144   1.243   2.382   4.727 -0.0144  0.0015 -1.0755
 8503SOL    HW137145   1.153   2.364   4.700  1.1267 -2.7455 -3.0148
 8503SOL    HW237146   1.254   2.298   4.771 -1.3662  0.0667 -0.6199
 8504SOL     OW37147   3.958   0.384   8.872  0.1199  0.0232 -0.4302
 8504SOL    HW137148   3.944   0.404   8.965  0.7303 -0.2935 -0.2634
 8504SOL    HW237149   4.047   0.416   8.855 -2.0539  4.9446 -2.2907
 8505SOL     OW37150   3.975   1.512   4.628 -0.3628  0.9918 -0.5150
 8505SOL    HW137151   3.953   1.539   4.717  0.4161  0.3590 -0.1332
 8505SOL    HW237152   4.063   1.547   4.627  0.6852 -1.6112  0.4064
 8506SOL     OW37153   4.281   0.725  17.291 -0.2249  0.2410 -0.4590
 8506SOL    HW137154   4.198   0.677  17.287 -1.7518  2.7768  0.5650
 8506SOL    HW237155   4.299   0.729  17.197 -1.2726  0.2348 -0.6644
 8507SOL     OW37156   1.163   0.159   1.170 -0.8214  0.6253 -0.3583
 8507SOL    HW137157   1.232   0.126   1.228 -1.3541 -1.0261 -0.6519
 8507SOL    HW237158   1.221   0.211   1.114  0.1574  0.9845  0.9927
 8508SOL     OW37159   1.462   4.553   4.699  0.4310 -0.0797 -0.2306
 8508SOL    HW137160   1.389   4.614   4.710  2.0043  1.8395 -0.4870
 8508SOL    HW237161   1.533   4.615   4.683  1.1965 -0.8517  0.2404
 8509SOL     OW37162   1.613   1.133   5.032  0.0839  0.0103  0.2195
 8509SOL    HW137163   1.579   1.115   5.120 -0.2700 -0.8140 -0.0830
 8509SOL    HW237164   1.683   1.068   5.026 -2.2361 -2.4897  0.2290
 8510SOL     OW37165   4.380   1.628  12.685 -0.1056 -0.4518 -0.2487
 8510SOL    HW137166   4.288   1.651  12.675  0.0091  0.0365 -0.1702
 8510SOL    HW237167   4.417   1.674  12.609 -1.6759 -0.9897 -1.3282
 8511SOL     OW37168   4.132   3.712   7.242  0.4031 -0.2001 -0.2144
 8511SOL    HW137169   4.222   3.714   7.210  1.2729 -1.3461  2.2015
 8511SOL    HW237170   4.089   3.657   7.177  1.0164  0.4184 -1.1462
 8512SOL     OW37171   3.846   2.959  10.702 -0.6119 -0.1712  0.6251
 8512SOL    HW137172   3.850   2.963  10.798 -0.7282  0.0181  0.6224
 8512SOL    HW237173   3.821   3.046  10.671  1.9070 -0.0842 -1.1515
 8513SOL     OW37174   1.644   0.193   2.004  0.2544 -0.4517 -0.3582
 8513SOL    HW137175   1.733   0.177   1.973  1.3412 -0.3733  2.7289
 8513SOL    HW237176   1.591   0.148   1.938 -1.2752  2.3431 -1.0679
 8514SOL     OW37177   4.476   1.100   3.950 -0.1556 -0.0001 -0.2777
 8514SOL    HW137178   4.420   1.168   3.989 -2.9365 -0.4718 -3.4475
 8514SOL    HW237179   4.432   1.018   3.972  0.1642 -0.0637  0.1315
 8515SOL     OW37180   3.498   3.343   2.857  0.5015 -0.2265  0.5625
 8515SOL    HW137181   3.458   3.370   2.939 -0.9451  0.2910 -0.3077
 8515SOL    HW237182   3.541   3.266   2.893  1.9108 -0.4526 -1.5689
 8516SOL     OW37183   0.243   1.908  13.149 -0.6000 -0.2981 -0.6668
 8516SOL    HW137184   0.148   1.896  13.149 -0.7360  0.8479  1.1784
 8516SOL    HW237185   0.237   2.003  13.165  3.5833 -0.4129  1.3860
 8517SOL     OW37186   4.079   4.552   6.845 -0.7602  0.0253  0.4071
 8517SOL    HW137187   4.013   4.614   6.813 -1.3340 -0.2295  1.1064
 8517SOL    HW237188   4.139   4.542   6.771  0.2791 -0.7498  1.3595
 8518SOL     OW37189   1.568   3.088   4.448  0.0059  0.4701  0.1267
 8518SOL    HW137190   1.648   3.069   4.496  1.4197  2.9810 -1.1926
 8518SOL    HW237191   1.593   3.064   4.359 -0.2308 -0.4281  0.3038
 8519SOL     OW37192   2.611   2.467  16.031 -0.3311  0.4568 -0.0280
 8519SOL    HW137193   2.625   2.382  16.072  0.5975  0.8141  0.3993
 8519SOL    HW237194   2.684   2.479  15.971  0.9468  0.2308  1.4687
 8520SOL     OW37195   4.689   1.825   6.292 -0.1682 -0.4013 -0.4578
 8520SOL    HW137196   4.651   1.772   6.222  0.6665 -1.0943 -0.3907
 8520SOL    HW237197   4.650   1.790   6.371 -1.4524 -1.1620 -1.4372
 8521SOL     OW37198   1.818   2.992  11.183 -0.0528  0.1426 -0.2289
 8521SOL    HW137199   1.798   3.079  11.219 -3.1753 -1.1828  1.2405
 8521SOL    HW237200   1.843   3.000  11.091  0.6220 -0.4328 -0.0942
 8522SOL     OW37201   1.860   4.192   6.736  0.3261 -0.2161  0.1075
 8522SOL    HW137202   1.847   4.278   6.776 -2.6183  0.8729 -3.1810
 8522SOL    HW237203   1.864   4.128   6.807  1.1024  3.6912  3.5479
 8523SOL     OW37204   0.650   0.493   8.590  0.3267 -0.2036  0.0600
 8523SOL    HW137205   0.626   0.541   8.669  0.3984  0.0652 -0.0827
 8523SOL    HW237206   0.621   0.556   8.524 -1.2517 -2.1975 -1.1574
 8524SOL     OW37207   4.257   4.185  10.420  0.8861  0.4422 -0.1762
 8524SOL    HW137208   4.247   4.158  10.511  0.8937 -1.6485 -0.7883
 8524SOL    HW237209   4.327   4.127  10.388 -0.1092 -0.5219 -0.5830
 8525SOL     OW37210   3.371   4.282  16.426 -0.1796  0.3194  0.3581
 8525SOL    HW137211   3.326   4.332  16.494  2.6913  2.2140  0.8535
 8525SOL    HW237212   3.460   4.316  16.432 -0.4336  0.8895  0.9710
 8526SOL     OW37213   4.460   0.453  14.993 -0.4105  0.0666  0.6669
 8526SOL    HW137214   4.535   0.483  15.044  0.3953 -0.0112 -0.4727
 8526SOL    HW237215   4.470   0.502  14.912  0.1358 -1.7380 -0.3562
 8527SOL     OW37216   2.790   1.515  15.056  0.2415 -0.2867  0.7804
 8527SOL    HW137217   2.873   1.562  15.049  1.8914 -3.2328  0.3089
 8527SOL    HW237218   2.763   1.502  14.965 -1.3289  0.7573  1.0921
 8528SOL     OW37219   1.059   1.240   7.711 -0.0369 -0.1041 -0.1059
 8528SOL    HW137220   1.054   1.335   7.708  3.1097  0.0468 -0.4368
 8528SOL    HW237221   1.137   1.230   7.657  1.6808  2.5720  1.8729
 8529SOL     OW37222   1.028   4.131   5.298  0.3391 -0.0301  0.5702
 8529SOL    HW137223   1.079   4.195   5.348 -0.5084 -0.2578  1.7328
 8529SOL    HW237224   1.052   4.045   5.332 -0.0459 -0.2954  0.1652
 8530SOL     OW37225   3.452   1.056   8.850 -0.2459  0.0146  0.0122
 8530SOL    HW137226   3.362   1.044   8.822 -0.6829  0.2560  1.3046
 8530SOL    HW237227   3.479   1.101   8.771 -0.3306 -1.4938 -0.8783
 8531SOL     OW37228   4.051   3.676   2.057  0.1825 -0.0732 -0.8883
 8531SOL    HW137229   4.033   3.594   2.011 -4.9965  0.6853 -0.1897
 8531SOL    HW237230   4.055   3.741   1.987  0.0350  0.8186 -0.0753
 8532SOL     OW37231   4.730   0.302   8.426  0.6844 -0.4001 -0.2692
 8532SOL    HW137232   4.722   0.314   8.521  1.1060 -1.1927 -0.1315
 8532SOL    HW237233   0.008   0.207   8.434 -2.3810 -0.7445  0.3487
 8533SOL     OW37234   1.260   1.168  15.762  0.0433 -0.3285 -0.4442
 8533SOL    HW137235   1.295   1.133  15.680 -0.4754 -0.3832 -0.6406
 8533SOL    HW237236   1.170   1.192  15.741  0.6627  1.5941 -0.8840
 8534SOL     OW37237   3.294   4.060  16.323  0.3645 -0.6398 -0.3047
 8534SOL    HW137238   3.247   4.083  16.242 -1.9366  0.7306  1.4220
 8534SOL    HW237239   3.305   4.150  16.353 -0.8479 -1.4653  2.6360
 8535SOL     OW37240   1.293   0.001   8.665 -0.6379 -0.0859  0.7582
 8535SOL    HW137241   1.271   0.006   8.572  0.2530 -0.4907  0.5216
 8535SOL    HW237242   1.239   4.658   8.676  0.0946 -0.5986  0.6755
 8536SOL     OW37243   2.934   0.107   6.929  0.4495 -0.3262 -0.6470
 8536SOL    HW137244   2.934   0.031   6.871  0.0297  0.0551 -1.1542
 8536SOL    HW237245   3.023   0.116   6.962  0.3908  1.8642 -1.0899
 8537SOL     OW37246   2.691   3.564  12.933 -0.0656  0.2335 -0.2708
 8537SOL    HW137247   2.649   3.490  12.890 -0.3667 -1.3781  2.8927
 8537SOL    HW237248   2.651   3.635  12.881 -1.7216  0.3153  1.1381
 8538SOL     OW37249   1.147   2.059  10.383  0.3829  0.3707  0.3408
 8538SOL    HW137250   1.129   2.149  10.409 -0.3257 -0.3756  2.4372
 8538SOL    HW237251   1.211   2.033  10.450  0.4060  0.7461  0.4681
 8539SOL     OW37252   3.850   1.395   8.154 -0.6902  0.5434  0.1544
 8539SOL    HW137253   3.839   1.306   8.189  0.1613 -0.7493 -2.8757
 8539SOL    HW237254   3.944   1.411   8.150 -0.2776 -1.7681  0.4761
 8540SOL     OW37255   3.647   2.992  15.518  0.0882  0.0320 -0.4712
 8540SOL    HW137256   3.624   3.074  15.474  2.4976 -0.1823 -2.1116
 8540SOL    HW237257   3.566   2.940  15.515 -0.8419  1.4464  0.0751
 8541SOL     OW37258   1.495   1.055   9.569 -0.0089  0.1972 -0.4147
 8541SOL    HW137259   1.528   0.979   9.521 -0.4975 -0.7976  0.8248
 8541SOL    HW237260   1.413   1.072   9.523  0.3214  0.4751 -0.9026
 8542SOL     OW37261   1.810   3.353   5.341  0.1985  0.8115  0.1591
 8542SOL    HW137262   1.875   3.312   5.285 -1.6611 -1.4600 -0.3490
 8542SOL    HW237263   1.817   3.439   5.300 -0.0308  0.7861  0.0657
 8543SOL     OW37264   1.623   4.135   4.490  0.6606 -0.3160 -0.2769
 8543SOL    HW137265   1.612   4.132   4.585  0.2960 -0.7287 -0.3340
 8543SOL    HW237266   1.643   4.228   4.476 -1.9437 -0.3729 -4.2707
 8544SOL     OW37267   4.642   2.515   4.982 -0.6732 -0.1241  0.1008
 8544SOL    HW137268   4.701   2.585   4.955  0.7316 -1.3635 -0.0409
 8544SOL    HW237269   4.697   2.439   4.998 -0.5086  0.2149  1.1500
 8545SOL     OW37270   3.832   3.417   2.636  0.3580 -0.6197  0.0513
 8545SOL    HW137271   3.915   3.390   2.676  0.1884 -1.7221 -0.3327
 8545SOL    HW237272   3.783   3.451   2.711  0.7639  1.1367 -0.4745
 8546SOL     OW37273   1.313   0.316  16.915  0.6640 -0.4531 -0.1695
 8546SOL    HW137274   1.321   0.223  16.938  1.5235 -0.9724 -2.5307
 8546SOL    HW237275   1.323   0.303  16.821  0.1040  1.2335 -0.4558
 8547SOL     OW37276   3.232   3.290   4.065 -0.3435 -0.1372  0.5502
 8547SOL    HW137277   3.305   3.230   4.049  1.0304  1.7634 -0.3048
 8547SOL    HW237278   3.157   3.233   4.047 -0.5766 -0.3412  2.1698
 8548SOL     OW37279   2.975   3.067   6.539  0.2612 -0.4442 -0.0982
 8548SOL    HW137280   2.897   3.121   6.528 -0.9725 -2.1970  0.0290
 8548SOL    HW237281   2.943   2.986   6.579 -2.5372  0.9011  0.3429
 8549SOL     OW37282   3.558   2.689   0.047  0.4450 -0.1744 -0.2190
 8549SOL    HW137283   3.591   2.614   0.095 -0.4745  0.0218  0.7107
 8549SOL    HW237284   3.627   2.701  17.720  1.9965 -0.7338  1.2995
 8550SOL     OW37285   0.230   4.232   7.296 -0.2435  0.1436  0.6323
 8550SOL    HW137286   0.322   4.221   7.270 -0.2574 -0.1241  0.7023
 8550SOL    HW237287   0.189   4.245   7.211  2.2467 -2.2335 -0.9446
 8551SOL     OW37288   0.396   4.292   3.849 -0.6719  0.2044  0.6734
 8551SOL    HW137289   0.430   4.203   3.859  0.5516  0.6336  0.3553
 8551SOL    HW237290   0.471   4.333   3.891 -2.1611  2.3920  1.1934
 8552SOL     OW37291   1.409   1.789   9.185 -1.4101 -0.0868  0.3070
 8552SOL    HW137292   1.334   1.737   9.214 -1.2077 -1.2392 -1.2413
 8552SOL    HW237293   1.376   1.876   9.207 -1.2627  0.3412 -1.1656
 8553SOL     OW37294   3.825   0.388   1.273  0.4133 -0.5863 -0.2843
 8553SOL    HW137295   3.800   0.352   1.188 -1.3109 -1.1397  0.4689
 8553SOL    HW237296   3.893   0.451   1.248  1.9008 -1.5195  1.3884
 8554SOL     OW37297   3.733   2.280   5.795 -0.5202 -0.9837 -0.5617
 8554SOL    HW137298   3.784   2.361   5.797 -1.9947 -0.0936  0.9123
 8554SOL    HW237299   3.780   2.222   5.734 -0.2220 -2.3384  0.9712
 8555SOL     OW37300   1.620   4.522   3.853  0.0939  0.4053  0.1308
 8555SOL    HW137301   1.581   4.435   3.863  2.0339 -0.4454  0.1064
 8555SOL    HW237302   1.712   4.507   3.833 -0.3982 -2.0000 -0.2983
 8556SOL     OW37303   1.925   1.455   2.484 -0.1706  0.0168 -0.6314
 8556SOL    HW137304   1.873   1.376   2.471 -0.1557 -0.6308  3.2961
 8556SOL    HW237305   1.860   1.523   2.502 -0.2851 -0.7970  1.9847
 8557SOL     OW37306   3.035   2.486   3.557 -0.0881  0.2330  0.4367
 8557SOL    HW137307   3.089   2.449   3.487 -0.5820 -0.9720  0.6923
 8557SOL    HW237308   3.056   2.578   3.543 -1.9092  0.2958 -1.8386
 8558SOL     OW37309   0.650   3.935   7.522  0.3956 -0.1584  0.0391
 8558SOL    HW137310   0.649   3.911   7.429  0.5685  0.0134 -0.0076
 8558SOL    HW237311   0.722   3.886   7.560  1.9565  1.4547 -0.8411
 8559SOL     OW37312   3.970   0.825   8.961 -0.2019  0.3126 -0.3334
 8559SOL    HW137313   3.889   0.783   8.932  0.8661 -1.7612 -0.3654
 8559SOL    HW237314   3.952   0.838   9.054  0.3274 -0.2754 -0.1454
 8560SOL     OW37315   0.358   2.873   3.041  0.5267 -0.8164 -0.2964
 8560SOL    HW137316   0.301   2.949   3.047  2.0646  0.1552  2.0384
 8560SOL    HW237317   0.298   2.801   3.062  1.0010 -0.9387  0.6819
 8561SOL     OW37318   4.716   0.397   7.715  0.0796 -0.4769 -0.3757
 8561SOL    HW137319   0.037   0.426   7.788 -0.1984  0.8146 -0.6752
 8561SOL    HW237320   4.652   0.466   7.730 -0.0304  0.1319 -3.7195
 8562SOL     OW37321   2.269   1.392   6.866 -0.0707 -0.0757 -0.0141
 8562SOL    HW137322   2.356   1.433   6.866 -0.0012 -0.2084 -1.7127
 8562SOL    HW237323   2.222   1.473   6.846 -0.7597 -0.5657 -0.3843
 8563SOL     OW37324   4.682   3.619   5.603  0.4129 -0.2806 -0.1703
 8563SOL    HW137325   4.705   3.621   5.510  0.1553 -2.1999 -0.2913
 8563SOL    HW237326   4.733   3.546   5.637 -1.1629 -0.8437  0.9682
 8564SOL     OW37327   2.641   4.654   4.416  0.2266 -0.2316  0.3384
 8564SOL    HW137328   2.630   0.004   4.459 -2.9339 -0.0670 -0.8396
 8564SOL    HW237329   2.682   4.679   4.333  1.0359 -0.8742  0.5489
 8565SOL     OW37330   0.845   1.186   0.364  0.6718  0.0374  0.7481
 8565SOL    HW137331   0.772   1.234   0.404 -0.7190  0.1488 -1.9474
 8565SOL    HW237332   0.902   1.191   0.441  0.2124  0.4379  1.0601
 8566SOL     OW37333   0.327   3.447  15.634 -0.2885 -0.3578 -0.0465
 8566SOL    HW137334   0.326   3.359  15.596 -0.3676 -1.3043  2.1395
 8566SOL    HW237335   0.302   3.496  15.555  0.5524  1.9046  1.1117
 8567SOL     OW37336   4.282   0.214   4.695 -0.9078 -0.0799 -0.3157
 8567SOL    HW137337   4.279   0.123   4.664 -0.8374  0.3906 -1.7266
 8567SOL    HW237338   4.275   0.273   4.620 -0.7079  0.2057 -0.1056
 8568SOL     OW37339   4.642   2.133   5.932  0.3144 -0.0535  0.3553
 8568SOL    HW137340   4.559   2.086   5.944 -0.7156  1.2634 -1.7564
 8568SOL    HW237341   4.683   2.066   5.877  1.0231  0.1083  0.6890
 8569SOL     OW37342   2.332   0.787   3.919  0.0031  0.2040  0.0977
 8569SOL    HW137343   2.389   0.837   3.860  1.3460 -0.3307  0.9525
 8569SOL    HW237344   2.317   0.858   3.981 -0.4080 -0.1778  0.4369
 8570SOL     OW37345   3.444   3.377   6.143 -0.1603 -0.3204  0.1934
 8570SOL    HW137346   3.367   3.408   6.095  0.5335  1.5920  0.3125
 8570SOL    HW237347   3.441   3.435   6.219  0.8628  0.6963 -0.5560
 8571SOL     OW37348   2.434   3.128   7.225 -0.3088 -0.0682 -0.5956
 8571SOL    HW137349   2.379   3.057   7.190  0.9566  0.2946 -3.3443
 8571SOL    HW237350   2.382   3.204   7.198 -0.3134 -0.7641 -2.5515
 8572SOL     OW37351   1.723   1.202   8.600 -0.0591 -0.0703  0.1939
 8572SOL    HW137352   1.774   1.226   8.522  0.3185  0.0447  0.4745
 8572SOL    HW237353   1.772   1.124   8.627  2.4781  1.9205  1.3088
 8573SOL     OW37354   4.479   0.451  15.701  0.3331  0.2639 -0.5059
 8573SOL    HW137355   4.565   0.409  15.701  0.2466  0.0896 -0.3865
 8573SOL    HW237356   4.501   0.534  15.658  0.5975  0.0623 -0.7655
 8574SOL     OW37357   1.386   4.682  14.046 -0.1378 -0.4376 -0.6283
 8574SOL    HW137358   1.410   0.020  14.103 -1.3769  0.6140 -1.4666
 8574SOL    HW237359   1.415   4.709  13.959  1.0452  2.0799  0.5428
 8575SOL     OW37360   1.254   0.233   6.082  0.5304 -0.3597  0.3349
 8575SOL    HW137361   1.293   0.273   6.159  2.6708 -2.3826  0.2881
 8575SOL    HW237362   1.303   0.151   6.086 -0.4475 -0.8820  1.9809
 8576SOL     OW37363   2.114   1.324   9.098 -0.2025  0.1502  0.2885
 8576SOL    HW137364   2.202   1.303   9.130  0.3881  1.1815 -0.6510
 8576SOL    HW237365   2.110   1.419   9.114  1.6492 -0.0445  1.8522
 8577SOL     OW37366   0.872   0.841   5.859 -0.1089 -0.1362 -0.3509
 8577SOL    HW137367   0.862   0.763   5.915 -1.5159  0.2262 -0.1024
 8577SOL    HW237368   0.966   0.829   5.850 -0.3273 -2.4316  0.4066
 8578SOL     OW37369   2.952   2.153   7.049 -0.3822 -0.7625  0.0074
 8578SOL    HW137370   2.917   2.146   7.138  0.5894 -1.8558  0.3133
 8578SOL    HW237371   2.886   2.218   7.027  1.4090  0.1728 -2.4956
 8579SOL     OW37372   1.964   3.286   6.413  0.6559  0.4003 -0.0927
 8579SOL    HW137373   2.001   3.198   6.416  0.3518  0.3226  1.3869
 8579SOL    HW237374   1.963   3.306   6.507  0.5211  0.8099 -0.1790
 8580SOL     OW37375   1.169   1.678   9.243  0.2167  0.5798 -0.1334
 8580SOL    HW137376   1.096   1.682   9.181  0.3521 -1.5548 -0.4464
 8580SOL    HW237377   1.130   1.685   9.330 -1.7110 -1.5425 -0.8397
 8581SOL     OW37378   0.843   0.786   4.149  0.0255  0.8258 -0.0376
 8581SOL    HW137379   0.857   0.872   4.188 -0.1729 -0.0020  1.8325
 8581SOL    HW237380   0.784   0.754   4.217  1.4711  0.2320  0.9208
 8582SOL     OW37381   0.387   1.230   1.387 -0.0656  0.0089  0.2733
 8582SOL    HW137382   0.355   1.307   1.433  2.2338  0.5641  0.9355
 8582SOL    HW237383   0.310   1.193   1.345 -1.0799  3.9674 -1.2529
 8583SOL     OW37384   4.102   1.996  14.843 -0.1388 -0.0115  0.4787
 8583SOL    HW137385   4.155   2.032  14.914  0.4338  0.0627  0.0111
 8583SOL    HW237386   4.162   1.940  14.794 -0.1870  0.4846 -0.1437
 8584SOL     OW37387   0.284   2.991   3.720 -0.1661 -0.6197  0.0385
 8584SOL    HW137388   0.225   3.066   3.731 -0.8919 -1.4348  1.7155
 8584SOL    HW237389   0.218   2.927   3.695  0.3234 -1.0385 -0.1797
 8585SOL     OW37390   1.809   3.875  12.758 -0.0267  0.0440  0.0750
 8585SOL    HW137391   1.771   3.841  12.677 -0.6705  0.2578  0.2889
 8585SOL    HW237392   1.803   3.808  12.825  0.8972 -0.3771 -0.2613
 8586SOL     OW37393   1.806   2.633  16.666 -0.2765 -0.3979  0.1408
 8586SOL    HW137394   1.732   2.694  16.659 -0.3609 -0.5555 -0.3286
 8586SOL    HW237395   1.882   2.684  16.694 -0.0538 -0.8208  0.3119
 8587SOL     OW37396   2.019   0.137  14.912 -0.5425  0.0796 -0.3039
 8587SOL    HW137397   1.953   0.149  14.844 -1.6836 -1.6101  0.4871
 8587SOL    HW237398   1.982   0.189  14.984 -1.6919 -1.6161  0.3260
 8588SOL     OW37399   3.109   0.371   5.696 -0.6912 -0.4459 -0.6657
 8588SOL    HW137400   3.110   0.360   5.791 -0.8485  1.4441 -0.4321
 8588SOL    HW237401   3.033   0.429   5.687 -0.8605 -0.7515 -1.1767
 8589SOL     OW37402   1.987   3.404   2.079  0.6037 -0.4682 -0.1842
 8589SOL    HW137403   1.949   3.317   2.090 -1.4340  0.3911 -0.5378
 8589SOL    HW237404   2.081   3.388   2.087  0.8847  0.5101 -1.6075
 8590SOL     OW37405   4.166   0.271   6.503 -0.7664  0.2708 -0.0757
 8590SOL    HW137406   4.256   0.289   6.475 -0.4488  0.0365  0.8128
 8590SOL    HW237407   4.114   0.323   6.441 -0.6618 -1.0685 -1.2853
 8591SOL     OW37408   2.903   4.147   4.953 -0.0163 -0.3664  0.0538
 8591SOL    HW137409   2.911   4.069   5.008 -3.0686  0.6475  1.9363
 8591SOL    HW237410   2.967   4.210   4.986  2.0563 -0.7453 -3.1478
 8592SOL     OW37411   0.836   2.445   4.828  0.7399 -0.3535  0.1564
 8592SOL    HW137412   0.769   2.489   4.776 -1.6530 -0.6609  2.9852
 8592SOL    HW237413   0.894   2.403   4.764  0.1328 -1.0787  0.0862
 8593SOL     OW37414   3.584   4.626  11.488  0.3064 -0.2507 -0.0184
 8593SOL    HW137415   3.509   4.568  11.475 -0.8642  1.3007 -0.2390
 8593SOL    HW237416   3.586   4.625  11.584  0.3424  1.0840 -0.0003
 8594SOL     OW37417   1.497   3.605   7.375 -0.0734  0.1985  0.5403
 8594SOL    HW137418   1.486   3.682   7.319  1.1371 -1.2674 -1.7107
 8594SOL    HW237419   1.487   3.632   7.466 -1.6401 -1.3947  0.8297
 8595SOL     OW37420   4.396   0.523   1.230  0.2097  0.4901  0.2625
 8595SOL    HW137421   4.357   0.487   1.310  1.0752  0.9421  0.8885
 8595SOL    HW237422   4.425   0.438   1.196 -2.9927 -0.5978  0.2818
 8596SOL     OW37423   0.088   1.095   2.825  0.3122 -0.2137  0.0182
 8596SOL    HW137424   0.009   1.146   2.808  0.3046  0.4424  2.0683
 8596SOL    HW237425   0.153   1.153   2.785 -0.9869  1.7638  0.7688
 8597SOL     OW37426   4.667   0.593   8.319 -0.5296 -0.0632  0.1367
 8597SOL    HW137427   4.632   0.504   8.314 -0.5700 -0.0952  0.8939
 8597SOL    HW237428   4.655   0.623   8.229 -1.3931 -1.5217 -0.2446
 8598SOL     OW37429   2.559   3.325   9.539 -0.2718  0.0669 -0.1271
 8598SOL    HW137430   2.523   3.346   9.452  0.6423  0.8892 -0.3048
 8598SOL    HW237431   2.654   3.333   9.524 -0.3217  1.8205  0.5569
 8599SOL     OW37432   2.976   2.055   2.616  0.2397 -0.1975  0.6883
 8599SOL    HW137433   3.056   2.077   2.663  0.4931 -0.1054  0.2079
 8599SOL    HW237434   2.970   2.126   2.553  2.0962 -0.7573 -0.0972
 8600SOL     OW37435   1.489   2.146   2.229  0.1150  0.1591 -0.7035
 8600SOL    HW137436   1.470   2.239   2.217  0.2569  0.0815 -1.5525
 8600SOL    HW237437   1.461   2.130   2.319  1.5130  1.5418 -0.0123
 8601SOL     OW37438   0.887   3.114   5.097 -0.2708 -0.4411 -0.2972
 8601SOL    HW137439   0.975   3.122   5.060 -0.6668  0.7381 -1.0197
 8601SOL    HW237440   0.861   3.206   5.093  0.3030 -0.2862 -0.4941
 8602SOL     OW37441   2.940   4.083   1.538  0.2316  0.5732 -0.0534
 8602SOL    HW137442   2.992   4.156   1.570 -1.1226  1.3919  0.2744
 8602SOL    HW237443   2.961   4.013   1.599  2.4153 -0.1428 -1.6190
 8603SOL     OW37444   2.349   0.354  10.344 -0.9923  1.1235  0.1450
 8603SOL    HW137445   2.345   0.276  10.288  0.6900 -0.3493  2.0503
 8603SOL    HW237446   2.299   0.323  10.419  0.5207 -1.0017  0.2958
 8604SOL     OW37447   0.862   3.309   6.199 -0.0869 -0.2707  0.1736
 8604SOL    HW137448   0.930   3.250   6.232  0.2916 -0.6593 -1.2926
 8604SOL    HW237449   0.908   3.353   6.128 -0.7457  1.4045  0.7861
 8605SOL     OW37450   3.639   1.572   8.145 -0.2887  0.3086  0.0753
 8605SOL    HW137451   3.576   1.500   8.155  0.3308 -0.2322  0.1060
 8605SOL    HW237452   3.717   1.518   8.161  0.1347  1.0702  0.5722
 8606SOL     OW37453   2.437   1.878  17.391 -0.6015 -0.5815 -0.3973
 8606SOL    HW137454   2.459   1.806  17.450 -1.8935  0.8029  1.7708
 8606SOL    HW237455   2.430   1.956  17.446  0.5578 -0.7355 -0.0250
 8607SOL     OW37456   3.287   3.283   9.585 -0.2049  0.1703  0.0080
 8607SOL    HW137457   3.200   3.317   9.566 -0.0651  0.8353  0.5738
 8607SOL    HW237458   3.304   3.340   9.659  1.2095  0.2915 -0.4150
 8608SOL     OW37459   2.720   0.441   1.965  0.2705 -0.6656  0.3238
 8608SOL    HW137460   2.685   0.376   2.026  1.0543 -1.6761 -0.3001
 8608SOL    HW237461   2.752   0.384   1.895 -0.3664 -0.6645  0.0349
 8609SOL     OW37462   2.119   3.687   8.425 -0.0488 -0.4655  0.0543
 8609SOL    HW137463   2.067   3.752   8.471 -1.1262 -0.4598 -1.1629
 8609SOL    HW237464   2.164   3.643   8.497  1.1834  0.7733  0.0395
 8610SOL     OW37465   2.973   3.167   4.763 -0.3488 -0.5010  0.2609
 8610SOL    HW137466   3.046   3.188   4.705  0.6667 -3.4573  0.4448
 8610SOL    HW237467   2.947   3.247   4.808  1.0734 -0.0669  0.2839
 8611SOL     OW37468   0.241   0.075   4.104 -0.1742 -0.1813  0.1022
 8611SOL    HW137469   0.277   0.004   4.051  0.9255  0.6749 -0.2923
 8611SOL    HW237470   0.209   0.022   4.177 -1.5584  0.7203  0.1466
 8612SOL     OW37471   3.487   0.090   1.901 -0.3051 -0.0458  0.1457
 8612SOL    HW137472   3.546   0.080   1.976  0.1548  1.7930  0.0390
 8612SOL    HW237473   3.507   0.013   1.849 -0.8519  1.0277 -1.6755
 8613SOL     OW37474   2.875   4.180   2.345 -0.3525 -0.1119 -0.2227
 8613SOL    HW137475   2.905   4.104   2.395  1.3950  1.1048  0.5846
 8613SOL    HW237476   2.788   4.143   2.329  0.3968 -1.7631 -0.4730
 8614SOL     OW37477   0.918   1.923  16.872  0.1573  0.0028  0.5766
 8614SOL    HW137478   0.945   1.844  16.918  1.8300  0.4614  0.3662
 8614SOL    HW237479   0.928   1.908  16.778 -1.7191 -0.3510  0.4231
 8615SOL     OW37480   2.021   2.644  15.923  0.1795 -0.1920 -0.7373
 8615SOL    HW137481   2.090   2.684  15.870 -0.4071  1.0016 -0.6055
 8615SOL    HW237482   1.939   2.659  15.876 -0.8913 -0.8715  0.9289
 8616SOL     OW37483   2.008   3.782   8.833 -0.2195 -0.1371 -0.2875
 8616SOL    HW137484   1.985   3.805   8.743  1.1088  0.1700 -0.5467
 8616SOL    HW237485   1.981   3.863   8.876 -0.3034 -0.5621  0.4631
 8617SOL     OW37486   2.083   3.956   5.598 -0.4658 -0.3305  0.3082
 8617SOL    HW137487   2.069   3.901   5.521  0.8651  1.1352 -0.9750
 8617SOL    HW237488   2.170   3.928   5.625  0.2687  1.1691 -0.4912
 8618SOL     OW37489   0.504   1.046  12.504 -0.1469 -0.4358  0.2986
 8618SOL    HW137490   0.415   1.030  12.473 -0.4335  1.4908  0.1097
 8618SOL    HW237491   0.554   1.011  12.430 -0.6145  0.3310 -0.3781
 8619SOL     OW37492   2.329   2.155   5.747  0.8068 -0.5921 -0.0208
 8619SOL    HW137493   2.345   2.075   5.796  0.2703 -0.8346 -0.2385
 8619SOL    HW237494   2.356   2.131   5.658  1.6329  2.0883 -0.5011
 8620SOL     OW37495   0.008   4.095   8.323  0.0051 -0.2549  0.3089
 8620SOL    HW137496   4.662   4.144   8.333  0.0027 -0.5740  1.9206
 8620SOL    HW237497   4.724   4.037   8.249  1.5147  1.4126 -1.3769
 8621SOL     OW37498   3.468   3.542   9.797 -0.0891 -0.7698  0.1608
 8621SOL    HW137499   3.510   3.483   9.736 -0.8298 -1.1402  0.0156
 8621SOL    HW237500   3.511   3.526   9.882  0.1875 -0.0832  0.1514
 8622SOL     OW37501   4.662   2.536   8.803 -0.0857  0.0078 -0.6597
 8622SOL    HW137502   4.658   2.624   8.838 -4.4257 -0.2656 -0.4792
 8622SOL    HW237503   4.569   2.519   8.786 -0.2627  0.1959  0.1230
 8623SOL     OW37504   3.751   0.781   1.025 -0.6784  1.0226  0.7497
 8623SOL    HW137505   3.705   0.865   1.027 -1.0581  0.8337 -0.3729
 8623SOL    HW237506   3.783   0.772   1.115 -0.8302 -0.1102  0.6884
 8624SOL     OW37507   2.968   1.299   5.818  0.4289 -0.2100 -0.7310
 8624SOL    HW137508   2.896   1.236   5.827 -0.5526  1.2793  1.7126
 8624SOL    HW237509   2.978   1.336   5.906 -2.4113 -0.1915 -0.4143
 8625SOL     OW37510   0.550   2.596   7.164  0.1952 -0.5208 -1.0819
 8625SOL    HW137511   0.645   2.594   7.161  0.2251 -2.3122  0.6655
 8625SOL    HW237512   0.537   2.547   7.083  0.9636  0.6914 -1.9216
 8626SOL     OW37513   3.790   2.679  15.262 -0.0568 -0.0045  0.6887
 8626SOL    HW137514   3.760   2.770  15.268 -0.2783  0.0977 -2.0517
 8626SOL    HW237515   3.856   2.697  15.195  0.2443 -1.4612  0.5954
 8627SOL     OW37516   4.121   3.264  14.884 -0.1486  0.2681  0.3796
 8627SOL    HW137517   4.032   3.270  14.921 -0.4618  1.3336 -0.5382
 8627SOL    HW237518   4.126   3.330  14.815  1.3750 -0.6010 -0.3126
 8628SOL     OW37519   3.839   3.622   6.897 -0.2864 -0.0405  0.0034
 8628SOL    HW137520   3.900   3.695   6.890  1.8144 -1.8388 -0.1428
 8628SOL    HW237521   3.827   3.600   6.804 -0.3352 -0.6217  0.1456
 8629SOL     OW37522   2.886   3.806   2.102  0.3772 -0.2172  0.0910
 8629SOL    HW137523   2.961   3.864   2.109 -0.0794  0.2907  0.8187
 8629SOL    HW237524   2.901   3.762   2.018 -2.0076  3.3035 -2.1650
 8630SOL     OW37525   1.044   2.009   4.693  0.5043 -0.1390  0.0318
 8630SOL    HW137526   1.058   1.927   4.646 -2.0570 -0.3954 -0.2799
 8630SOL    HW237527   1.092   1.989   4.773 -0.9586 -0.2757  0.8891
 8631SOL     OW37528   2.734   0.357   7.127  0.3215 -0.1175  0.0459
 8631SOL    HW137529   2.750   0.312   7.210 -1.4245 -2.4802 -0.9095
 8631SOL    HW237530   2.722   0.280   7.073 -0.4634  0.5376 -0.7049
 8632SOL     OW37531   4.253   4.329   8.488  0.1774 -0.4472  0.4649
 8632SOL    HW137532   4.184   4.285   8.438  0.9224 -1.2602  0.1649
 8632SOL    HW237533   4.202   4.409   8.503  0.7194 -0.4311  2.2640
 8633SOL     OW37534   2.044   2.336   3.962  0.1104  0.2893  0.4256
 8633SOL    HW137535   1.983   2.403   3.931 -0.0837 -0.3575 -0.5967
 8633SOL    HW237536   2.042   2.358   4.055 -1.3320 -1.4996  0.7989
 8634SOL     OW37537   3.538   3.815  11.207  0.4066 -0.1207 -0.0643
 8634SOL    HW137538   3.449   3.835  11.236  0.8628  0.6494  0.8092
 8634SOL    HW237539   3.523   3.818  11.112  0.4791 -1.8140 -0.1239
 8635SOL     OW37540   0.909   2.542  16.544 -0.0539  0.2054 -0.3760
 8635SOL    HW137541   0.939   2.579  16.461  0.6109 -1.1127 -0.7079
 8635SOL    HW237542   0.904   2.450  16.520 -2.5673  0.6817 -1.7169
 8636SOL     OW37543   4.254   1.290   7.829  0.0285  0.5470 -0.4524
 8636SOL    HW137544   4.318   1.232   7.786 -0.0771  2.1852 -2.8127
 8636SOL    HW237545   4.191   1.290   7.757 -1.8340 -0.2474  1.1856
 8637SOL     OW37546   1.078   4.305   6.530  0.3563 -0.1219  0.4303
 8637SOL    HW137547   0.995   4.261   6.512  1.0599 -1.2164 -0.1615
 8637SOL    HW237548   1.120   4.228   6.570 -0.9829 -1.1522 -0.1759
 8638SOL     OW37549   0.571   2.386  15.813 -0.2807 -0.0433  0.4979
 8638SOL    HW137550   0.536   2.326  15.878  0.3515 -3.0583 -1.9226
 8638SOL    HW237551   0.511   2.372  15.739 -0.4046 -1.2408  0.8196
 8639SOL     OW37552   1.309   1.127   6.733  0.0120 -0.0380  0.0016
 8639SOL    HW137553   1.367   1.071   6.682  0.1341  0.4694 -0.4173
 8639SOL    HW237554   1.224   1.085   6.722 -0.1823  0.9868 -2.2918
 8640SOL     OW37555   3.527   3.619   3.338  0.4030 -0.4545 -0.4562
 8640SOL    HW137556   3.582   3.696   3.327 -1.3040  0.9542  0.8496
 8640SOL    HW237557   3.440   3.649   3.310 -0.4947 -1.3764  1.2791
 8641SOL     OW37558   0.228   1.087   6.070 -0.2152 -0.2187 -0.5145
 8641SOL    HW137559   0.303   1.084   6.129  1.0943 -1.3739 -2.2640
 8641SOL    HW237560   0.192   1.170   6.100 -0.0397 -0.3193 -0.0261
 8642SOL     OW37561   3.541   4.123   1.870  0.1890  0.4072 -0.3912
 8642SOL    HW137562   3.531   4.104   1.963 -0.4912 -1.8121 -0.9175
 8642SOL    HW237563   3.593   4.046   1.847  2.1152  1.8696 -0.9346
 8643SOL     OW37564   2.394   1.919  13.725  0.4562  0.2388  0.2753
 8643SOL    HW137565   2.440   1.924  13.809  0.5296  1.8947  0.1199
 8643SOL    HW237566   2.407   2.006  13.689 -1.0061 -0.3283 -1.6313
 8644SOL     OW37567   2.690   3.899   4.750 -0.5800 -0.3746 -0.3624
 8644SOL    HW137568   2.650   3.844   4.683 -1.6806 -0.0867  0.0597
 8644SOL    HW237569   2.760   3.840   4.780 -1.6406 -1.1828  0.5070
 8645SOL     OW37570   2.663   4.355   2.993  0.1871 -0.0012  0.4701
 8645SOL    HW137571   2.568   4.363   2.985  0.1027 -1.2397  0.1481
 8645SOL    HW237572   2.673   4.315   3.079  0.1058  0.2791  0.6090
 8646SOL     OW37573   4.202   0.250   6.780 -0.4516 -0.0839  0.8928
 8646SOL    HW137574   4.263   0.177   6.789 -0.1313 -0.3276 -3.1205
 8646SOL    HW237575   4.198   0.261   6.685 -1.7935  0.3064  0.9889
 8647SOL     OW37576   3.458   2.192   3.601 -0.2183 -0.0905  0.2370
 8647SOL    HW137577   3.521   2.165   3.668 -1.3861 -0.6116  1.1191
 8647SOL    HW237578   3.415   2.107   3.589  1.2701 -0.9751  1.1047
 8648SOL     OW37579   3.189   2.965   2.914  0.0504 -0.5190 -0.2012
 8648SOL    HW137580   3.278   2.931   2.919  0.9571  1.4249 -2.4578
 8648SOL    HW237581   3.172   2.925   2.829  0.9732 -2.3162  0.4805
 8649SOL     OW37582   4.422   0.610   6.964 -0.0149 -0.1668 -0.0261
 8649SOL    HW137583   4.472   0.551   6.906 -0.1631 -0.0419 -0.2812
 8649SOL    HW237584   4.499   0.659   6.994  0.7511 -1.8529  0.7900
 8650SOL     OW37585   1.556   1.495  13.295  0.3377  0.3864  0.2664
 8650SOL    HW137586   1.488   1.451  13.244 -0.8170  3.7955 -1.1819
 8650SOL    HW237587   1.598   1.415  13.324  1.0954  0.5425 -0.4062
 8651SOL     OW37588   0.939   0.657  16.667  0.9010  0.4960  0.2338
 8651SOL    HW137589   0.905   0.587  16.723 -0.4413 -0.9916 -2.4627
 8651SOL    HW237590   0.899   0.638  16.582 -0.2053 -0.5316  0.9919
 8652SOL     OW37591   4.052   0.538  17.730 -0.6974 -0.5350 -0.0022
 8652SOL    HW137592   4.047   0.632   0.009 -1.9656 -0.2462 -1.7376
 8652SOL    HW237593   4.043   0.492   0.073  1.7383 -0.1007  0.4987
 8653SOL     OW37594   1.998   2.100   5.765 -0.3833 -0.4231  0.0721
 8653SOL    HW137595   2.000   2.065   5.676 -1.9631 -1.6328  0.5257
 8653SOL    HW237596   1.907   2.079   5.786 -1.0799  0.9711 -1.4936
 8654SOL     OW37597   1.817   2.898   7.056 -0.0623 -0.3921 -0.1365
 8654SOL    HW137598   1.909   2.890   7.081  0.0272 -1.5016 -0.8511
 8654SOL    HW237599   1.826   2.973   6.998 -0.5599 -0.8061 -0.7541
 8655SOL     OW37600   3.036   0.376   1.223 -0.3355  0.1091 -0.3472
 8655SOL    HW137601   3.018   0.282   1.220  1.5769 -0.2174 -1.2007
 8655SOL    HW237602   3.059   0.388   1.131 -0.0239  0.7763 -0.1731
 8656SOL     OW37603   0.689   4.104   8.409 -0.0458  0.3351 -0.0863
 8656SOL    HW137604   0.751   4.166   8.449 -0.2019 -0.5924  1.5746
 8656SOL    HW237605   0.608   4.128   8.454  1.2803  0.9802  1.9619
 8657SOL     OW37606   2.160   3.813   3.279 -0.1904 -0.2994 -0.1714
 8657SOL    HW137607   2.083   3.778   3.235 -1.9791  2.4150  0.7900
 8657SOL    HW237608   2.169   3.739   3.340 -0.7693  0.7308  1.1748
 8658SOL     OW37609   0.518   3.231   5.686 -0.2028 -0.2788 -0.1027
 8658SOL    HW137610   0.469   3.306   5.653  0.7182  0.4290  0.1305
 8658SOL    HW237611   0.525   3.248   5.780 -1.4088  0.3932 -0.1301
 8659SOL     OW37612   1.461   3.600   4.596 -0.3179 -0.1407  0.0717
 8659SOL    HW137613   1.397   3.642   4.538  0.3818  0.1444 -0.4983
 8659SOL    HW237614   1.470   3.514   4.555 -1.3192 -0.1233 -0.1682
 8660SOL     OW37615   4.194   0.685   2.364 -0.5793  0.1042 -0.7206
 8660SOL    HW137616   4.175   0.778   2.378 -0.2864  0.0297  0.1684
 8660SOL    HW237617   4.114   0.641   2.395 -0.4545  0.0689 -0.4525
 8661SOL     OW37618   3.285   2.316   5.764 -0.4101  0.3222 -0.0044
 8661SOL    HW137619   3.311   2.408   5.754 -0.0683  0.3616  1.2587
 8661SOL    HW237620   3.370   2.273   5.774 -0.8205 -0.3823  0.4702
 8662SOL     OW37621   0.905   3.086  11.012  0.3358 -0.5223 -0.1450
 8662SOL    HW137622   0.921   3.160  10.954 -0.0463 -0.4876 -0.2033
 8662SOL    HW237623   0.890   3.014  10.951  0.4302 -2.5155  2.1520
 8663SOL     OW37624   2.527   0.777   0.919 -0.0431  0.2206  0.3739
 8663SOL    HW137625   2.580   0.708   0.960  0.1013 -0.2456 -0.5947
 8663SOL    HW237626   2.604   0.821   0.882 -0.8702  2.4533  1.3320
 8664SOL     OW37627   2.721   4.066   3.171  0.1427  0.0781  0.6068
 8664SOL    HW137628   2.814   4.087   3.176  0.2347 -0.2067  0.0741
 8664SOL    HW237629   2.724   3.986   3.119 -3.2513  1.6908 -2.0846
 8665SOL     OW37630   2.742   0.833  10.881  0.1062  0.2387  0.0666
 8665SOL    HW137631   2.826   0.829  10.834 -0.2642  1.4129 -0.6891
 8665SOL    HW237632   2.702   0.889  10.815  0.6460  2.3231  1.5196
 8666SOL     OW37633   2.196   4.070   9.094  0.2844 -0.3231 -0.3706
 8666SOL    HW137634   2.107   4.049   9.065  0.2184 -0.0780 -0.3542
 8666SOL    HW237635   2.203   4.002   9.161 -0.4576 -0.5474 -0.5186
 8667SOL     OW37636   1.468   1.911   3.393 -0.3073 -0.2455 -0.0051
 8667SOL    HW137637   1.422   1.898   3.310  1.3991 -1.7795 -0.7088
 8667SOL    HW237638   1.412   1.977   3.434 -0.1008  1.3720 -2.2612
 8668SOL     OW37639   3.682   0.423  10.440  0.2552 -0.0494 -0.4150
 8668SOL    HW137640   3.643   0.446  10.525  1.8632 -1.2118  0.6442
 8668SOL    HW237641   3.763   0.383  10.471  0.6234  1.8218  1.0842
 8669SOL     OW37642   0.119   3.447   4.086 -0.4906  0.0720  0.2495
 8669SOL    HW137643   0.207   3.455   4.123 -0.4844 -1.1413  0.5095
 8669SOL    HW237644   0.106   3.535   4.051 -0.6270 -1.1296 -2.6802
 8670SOL     OW37645   2.064   2.998   4.511  0.1154 -0.2207 -0.1879
 8670SOL    HW137646   2.116   3.044   4.578  0.4288 -3.1222  1.5835
 8670SOL    HW237647   2.101   3.036   4.432  0.9787  1.2055  0.8897
 8671SOL     OW37648   4.031   3.132   2.456 -0.0021  0.1364 -0.6023
 8671SOL    HW137649   4.034   3.037   2.446  0.4444 -0.0010  0.7090
 8671SOL    HW237650   4.116   3.156   2.493 -1.1438  0.2258  1.9784
 8672SOL     OW37651   2.872   1.393   4.068  0.2527 -0.4570  0.0839
 8672SOL    HW137652   2.829   1.396   4.153  0.8473 -3.5829  0.4718
 8672SOL    HW237653   2.858   1.303   4.040 -0.9375 -0.9740  2.3819
 8673SOL     OW37654   1.938   2.870   2.964  0.1298 -0.0438 -0.3698
 8673SOL    HW137655   1.897   2.794   2.922 -1.6700 -0.1434  1.6088
 8673SOL    HW237656   1.860   2.911   3.002  0.3265 -0.4350  0.4468
 8674SOL     OW37657   0.866   3.651   8.528 -0.5049  0.2219 -0.2504
 8674SOL    HW137658   0.887   3.565   8.564 -0.5957  0.6369  0.7989
 8674SOL    HW237659   0.818   3.680   8.606  0.2942 -1.6964  0.9508
 8675SOL     OW37660   1.107   1.540   8.570  0.0948  0.5589  0.3096
 8675SOL    HW137661   1.029   1.596   8.561 -0.4050  0.1032  1.6960
 8675SOL    HW237662   1.081   1.490   8.647  2.7289  1.1640  1.6023
 8676SOL     OW37663   0.280   1.836   8.473  0.8607 -0.4151 -0.1077
 8676SOL    HW137664   0.243   1.840   8.385  0.7029  0.7623  0.0156
 8676SOL    HW237665   0.220   1.898   8.514  0.6593 -0.2023 -0.7331
 8677SOL     OW37666   2.287   2.561   7.129  0.0025  0.1663 -0.3320
 8677SOL    HW137667   2.225   2.603   7.188 -1.4008 -0.7437 -1.1657
 8677SOL    HW237668   2.223   2.512   7.078 -0.5766 -0.9233  1.4386
 8678SOL     OW37669   2.132   1.263   7.595  0.7765 -0.3114 -0.2366
 8678SOL    HW137670   2.220   1.301   7.594  0.6093  0.0409 -1.0972
 8678SOL    HW237671   2.103   1.318   7.668 -0.0648 -0.6706 -0.3127
 8679SOL     OW37672   2.507   0.355  12.596 -0.1724 -0.7155 -0.3506
 8679SOL    HW137673   2.500   0.277  12.652  3.1926  2.4076  4.3820
 8679SOL    HW237674   2.601   0.354  12.579 -0.3972 -1.3893 -1.4830
 8680SOL     OW37675   2.704   1.823   5.947 -0.1844 -0.5929  0.4554
 8680SOL    HW137676   2.698   1.914   5.976 -0.2231 -1.4744  3.2747
 8680SOL    HW237677   2.640   1.817   5.876 -0.5280  0.6010  0.6554
 8681SOL     OW37678   0.841   2.384   8.463 -0.4236  0.3964  0.2144
 8681SOL    HW137679   0.768   2.361   8.521  0.8912 -1.1257  1.2700
 8681SOL    HW237680   0.891   2.434   8.527 -0.0347 -0.4577  0.5802
 8682SOL     OW37681   2.461   4.310   5.422 -0.1483 -0.0290 -0.0936
 8682SOL    HW137682   2.382   4.364   5.425  0.7752  1.0852  4.8060
 8682SOL    HW237683   2.522   4.384   5.425 -1.4080  1.0039  0.2920
 8683SOL     OW37684   0.231   1.866   7.781 -0.4574 -0.2774 -0.1017
 8683SOL    HW137685   0.248   1.874   7.688 -1.4211  1.9966 -0.0796
 8683SOL    HW237686   0.308   1.816   7.807  0.0055  0.3032 -0.3677
 8684SOL     OW37687   0.135   0.130   7.682 -0.0432  0.3113 -0.3360
 8684SOL    HW137688   0.151   0.225   7.677 -0.3519  0.4428  1.1560
 8684SOL    HW237689   0.164   0.114   7.772 -1.1060 -1.2732 -0.2750
 8685SOL     OW37690   0.889   3.457   6.872 -0.3380  0.5854 -0.1942
 8685SOL    HW137691   0.856   3.523   6.933  1.4516  0.9659  0.3688
 8685SOL    HW237692   0.845   3.492   6.795 -1.8103  1.4732  1.0381
 8686SOL     OW37693   2.690   3.084   6.262 -0.0960 -0.1866 -0.0843
 8686SOL    HW137694   2.728   3.137   6.192 -0.2079 -1.0629 -0.8153
 8686SOL    HW237695   2.596   3.100   6.253 -0.5082 -2.7473 -0.3426
 8687SOL     OW37696   2.459   1.391   5.957  0.5170 -0.2307 -0.3838
 8687SOL    HW137697   2.472   1.391   5.862  1.0583  3.0747 -0.3260
 8687SOL    HW237698   2.391   1.458   5.965  3.0310  2.1992  0.4525
 8688SOL     OW37699   1.424   2.890   9.105  0.0164 -0.2967 -0.4756
 8688SOL    HW137700   1.356   2.823   9.104  0.8781 -1.1656 -0.2180
 8688SOL    HW237701   1.461   2.876   9.193  0.6649  1.5777 -0.4505
 8689SOL     OW37702   4.198   4.184   9.117 -0.0044 -0.0051  0.1353
 8689SOL    HW137703   4.150   4.122   9.063 -0.4526 -0.8661  1.5257
 8689SOL    HW237704   4.268   4.210   9.058 -0.4642 -0.2317 -0.5000
 8690SOL     OW37705   3.268   2.916  15.328  0.1983  0.6609  0.2636
 8690SOL    HW137706   3.322   2.870  15.392 -0.7372  1.4471  1.6241
 8690SOL    HW237707   3.288   2.887  15.239 -0.8421 -0.2706  0.3258
 8691SOL     OW37708   4.526   3.784   6.331  0.2142 -0.2381  0.4476
 8691SOL    HW137709   4.496   3.874   6.345 -0.9876 -0.7001  0.7695
 8691SOL    HW237710   4.534   3.785   6.235  0.0982  1.8474  0.4454
 8692SOL     OW37711   3.944   0.909  10.657 -0.3032  0.2197  1.3041
 8692SOL    HW137712   4.034   0.939  10.656 -0.1986 -0.2204 -2.7354
 8692SOL    HW237713   3.948   0.823  10.615  2.2691  1.1027 -0.1691
 8693SOL     OW37714   3.127   0.398   6.299  0.2832  0.2444  0.3997
 8693SOL    HW137715   3.219   0.377   6.316  0.3290 -1.5269 -1.9404
 8693SOL    HW237716   3.122   0.470   6.362  0.9169  0.6553 -0.0175
 8694SOL     OW37717   1.038   2.181   6.397  0.2262  0.7660 -0.5132
 8694SOL    HW137718   1.059   2.259   6.346  0.2244  0.8115 -0.4427
 8694SOL    HW237719   0.949   2.197   6.428  0.0045 -0.0372 -0.7209
 8695SOL     OW37720   1.522   0.078   1.801  0.0743 -0.7667  0.4473
 8695SOL    HW137721   1.450   0.079   1.738  1.1305 -0.9948 -0.7643
 8695SOL    HW237722   1.587   0.023   1.757 -0.4886 -2.1747  1.3963
 8696SOL     OW37723   1.018   3.167   6.553 -0.5040  1.1032  0.1239
 8696SOL    HW137724   1.077   3.100   6.588 -2.2674 -0.8135 -0.5758
 8696SOL    HW237725   0.954   3.180   6.624 -0.1664  2.2718  0.2065
 8697SOL     OW37726   3.358   3.909   5.859 -0.5296 -0.0221 -0.0873
 8697SOL    HW137727   3.449   3.879   5.857 -0.6466 -0.5243  2.1321
 8697SOL    HW237728   3.358   3.952   5.774 -0.1629 -3.3797 -1.7757
 8698SOL     OW37729   3.930   3.962  16.847  0.1461  0.3135 -0.2435
 8698SOL    HW137730   4.021   3.933  16.852  0.0004 -0.0432  0.2758
 8698SOL    HW237731   3.894   3.901  16.911  1.7549  0.4878  0.8138
 8699SOL     OW37732   3.185   1.436   4.456  0.3657 -0.5097  0.4459
 8699SOL    HW137733   3.213   1.483   4.534 -1.3601 -0.1332  0.8433
 8699SOL    HW237734   3.268   1.403   4.423 -0.8613 -0.5087 -2.6306
 8700SOL     OW37735   2.891   0.174   9.495 -0.4044  0.3026 -0.5266
 8700SOL    HW137736   2.804   0.135   9.500 -0.4103  0.3020 -0.6377
 8700SOL    HW237737   2.910   0.159   9.403  0.3216 -1.2359 -0.1391
 8701SOL     OW37738   2.577   1.790   6.844  0.4450  0.3077 -0.7667
 8701SOL    HW137739   2.541   1.795   6.755 -0.9568 -0.5042 -0.2514
 8701SOL    HW237740   2.646   1.856   6.840  1.7160 -0.9671  0.8521
 8702SOL     OW37741   1.393   2.790   4.272 -0.0497 -0.1249  0.3545
 8702SOL    HW137742   1.477   2.765   4.310  1.0874 -2.4907 -3.6721
 8702SOL    HW237743   1.395   2.747   4.187  0.6483 -0.5629  0.6015
 8703SOL     OW37744   1.598   1.226   4.690  0.1800 -0.6914  0.0486
 8703SOL    HW137745   1.541   1.199   4.618  0.9781  0.1498 -0.8796
 8703SOL    HW237746   1.562   1.186   4.770  1.9384  0.1871  1.2928
 8704SOL     OW37747   4.681   0.808  16.645 -0.2218 -0.2654 -0.0360
 8704SOL    HW137748   0.020   0.781  16.591  0.4072  1.0710  0.1560
 8704SOL    HW237749   4.734   0.830  16.721  0.0861 -2.3937  0.3532
 8705SOL     OW37750   0.209   1.963   5.311 -0.4507  0.2150  0.1054
 8705SOL    HW137751   0.266   2.032   5.278  0.6299 -1.5403 -1.6682
 8705SOL    HW237752   0.201   1.912   5.230 -3.1297  0.1553  0.3967
 8706SOL     OW37753   0.403   3.922  16.733  0.1049 -0.2195 -0.1054
 8706SOL    HW137754   0.391   3.912  16.638 -0.2249 -0.4132 -0.0436
 8706SOL    HW237755   0.314   3.908  16.766 -0.5948  2.9948 -0.6277
 8707SOL     OW37756   2.078   4.513   9.497 -0.2833  0.2889  0.0958
 8707SOL    HW137757   2.013   4.583   9.497  0.8021  1.2705 -2.5491
 8707SOL    HW237758   2.030   4.441   9.456 -1.8583  1.9849 -1.0353
 8708SOL     OW37759   1.251   2.705   2.239 -0.4758 -0.4605 -0.4263
 8708SOL    HW137760   1.228   2.616   2.266  0.4628 -0.4429  0.4283
 8708SOL    HW237761   1.278   2.691   2.148 -0.9545  1.0144 -0.7832
 8709SOL     OW37762   3.300   1.567   4.683  0.1035 -0.4056 -0.4394
 8709SOL    HW137763   3.331   1.657   4.671 -1.5383  0.3245  0.7860
 8709SOL    HW237764   3.260   1.576   4.770  0.7463 -2.6957  0.0978
 8710SOL     OW37765   0.637   0.761   0.080 -0.1318  0.1891 -0.2057
 8710SOL    HW137766   0.712   0.724   0.127  0.6676  1.3698 -0.5480
 8710SOL    HW237767   0.679   0.825   0.024  1.7384  1.3896  2.5612
 8711SOL     OW37768   3.715   3.758   4.923  0.0303  0.1060  0.1073
 8711SOL    HW137769   3.673   3.746   4.838 -1.2618  0.8397  0.6342
 8711SOL    HW237770   3.759   3.843   4.918 -1.3882  0.8222 -0.2568
 8712SOL     OW37771   3.186   3.280   4.329 -0.9000 -0.2040  0.4299
 8712SOL    HW137772   3.189   3.376   4.325 -0.8783 -0.2233 -0.0304
 8712SOL    HW237773   3.172   3.274   4.234  1.7075  1.4179 -0.0363
 8713SOL     OW37774   4.021   4.129   3.073  0.3216 -0.1935  0.1891
 8713SOL    HW137775   3.994   4.212   3.034  3.6080  0.5618 -0.4843
 8713SOL    HW237776   4.114   4.136   3.050 -0.3636  0.0831 -2.5440
 8714SOL     OW37777   2.188   4.430   5.432 -0.5867 -0.7016  0.3339
 8714SOL    HW137778   2.166   4.462   5.344  0.0781  0.0543  0.4464
 8714SOL    HW237779   2.122   4.361   5.437 -0.7227 -0.4112  2.2181
 8715SOL     OW37780   0.896   4.399   9.132  0.1907 -0.4145  0.5095
 8715SOL    HW137781   0.863   4.457   9.201  0.9317 -0.3323  0.7986
 8715SOL    HW237782   0.813   4.359   9.105 -0.1427  1.2487 -0.9809
 8716SOL     OW37783   1.924   0.344   0.621 -0.0275  0.5518  0.2327
 8716SOL    HW137784   1.949   0.423   0.572  1.6119 -0.8437 -1.1493
 8716SOL    HW237785   1.835   0.323   0.594 -0.4986  0.0922  2.1613
 8717SOL     OW37786   0.333   1.577   5.091 -0.8472 -0.3114 -0.7566
 8717SOL    HW137787   0.255   1.575   5.146 -0.1789  1.3991  0.2272
 8717SOL    HW237788   0.344   1.492   5.048 -1.5636 -1.5343  1.5048
 8718SOL     OW37789   3.811   2.646   2.514  0.6160  0.3013  0.7812
 8718SOL    HW137790   3.893   2.597   2.520  0.4175 -0.0073  1.0260
 8718SOL    HW237791   3.794   2.646   2.420  0.3595 -1.4442  0.8261
 8719SOL     OW37792   3.909   1.388   2.821 -0.2869 -0.3674 -0.2992
 8719SOL    HW137793   3.835   1.446   2.804  0.2594 -0.3573 -2.6778
 8719SOL    HW237794   3.915   1.350   2.733  0.9099  0.6124 -0.6306
 8720SOL     OW37795   3.642   3.124  15.904  0.6391 -0.0433  0.0994
 8720SOL    HW137796   3.639   3.219  15.893 -2.1041 -0.0483  0.6329
 8720SOL    HW237797   3.693   3.119  15.985  1.2320 -1.7990 -0.3680
 8721SOL     OW37798   1.983   3.263   3.212  0.1150 -0.0139 -0.0410
 8721SOL    HW137799   1.951   3.263   3.302 -1.9609  0.3847 -0.7948
 8721SOL    HW237800   2.017   3.351   3.199 -0.2849  0.3377  1.3598
 8722SOL     OW37801   3.269   3.292  10.830 -0.4119 -0.3898 -0.1515
 8722SOL    HW137802   3.335   3.351  10.865  0.3577  0.6673 -3.4042
 8722SOL    HW237803   3.306   3.213  10.870  1.8462  2.0358  2.4966
 8723SOL     OW37804   0.706   0.389   6.822  1.0353 -0.4064  0.1574
 8723SOL    HW137805   0.775   0.327   6.799  1.2150  0.0495 -0.5322
 8723SOL    HW237806   0.634   0.347   6.775  1.2885 -0.7581  0.0778
 8724SOL     OW37807   1.694   4.344  13.158  0.5849 -0.7523  0.2777
 8724SOL    HW137808   1.775   4.394  13.160 -0.6022  1.1234  1.6904
 8724SOL    HW237809   1.645   4.415  13.201  0.6827 -0.0786 -0.7256
 8725SOL     OW37810   3.217   4.622   8.629 -0.2036  0.1401 -0.3349
 8725SOL    HW137811   3.244   4.706   8.666  1.1274  0.6740 -2.4891
 8725SOL    HW237812   3.186   4.631   8.539 -1.6588 -1.1373  0.0325
 8726SOL     OW37813   4.384   2.327   3.918 -0.8168  0.2914 -0.5404
 8726SOL    HW137814   4.301   2.374   3.927 -0.2645  1.2100 -0.1699
 8726SOL    HW237815   4.406   2.334   3.825 -2.0441  2.0693 -0.7107
 8727SOL     OW37816   2.215   3.790  12.675  0.2874 -0.1871 -0.9394
 8727SOL    HW137817   2.156   3.855  12.713 -1.0436 -1.2336 -1.2423
 8727SOL    HW237818   2.166   3.710  12.658  0.3622 -0.0088 -1.9828
 8728SOL     OW37819   2.037   0.235   7.753 -0.2459 -0.2911  0.8571
 8728SOL    HW137820   2.129   0.254   7.771 -0.1295  0.9843 -1.1048
 8728SOL    HW237821   2.043   0.179   7.676 -1.4719  0.3683  0.2823
 8729SOL     OW37822   2.319   4.667   4.215 -0.0441  0.7582 -0.1232
 8729SOL    HW137823   2.351   4.595   4.270 -0.9156 -0.7930 -1.6428
 8729SOL    HW237824   2.391   4.729   4.222  0.9843 -0.1268 -2.7712
 8730SOL     OW37825   1.909   0.446  13.421 -0.2237  0.1392  0.8085
 8730SOL    HW137826   1.903   0.532  13.463  1.3126  0.3433  0.6141
 8730SOL    HW237827   1.978   0.474  13.360 -0.5255 -0.6369  0.1237
 8731SOL     OW37828   1.908   3.828  10.690 -0.2296 -0.5433  0.3484
 8731SOL    HW137829   1.986   3.849  10.740 -0.5251  0.5048  0.3810
 8731SOL    HW237830   1.944   3.792  10.609 -1.2510  0.3616 -0.5132
 8732SOL     OW37831   3.588   2.889   1.875 -0.1102 -0.3552  0.4979
 8732SOL    HW137832   3.583   2.890   1.971 -0.9064  2.0216  0.4360
 8732SOL    HW237833   3.600   2.981   1.854  1.9161 -0.1883  2.3282
 8733SOL     OW37834   4.141   4.410   3.599 -0.6699 -0.3494  0.4750
 8733SOL    HW137835   4.139   4.503   3.622 -0.4393 -0.5619  1.3584
 8733SOL    HW237836   4.160   4.422   3.506 -3.0387  1.9255  0.3027
 8734SOL     OW37837   2.068   2.085   3.317 -0.4000  0.2946 -0.0058
 8734SOL    HW137838   2.041   2.081   3.225  1.8329 -1.0953 -0.6023
 8734SOL    HW237839   1.991   2.070   3.372  0.2854 -0.0716  0.8603
 8735SOL     OW37840   4.533   0.620   7.695  0.0354 -0.5574 -0.1247
 8735SOL    HW137841   4.456   0.569   7.718 -0.9534  2.3270  3.0921
 8735SOL    HW237842   4.526   0.705   7.739 -1.4750 -1.0082  0.5136
 8736SOL     OW37843   3.750   3.233   7.823 -0.1048  0.0630  0.6934
 8736SOL    HW137844   3.812   3.266   7.887  1.4174 -0.4532 -0.5142
 8736SOL    HW237845   3.752   3.310   7.765  0.1950 -0.7477 -0.3671
 8737SOL     OW37846   0.189   2.026   3.053  0.2883 -0.2439  0.2290
 8737SOL    HW137847   0.153   2.049   3.139 -0.2549 -1.3088  0.2855
 8737SOL    HW237848   0.133   1.953   3.027  1.1414 -1.3863  1.5684
 8738SOL     OW37849   1.423   0.027   7.267 -0.1844 -0.0759  0.1523
 8738SOL    HW137850   1.411   0.011   7.173  4.1390 -2.4839  0.0321
 8738SOL    HW237851   1.513   4.730   7.276  0.4628  1.4196 -1.0944
 8739SOL     OW37852   2.574   1.091   5.091  0.2910  0.6158 -0.1987
 8739SOL    HW137853   2.641   1.116   5.028  0.8464 -1.5825 -0.4688
 8739SOL    HW237854   2.495   1.119   5.043  0.6847  1.4088 -0.3938
 8740SOL     OW37855   2.418   2.973  11.888 -0.3195 -0.5418 -0.1477
 8740SOL    HW137856   2.425   3.067  11.874 -1.0693 -0.4585  0.0480
 8740SOL    HW237857   2.338   2.965  11.940 -1.7697 -0.2829 -2.3574
 8741SOL     OW37858   3.024   2.801  11.133 -0.1682 -0.0029  0.5430
 8741SOL    HW137859   2.994   2.716  11.101  0.8433 -0.4412  0.7599
 8741SOL    HW237860   2.967   2.815  11.208 -0.0301  0.0414  0.6392
 8742SOL     OW37861   2.936   1.000   4.348 -0.6365 -0.1601  0.5939
 8742SOL    HW137862   2.993   1.076   4.337  0.3156 -1.0066 -0.4599
 8742SOL    HW237863   2.951   0.956   4.264 -0.4912  0.5436  0.2510
 8743SOL     OW37864   1.564   3.167   3.211 -0.0694 -0.3213  0.6484
 8743SOL    HW137865   1.585   3.248   3.258  0.8326 -0.8032  1.0768
 8743SOL    HW237866   1.497   3.202   3.152  1.7089  3.4294  0.8252
 8744SOL     OW37867   0.599   3.791   2.909  0.5804 -0.5625  0.5747
 8744SOL    HW137868   0.522   3.823   2.862 -0.5229 -0.5055  2.4203
 8744SOL    HW237869   0.619   3.862   2.970  2.9030 -1.2659  0.6380
 8745SOL     OW37870   4.461   2.399   5.207 -0.6929  0.1220 -0.1462
 8745SOL    HW137871   4.418   2.483   5.222 -1.1012 -0.7419  3.5367
 8745SOL    HW237872   4.457   2.396   5.111  0.5492  0.8061 -0.2149
 8746SOL     OW37873   0.927   1.469   5.236 -0.1111  0.5643 -0.0059
 8746SOL    HW137874   0.905   1.557   5.205 -2.8920  0.0514  0.5256
 8746SOL    HW237875   1.008   1.449   5.190 -0.4072 -0.8643  0.1085
 8747SOL     OW37876   2.751   3.883  11.888 -0.4616  0.4030  0.0413
 8747SOL    HW137877   2.684   3.897  11.954  0.5063 -0.2629  1.1828
 8747SOL    HW237878   2.746   3.788  11.876 -1.9896  0.3745  0.8860
 8748SOL     OW37879   1.701   4.152  12.826 -0.2557 -0.4361  0.1190
 8748SOL    HW137880   1.628   4.190  12.874  0.4051 -1.3472  1.8487
 8748SOL    HW237881   1.663   4.067  12.805 -1.3760  0.2870 -0.7480
 8749SOL     OW37882   3.333   3.523   8.884  0.4463  0.7524 -0.2388
 8749SOL    HW137883   3.282   3.579   8.825 -0.9543 -0.1173  0.1447
 8749SOL    HW237884   3.358   3.589   8.948  0.8571  0.6745 -0.3225
 8750SOL     OW37885   4.628   1.038   0.969 -0.0439 -0.4246 -0.4798
 8750SOL    HW137886   4.597   1.087   0.893  0.5930 -1.0375 -1.1383
 8750SOL    HW237887   4.706   0.998   0.932  1.2989  1.6075  0.1562
 8751SOL     OW37888   3.290   3.575   9.219  0.1259  0.5151 -0.0803
 8751SOL    HW137889   3.274   3.481   9.224  1.6316  0.3660  1.9058
 8751SOL    HW237890   3.373   3.581   9.171 -0.8988 -1.3850 -2.1437
 8752SOL     OW37891   3.013   3.126   5.463 -0.1979 -0.6662  0.1646
 8752SOL    HW137892   3.016   3.219   5.483  0.5027 -1.2709  2.8516
 8752SOL    HW237893   3.007   3.126   5.367  0.8936 -2.3004  0.0957
 8753SOL     OW37894   2.013   4.107   4.716  0.0888  0.4435  0.0388
 8753SOL    HW137895   1.959   4.140   4.645  2.8964  1.6662 -1.5473
 8753SOL    HW237896   2.091   4.160   4.699 -1.3448  2.8181  0.9090
 8754SOL     OW37897   0.335   0.597   7.135 -1.0137  0.4722  0.0548
 8754SOL    HW137898   0.265   0.582   7.198 -0.1618 -0.1517  0.8481
 8754SOL    HW237899   0.325   0.690   7.116 -1.2018  1.1683  3.6127
 8755SOL     OW37900   1.903   4.191  13.088  0.3908 -0.9958 -0.2034
 8755SOL    HW137901   1.916   4.104  13.051 -0.7246  0.1299 -3.2543
 8755SOL    HW237902   1.813   4.197  13.117  0.0115  1.4345 -1.8537
 8756SOL     OW37903   2.548   0.105   9.203  0.3590 -0.5990 -0.3767
 8756SOL    HW137904   2.574   0.068   9.287  0.3933  0.9402  0.2888
 8756SOL    HW237905   2.460   0.133   9.230  0.9808  0.6033  0.3949
 8757SOL     OW37906   3.909   4.532   8.250 -0.0215  0.4856 -0.2337
 8757SOL    HW137907   3.817   4.510   8.237 -0.1683  0.6702  0.5056
 8757SOL    HW237908   3.913   4.624   8.225 -2.2454  0.8546  0.7751
 8758SOL     OW37909   4.447   2.353   3.597 -0.0593  0.0169  0.1998
 8758SOL    HW137910   4.407   2.438   3.614  0.7107 -0.0682  2.4097
 8758SOL    HW237911   4.537   2.370   3.626  0.9578 -2.8886 -1.2699
 8759SOL     OW37912   2.890   2.929   2.574  0.3092  0.7416  0.3974
 8759SOL    HW137913   2.848   2.925   2.660 -0.9912 -0.0678 -0.2907
 8759SOL    HW237914   2.825   2.885   2.520  1.1941 -0.6110  0.4449
 8760SOL     OW37915   0.671   4.572   4.322  0.4015 -0.0986  0.2795
 8760SOL    HW137916   0.639   4.521   4.247 -1.3802  0.4017  0.6902
 8760SOL    HW237917   0.589   4.606   4.358 -0.6644 -2.6609  0.2562
 8761SOL     OW37918   0.951   1.936  10.580 -0.0369 -0.3236  0.1588
 8761SOL    HW137919   1.023   1.961  10.522 -0.9629 -0.0148 -0.8783
 8761SOL    HW237920   0.984   1.959  10.666 -0.0650 -1.0846  0.3727
 8762SOL     OW37921   2.378   1.777   0.764  0.3453  0.2248 -0.1953
 8762SOL    HW137922   2.408   1.841   0.698  0.7825 -0.5887 -0.7855
 8762SOL    HW237923   2.438   1.807   0.833  0.6960  1.8483 -1.1885
 8763SOL     OW37924   1.107   0.392   4.459  0.2147 -0.1431  0.1380
 8763SOL    HW137925   1.176   0.385   4.393 -0.6549 -2.3459 -0.5305
 8763SOL    HW237926   1.129   0.322   4.520  2.8081 -1.0694 -1.8779
 8764SOL     OW37927   2.948   3.034   5.182  0.0792  0.0983 -0.6296
 8764SOL    HW137928   2.882   2.966   5.194  0.7226 -0.3382  0.4765
 8764SOL    HW237929   3.016   2.967   5.174 -0.1611 -0.4179  1.5477
 8765SOL     OW37930   0.681   2.408   1.568  0.7409  0.0231  0.5803
 8765SOL    HW137931   0.594   2.368   1.560 -0.7866  2.9160  2.4123
 8765SOL    HW237932   0.659   2.487   1.519  0.0658 -0.4490  0.1130
 8766SOL     OW37933   4.510   1.076  12.183 -0.2756  0.4480  0.4870
 8766SOL    HW137934   4.487   1.142  12.117 -0.0312  2.5826  2.5547
 8766SOL    HW237935   4.463   1.107  12.260 -1.6667  0.9018 -0.5526
 8767SOL     OW37936   3.219   0.455   9.441 -0.1744 -0.3089  0.0215
 8767SOL    HW137937   3.224   0.361   9.457 -0.9248 -0.4303 -0.4760
 8767SOL    HW237938   3.248   0.491   9.525 -2.2847  2.5174 -0.4349
 8768SOL     OW37939   3.680   0.709   5.254  0.4341 -0.4467  0.2888
 8768SOL    HW137940   3.660   0.695   5.161 -1.5987  1.1419  0.4950
 8768SOL    HW237941   3.594   0.702   5.296  0.1415 -0.6221 -0.3304
 8769SOL     OW37942   2.643   1.486  16.744 -0.4920  0.1840 -0.0466
 8769SOL    HW137943   2.611   1.447  16.663 -0.6868 -0.5300  0.3785
 8769SOL    HW237944   2.578   1.454  16.806 -0.3758 -1.4173 -0.7567
 8770SOL     OW37945   4.323   3.710  14.832  0.2848 -0.1235  0.6601
 8770SOL    HW137946   4.357   3.793  14.866  1.7078 -0.5621  0.3111
 8770SOL    HW237947   4.376   3.654  14.889  0.6907 -0.8014 -0.3764
 8771SOL     OW37948   2.570   0.751   9.110 -0.5388 -0.8815  0.2047
 8771SOL    HW137949   2.559   0.736   9.204 -0.9832 -1.5221  0.0502
 8771SOL    HW237950   2.580   0.662   9.078 -1.4535 -1.0077  0.2703
 8772SOL     OW37951   4.021   2.359   1.653 -0.0938 -0.3848  0.3390
 8772SOL    HW137952   3.944   2.360   1.595  0.3380 -0.2539 -0.2323
 8772SOL    HW237953   4.094   2.332   1.596  0.0009 -1.3253  0.9037
 8773SOL     OW37954   4.179   3.015  17.365  0.0052 -0.2258  0.9163
 8773SOL    HW137955   4.122   3.008  17.442  1.6189  1.3691  2.2470
 8773SOL    HW237956   4.256   2.975  17.403  2.4568  2.2927 -1.3616
 8774SOL     OW37957   1.927   4.378   9.964 -0.9075 -0.4753 -0.3347
 8774SOL    HW137958   1.943   4.444   9.897  0.6132  0.3121  0.7862
 8774SOL    HW237959   2.018   4.357   9.987 -1.3519  0.1590  2.0577
 8775SOL     OW37960   4.033   4.087   5.182 -0.0544 -0.0049  0.5894
 8775SOL    HW137961   4.070   4.134   5.256  0.9711  1.2191 -0.6832
 8775SOL    HW237962   4.074   4.001   5.192  1.3590  0.8520  2.0459
 8776SOL     OW37963   0.885   3.377   2.281 -0.1282  0.8132  0.1369
 8776SOL    HW137964   0.808   3.323   2.298 -0.5690  1.3687 -0.1043
 8776SOL    HW237965   0.878   3.393   2.187  1.1034  1.8837  0.2263
 8777SOL     OW37966   2.294   1.904   2.614  0.0576 -0.1415  0.2552
 8777SOL    HW137967   2.238   1.966   2.566 -0.7288 -0.5531  0.6402
 8777SOL    HW237968   2.375   1.954   2.607 -1.3263  1.3976 -4.6691
 8778SOL     OW37969   3.961   2.717   8.015 -0.0100 -0.3148 -0.1233
 8778SOL    HW137970   3.996   2.637   8.053 -0.9586 -0.0578  1.2755
 8778SOL    HW237971   3.973   2.772   8.092 -0.4852  0.7279 -0.7796
 8779SOL     OW37972   2.753   1.140   8.883 -0.8567  0.0019  0.0106
 8779SOL    HW137973   2.717   1.053   8.900  1.1210 -0.9281 -0.5277
 8779SOL    HW237974   2.700   1.195   8.940  0.5850  1.0738  0.3233
 8780SOL     OW37975   1.278   3.985  11.608 -0.5929  0.0567  0.2135
 8780SOL    HW137976   1.368   3.971  11.639 -0.1812  1.2243 -0.4429
 8780SOL    HW237977   1.230   3.964  11.688 -1.4675  4.6759  0.9457
 8781SOL     OW37978   0.474   4.733   0.920  0.6687  0.0407  1.0458
 8781SOL    HW137979   0.391   0.045   0.914  0.6376 -0.5110 -3.0785
 8781SOL    HW237980   0.528   0.065   0.962  0.7463  1.7185 -1.6709
 8782SOL     OW37981   4.535   3.915   4.580  0.6733 -0.5707 -0.0878
 8782SOL    HW137982   4.502   3.924   4.669  2.6167 -1.8329  0.7610
 8782SOL    HW237983   4.629   3.906   4.593  0.5986  0.7066  1.2289
 8783SOL     OW37984   1.833   0.520   3.070  0.2457 -0.0034 -0.8968
 8783SOL    HW137985   1.865   0.435   3.101  2.3569  0.1452 -2.6410
 8783SOL    HW237986   1.749   0.516   3.116  0.3868 -0.5170 -0.6799
 8784SOL     OW37987   1.901   0.668   8.136 -0.0590  0.3235 -0.2849
 8784SOL    HW137988   1.809   0.685   8.114 -0.2299 -1.6136 -1.0235
 8784SOL    HW237989   1.941   0.657   8.050  0.9722  3.3068 -0.1970
 8785SOL     OW37990   3.306   1.299   3.772  0.7153 -0.0401 -0.7956
 8785SOL    HW137991   3.233   1.248   3.737  0.5691  0.2355 -0.8892
 8785SOL    HW237992   3.291   1.313   3.865  2.2404 -2.3334 -0.2003
 8786SOL     OW37993   4.439   4.175   1.667  0.2685 -0.3664  0.2735
 8786SOL    HW137994   4.430   4.198   1.575  0.1895 -1.4481  0.0115
 8786SOL    HW237995   4.522   4.217   1.689  0.6206 -1.2724  0.6536
 8787SOL     OW37996   2.676   2.244  17.312 -0.2814  0.1052 -0.1921
 8787SOL    HW137997   2.653   2.252  17.219  0.5492  0.7513 -0.3407
 8787SOL    HW237998   2.740   2.173  17.307  1.0312  1.1451  1.9965
 8788SOL     OW37999   2.407   3.639   9.553  0.1247 -0.2178  0.0682
 8788SOL    HW138000   2.323   3.684   9.560  0.5613  0.8090 -1.3244
 8788SOL    HW238001   2.442   3.652   9.641  1.5845 -1.4472 -0.3265
 8789SOL     OW38002   2.915   2.570   6.963 -0.5293 -0.0559 -0.0756
 8789SOL    HW138003   2.948   2.561   7.053  2.0386 -1.3958 -1.1551
 8789SOL    HW238004   2.976   2.641   6.940 -0.7052  0.7316  1.8353
 8790SOL     OW38005   1.625   1.047  11.967 -0.4456  0.2487 -0.4541
 8790SOL    HW138006   1.638   1.085  11.880 -0.6096 -0.0054 -0.5882
 8790SOL    HW238007   1.562   1.111  12.000 -0.4422  0.5027 -0.9488
 8791SOL     OW38008   2.420   4.497   4.403 -0.0574 -0.3051 -0.4930
 8791SOL    HW138009   2.473   4.434   4.355 -0.8571 -2.5172  1.5315
 8791SOL    HW238010   2.480   4.571   4.413 -0.4147  0.0699 -1.1605
 8792SOL     OW38011   2.491   1.749  15.715  0.6624 -0.2190 -0.4273
 8792SOL    HW138012   2.415   1.727  15.661 -0.9329  1.1511  1.2712
 8792SOL    HW238013   2.530   1.826  15.674  1.9029 -0.7796 -0.2955
 8793SOL     OW38014   1.721   3.943   5.682 -0.1434  0.3024 -0.0217
 8793SOL    HW138015   1.759   4.014   5.735  0.2305  1.1862 -1.4806
 8793SOL    HW238016   1.681   3.988   5.608  3.1271  1.4427 -1.0986
 8794SOL     OW38017   0.601   3.166   3.007 -0.1745  0.2379 -0.6334
 8794SOL    HW138018   0.695   3.188   3.009  0.0508 -1.0516  3.4634
 8794SOL    HW238019   0.589   3.075   3.033 -2.6890  0.0181 -2.5799
 8795SOL     OW38020   1.210   1.369  17.679  0.0964  0.3145 -0.2376
 8795SOL    HW138021   1.127   1.348  17.721 -0.2002  0.0892 -0.9249
 8795SOL    HW238022   1.248   1.289  17.643 -2.7502 -0.8979 -0.5380
 8796SOL     OW38023   3.142   3.066   1.143  0.0326 -0.6817  0.6676
 8796SOL    HW138024   3.131   3.069   1.238  1.5070 -1.5940  0.8584
 8796SOL    HW238025   3.237   3.061   1.142 -0.1352 -3.3710 -0.5789
 8797SOL     OW38026   0.440   2.742   2.510  0.2541 -0.2949 -0.2150
 8797SOL    HW138027   0.502   2.803   2.469 -1.6079 -0.7905 -3.7810
 8797SOL    HW238028   0.458   2.757   2.603  1.6896  2.5957 -0.9215
 8798SOL     OW38029   3.081   1.862   7.956 -0.4312 -0.3075  0.4146
 8798SOL    HW138030   3.153   1.805   7.980 -1.9750 -1.0071  3.4108
 8798SOL    HW238031   3.098   1.918   8.032 -1.2270  1.5012 -0.7385
 8799SOL     OW38032   2.528   3.945   7.550  0.2257 -0.0316  0.4618
 8799SOL    HW138033   2.542   4.003   7.625  2.8596 -0.4325  0.2786
 8799SOL    HW238034   2.464   4.001   7.505  1.2077  1.5652  1.0372
 8800SOL     OW38035   3.028   1.663  11.131  0.0825  0.4010 -0.0643
 8800SOL    HW138036   3.088   1.592  11.152  0.6132  1.0287  0.5559
 8800SOL    HW238037   2.951   1.637  11.181  0.4436  1.3287  0.9643
 8801SOL     OW38038   1.976   1.027   0.334 -0.1360  0.0065 -0.5039
 8801SOL    HW138039   1.926   0.985   0.405  1.7432 -1.3817  0.0017
 8801SOL    HW238040   1.928   0.987   0.261  1.0044  0.1470 -1.3214
 8802SOL     OW38041   0.598   2.989   6.124  0.1289 -0.0741  0.4424
 8802SOL    HW138042   0.588   2.919   6.189 -2.4831  1.0819  1.2776
 8802SOL    HW238043   0.686   2.974   6.088 -0.5975 -0.5749 -1.1285
 8803SOL     OW38044   4.264   0.460   2.189  0.6213  0.1073 -0.3209
 8803SOL    HW138045   4.355   0.486   2.207 -0.1271 -0.4573  4.2156
 8803SOL    HW238046   4.223   0.541   2.219 -0.9398 -1.4468  1.7894
 8804SOL     OW38047   0.742   4.528  11.513 -0.0343 -0.2899  0.6356
 8804SOL    HW138048   0.720   4.436  11.523 -0.2995 -0.3079 -0.1185
 8804SOL    HW238049   0.829   4.531  11.473  0.4142 -0.8670  1.5751
 8805SOL     OW38050   1.552   4.309   5.510  0.4396 -0.2666 -0.7579
 8805SOL    HW138051   1.496   4.290   5.586  0.7940 -0.5525 -0.5723
 8805SOL    HW238052   1.626   4.320   5.569  1.4790 -0.0040 -2.1268
 8806SOL     OW38053   0.015   4.544   3.218  0.3462  0.3748  0.0402
 8806SOL    HW138054   0.004   4.525   3.311 -1.8804 -0.2834 -0.3641
 8806SOL    HW238055   0.044   4.635   3.221 -1.6460  1.1078 -3.1883
 8807SOL     OW38056   3.585   1.747   7.225  0.1334  0.4043  0.0947
 8807SOL    HW138057   3.533   1.731   7.146 -1.2612  2.0753  0.6873
 8807SOL    HW238058   3.622   1.834   7.213 -1.5605  1.2197  0.7391
 8808SOL     OW38059   1.955   3.265   3.907 -0.0815 -0.0866  0.1345
 8808SOL    HW138060   2.020   3.195   3.913  0.4884  0.5176  1.0106
 8808SOL    HW238061   1.908   3.230   3.831  2.5419 -1.5980 -0.7875
 8809SOL     OW38062   2.816   1.479   7.556  0.6184 -0.0782  0.4045
 8809SOL    HW138063   2.818   1.415   7.486 -2.0722  0.1756  0.0730
 8809SOL    HW238064   2.826   1.565   7.514  0.1464  0.1302  0.7144
 8810SOL     OW38065   0.150   2.906   5.616 -0.2421  0.5151  0.4084
 8810SOL    HW138066   0.067   2.865   5.592 -0.1705  0.7110 -0.1621
 8810SOL    HW238067   0.171   2.944   5.531 -2.4737  1.0149  0.0968
 8811SOL     OW38068   2.275   3.075  14.183 -0.0654 -0.5939  0.1648
 8811SOL    HW138069   2.312   3.046  14.100  0.6769 -0.7946  0.5642
 8811SOL    HW238070   2.291   3.168  14.194 -0.2987 -0.4266 -0.9049
 8812SOL     OW38071   4.646   3.486   3.404  0.2439  0.5711 -0.3979
 8812SOL    HW138072   4.636   3.419   3.335 -2.1766  1.6687 -1.1211
 8812SOL    HW238073   4.560   3.522   3.422 -0.6295 -2.2757  1.2274
 8813SOL     OW38074   2.732   0.320   8.128 -0.0125  0.1629 -0.5412
 8813SOL    HW138075   2.827   0.335   8.131  0.0268 -0.5545  1.3979
 8813SOL    HW238076   2.705   0.387   8.065 -0.7277 -0.4250 -0.8500
 8814SOL     OW38077   2.623   1.471   8.812  0.3490 -0.1463 -0.1114
 8814SOL    HW138078   2.675   1.543   8.850 -0.6887  0.8675 -0.6147
 8814SOL    HW238079   2.619   1.410   8.886  1.0494 -1.8788 -1.5042
 8815SOL     OW38080   4.355   2.153   0.929  0.1210 -0.1671 -0.1926
 8815SOL    HW138081   4.419   2.223   0.921 -0.5533  0.0957 -3.6725
 8815SOL    HW238082   4.407   2.095   0.872  0.9146  1.0964 -0.7407
 8816SOL     OW38083   1.901   1.560  13.169  0.1267  0.4052 -0.0124
 8816SOL    HW138084   1.893   1.653  13.145  0.1353 -0.3999 -3.1251
 8816SOL    HW238085   1.807   1.540  13.177  0.3371 -0.5165  0.1606
 8817SOL     OW38086   1.883   1.410   6.295 -0.6092  0.6393 -0.4412
 8817SOL    HW138087   1.931   1.492   6.281 -1.5829  0.3866 -5.5347
 8817SOL    HW238088   1.874   1.415   6.390 -1.0191  1.3806 -0.5212
 8818SOL     OW38089   2.883   0.288   7.356 -0.2465  0.3859 -0.0042
 8818SOL    HW138090   2.947   0.331   7.300 -0.5942 -1.0523 -1.5225
 8818SOL    HW238091   2.913   0.318   7.442  0.5996  0.3381 -0.2852
 8819SOL     OW38092   2.278   4.402   8.180  0.8463  0.2790  0.0231
 8819SOL    HW138093   2.347   4.459   8.215 -1.6290  1.6230  2.7428
 8819SOL    HW238094   2.206   4.436   8.233  1.9079  0.2535  1.4603
 8820SOL     OW38095   1.804   4.380   4.686 -0.1534 -0.1517 -0.1841
 8820SOL    HW138096   1.766   4.438   4.619 -0.0732  0.5745  0.4050
 8820SOL    HW238097   1.829   4.313   4.622  0.8198 -0.5713  0.6427
 8821SOL     OW38098   2.878   3.552   6.186  0.0393  0.0676 -0.0765
 8821SOL    HW138099   2.924   3.484   6.137  0.7078  0.7911 -0.4478
 8821SOL    HW238100   2.854   3.511   6.269 -0.5257  0.5621  0.0084
 8822SOL     OW38101   2.277   4.700   9.950  0.4881 -0.7560 -0.2112
 8822SOL    HW138102   2.203   4.644   9.926  0.0474 -1.0855  1.9577
 8822SOL    HW238103   2.342   4.630   9.946  0.9209 -0.3143 -0.8545
 8823SOL     OW38104   3.272   2.426   8.879 -0.4171  0.1139 -0.0875
 8823SOL    HW138105   3.194   2.373   8.896 -1.2156  1.2617 -0.2392
 8823SOL    HW238106   3.229   2.510   8.863  1.5792  1.2007  0.3331
 8824SOL     OW38107   3.300   3.556   6.779 -0.1196  0.0816  0.3752
 8824SOL    HW138108   3.288   3.619   6.709  0.0987 -0.5373 -0.2223
 8824SOL    HW238109   3.381   3.514   6.749  2.0229  4.6179 -0.0604
 8825SOL     OW38110   1.887   2.601  14.687  0.3640  1.0751  0.1922
 8825SOL    HW138111   1.912   2.685  14.647 -0.1896  1.2559  0.2298
 8825SOL    HW238112   1.846   2.555  14.614  0.4278  1.3589 -0.0227
 8826SOL     OW38113   3.112   3.979   4.812  0.0470 -0.1565 -0.0646
 8826SOL    HW138114   3.199   3.943   4.793  0.3176  0.8767 -0.8124
 8826SOL    HW238115   3.126   4.018   4.898  0.9382 -0.4458 -0.0798
 8827SOL     OW38116   1.354   2.170   2.744 -0.6254  0.5282 -0.6910
 8827SOL    HW138117   1.270   2.198   2.781  0.8939  2.4471  1.2673
 8827SOL    HW238118   1.358   2.082   2.783 -1.1757  0.6146 -0.4356
 8828SOL     OW38119   4.144   1.894  15.641  0.5127 -0.6243  0.3515
 8828SOL    HW138120   4.182   1.810  15.614 -0.5847 -0.3933 -1.8919
 8828SOL    HW238121   4.178   1.953  15.574  0.2883 -0.8133  0.0766
 8829SOL     OW38122   3.027   2.411   7.965  0.4494 -0.5162 -0.1341
 8829SOL    HW138123   3.013   2.431   8.058  0.5411  1.9023 -0.6270
 8829SOL    HW238124   2.946   2.441   7.923  0.3569  1.9783  1.8405
 8830SOL     OW38125   0.203   1.648   6.940  0.7971 -0.8949  0.1406
 8830SOL    HW138126   0.218   1.642   6.846 -0.4227  1.1228 -0.1928
 8830SOL    HW238127   0.188   1.556   6.962  0.6764 -0.9970 -0.3707
 8831SOL     OW38128   0.045   0.148   8.673 -0.3650  0.0914  0.1722
 8831SOL    HW138129   0.100   0.072   8.657  0.4734  0.5415  0.9325
 8831SOL    HW238130   0.036   0.148   8.768 -0.7620 -0.7841  0.1334
 8832SOL     OW38131   0.865   0.414   3.511 -0.5042 -0.2459 -0.0889
 8832SOL    HW138132   0.898   0.442   3.426  0.0137 -0.2837  0.1027
 8832SOL    HW238133   0.783   0.366   3.499  0.6814 -1.4306 -3.2724
 8833SOL     OW38134   4.190   4.120  11.102 -0.4796 -0.1019  0.4856
 8833SOL    HW138135   4.218   4.143  11.013 -2.0807  3.7333  0.9734
 8833SOL    HW238136   4.199   4.203  11.148  1.5729 -0.1607  0.1975
 8834SOL     OW38137   4.695   4.455   4.634 -0.0460 -0.2868  0.1466
 8834SOL    HW138138   0.037   4.511   4.642  0.5516 -1.2648  1.3687
 8834SOL    HW238139   4.719   4.393   4.565  1.2635 -0.5742  0.8466
 8835SOL     OW38140   2.399   4.382   3.046  0.0170 -0.0637  0.4268
 8835SOL    HW138141   2.341   4.458   3.043  0.6401  0.3667 -1.0251
 8835SOL    HW238142   2.343   4.330   3.103  0.2446 -0.0729  0.6417
 8836SOL     OW38143   1.255   1.105   0.897  0.1037  0.1269  0.0717
 8836SOL    HW138144   1.306   1.049   0.956 -1.8611  0.7467  2.4009
 8836SOL    HW238145   1.250   1.057   0.814 -2.3234  0.8144 -0.1846
 8837SOL     OW38146   2.379   1.564   6.244  0.3434 -0.4986  0.7903
 8837SOL    HW138147   2.358   1.608   6.326 -0.5578 -0.4410  0.5224
 8837SOL    HW238148   2.369   1.642   6.190  0.3509  1.0495  3.0230
 8838SOL     OW38149   0.729   3.934   4.009 -0.2493 -0.1837 -0.5585
 8838SOL    HW138150   0.742   3.856   3.954 -0.7526  0.1500 -1.1436
 8838SOL    HW238151   0.799   3.941   4.074 -0.1814  0.9075 -0.7466
 8839SOL     OW38152   0.753   0.892   4.837  0.3316  0.6805 -0.0944
 8839SOL    HW138153   0.767   0.816   4.780 -1.3234  0.7261 -0.5572
 8839SOL    HW238154   0.819   0.881   4.906 -1.9010  0.4374  2.0024
 8840SOL     OW38155   1.957   0.480   8.648 -0.3391 -0.4232 -0.0154
 8840SOL    HW138156   1.874   0.459   8.689  0.0538  0.4787  1.2451
 8840SOL    HW238157   1.938   0.535   8.572 -1.8465  0.1756  0.7993
 8841SOL     OW38158   4.128   1.143  17.365 -0.1100  0.2508 -0.0200
 8841SOL    HW138159   4.095   1.053  17.360  1.4831 -0.3435  0.0618
 8841SOL    HW238160   4.100   1.157  17.456  1.4547  0.5174  0.4270
 8842SOL     OW38161   3.736   0.974   7.727  0.1836  0.0043 -0.4035
 8842SOL    HW138162   3.712   1.049   7.672 -0.8009 -0.6859 -0.9181
 8842SOL    HW238163   3.684   1.003   7.803  2.0231  0.7491  0.5804
 8843SOL     OW38164   2.185   1.949   3.544  0.0889  0.0095  0.5318
 8843SOL    HW138165   2.110   1.942   3.486 -0.4999 -1.5307  1.4953
 8843SOL    HW238166   2.149   1.981   3.627  0.9094  1.2491  0.4072
 8844SOL     OW38167   2.212   0.123  12.641 -0.8018  0.5905 -0.1948
 8844SOL    HW138168   2.173   0.049  12.687 -1.3818  1.7382  1.1503
 8844SOL    HW238169   2.137   0.181  12.633 -2.4311 -1.2165  2.0282
 8845SOL     OW38170   4.083   0.744   4.078 -0.2868  0.2959 -0.3645
 8845SOL    HW138171   4.008   0.703   4.121  2.8134 -3.9051  0.9830
 8845SOL    HW238172   4.128   0.674   4.032  1.1170 -0.3630  2.0347
 8846SOL     OW38173   2.377   3.089   5.801  0.2964 -0.7931 -0.3436
 8846SOL    HW138174   2.357   3.000   5.772 -2.5753 -0.8041  1.7420
 8846SOL    HW238175   2.315   3.104   5.872 -0.9657  0.2399 -1.6598
 8847SOL     OW38176   0.871   1.472   2.576 -0.0493  0.9962  0.6657
 8847SOL    HW138177   0.920   1.414   2.517 -2.0038 -0.5857  0.5908
 8847SOL    HW238178   0.798   1.469   2.514 -0.6544 -3.1671  1.5383
 8848SOL     OW38179   2.020   3.640  10.506  0.0878  0.1306  0.6997
 8848SOL    HW138180   1.966   3.573  10.548 -0.1730  0.9117  1.6132
 8848SOL    HW238181   2.075   3.586  10.449 -0.8864  1.7855 -1.8022
 8849SOL     OW38182   2.189   2.358  14.752 -0.2538 -0.8589 -0.0907
 8849SOL    HW138183   2.100   2.327  14.774  0.0186 -0.8151  1.0917
 8849SOL    HW238184   2.186   2.355  14.657  0.2208 -2.2786 -0.0648
 8850SOL     OW38185   4.381   4.196   5.342  0.4662  0.4012  0.2970
 8850SOL    HW138186   4.361   4.288   5.329  0.9614  0.0567 -2.7138
 8850SOL    HW238187   4.294   4.181   5.378  1.0718 -0.0593  1.5946
 8851SOL     OW38188   3.755   0.282  16.573  0.4445 -0.2552  0.5647
 8851SOL    HW138189   3.747   0.356  16.513  3.2152 -0.9742 -0.6795
 8851SOL    HW238190   3.736   0.205  16.520 -0.7500 -0.2630  1.0042
 8852SOL     OW38191   1.171   1.971   2.320 -0.0206 -0.5937 -0.9812
 8852SOL    HW138192   1.120   1.904   2.367  2.4836 -0.4080  1.9499
 8852SOL    HW238193   1.124   2.047   2.354  0.7641 -0.3994 -0.3200
 8853SOL     OW38194   0.207   1.325   8.682  0.4558 -0.4088 -0.6493
 8853SOL    HW138195   0.158   1.256   8.638 -1.3202  0.8937 -0.7501
 8853SOL    HW238196   0.144   1.396   8.669  0.6475 -0.2480 -0.6985
 8854SOL     OW38197   0.894   3.799   5.357  0.1524 -0.3150 -0.4656
 8854SOL    HW138198   0.963   3.761   5.411  0.7789 -2.1619 -2.5280
 8854SOL    HW238199   0.861   3.865   5.417 -1.2437 -0.8177 -0.6930
 8855SOL     OW38200   3.721   2.213  16.925  0.3014 -0.2934  0.2936
 8855SOL    HW138201   3.743   2.207  16.832  0.9152 -0.9716  0.4892
 8855SOL    HW238202   3.775   2.291  16.938  2.4915 -1.8355  0.4813
 8856SOL     OW38203   3.793   0.854   9.396  0.2268 -0.1793 -0.3437
 8856SOL    HW138204   3.786   0.891   9.309  0.5706  1.8106  0.4712
 8856SOL    HW238205   3.827   0.921   9.455 -0.7406 -0.6711  0.7899
 8857SOL     OW38206   4.576   1.763   3.186  0.0356  0.1439  0.6155
 8857SOL    HW138207   4.549   1.851   3.158 -0.4758  0.3183  1.6765
 8857SOL    HW238208   4.505   1.728   3.240 -1.5965  0.9641 -1.0049
 8858SOL     OW38209   4.254   2.328   5.500 -0.5058 -0.7169 -0.1410
 8858SOL    HW138210   4.204   2.248   5.517 -1.8920 -0.0939 -1.2991
 8858SOL    HW238211   4.197   2.370   5.436  0.4782  1.2583  0.2835
 8859SOL     OW38212   0.215   2.840   1.660  0.3288 -0.0414  0.4814
 8859SOL    HW138213   0.242   2.884   1.741 -0.9525  1.1282  0.2656
 8859SOL    HW238214   0.128   2.805   1.677 -0.1776 -0.4141 -2.9704
 8860SOL     OW38215   3.247   3.941  14.791  0.5059  0.5132 -0.2347
 8860SOL    HW138216   3.255   3.872  14.856  0.0702  0.8018  0.1301
 8860SOL    HW238217   3.295   4.006  14.842 -0.1181  0.8149 -0.0285
 8861SOL     OW38218   2.852   3.148   3.620  0.0527  0.3450 -0.1306
 8861SOL    HW138219   2.908   3.157   3.543 -1.4673  0.6117 -1.1950
 8861SOL    HW238220   2.837   3.053   3.614  1.6796  0.2736 -2.9970
 8862SOL     OW38221   1.100   3.709  11.652 -0.8462 -0.2606 -0.2667
 8862SOL    HW138222   1.185   3.665  11.659 -0.0428  1.1832 -0.8943
 8862SOL    HW238223   1.088   3.758  11.733  2.0253 -1.4610  0.9089
 8863SOL     OW38224   2.843   2.189   4.923 -0.1221 -0.3848 -0.0049
 8863SOL    HW138225   2.856   2.094   4.924 -1.5007 -0.5799  0.1785
 8863SOL    HW238226   2.875   2.204   5.012 -0.8561 -0.3562  0.2524
 8864SOL     OW38227   2.562   1.731   7.168 -0.1539 -0.1495  0.0889
 8864SOL    HW138228   2.471   1.729   7.137  0.1263 -0.7493 -0.6971
 8864SOL    HW238229   2.603   1.684   7.095  0.0245  0.0586  0.0559
 8865SOL     OW38230   0.305   2.265   9.004 -0.6237  0.7737  0.6199
 8865SOL    HW138231   0.245   2.335   9.029  0.2938  2.3048 -1.4657
 8865SOL    HW238232   0.374   2.301   8.949  1.4315  0.5500  3.0490
 8866SOL     OW38233   1.644   0.582   6.028  0.0343  0.0180  0.1607
 8866SOL    HW138234   1.679   0.599   6.116  2.8548  0.5536 -1.0627
 8866SOL    HW238235   1.708   0.631   5.977 -1.4358  0.4950 -1.2220
 8867SOL     OW38236   1.708   1.571  11.334  0.2458 -0.2672 -0.0186
 8867SOL    HW138237   1.699   1.582  11.429 -1.8652  2.4217 -0.5114
 8867SOL    HW238238   1.784   1.514  11.326  0.4910  0.0097  0.3390
 8868SOL     OW38239   2.993   1.057   1.580  0.2805  0.1798 -0.3599
 8868SOL    HW138240   2.901   1.084   1.584 -0.3063 -2.1692  2.3936
 8868SOL    HW238241   2.985   0.962   1.593  2.2775 -0.0289 -0.6519
 8869SOL     OW38242   1.114   1.110   7.017 -0.3118  0.1918  0.2676
 8869SOL    HW138243   1.135   1.097   7.110 -1.7383  2.4649  0.9100
 8869SOL    HW238244   1.176   1.051   6.976  0.5490 -0.3101  2.2585
 8870SOL     OW38245   1.322   2.022   7.948  0.3037 -0.3152 -0.0162
 8870SOL    HW138246   1.296   1.934   7.976 -1.5292  0.8326  1.9195
 8870SOL    HW238247   1.251   2.071   7.990 -0.1361 -0.4578 -0.5898
 8871SOL     OW38248   3.912   4.278   0.431 -0.1075  0.0933 -0.4252
 8871SOL    HW138249   3.964   4.350   0.466  1.3711 -1.5132  0.6623
 8871SOL    HW238250   3.848   4.332   0.385 -0.5035  0.1547  0.2113
 8872SOL     OW38251   4.634   3.880   5.551 -0.6320 -0.3854 -0.0134
 8872SOL    HW138252   4.541   3.881   5.574 -0.7152 -0.5161 -0.3460
 8872SOL    HW238253   4.672   3.800   5.588 -1.0722  0.3354  1.9971
 8873SOL     OW38254   0.182   4.419   9.015 -0.0832 -0.6638 -0.2420
 8873SOL    HW138255   0.234   4.346   9.047  1.5534  0.6447  0.0726
 8873SOL    HW238256   0.093   4.407   9.047 -0.5790 -1.9157 -2.0587
 8874SOL     OW38257   4.162   1.834   3.327  0.3126  0.1862  0.6192
 8874SOL    HW138258   4.083   1.813   3.278 -0.2898  1.8215  0.8789
 8874SOL    HW238259   4.189   1.747   3.357  1.7695  0.2315 -0.5839
 8875SOL     OW38260   0.825   0.483   3.036  0.0336 -0.0929 -0.1939
 8875SOL    HW138261   0.774   0.402   3.032 -0.5856  0.3028 -0.3236
 8875SOL    HW238262   0.878   0.460   2.960  0.1798 -0.1726 -0.0666
 8876SOL     OW38263   0.133   3.452   5.712  0.0050 -0.1543  0.4275
 8876SOL    HW138264   0.145   3.364   5.676  1.3225 -0.1939  0.9645
 8876SOL    HW238265   0.098   3.425   5.797  0.8164 -1.5061  0.3305
 8877SOL     OW38266   4.652   0.738   8.667 -0.3008  0.0565  0.2463
 8877SOL    HW138267   4.619   0.648   8.674 -1.7925  0.4224 -1.9501
 8877SOL    HW238268   4.563   0.773   8.672 -0.7393 -0.9803 -0.1883
 8878SOL     OW38269   2.272   1.599   0.578  0.2463 -0.0502 -0.6320
 8878SOL    HW138270   2.367   1.593   0.571  0.0648 -0.4172 -2.7291
 8878SOL    HW238271   2.272   1.652   0.657  0.2219  2.3486 -2.2278
 8879SOL     OW38272   4.584   2.639   3.788 -0.0157  0.2287 -0.3332
 8879SOL    HW138273   4.499   2.642   3.743  1.3134  0.6579 -2.7932
 8879SOL    HW238274   4.613   2.550   3.767  0.6719  0.5171 -0.6053
 8880SOL     OW38275   3.556   2.732   7.738 -0.2424 -0.7674  0.0006
 8880SOL    HW138276   3.557   2.699   7.648  0.7724  0.5041 -0.4439
 8880SOL    HW238277   3.541   2.647   7.780 -0.5006 -1.0870 -0.7489
 8881SOL     OW38278   2.005   4.700   2.582 -0.2830 -0.3835  0.1914
 8881SOL    HW138279   2.039   0.053   2.569 -0.2666 -0.0341  2.5374
 8881SOL    HW238280   1.996   4.661   2.495  0.6910  1.2823 -0.6477
 8882SOL     OW38281   1.854   4.234   3.869  0.1831  0.2576 -0.5371
 8882SOL    HW138282   1.888   4.204   3.784  1.3991 -0.6890  0.2878
 8882SOL    HW238283   1.866   4.328   3.861 -0.7593  0.3069 -1.3132
 8883SOL     OW38284   1.926   0.949   7.101 -0.3158 -0.0252  0.4025
 8883SOL    HW138285   1.943   0.983   7.013 -0.1655 -3.2255 -0.7809
 8883SOL    HW238286   1.953   1.028   7.149  1.7077 -0.4445 -0.0448
 8884SOL     OW38287   1.350   2.613  11.565 -0.4470 -0.2056  0.1716
 8884SOL    HW138288   1.433   2.566  11.575  0.5337  1.6811  0.8415
 8884SOL    HW238289   1.361   2.660  11.648  0.0036  1.1691 -0.6587
 8885SOL     OW38290   1.022   2.670  11.344  0.1434 -0.0814  0.1162
 8885SOL    HW138291   1.015   2.723  11.424  2.1737 -1.5072  1.2276
 8885SOL    HW238292   1.017   2.585  11.387  2.9862  2.0401  4.6571
 8886SOL     OW38293   2.265   1.486   5.389  0.0756 -0.0267 -0.2865
 8886SOL    HW138294   2.199   1.417   5.399  0.0597  0.1167  0.5703
 8886SOL    HW238295   2.229   1.524   5.309 -0.1289  1.3928  0.4941
 8887SOL     OW38296   3.214   1.066   8.716 -0.4252  0.1637  0.2196
 8887SOL    HW138297   3.208   1.108   8.630  0.2387 -0.0608  0.0568
 8887SOL    HW238298   3.150   0.996   8.701 -1.2082  0.7722  0.8109
 8888SOL     OW38299   2.001   1.814   4.334 -0.1401  0.3289  0.4471
 8888SOL    HW138300   1.954   1.731   4.343  0.8542 -0.5421 -2.2700
 8888SOL    HW238301   2.022   1.836   4.424 -1.3029 -0.9552  1.0226
 8889SOL     OW38302   0.382   0.360   2.452 -0.1066 -0.3886  0.3281
 8889SOL    HW138303   0.346   0.292   2.509  1.4655 -1.8573 -0.4035
 8889SOL    HW238304   0.448   0.395   2.512 -2.0052  3.7027 -0.0378
 8890SOL     OW38305   0.373   0.552   4.506 -0.2115  0.0841 -0.3616
 8890SOL    HW138306   0.440   0.498   4.465  0.9805 -0.4797  2.3308
 8890SOL    HW238307   0.424   0.620   4.550  1.8287 -0.5633 -1.7454
 8891SOL     OW38308   0.663   3.770  12.534  0.6157  0.0223 -0.4611
 8891SOL    HW138309   0.695   3.832  12.601 -0.6896  0.2917 -0.0932
 8891SOL    HW238310   0.710   3.810  12.461  0.2614  0.6418 -0.3516
 8892SOL     OW38311   1.889   0.706   5.137 -0.2606 -0.0866  0.4227
 8892SOL    HW138312   1.858   0.680   5.224 -2.5500  1.1774 -0.0089
 8892SOL    HW238313   1.931   0.627   5.104  2.2814  0.9559  1.1887
 8893SOL     OW38314   1.827   4.027   9.236  0.5139 -0.3350 -0.1314
 8893SOL    HW138315   1.743   4.073   9.233  1.0732  0.6037 -1.9142
 8893SOL    HW238316   1.786   3.945   9.260  0.0433 -0.1924 -0.4569
 8894SOL     OW38317   1.933   1.212   7.338  0.7025  0.0829 -0.0009
 8894SOL    HW138318   1.987   1.178   7.409  1.7355 -2.1649 -1.8725
 8894SOL    HW238319   1.858   1.255   7.379  0.2262  1.4001 -2.3014
 8895SOL     OW38320   1.988   3.084   0.482  0.0605  0.0055 -0.1331
 8895SOL    HW138321   1.966   3.158   0.538 -1.8630 -0.4068 -0.3617
 8895SOL    HW238322   1.901   3.043   0.480  0.7299 -1.2744 -2.7998
 8896SOL     OW38323   3.403   3.681   3.763  0.2502 -0.1087 -0.7819
 8896SOL    HW138324   3.458   3.631   3.703  3.3767  0.5127  1.5432
 8896SOL    HW238325   3.317   3.664   3.727  0.1345  0.6794 -0.8718
 8897SOL     OW38326   2.156   0.526  10.212 -0.6005  0.5076 -0.6028
 8897SOL    HW138327   2.067   0.496  10.228 -0.4284  0.5182  0.3298
 8897SOL    HW238328   2.225   0.477  10.256 -1.6769 -0.5442 -0.1136
 8898SOL     OW38329   4.425   2.038   3.613 -0.6939 -0.2625 -0.0563
 8898SOL    HW138330   4.417   2.049   3.518 -2.5914  2.9860  0.4679
 8898SOL    HW238331   4.498   2.095   3.633  1.5411 -2.8563 -0.8142
 8899SOL     OW38332   4.286   2.341   2.187  0.4993  0.0959 -0.0283
 8899SOL    HW138333   4.211   2.401   2.186 -0.3287 -0.9331  1.9226
 8899SOL    HW238334   4.322   2.379   2.106 -5.2763  1.3352 -2.0455
 8900SOL     OW38335   1.978   4.236   9.403 -0.3172  0.1733 -0.4511
 8900SOL    HW138336   1.893   4.281   9.401 -0.0051  0.8022  0.5989
 8900SOL    HW238337   1.954   4.185   9.326  0.8856 -1.5500  0.3135
 8901SOL     OW38338   2.013   1.351   4.307 -0.0450 -0.3944 -0.2901
 8901SOL    HW138339   2.049   1.298   4.235  0.6854  0.9003 -0.8824
 8901SOL    HW238340   1.923   1.330   4.284  0.2311 -1.3092 -0.5319
 8902SOL     OW38341   1.407   2.133   8.587  0.0577  0.8505 -0.8168
 8902SOL    HW138342   1.350   2.088   8.650  0.2127  0.4846 -0.9387
 8902SOL    HW238343   1.365   2.218   8.575  0.9923  1.5248  0.6191
 8903SOL     OW38344   2.131   4.107   3.343  0.2532  0.0851  0.2577
 8903SOL    HW138345   2.168   4.059   3.417  1.9433  1.3526  0.2185
 8903SOL    HW238346   2.159   4.049   3.272  2.3434  1.4814 -0.0414
 8904SOL     OW38347   2.321   0.336   3.511 -0.2490 -0.1348  0.1413
 8904SOL    HW138348   2.236   0.357   3.472  0.3198 -0.1989 -1.1309
 8904SOL    HW238349   2.295   0.305   3.598 -1.7553  0.0305 -0.2613
 8905SOL     OW38350   0.000   3.452   8.617 -0.3561 -0.6796 -0.0833
 8905SOL    HW138351   0.041   3.370   8.588  2.1128  0.3529  0.4955
 8905SOL    HW238352   4.678   3.433   8.691 -1.0104  0.3144 -0.3326
 8906SOL     OW38353   1.324   4.337   7.824 -0.0118 -0.5040 -0.6171
 8906SOL    HW138354   1.400   4.382   7.863  0.0673 -0.8788 -0.3389
 8906SOL    HW238355   1.264   4.406   7.797 -2.4710 -1.4337  2.5080
 8907SOL     OW38356   0.196   3.496   4.967  0.5090  0.0112  0.1808
 8907SOL    HW138357   0.241   3.414   4.949  0.3917 -0.1288  0.5341
 8907SOL    HW238358   0.273   3.537   5.006  1.2685 -0.7692 -0.5159
 8908SOL     OW38359   0.303   2.525  17.548 -0.0266 -0.0841 -0.0577
 8908SOL    HW138360   0.305   2.515  17.644 -2.4411 -1.4250 -0.1456
 8908SOL    HW238361   0.229   2.586  17.542  1.5052  1.6693 -1.0846
 8909SOL     OW38362   4.083   4.042   7.699 -0.0873  0.6284  0.4555
 8909SOL    HW138363   4.012   4.053   7.636 -0.6005  0.3982  0.9902
 8909SOL    HW238364   4.112   3.951   7.695  0.6523  0.9702 -1.5734
 8910SOL     OW38365   3.695   4.269   6.444 -0.4180 -0.5276  0.1294
 8910SOL    HW138366   3.744   4.260   6.526  0.3703 -0.0032 -0.2821
 8910SOL    HW238367   3.752   4.223   6.382  2.3366  2.1989  0.6595
 8911SOL     OW38368   1.733   4.339   6.203 -0.1313  0.1276 -0.2751
 8911SOL    HW138369   1.828   4.331   6.210  0.0700  2.4556 -0.5409
 8911SOL    HW238370   1.713   4.426   6.237 -0.2590 -0.5155  1.2793
 8912SOL     OW38371   0.124   1.632  14.339  0.2520 -0.3898 -0.6004
 8912SOL    HW138372   0.182   1.565  14.302 -1.1517 -1.3543 -1.0483
 8912SOL    HW238373   0.076   1.577  14.402  0.6516  0.4979  0.4756
 8913SOL     OW38374   4.515   1.264   1.845 -0.0096 -0.3992  0.5684
 8913SOL    HW138375   4.594   1.219   1.876 -1.0697 -2.3096  0.4660
 8913SOL    HW238376   4.444   1.246   1.907  0.2254  1.7684  1.4851
 8914SOL     OW38377   4.466   1.645  13.855 -0.5043  0.3576  0.6169
 8914SOL    HW138378   4.503   1.703  13.921 -0.2651  0.0335  0.7699
 8914SOL    HW238379   4.373   1.643  13.878 -0.6138  0.5527  0.1959
 8915SOL     OW38380   4.476   1.061  17.200  0.0441 -0.0762 -0.2281
 8915SOL    HW138381   4.453   1.006  17.275 -0.1796  0.1367 -0.1395
 8915SOL    HW238382   4.397   1.114  17.200 -0.0708 -0.2569  4.2861
 8916SOL     OW38383   0.340   1.926  13.463 -0.0219  0.0009 -0.1382
 8916SOL    HW138384   0.323   1.981  13.539 -0.6057 -0.1176 -0.1815
 8916SOL    HW238385   0.328   1.989  13.392  4.0154  0.2476 -0.5960
 8917SOL     OW38386   0.137   3.633  11.837  0.2001  0.2470  0.1769
 8917SOL    HW138387   0.164   3.549  11.799  3.5134  0.9871  0.9265
 8917SOL    HW238388   0.053   3.634  11.790  1.0747 -0.8724 -1.4057
 8918SOL     OW38389   3.955   0.446   8.451  0.0210  0.6115  0.4481
 8918SOL    HW138390   3.964   0.522   8.509 -3.6043  0.4174  1.2577
 8918SOL    HW238391   3.984   0.378   8.511 -0.5337  0.8710  1.0094
 8919SOL     OW38392   2.077   1.384  13.331  0.6159 -0.0473 -0.7192
 8919SOL    HW138393   2.149   1.448  13.332  0.3439  0.2393  0.8417
 8919SOL    HW238394   2.006   1.442  13.302  1.2106  0.3592 -1.3859
 8920SOL     OW38395   0.930   4.149   8.194  0.0226  0.2552 -0.4518
 8920SOL    HW138396   0.942   4.238   8.227  2.2895 -0.4772  0.7084
 8920SOL    HW238397   0.881   4.115   8.269  0.4106 -0.3797 -0.4876
 8921SOL     OW38398   1.789   0.084   4.094  0.2243 -0.0959 -0.5912
 8921SOL    HW138399   1.774   4.731   4.058 -0.4423  0.1708 -0.9590
 8921SOL    HW238400   1.743   0.137   4.029 -0.4020 -1.7021 -1.4615
 8922SOL     OW38401   0.908   0.742   7.032 -0.2421 -1.1767  0.0823
 8922SOL    HW138402   0.948   0.744   7.119 -3.6900  0.7737  1.5952
 8922SOL    HW238403   0.987   0.743   6.977 -0.1168  0.9527  0.3107
 8923SOL     OW38404   3.024   4.586   7.113 -0.0560 -0.1977  0.3921
 8923SOL    HW138405   3.046   4.667   7.159  0.8452 -0.2244  0.0278
 8923SOL    HW238406   3.063   4.525   7.176  0.0932 -0.2875  0.2152
 8924SOL     OW38407   3.577   1.824   6.736 -0.2422  0.1865  0.2334
 8924SOL    HW138408   3.578   1.839   6.642  0.2806 -0.4100  0.1486
 8924SOL    HW238409   3.653   1.766   6.745 -0.2699  0.1453  0.1973
 8925SOL     OW38410   3.425   0.766   6.688 -0.0865 -0.2973  0.0777
 8925SOL    HW138411   3.447   0.847   6.643 -0.0619 -0.3776 -0.0531
 8925SOL    HW238412   3.348   0.804   6.729  1.6717  0.1624  2.9895
 8926SOL     OW38413   1.570   2.780  16.646 -0.2152  0.0085 -0.0381
 8926SOL    HW138414   1.547   2.711  16.708  1.6913  0.5126  1.2182
 8926SOL    HW238415   1.484   2.820  16.632  0.4941  1.0423 -1.5066
 8927SOL     OW38416   2.607   3.202  10.752  0.5574 -0.3573 -0.4542
 8927SOL    HW138417   2.642   3.284  10.786  1.7071 -2.4455  3.4776
 8927SOL    HW238418   2.685   3.169  10.706  0.2257 -0.8672 -0.6535
 8928SOL     OW38419   3.252   3.138   6.718  0.0003 -0.2078  0.0725
 8928SOL    HW138420   3.325   3.176   6.766  0.1451  1.0122 -1.0760
 8928SOL    HW238421   3.266   3.044   6.724  1.1430  0.0153  0.8365
 8929SOL     OW38422   3.099   2.770   6.952  0.4005 -0.0538  0.0968
 8929SOL    HW138423   3.056   2.846   6.912  1.3110 -0.0075 -0.7943
 8929SOL    HW238424   3.132   2.810   7.032  0.8750  1.6956 -0.9480
 8930SOL     OW38425   2.697   0.421   8.368  0.1659 -0.0361  0.3718
 8930SOL    HW138426   2.718   0.369   8.291  1.6167  1.2953 -0.1113
 8930SOL    HW238427   2.638   0.367   8.421 -0.9584  0.3896 -0.4437
 8931SOL     OW38428   3.553   0.148   8.751 -0.6149 -0.1396 -0.0408
 8931SOL    HW138429   3.474   0.137   8.698 -0.7838  0.4633  0.0933
 8931SOL    HW238430   3.509   0.141   8.836 -1.9842  0.3923 -0.7142
 8932SOL     OW38431   2.262   3.153  13.344  0.2966  0.0088  0.2062
 8932SOL    HW138432   2.258   3.218  13.274 -0.0720 -0.3133 -0.0758
 8932SOL    HW238433   2.304   3.203  13.413  1.0100 -1.0346  0.5275
 8933SOL     OW38434   2.052   0.120  12.144 -0.3539  0.7514 -0.0124
 8933SOL    HW138435   2.134   0.094  12.187 -1.2320  0.1526  1.3305
 8933SOL    HW238436   2.000   0.040  12.149 -1.1048  1.2518  0.1021
 8934SOL     OW38437   1.565   2.400  13.746  0.2140 -0.5079 -0.6032
 8934SOL    HW138438   1.570   2.333  13.677 -0.2148 -1.5885  0.4101
 8934SOL    HW238439   1.501   2.451  13.698 -0.6011  1.0828  2.1754
 8935SOL     OW38440   2.858   2.973  15.176 -0.8742 -0.1333 -0.4291
 8935SOL    HW138441   2.821   3.034  15.112 -2.2257 -0.6049 -0.0909
 8935SOL    HW238442   2.917   2.924  15.119 -1.8526 -1.1794 -0.5211
 8936SOL     OW38443   3.626   3.154   6.258  0.1788 -0.5476  0.2474
 8936SOL    HW138444   3.543   3.200   6.271 -0.4690 -1.6348 -0.0463
 8936SOL    HW238445   3.686   3.218   6.219  0.9643 -1.8331 -0.6794
 8937SOL     OW38446   0.871   3.722   4.888  0.0691  0.3630 -0.0350
 8937SOL    HW138447   0.941   3.660   4.870  0.6137  1.3232 -1.2080
 8937SOL    HW238448   0.852   3.709   4.981  0.1446 -2.1457 -0.3706
 8938SOL     OW38449   3.051   3.404   9.603 -0.6583  0.3353  0.6534
 8938SOL    HW138450   3.033   3.494   9.576  1.8105  0.9749  1.1063
 8938SOL    HW238451   3.056   3.407   9.699  1.9845 -0.7717  0.5460
 8939SOL     OW38452   1.841   3.509  14.437  0.3506  0.2441  0.1905
 8939SOL    HW138453   1.795   3.430  14.410  0.9614 -0.6932  1.9264
 8939SOL    HW238454   1.929   3.476  14.451 -0.9034 -2.9865  0.5058
 8940SOL     OW38455   4.536   2.149   0.044 -0.5591 -0.5981 -0.6261
 8940SOL    HW138456   4.471   2.217   0.024  1.1976  1.3501  0.3230
 8940SOL    HW238457   4.498   2.109   0.122 -2.1727  2.2043  0.0257
 8941SOL     OW38458   0.285   3.049  11.682 -0.1360 -0.2206 -0.6771
 8941SOL    HW138459   0.337   3.087  11.753 -0.4203 -0.1711 -0.4910
 8941SOL    HW238460   0.245   2.977  11.731 -0.5785 -1.2830 -2.6290
 8942SOL     OW38461   3.474   1.471   6.161 -0.0929 -0.2286 -0.0618
 8942SOL    HW138462   3.464   1.440   6.071  2.7276 -1.9100  0.2181
 8942SOL    HW238463   3.428   1.407   6.215 -0.6927  0.8176  0.6724
 8943SOL     OW38464   3.932   3.292  12.590  0.0305 -0.1859  0.3857
 8943SOL    HW138465   3.880   3.371  12.602  3.2515  2.0774 -0.6642
 8943SOL    HW238466   3.900   3.244  12.667  2.6024 -0.9472  0.9810
 8944SOL     OW38467   0.717   0.677   6.855 -0.1841 -0.0004 -0.3890
 8944SOL    HW138468   0.761   0.705   6.935  0.8730 -1.3857 -0.4934
 8944SOL    HW238469   0.716   0.581   6.858  1.5774  0.0234  0.9153
 8945SOL     OW38470   0.068   4.068  10.275 -0.7962  0.1445 -0.7337
 8945SOL    HW138471   0.057   4.008  10.201  0.9502 -2.6918  1.3285
 8945SOL    HW238472   0.130   4.131  10.238  0.0176  1.3356  2.6938
 8946SOL     OW38473   4.497   2.296   8.344  0.2685  0.3665  0.3591
 8946SOL    HW138474   4.425   2.251   8.389 -0.8733  0.1422 -1.6981
 8946SOL    HW238475   4.475   2.296   8.251 -0.3138 -1.3254  0.4824
 8947SOL     OW38476   2.386   0.968   5.225 -0.3650  0.4930 -0.4713
 8947SOL    HW138477   2.364   1.042   5.281  0.6368 -0.1395  0.7602
 8947SOL    HW238478   2.472   0.995   5.193 -0.7410  2.2806 -0.0004
 8948SOL     OW38479   3.957   0.254   8.640 -0.7535 -0.3326 -0.2542
 8948SOL    HW138480   3.959   0.287   8.730  1.4332 -1.9127  0.2807
 8948SOL    HW238481   3.905   0.175   8.654 -0.0763 -1.0084 -1.5478
 8949SOL     OW38482   2.616   0.599   4.012  0.8368  0.0077 -0.2353
 8949SOL    HW138483   2.615   0.694   4.008 -0.3148 -0.1191 -2.7088
 8949SOL    HW238484   2.626   0.570   3.922  0.7796 -0.9014  0.0463
 8950SOL     OW38485   4.627   3.161  14.723 -0.6285 -0.1986 -0.1235
 8950SOL    HW138486   4.552   3.156  14.782  1.7767 -0.8319  2.8846
 8950SOL    HW238487   4.680   3.095  14.767  0.3311 -0.1348 -1.1770
 8951SOL     OW38488   2.915   4.488   3.970 -0.3493 -0.4275  0.3933
 8951SOL    HW138489   2.979   4.457   4.034 -2.9929 -2.0065  2.2694
 8951SOL    HW238490   2.967   4.477   3.891 -1.9986 -3.8171 -0.2078
 8952SOL     OW38491   0.645   0.723   2.993  0.1628 -0.1697  0.1269
 8952SOL    HW138492   0.694   0.805   2.997 -4.3198  2.4554 -0.0459
 8952SOL    HW238493   0.698   0.662   3.045 -0.8965 -1.4780 -0.3381
 8953SOL     OW38494   3.421   2.860   9.203 -0.1058  0.3121 -0.0298
 8953SOL    HW138495   3.461   2.859   9.116 -1.0303  0.8402 -0.4615
 8953SOL    HW238496   3.458   2.776   9.229 -0.8663  0.6078  2.0304
 8954SOL     OW38497   3.334   0.328  15.457  0.4742  0.3061  0.0899
 8954SOL    HW138498   3.381   0.406  15.489 -0.6838  0.2189  2.0308
 8954SOL    HW238499   3.349   0.339  15.363 -1.1279 -1.2340 -0.3493
 8955SOL     OW38500   4.573   1.065   0.374  0.2191 -0.1678 -0.4509
 8955SOL    HW138501   4.582   1.133   0.440  1.7422  0.2931 -1.1394
 8955SOL    HW238502   4.575   1.124   0.299 -0.8783  0.4661  0.0097
 8956SOL     OW38503   4.240   4.232   3.348 -0.1375 -0.3701 -0.1657
 8956SOL    HW138504   4.205   4.315   3.314 -0.0868 -1.2491 -2.3938
 8956SOL    HW238505   4.327   4.220   3.311  0.0602  1.5671 -0.3311
 8957SOL     OW38506   1.170   0.737   6.944 -0.2643  0.2812  0.1988
 8957SOL    HW138507   1.228   0.683   6.889  1.0561 -1.2519  3.0954
 8957SOL    HW238508   1.228   0.813   6.952 -1.4106  1.1624  0.0752
 8958SOL     OW38509   4.164   3.350   8.248 -0.2226 -0.0296 -0.6801
 8958SOL    HW138510   4.250   3.371   8.212 -0.2781 -1.3069 -1.5534
 8958SOL    HW238511   4.172   3.259   8.278  0.9521  0.3061  0.0317
 8959SOL     OW38512   4.097   2.502  15.618 -0.3425  0.0262  1.0319
 8959SOL    HW138513   4.060   2.419  15.650  1.4919 -0.9969  0.4823
 8959SOL    HW238514   4.056   2.512  15.532 -0.2579 -1.0955  0.8580
 8960SOL     OW38515   0.614   1.974   5.110  0.2243 -0.6156  0.0559
 8960SOL    HW138516   0.696   2.005   5.149  0.3078 -0.2581 -0.4044
 8960SOL    HW238517   0.637   1.945   5.021 -2.3440 -0.9947 -0.4786
 8961SOL     OW38518   4.378   2.742  15.751 -0.5398  0.3443  0.1071
 8961SOL    HW138519   4.441   2.797  15.705 -1.2469  1.5691  0.6155
 8961SOL    HW238520   4.298   2.786  15.722  1.2096  2.8059 -0.9388
 8962SOL     OW38521   2.073   0.916   2.528  0.1912 -0.0206 -0.7412
 8962SOL    HW138522   2.080   0.880   2.617 -3.3351  1.9577  0.3619
 8962SOL    HW238523   2.164   0.942   2.514  0.4664 -0.6662 -0.1761
 8963SOL     OW38524   2.334   2.378   7.968  0.0813  0.2944 -0.3784
 8963SOL    HW138525   2.269   2.440   7.934  1.9489  2.9133  0.7552
 8963SOL    HW238526   2.276   2.302   7.965  0.2106  0.1288  1.8576
 8964SOL     OW38527   4.368   3.773  11.087 -0.2272  0.0299 -0.0872
 8964SOL    HW138528   4.284   3.801  11.050 -0.8623 -0.5700  0.9047
 8964SOL    HW238529   4.377   3.682  11.058 -2.8064  0.0046 -0.8085
 8965SOL     OW38530   2.601   3.627   1.850 -0.6116  0.0766  0.8422
 8965SOL    HW138531   2.638   3.656   1.767 -0.3599  0.3426  1.0428
 8965SOL    HW238532   2.585   3.714   1.886  3.3236  1.0147  0.3201
 8966SOL     OW38533   3.347   4.304  17.167 -0.1550  0.2562  0.1402
 8966SOL    HW138534   3.377   4.394  17.158  0.9584 -0.0620  0.6438
 8966SOL    HW238535   3.271   4.299  17.109 -1.6240 -0.4874  2.1279
 8967SOL     OW38536   0.909   0.049   7.765 -0.5666 -0.0639 -0.5785
 8967SOL    HW138537   0.937   0.033   7.675 -0.3174 -1.7921 -0.1922
 8967SOL    HW238538   0.910   4.694   7.797 -0.4126  0.3744  0.6421
 8968SOL     OW38539   0.442   3.601   5.059 -0.3330  0.0865  0.0438
 8968SOL    HW138540   0.433   3.696   5.059 -2.3929 -0.1078 -0.0907
 8968SOL    HW238541   0.476   3.564   5.140  2.3057  2.8899  0.1863
 8969SOL     OW38542   3.718   0.726   7.902  0.0828 -0.4186 -0.1266
 8969SOL    HW138543   3.661   0.797   7.931  0.1721  0.3683 -1.8686
 8969SOL    HW238544   3.747   0.770   7.822  0.8509  2.4334  1.7200
 8970SOL     OW38545   4.056   0.172   7.339  0.2766 -0.5453  0.1351
 8970SOL    HW138546   3.967   0.204   7.357  0.7229  0.7476  0.0111
 8970SOL    HW238547   4.033   0.094   7.288 -0.0986  0.4940 -1.2835
 8971SOL     OW38548   0.001   4.300  16.063 -0.3051  0.5603  0.5037
 8971SOL    HW138549   0.067   4.252  16.113 -1.0050 -0.5012  0.4028
 8971SOL    HW238550   4.734   4.239  15.989 -2.7366  1.6593 -0.3353
 8972SOL     OW38551   4.696   4.133   2.819 -0.1504  0.2365  0.2788
 8972SOL    HW138552   0.002   4.161   2.901 -1.6152  1.5790  0.5541
 8972SOL    HW238553   0.022   4.177   2.759 -0.6802  0.3667 -0.1564
 8973SOL     OW38554   2.821   2.294  13.622 -0.5882 -0.1049 -0.2446
 8973SOL    HW138555   2.867   2.366  13.665  0.1275 -0.3554 -0.5721
 8973SOL    HW238556   2.873   2.287  13.542 -1.2345 -0.4149 -0.6340
 8974SOL     OW38557   4.608   1.842   5.175 -0.7819  0.2893 -0.1748
 8974SOL    HW138558   4.671   1.770   5.172 -1.2102  0.0462 -2.6995
 8974SOL    HW238559   4.536   1.798   5.220 -0.3513 -0.6630 -0.4341
 8975SOL     OW38560   0.685   1.988   1.270 -0.2497  0.1775  0.1883
 8975SOL    HW138561   0.753   2.015   1.209  0.0712  0.3269  0.6175
 8975SOL    HW238562   0.738   1.975   1.348 -0.0005 -0.6137 -0.1209
 8976SOL     OW38563   3.285   2.667   4.947  0.0337  0.0903 -0.0556
 8976SOL    HW138564   3.327   2.590   4.985  2.0014  0.5991 -1.2387
 8976SOL    HW238565   3.356   2.691   4.888  1.2413 -0.3843  1.2284
 8977SOL     OW38566   0.070   4.137   5.263  0.2744 -0.0151  0.6495
 8977SOL    HW138567   0.031   4.063   5.217  1.0502 -0.0220  0.0158
 8977SOL    HW238568   0.000   4.158   5.325 -0.4829 -3.8350  1.1123
 8978SOL     OW38569   1.725   2.272  10.057  0.5301 -0.9563 -0.1058
 8978SOL    HW138570   1.678   2.195  10.088 -1.7169 -1.0638 -3.8334
 8978SOL    HW238571   1.673   2.292   9.979  0.4265 -0.9239 -0.0280
 8979SOL     OW38572   1.167   1.473   2.623  0.3982  0.2408 -0.6644
 8979SOL    HW138573   1.096   1.409   2.610  2.5247 -2.4986  0.9947
 8979SOL    HW238574   1.233   1.407   2.643  2.1315  1.4745 -2.3318
 8980SOL     OW38575   1.446   4.080  11.895 -0.4313 -0.3339 -0.1306
 8980SOL    HW138576   1.542   4.078  11.888 -0.3690 -2.2605  1.3999
 8980SOL    HW238577   1.414   4.011  11.838 -0.6267 -0.3944  0.0555
 8981SOL     OW38578   1.105   2.322   4.045 -0.0629 -0.0008 -0.0536
 8981SOL    HW138579   1.039   2.252   4.050  1.4798 -1.3848  0.9645
 8981SOL    HW238580   1.052   2.381   3.991 -1.7276 -0.3894  1.1776
 8982SOL     OW38581   4.356   0.404  11.060  0.0777 -0.0905 -0.2810
 8982SOL    HW138582   4.308   0.486  11.067  2.2290  1.1317  0.3278
 8982SOL    HW238583   4.431   0.434  11.009 -0.8768  0.5651 -1.2724
 8983SOL     OW38584   0.961   0.910   5.000 -0.1579  0.2262 -0.0409
 8983SOL    HW138585   0.962   0.825   5.043  0.1956  0.6171  0.7204
 8983SOL    HW238586   1.053   0.916   4.973 -0.5743 -0.9137 -1.6878
 8984SOL     OW38587   2.833   4.081   9.248 -0.3812  0.2979 -0.4844
 8984SOL    HW138588   2.796   4.013   9.193  1.6049 -2.9875  2.1992
 8984SOL    HW238589   2.822   4.162   9.199 -2.3717 -0.1397 -0.7241
 8985SOL     OW38590   3.150   4.733   8.034 -0.6545  0.1900 -0.1608
 8985SOL    HW138591   3.212   0.069   8.019  1.0207 -0.7915  2.2191
 8985SOL    HW238592   3.075   0.048   8.065 -0.3853 -0.5128  1.5821
 8986SOL     OW38593   0.103   3.815   2.438  0.1765 -0.5696 -0.3980
 8986SOL    HW138594   0.081   3.893   2.489  0.4695 -1.4245  1.0224
 8986SOL    HW238595   0.043   3.752   2.478 -0.6119  0.7640  0.5165
 8987SOL     OW38596   4.636   1.751   5.787  0.1227  0.5800  0.1054
 8987SOL    HW138597   4.694   1.826   5.802 -0.4913  0.7676  1.4927
 8987SOL    HW238598   4.659   1.735   5.695 -2.4337 -1.6268 -0.1361
 8988SOL     OW38599   0.768   1.123   5.843 -0.1309 -0.4701 -0.1042
 8988SOL    HW138600   0.687   1.131   5.792  0.2624  0.1081 -0.6335
 8988SOL    HW238601   0.811   1.039   5.825  0.7337 -0.0706  0.0858
 8989SOL     OW38602   2.523   1.181   2.333 -1.0699  0.0771  0.0546
 8989SOL    HW138603   2.491   1.205   2.246 -1.2109  0.1856  0.1361
 8989SOL    HW238604   2.532   1.270   2.367  0.1357 -0.3448  0.8455
 8990SOL     OW38605   0.060   4.406  16.677  0.2493 -0.3226 -0.2962
 8990SOL    HW138606   0.002   4.428  16.604  1.3771  2.6180 -0.3343
 8990SOL    HW238607   0.029   4.472  16.740 -1.3811 -0.9637 -0.4336
 8991SOL     OW38608   0.995   0.905  12.575 -0.9097 -0.0472 -0.3526
 8991SOL    HW138609   1.005   0.815  12.544 -2.7944  0.0474 -1.2552
 8991SOL    HW238610   1.069   0.913  12.636 -0.3556 -0.3790 -0.9812
 8992SOL     OW38611   4.174   1.458   7.114 -0.1283  0.2420 -0.2602
 8992SOL    HW138612   4.097   1.402   7.108  1.8120 -2.4919  0.5128
 8992SOL    HW238613   4.238   1.388   7.104 -0.9447 -0.3610 -1.2360
 8993SOL     OW38614   1.836   1.136   3.221  0.4217  0.1730 -0.1406
 8993SOL    HW138615   1.899   1.196   3.259  0.4636  0.4583 -0.6586
 8993SOL    HW238616   1.889   1.057   3.221  0.6091  0.2962 -1.8164
 8994SOL     OW38617   4.437   4.463   4.946 -0.4639 -0.3770  0.4182
 8994SOL    HW138618   4.521   4.436   4.983 -0.1035  2.4433  1.6308
 8994SOL    HW238619   4.370   4.395   4.957 -0.9376 -0.1412 -0.9664
 8995SOL     OW38620   3.255   0.498  17.251  0.1407  0.2131 -0.1684
 8995SOL    HW138621   3.175   0.456  17.283  0.0994  0.0442 -0.4939
 8995SOL    HW238622   3.311   0.421  17.240  1.1732  0.5159  3.0667
 8996SOL     OW38623   0.845   4.718  10.385  0.8871 -0.6461  0.1413
 8996SOL    HW138624   0.911   4.649  10.393  1.1683 -0.5113 -0.9180
 8996SOL    HW238625   0.778   4.672  10.335  1.3666 -0.7369 -0.4222
 8997SOL     OW38626   4.334   1.488   2.695 -0.0422  0.5004  0.6109
 8997SOL    HW138627   4.402   1.553   2.678  2.4662 -2.3658 -0.3361
 8997SOL    HW238628   4.328   1.481   2.790  2.5429 -0.3625  0.7222
 8998SOL     OW38629   0.936   2.608  13.957 -0.4606  0.1365 -0.0071
 8998SOL    HW138630   0.957   2.700  13.971 -2.7430  0.1556  3.3704
 8998SOL    HW238631   1.022   2.566  13.950 -0.7650 -0.2317 -1.3608
 8999SOL     OW38632   3.360   1.832   8.189 -0.2080 -0.4445 -0.1905
 8999SOL    HW138633   3.413   1.848   8.110 -1.2397  1.4847 -0.5018
 8999SOL    HW238634   3.329   1.743   8.174 -1.1115  0.2616 -2.6127
 9000SOL     OW38635   0.006   2.119  10.627 -0.1988 -0.1369  0.3907
 9000SOL    HW138636   4.668   2.102  10.688 -0.3241  1.3388  0.6432
 9000SOL    HW238637   0.040   2.033  10.600  0.8831  0.6243 -0.6735
 9001SOL     OW38638   3.656   3.401  15.515 -0.1509 -0.2087  0.5457
 9001SOL    HW138639   3.609   3.474  15.475 -0.1624  0.1999  1.3186
 9001SOL    HW238640   3.748   3.423  15.502 -0.1533 -0.8216 -0.6218
 9002SOL     OW38641   0.408   3.130  11.444  0.1267  0.2986 -0.2217
 9002SOL    HW138642   0.350   3.124  11.520  2.0326  1.1976  1.3074
 9002SOL    HW238643   0.405   3.039  11.413 -0.4902 -0.1673  1.2161
 9003SOL     OW38644   1.608   0.678  11.983 -0.0701  0.2457  0.3152
 9003SOL    HW138645   1.514   0.691  11.992 -0.6101 -1.8546 -2.3645
 9003SOL    HW238646   1.634   0.651  12.071  1.0374  2.6841  0.7425
 9004SOL     OW38647   1.067   0.336   9.887  0.0938 -0.1789  0.3821
 9004SOL    HW138648   1.025   0.313   9.804 -1.0556  0.1465  0.8853
 9004SOL    HW238649   0.994   0.382   9.927 -1.1649  0.9130 -3.1896
 9005SOL     OW38650   2.951   4.692  14.123 -0.0249  0.6979  0.2451
 9005SOL    HW138651   2.975   4.663  14.211 -1.5735  1.2079  0.8417
 9005SOL    HW238652   2.917   0.046  14.129  2.0871  1.4305  1.1823
 9006SOL     OW38653   4.282   1.409   4.624  0.0323  0.7457  0.1479
 9006SOL    HW138654   4.298   1.499   4.597  2.3439  0.7166  1.3511
 9006SOL    HW238655   4.268   1.364   4.541 -1.2798  1.2609  0.0951
 9007SOL     OW38656   4.233   2.179   6.361  0.4680  0.1982 -0.4568
 9007SOL    HW138657   4.262   2.201   6.272 -0.1768  0.0778 -0.6986
 9007SOL    HW238658   4.160   2.119   6.344 -0.3896  1.4811 -1.3868
 9008SOL     OW38659   2.077   2.505   6.548  0.6279  0.2112 -0.2708
 9008SOL    HW138660   2.171   2.505   6.530  1.1279 -0.3621  2.2695
 9008SOL    HW238661   2.082   2.494   6.643 -3.0430  0.6184 -0.0438
 9009SOL     OW38662   3.676   4.105   5.863  0.2948  0.7206  1.1086
 9009SOL    HW138663   3.648   4.016   5.843 -1.7688  1.7965 -0.7298
 9009SOL    HW238664   3.701   4.094   5.955  0.4060  0.4572  1.0454
 9010SOL     OW38665   3.504   4.057   2.148  0.0767 -0.0042  0.7294
 9010SOL    HW138666   3.547   4.142   2.153 -0.1949  0.1933 -0.2194
 9010SOL    HW238667   3.450   4.068   2.226 -3.6360 -2.0682 -1.5390
 9011SOL     OW38668   2.100   1.298   9.725 -0.0198  0.0958 -0.6305
 9011SOL    HW138669   2.105   1.218   9.778 -0.8055  0.1145 -0.5305
 9011SOL    HW238670   2.019   1.281   9.678 -0.5185  2.7288 -0.7291
 9012SOL     OW38671   0.964   1.674   9.075  0.2819  0.2517 -0.3111
 9012SOL    HW138672   0.948   1.582   9.052 -1.4060 -0.0783  2.1199
 9012SOL    HW238673   0.872   1.699   9.070  0.4534  0.5955 -1.6884
 9013SOL     OW38674   0.359   1.079   6.780 -0.1344 -0.3012  0.0931
 9013SOL    HW138675   0.280   1.025   6.775  0.3031 -0.8340 -1.3042
 9013SOL    HW238676   0.395   1.044   6.861  1.4213  1.3591  0.1037
 9014SOL     OW38677   2.289   2.342   0.744  0.2688  0.2897  0.7613
 9014SOL    HW138678   2.250   2.392   0.672 -0.6663 -1.8662 -0.2202
 9014SOL    HW238679   2.244   2.259   0.732  1.1770 -0.1710  0.5238
 9015SOL     OW38680   3.055   0.413   0.615 -1.1985  0.1613 -0.0442
 9015SOL    HW138681   2.979   0.458   0.578 -0.3680  0.3177 -1.5597
 9015SOL    HW238682   3.044   0.323   0.583  1.2227  0.8743 -2.8984
 9016SOL     OW38683   2.842   1.607   1.567  0.2872 -0.2629 -0.0460
 9016SOL    HW138684   2.856   1.670   1.496 -0.3847 -0.6364 -0.5117
 9016SOL    HW238685   2.757   1.585   1.529  0.4556  2.6924 -2.0976
 9017SOL     OW38686   1.272   3.372   8.150 -0.3668 -0.3887  0.4892
 9017SOL    HW138687   1.337   3.307   8.123 -0.1688  1.8187 -4.2701
 9017SOL    HW238688   1.310   3.407   8.230  0.4730  0.6855 -0.3820
 9018SOL     OW38689   4.492   1.722  13.299 -0.6017  0.8222 -0.2277
 9018SOL    HW138690   4.486   1.689  13.388 -1.1155  0.9735 -0.2064
 9018SOL    HW238691   4.447   1.806  13.312 -2.1616  0.1007 -0.9536
 9019SOL     OW38692   3.417   3.111  10.396 -0.4489 -0.3391 -0.0335
 9019SOL    HW138693   3.443   3.196  10.362 -0.3673 -0.6335 -0.7116
 9019SOL    HW238694   3.502   3.070  10.378  0.0445  0.1206  1.2079
 9020SOL     OW38695   0.226   0.893  12.610  0.3021  0.0897 -0.4557
 9020SOL    HW138696   0.263   0.963  12.662  0.9057 -1.3704  1.0767
 9020SOL    HW238697   0.260   0.910  12.522 -1.6813 -2.0457 -1.6527
 9021SOL     OW38698   3.132   3.379   9.890 -0.2812  0.0325  0.5388
 9021SOL    HW138699   3.185   3.365   9.969  0.6460 -1.2178 -0.3064
 9021SOL    HW238700   3.123   3.473   9.902  0.6924  0.4784 -2.2015
 9022SOL     OW38701   2.285   1.030  11.518  0.1838 -0.0038 -0.6280
 9022SOL    HW138702   2.363   1.005  11.468 -1.4139  0.6045 -3.4515
 9022SOL    HW238703   2.280   1.125  11.513  1.0029  0.0179 -1.0856
 9023SOL     OW38704   2.230   3.335   5.462 -0.0583 -0.1008  0.5192
 9023SOL    HW138705   2.325   3.324   5.466  0.2965  2.7374 -0.4857
 9023SOL    HW238706   2.238   3.404   5.396  0.6176 -0.8930 -0.2423
 9024SOL     OW38707   1.117   4.616   6.164  0.2011  0.4224 -0.0465
 9024SOL    HW138708   1.124   4.619   6.068  0.7214 -1.5651 -0.0715
 9024SOL    HW238709   1.073   4.531   6.176 -1.6828  1.3403 -0.4623
 9025SOL     OW38710   4.312   0.167   5.566 -0.5377  0.3957  0.4401
 9025SOL    HW138711   4.326   0.259   5.545  3.3345  0.0052  1.3904
 9025SOL    HW238712   4.344   0.159   5.656  0.2793 -0.5911  0.0572
 9026SOL     OW38713   2.105   3.301   7.834  0.0500 -0.2809  0.1969
 9026SOL    HW138714   2.175   3.284   7.770 -0.2199  1.0523 -0.4663
 9026SOL    HW238715   2.046   3.226   7.836 -0.8219  0.3958 -0.4740
 9027SOL     OW38716   1.049   4.365   6.257  0.3231  0.0731 -0.6616
 9027SOL    HW138717   1.062   4.378   6.351  2.7851  0.6190 -1.0697
 9027SOL    HW238718   1.005   4.280   6.256  0.1745  0.1309  0.9930
 9028SOL     OW38719   0.524   1.399   4.675  0.2699 -0.2377 -0.0774
 9028SOL    HW138720   0.539   1.389   4.581  0.0409  1.0030 -0.2533
 9028SOL    HW238721   0.538   1.309   4.705  1.2114 -0.0483  0.0541
 9029SOL     OW38722   3.249   1.716   4.235  0.0663  0.1143 -0.5050
 9029SOL    HW138723   3.304   1.708   4.313 -1.6916  1.4810  0.8904
 9029SOL    HW238724   3.288   1.653   4.175  1.4853 -0.1800  0.7556
 9030SOL     OW38725   4.252   1.205   6.630 -0.1964  0.3927 -0.0896
 9030SOL    HW138726   4.264   1.122   6.584 -1.4763 -0.3653  0.9581
 9030SOL    HW238727   4.303   1.207   6.711 -0.5276 -2.1407  0.1680
 9031SOL     OW38728   3.352   2.798   6.705 -0.5785 -0.1205  0.8827
 9031SOL    HW138729   3.307   2.830   6.627 -2.5181 -0.5948  1.8025
 9031SOL    HW238730   3.377   2.708   6.684 -1.4500 -0.2503  0.4099
 9032SOL     OW38731   3.975   4.562  17.625  0.2140 -0.4128  0.0408
 9032SOL    HW138732   4.065   4.540  17.604  0.1142  0.5760 -1.4018
 9032SOL    HW238733   3.926   4.515  17.557  1.5720 -0.9823 -0.5360
 9033SOL     OW38734   1.912   0.405   6.307 -0.2440  1.1252  0.2312
 9033SOL    HW138735   1.976   0.356   6.358 -0.9450 -0.7037 -0.6493
 9033SOL    HW238736   1.940   0.372   6.222  0.1045 -1.2404  1.2764
 9034SOL     OW38737   1.768   2.285   3.267  0.4073  0.1127  0.2020
 9034SOL    HW138738   1.675   2.295   3.291  0.1338  3.1574 -2.1093
 9034SOL    HW238739   1.768   2.272   3.172  1.8017 -0.1099  0.2426
 9035SOL     OW38740   2.978   3.793   6.783 -0.6193  0.2800  1.3319
 9035SOL    HW138741   2.939   3.746   6.710  1.8450  0.4626 -0.0771
 9035SOL    HW238742   2.978   3.719   6.844 -0.1672 -1.4774 -0.8115
 9036SOL     OW38743   0.656   3.915   7.173 -0.4500 -0.0731  0.0643
 9036SOL    HW138744   0.625   3.939   7.086 -0.1749 -2.3050 -0.6217
 9036SOL    HW238745   0.584   3.864   7.209 -0.0556 -1.1546 -0.6987
 9037SOL     OW38746   3.933   2.271   0.291 -0.7726  0.6901 -0.0758
 9037SOL    HW138747   3.941   2.287   0.385 -1.9279 -0.5325  0.2282
 9037SOL    HW238748   3.843   2.238   0.284  0.0124 -1.2759 -1.0499
 9038SOL     OW38749   1.499   1.488   7.023  0.0620  0.9435 -0.5736
 9038SOL    HW138750   1.432   1.550   6.995 -1.4823 -0.5883 -0.2593
 9038SOL    HW238751   1.454   1.406   7.005  1.3384 -0.1441  1.2027
 9039SOL     OW38752   3.242   4.435   2.720  0.3077  0.0989  0.3066
 9039SOL    HW138753   3.271   4.366   2.660 -2.9211  0.8935 -2.1914
 9039SOL    HW238754   3.155   4.461   2.692  0.0388 -0.7763  0.3310
 9040SOL     OW38755   2.998   3.312  16.393 -0.2605  0.0362 -0.3524
 9040SOL    HW138756   2.975   3.271  16.310 -2.0166  1.0348 -0.3547
 9040SOL    HW238757   3.018   3.239  16.452 -2.0175  0.3686  0.6534
 9041SOL     OW38758   0.085   3.707   7.964  0.1270  0.1136  0.2979
 9041SOL    HW138759   0.066   3.692   7.871  1.8909  0.8137 -0.1866
 9041SOL    HW238760   0.176   3.677   7.964 -0.0257 -0.3406  0.9023
 9042SOL     OW38761   3.335   3.350  17.074  0.4237  0.5624 -0.0618
 9042SOL    HW138762   3.340   3.397  16.991 -0.1082 -0.7691 -0.8341
 9042SOL    HW238763   3.357   3.422  17.134 -0.8163  0.5848  0.3546
 9043SOL     OW38764   0.492   1.001   1.024  0.0027 -0.1217 -0.3606
 9043SOL    HW138765   0.500   1.071   1.089  1.5113 -2.3135  1.7963
 9043SOL    HW238766   0.517   1.053   0.948 -2.0546  1.3127 -0.0532
 9044SOL     OW38767   1.856   1.491  10.598 -0.1907 -0.1696  0.0563
 9044SOL    HW138768   1.797   1.522  10.530  0.3268 -2.4145 -1.4333
 9044SOL    HW238769   1.906   1.569  10.620 -0.3310  0.3044 -1.3458
 9045SOL     OW38770   4.023   0.648   7.877  0.1544  0.0437  0.0359
 9045SOL    HW138771   3.994   0.561   7.849 -0.1690  0.0815  0.2534
 9045SOL    HW238772   3.950   0.700   7.844  0.1412 -0.5184 -0.8054
 9046SOL     OW38773   4.640   1.340   4.755 -0.0329 -0.8960 -0.0604
 9046SOL    HW138774   4.667   1.317   4.844 -1.2006 -1.1871  0.2200
 9046SOL    HW238775   4.721   1.319   4.709  0.2218  0.2803 -0.1334
 9047SOL     OW38776   1.859   3.580   6.254  0.5376 -0.4054  0.2000
 9047SOL    HW138777   1.802   3.544   6.322  1.0027 -0.4664  0.5583
 9047SOL    HW238778   1.827   3.670   6.244  2.7847  0.2816 -0.8109
 9048SOL     OW38779   2.649   4.000   4.098  0.3811  0.6040  0.2718
 9048SOL    HW138780   2.726   3.971   4.050  1.5456  2.8454  0.7678
 9048SOL    HW238781   2.669   3.993   4.192 -0.5046 -0.8573  0.3404
 9049SOL     OW38782   1.892   4.018   2.707  0.1104  0.0087 -0.4175
 9049SOL    HW138783   1.864   4.000   2.797 -2.2232 -1.1850 -1.3690
 9049SOL    HW238784   1.986   4.017   2.721  0.4392 -3.1381 -2.7282
 9050SOL     OW38785   3.526   2.934   8.121  0.0481  0.6997 -0.2910
 9050SOL    HW138786   3.489   2.849   8.144 -2.6913  1.9612 -0.0715
 9050SOL    HW238787   3.567   2.917   8.036  1.2056 -0.1979  0.4442
 9051SOL     OW38788   2.130   0.298  14.531  0.0069  0.1412 -0.3634
 9051SOL    HW138789   2.220   0.325  14.549  0.5802 -2.2606  0.2696
 9051SOL    HW238790   2.089   0.383  14.512 -0.0445 -0.0364 -1.0407
 9052SOL     OW38791   3.720   0.292  16.841  0.0197 -0.0739  0.0088
 9052SOL    HW138792   3.634   0.256  16.820  0.7590 -2.8317  1.7209
 9052SOL    HW238793   3.755   0.271  16.754  1.2697  1.2221  0.2117
 9053SOL     OW38794   3.293   1.987   5.527 -0.7917  0.1808  0.5371
 9053SOL    HW138795   3.386   1.992   5.548 -0.3545 -0.7126 -1.1799
 9053SOL    HW238796   3.287   1.921   5.457 -1.0278  0.4115  0.3408
 9054SOL     OW38797   0.617   1.478  15.018 -0.1955 -0.4574  0.6905
 9054SOL    HW138798   0.631   1.572  15.024  2.5272 -0.7939  0.1064
 9054SOL    HW238799   0.531   1.470  14.978 -0.0083 -0.6060  0.3141
 9055SOL     OW38800   0.415   4.472   5.503 -0.2104 -1.2087  0.1075
 9055SOL    HW138801   0.403   4.481   5.597  0.3623 -1.8698  0.2400
 9055SOL    HW238802   0.371   4.391   5.479 -1.2454 -1.0176  1.3965
 9056SOL     OW38803   0.758   3.758   6.404  0.0673  0.1879  0.1692
 9056SOL    HW138804   0.782   3.764   6.312  0.2653  1.3930  0.2963
 9056SOL    HW238805   0.819   3.821   6.441 -1.2886  1.5689  0.0880
 9057SOL     OW38806   4.264   2.821   2.151 -0.4808 -0.3434  0.1529
 9057SOL    HW138807   4.194   2.862   2.102 -0.8693  0.9362  1.7570
 9057SOL    HW238808   4.330   2.798   2.086  0.0515  0.9614  0.2119
 9058SOL     OW38809   2.769   4.605   3.212 -0.0969  0.6450 -0.9142
 9058SOL    HW138810   2.734   4.685   3.250 -0.9127  0.0012 -0.3171
 9058SOL    HW238811   2.749   4.539   3.278 -0.2919  0.6380 -0.9809
 9059SOL     OW38812   2.183   4.632   6.541  0.0287  0.4616 -0.0414
 9059SOL    HW138813   2.210   4.719   6.572 -0.7475  0.0166  1.8460
 9059SOL    HW238814   2.255   4.576   6.569 -1.6806 -1.2128  0.9477
 9060SOL     OW38815   2.928   4.720   2.605  0.2293  0.2336  0.0393
 9060SOL    HW138816   2.984   0.010   2.531  2.5455  1.1351  2.0898
 9060SOL    HW238817   2.974   0.024   2.679  0.1662  0.8622 -0.2521
 9061SOL     OW38818   1.895   2.276   2.322  0.3941  0.1040  0.2200
 9061SOL    HW138819   1.849   2.194   2.340 -2.8962  1.9768  0.4184
 9061SOL    HW238820   1.929   2.287   2.410 -1.1416  1.7237  0.6329
 9062SOL     OW38821   4.201   1.181  16.900  0.5292 -0.2586 -0.0601
 9062SOL    HW138822   4.216   1.087  16.885 -1.3905 -0.6503  0.4502
 9062SOL    HW238823   4.119   1.181  16.950 -0.0377  0.4944 -1.0018
 9063SOL     OW38824   4.101   4.258   1.530 -0.6381 -0.0966 -0.0455
 9063SOL    HW138825   4.081   4.310   1.608 -2.6609  0.4144 -0.9123
 9063SOL    HW238826   4.057   4.174   1.545 -0.0982 -0.3181  0.2761
 9064SOL     OW38827   1.775   0.313  16.309 -0.3405  0.1213  0.3232
 9064SOL    HW138828   1.832   0.375  16.263  1.7023 -1.5085  0.6298
 9064SOL    HW238829   1.808   0.233  16.267 -0.5407  0.8186 -1.1510
 9065SOL     OW38830   4.308   0.813   6.847  0.6502 -0.5750 -0.9178
 9065SOL    HW138831   4.227   0.784   6.805  0.9593 -0.8998 -1.2997
 9065SOL    HW238832   4.347   0.732   6.880  1.9280 -0.4130 -2.0063
 9066SOL     OW38833   2.093   1.810   8.285 -0.5051  0.4751 -0.1034
 9066SOL    HW138834   2.007   1.847   8.306  0.2222  0.4715  2.9380
 9066SOL    HW238835   2.152   1.864   8.339  2.0945 -2.2213 -0.2788
 9067SOL     OW38836   3.811   1.704   9.369  0.2934 -0.4974  0.2698
 9067SOL    HW138837   3.839   1.668   9.285 -1.3640 -1.0515 -0.0520
 9067SOL    HW238838   3.738   1.762   9.344 -0.5467 -1.5464  0.2966
 9068SOL     OW38839   4.060   4.405  14.374 -0.4292  0.0816  0.2459
 9068SOL    HW138840   4.001   4.386  14.301  0.7638 -2.7898  0.0250
 9068SOL    HW238841   4.095   4.484  14.333  2.9997 -1.4152  0.2668
 9069SOL     OW38842   0.300   4.438   6.102  0.6083 -0.4477 -0.0783
 9069SOL    HW138843   0.220   4.464   6.056  0.5077 -0.5657  0.0292
 9069SOL    HW238844   0.369   4.419   6.038 -0.5465  2.2544 -2.1167
 9070SOL     OW38845   2.460   0.158  12.783 -0.0359 -0.6586 -0.1736
 9070SOL    HW138846   2.438   0.134  12.873  0.8034 -1.6824 -0.2384
 9070SOL    HW238847   2.378   0.139  12.737 -0.2721  2.4320 -1.0088
 9071SOL     OW38848   3.240   0.167   2.832  0.4208  0.5108 -0.0492
 9071SOL    HW138849   3.148   0.187   2.850 -0.0136  0.8423 -2.6595
 9071SOL    HW238850   3.232   0.150   2.738 -1.2008 -0.7083  0.3116
 9072SOL     OW38851   1.160   0.690  13.084  0.3469  0.4294 -0.4975
 9072SOL    HW138852   1.138   0.764  13.141 -2.3632  0.6816 -1.8746
 9072SOL    HW238853   1.079   0.679  13.035 -0.1045 -0.0451  0.3670
 9073SOL     OW38854   2.772   0.508   6.671  0.6993 -0.0912 -0.6101
 9073SOL    HW138855   2.760   0.512   6.576 -1.1885 -1.1325 -0.4049
 9073SOL    HW238856   2.834   0.437   6.691  0.9859  0.3745  0.1687
 9074SOL     OW38857   0.478   2.288   6.096 -0.0676  0.3127 -0.5746
 9074SOL    HW138858   0.447   2.237   6.021 -0.9818  1.2984 -0.8739
 9074SOL    HW238859   0.551   2.237   6.131 -0.0644 -0.0891 -1.1721
 9075SOL     OW38860   1.554   2.100  10.159  0.1197 -0.5372 -0.2649
 9075SOL    HW138861   1.522   2.038  10.225  2.9457 -1.0965  0.5961
 9075SOL    HW238862   1.512   2.179  10.194 -0.0349 -0.3708 -0.8341
 9076SOL     OW38863   1.423   1.231   3.424  0.7330  0.2775 -0.3578
 9076SOL    HW138864   1.411   1.185   3.507 -1.4290  0.8586 -0.3625
 9076SOL    HW238865   1.402   1.318   3.459 -1.2803 -0.1348 -0.5363
 9077SOL     OW38866   3.718   1.491   1.755  0.1019 -0.1644 -0.3214
 9077SOL    HW138867   3.687   1.515   1.669  1.1262 -1.3991 -1.0451
 9077SOL    HW238868   3.791   1.431   1.736 -0.0899 -1.4659  3.0189
 9078SOL     OW38869   3.115   1.434   1.580 -0.1762 -0.2013  0.4175
 9078SOL    HW138870   3.116   1.387   1.497 -1.1030 -0.6912  0.6923
 9078SOL    HW238871   3.023   1.426   1.606 -0.1201  0.6392  0.9050
 9079SOL     OW38872   3.041   0.684   2.975 -0.1367 -0.3580  1.1550
 9079SOL    HW138873   3.128   0.686   3.016  0.0041 -0.3165  0.8579
 9079SOL    HW238874   3.006   0.620   3.037  0.5019 -1.0391  0.8166
 9080SOL     OW38875   1.399   3.536   2.207  0.0110  0.0484  0.2218
 9080SOL    HW138876   1.380   3.446   2.233  2.0477 -0.3390  0.4083
 9080SOL    HW238877   1.488   3.560   2.234 -0.2668  1.5045 -0.1606
 9081SOL     OW38878   2.691   4.276   4.849  0.1006  0.7346 -0.0433
 9081SOL    HW138879   2.666   4.358   4.891 -0.5723 -0.1665  1.3268
 9081SOL    HW238880   2.767   4.245   4.898 -0.6222 -1.4402 -0.3001
 9082SOL     OW38881   2.235   0.965   4.111 -1.0696 -0.4869  0.1522
 9082SOL    HW138882   2.294   1.041   4.108 -2.6916  0.7478 -0.2923
 9082SOL    HW238883   2.169   0.996   4.173  0.5939  0.6619  1.3394
 9083SOL     OW38884   3.398   2.118   2.605 -0.6827  0.0913 -0.5894
 9083SOL    HW138885   3.446   2.201   2.602 -2.1879  1.0243  1.2682
 9083SOL    HW238886   3.423   2.079   2.521 -0.2584 -0.6228 -0.1353
 9084SOL     OW38887   1.680   0.019   9.974  0.3292 -0.8020  0.2574
 9084SOL    HW138888   1.592   0.031  10.009 -0.4418 -0.2326 -1.8661
 9084SOL    HW238889   1.703   4.663   9.992  0.7334 -1.1912 -2.1857
 9085SOL     OW38890   4.574   1.522  14.969  0.0280 -0.0423  0.2511
 9085SOL    HW138891   4.486   1.559  14.964  0.3695  0.5950 -1.1915
 9085SOL    HW238892   4.575   1.526  15.064  0.7531 -0.2388  0.2555
 9086SOL     OW38893   3.528   1.801   6.458  0.0199 -0.5321 -0.4690
 9086SOL    HW138894   3.469   1.763   6.394 -1.5146  0.2842  0.4700
 9086SOL    HW238895   3.606   1.821   6.406  0.9756 -1.6918  0.5007
 9087SOL     OW38896   0.237   0.088  15.397  0.6517  0.3532  0.0848
 9087SOL    HW138897   0.223   0.177  15.366 -0.4414  0.4262  0.7920
 9087SOL    HW238898   0.170   0.078  15.465 -1.6845  2.6551 -1.8497
 9088SOL     OW38899   1.158   0.219   4.982  0.0003  0.3365  0.1880
 9088SOL    HW138900   1.235   0.192   5.032  1.2752  2.1720 -0.7738
 9088SOL    HW238901   1.100   0.143   4.990 -0.3315  0.3492 -2.1505
 9089SOL     OW38902   1.646   2.613   5.254 -0.1295  0.5374  0.6442
 9089SOL    HW138903   1.701   2.680   5.211 -1.1732 -0.0258 -1.5839
 9089SOL    HW238904   1.573   2.614   5.192  0.2973 -1.6292  0.1313
 9090SOL     OW38905   1.944   2.786   3.777  0.4505  0.7576 -0.0937
 9090SOL    HW138906   1.979   2.812   3.862 -0.3185  1.3440  0.0407
 9090SOL    HW238907   2.026   2.796   3.730  1.3548 -0.8175  1.1387
 9091SOL     OW38908   0.061   0.928   2.194  0.5869 -0.2248  0.0196
 9091SOL    HW138909   0.127   0.863   2.169  0.1857 -1.0003  0.9524
 9091SOL    HW238910   0.106   1.012   2.203 -2.3840  1.1675  1.7776
 9092SOL     OW38911   2.756   1.245   8.214  0.4629  0.0562 -0.2235
 9092SOL    HW138912   2.725   1.291   8.136  0.1832 -1.7867 -1.2037
 9092SOL    HW238913   2.688   1.257   8.279 -0.5108 -0.9582 -1.0507
 9093SOL     OW38914   3.939   1.833   2.088 -0.4283  0.6529  0.0361
 9093SOL    HW138915   3.947   1.780   2.167 -2.3602  0.7937  0.3109
 9093SOL    HW238916   3.882   1.774   2.040  1.0733 -0.1670 -0.7199
 9094SOL     OW38917   1.700   4.196   1.434 -0.1280  0.6337  0.0847
 9094SOL    HW138918   1.707   4.287   1.462  0.1066  0.4578  0.5907
 9094SOL    HW238919   1.789   4.164   1.425 -0.1952  1.1991 -2.5280
 9095SOL     OW38920   1.451   3.175   7.969  0.3718 -0.3320 -0.3491
 9095SOL    HW138921   1.502   3.217   7.899 -1.1741  1.1211 -0.6190
 9095SOL    HW238922   1.383   3.139   7.912  1.1126 -0.3213 -1.2491
 9096SOL     OW38923   2.429   1.859  14.221 -0.8726  0.2163  0.5262
 9096SOL    HW138924   2.510   1.831  14.265 -1.8072 -0.9888  1.5109
 9096SOL    HW238925   2.383   1.907  14.290 -0.1910  0.0361  1.1078
 9097SOL     OW38926   3.990   0.060   8.102 -0.0607 -0.3982 -0.2429
 9097SOL    HW138927   3.931   0.134   8.115  2.1170  1.3717 -0.3760
 9097SOL    HW238928   4.073   0.103   8.124  0.0274 -0.0626 -1.2316
 9098SOL     OW38929   0.389   0.540  15.689 -1.1080  0.5016 -0.0661
 9098SOL    HW138930   0.357   0.630  15.680  1.7234  1.6189  1.3221
 9098SOL    HW238931   0.404   0.530  15.783 -0.0943  1.3376 -0.1389
 9099SOL     OW38932   0.088   0.050  15.637  0.2767 -0.1080 -0.2677
 9099SOL    HW138933   0.129   4.712  15.684  0.6837  0.1376 -0.2417
 9099SOL    HW238934   0.025   0.002  15.583 -0.5339  0.2512  0.3626
 9100SOL     OW38935   1.745   2.275   9.244 -0.0291 -0.2246  0.0698
 9100SOL    HW138936   1.718   2.355   9.198  0.9918 -1.2674 -2.2997
 9100SOL    HW238937   1.675   2.219   9.210 -1.3147  1.2150  0.3296
 9101SOL     OW38938   2.266   3.127   9.289 -0.5373 -0.3322  0.0143
 9101SOL    HW138939   2.230   3.215   9.274 -1.4767 -0.7979 -0.4833
 9101SOL    HW238940   2.316   3.138   9.369  2.7292 -0.1498 -2.0408
 9102SOL     OW38941   4.533   3.498   2.954 -0.2322 -0.0670 -0.0618
 9102SOL    HW138942   4.623   3.521   2.977 -0.3452  3.0425 -2.7543
 9102SOL    HW238943   4.546   3.433   2.884  0.2235 -0.6747  0.5969
 9103SOL     OW38944   1.599   3.779  14.580 -0.0904 -0.6623 -0.2825
 9103SOL    HW138945   1.522   3.822  14.544  0.1575  0.2641  0.3081
 9103SOL    HW238946   1.659   3.808  14.511  0.3186 -1.5717 -0.3155
 9104SOL     OW38947   2.252   2.287   4.291 -0.1153  0.3157  0.4550
 9104SOL    HW138948   2.243   2.314   4.383 -0.1275 -1.4462  0.9798
 9104SOL    HW238949   2.163   2.299   4.259  0.6866 -0.5555 -2.0446
 9105SOL     OW38950   3.275   1.065   6.113  0.4374 -0.0503  0.1407
 9105SOL    HW138951   3.256   1.148   6.069 -0.1979 -0.8381 -1.0939
 9105SOL    HW238952   3.301   1.001   6.046 -1.7177 -0.3785 -0.4069
 9106SOL     OW38953   2.517   4.718  10.408  0.3873  0.2908  0.3097
 9106SOL    HW138954   2.445   4.657  10.392 -0.2723  0.5448  2.2879
 9106SOL    HW238955   2.491   0.052  10.346 -1.2526  1.2342  2.0221
 9107SOL     OW38956   2.149   4.361   3.284 -0.4871 -0.2618  0.5292
 9107SOL    HW138957   2.104   4.339   3.203 -0.1212  3.6426 -0.7344
 9107SOL    HW238958   2.156   4.271   3.314 -0.7861 -0.4120  0.1362
 9108SOL     OW38959   3.113   4.477   6.221  0.4037 -0.6047  0.0206
 9108SOL    HW138960   3.133   4.435   6.304 -0.5498 -0.3847  0.3612
 9108SOL    HW238961   3.199   4.495   6.184  0.8663  0.0072  1.4217
 9109SOL     OW38962   4.637   0.585   9.334  0.0024  0.0785 -0.2078
 9109SOL    HW138963   4.660   0.632   9.254 -1.3373  1.5612  0.2742
 9109SOL    HW238964   4.703   0.614   9.397  1.2912 -2.0381 -0.5836
 9110SOL     OW38965   3.865   3.643   5.446 -0.5935 -0.4609 -0.1059
 9110SOL    HW138966   3.790   3.676   5.496 -0.6811  2.1998 -1.9545
 9110SOL    HW238967   3.853   3.684   5.360 -0.8458 -1.0208 -0.3373
 9111SOL     OW38968   2.372   0.588   5.804 -0.5906  0.0440 -0.1613
 9111SOL    HW138969   2.424   0.585   5.724  0.2060  2.9658  0.2599
 9111SOL    HW238970   2.326   0.669   5.783  0.2984 -0.1455 -2.7914
 9112SOL     OW38971   3.987   0.506   1.873 -0.3697  0.0103 -0.1322
 9112SOL    HW138972   4.080   0.485   1.884 -0.2269  0.0470 -1.2755
 9112SOL    HW238973   3.989   0.595   1.838 -1.1091 -0.1428 -0.5557
 9113SOL     OW38974   0.854   3.351  10.564  0.3785 -0.0725 -0.3138
 9113SOL    HW138975   0.823   3.271  10.521 -0.9817 -1.4176  3.1010
 9113SOL    HW238976   0.791   3.420  10.543 -0.6051 -0.8574  0.0336
 9114SOL     OW38977   0.480   4.158   7.167  0.4046  0.5213 -0.0306
 9114SOL    HW138978   0.517   4.245   7.156 -1.2565  1.2899  0.4215
 9114SOL    HW238979   0.555   4.100   7.181  1.7444  2.8389  2.2382
 9115SOL     OW38980   2.059   3.622   3.447  0.2296 -0.0089 -0.3147
 9115SOL    HW138981   2.062   3.614   3.543 -0.2269  0.3686 -0.2695
 9115SOL    HW238982   1.972   3.660   3.439 -0.2290 -1.0847 -0.3903
 9116SOL     OW38983   4.010   3.850   6.812 -0.0787  0.4098  1.0606
 9116SOL    HW138984   4.103   3.853   6.790 -0.1178  0.0261  0.8468
 9116SOL    HW238985   3.989   3.943   6.819 -3.1180 -0.2454  0.9217
 9117SOL     OW38986   2.077   1.924   2.428 -0.0474 -0.1260 -0.3510
 9117SOL    HW138987   2.043   1.834   2.431 -1.9534  0.6332  0.4628
 9117SOL    HW238988   1.994   1.969   2.442  0.4938  0.6520  0.3735
 9118SOL     OW38989   0.810   4.281   9.885 -0.1741 -0.3473 -0.2339
 9118SOL    HW138990   0.743   4.270   9.952 -0.5741 -1.3326 -0.7929
 9118SOL    HW238991   0.756   4.258   9.809 -2.1426  0.9977  0.7426
 9119SOL     OW38992   4.491   4.441   7.318  0.0208 -0.2199 -0.6219
 9119SOL    HW138993   4.585   4.445   7.337 -0.2342 -1.9969  1.0005
 9119SOL    HW238994   4.476   4.364   7.263 -2.9343  0.8011 -1.2399
 9120SOL     OW38995   1.168   1.574   0.823  0.8639  0.3600  0.0896
 9120SOL    HW138996   1.246   1.587   0.770  1.5754  1.2311  1.3476
 9120SOL    HW238997   1.107   1.623   0.767  1.5644 -0.9651 -1.7903
 9121SOL     OW38998   2.710   0.271   2.975 -0.4774 -0.4295 -0.6785
 9121SOL    HW138999   2.696   0.233   2.888  1.2476  1.6822 -1.8893
 9121SOL    HW239000   2.636   0.329   2.991 -0.2848 -0.4254  0.2135
 9122SOL     OW39001   2.026   3.944   0.787  0.3014 -0.6233 -0.6643
 9122SOL    HW139002   2.065   4.025   0.754 -0.4082 -0.3456 -0.8231
 9122SOL    HW239003   1.962   3.924   0.719 -1.8830  1.2308  0.8233
 9123SOL     OW39004   3.573   2.662   5.974 -0.1477 -0.0713 -0.1370
 9123SOL    HW139005   3.529   2.721   5.913 -1.0597  0.2291  0.7980
 9123SOL    HW239006   3.621   2.609   5.910  0.2422  0.2200 -0.0865
 9124SOL     OW39007   4.724   0.311   9.295  0.1185 -0.1493  0.4897
 9124SOL    HW139008   0.056   0.285   9.359  0.2236  3.2063  1.7133
 9124SOL    HW239009   4.710   0.404   9.311  0.4378 -0.0005 -0.0871
 9125SOL     OW39010   4.418   4.198  14.296 -0.0469 -0.6141  0.1400
 9125SOL    HW139011   4.438   4.280  14.250  1.2148 -1.6852 -1.2164
 9125SOL    HW239012   4.472   4.137  14.246 -0.2085 -1.1455  0.6170
 9126SOL     OW39013   3.868   0.085   8.361  0.1264 -0.1030 -0.1706
 9126SOL    HW139014   3.828   0.074   8.448  1.0608 -0.0045  0.2703
 9126SOL    HW239015   3.786   0.113   8.318  0.4630  3.5804  1.5394
 9127SOL     OW39016   4.060   4.196   6.634  0.3174  0.2055 -0.1823
 9127SOL    HW139017   4.012   4.275   6.658 -0.1072  0.0931 -0.6630
 9127SOL    HW239018   4.135   4.207   6.693 -0.2579  0.3502  0.5184
 9128SOL     OW39019   3.675   0.434   8.381  0.4448  0.6827  0.9761
 9128SOL    HW139020   3.659   0.525   8.403 -1.6296  0.0463  2.1093
 9128SOL    HW239021   3.765   0.431   8.414  0.2822  0.3470  1.3822
 9129SOL     OW39022   3.515   1.651   0.740  0.3166 -0.4901 -0.1291
 9129SOL    HW139023   3.496   1.576   0.796  0.9111 -1.4210 -1.1534
 9129SOL    HW239024   3.471   1.627   0.658  2.1354 -0.3855 -1.1402
 9130SOL     OW39025   0.810   2.171   3.239 -0.4923 -0.1694 -0.0309
 9130SOL    HW139026   0.832   2.080   3.219  0.2950  0.3070 -1.3269
 9130SOL    HW239027   0.743   2.186   3.172 -0.3795 -0.6659 -0.2499
 9131SOL     OW39028   3.367   4.412   4.232 -0.2916 -0.2575  0.0236
 9131SOL    HW139029   3.383   4.502   4.261 -2.0319  0.0025  0.1971
 9131SOL    HW239030   3.457   4.379   4.234 -1.1397 -2.4591  2.0685
 9132SOL     OW39031   0.573   2.704   4.153 -0.1022 -0.5588 -0.1467
 9132SOL    HW139032   0.665   2.722   4.131  0.3878 -0.5525  1.8919
 9132SOL    HW239033   0.544   2.792   4.180 -0.9723 -0.4449 -1.4869
 9133SOL     OW39034   4.353   1.062   5.148 -0.0436 -0.0596  0.0726
 9133SOL    HW139035   4.293   1.135   5.132 -1.1165 -0.8261  0.5626
 9133SOL    HW239036   4.344   1.050   5.243 -0.2676 -1.5559 -0.1318
 9134SOL     OW39037   3.349   4.503   5.101  0.0739  0.3864  0.1291
 9134SOL    HW139038   3.368   4.414   5.130  0.4950  1.5954  3.4523
 9134SOL    HW239039   3.352   4.540   5.189 -2.4853  0.7140  0.0838
 9135SOL     OW39040   1.945   1.759   9.391 -0.5322  0.1618 -0.3666
 9135SOL    HW139041   2.039   1.763   9.410 -0.5935  1.0565 -0.2494
 9135SOL    HW239042   1.892   1.801   9.459  0.2330  0.0904  0.2752
 9136SOL     OW39043   2.116   4.566  14.691  0.0646 -0.3372  0.0674
 9136SOL    HW139044   2.119   4.493  14.628 -0.5886 -0.4451  0.1609
 9136SOL    HW239045   2.097   4.639  14.631 -1.0163  0.8345  1.8534
 9137SOL     OW39046   3.913   0.968   1.925  0.3347  0.5666 -0.2222
 9137SOL    HW139047   3.854   1.018   1.982  0.8564  1.2448 -0.2770
 9137SOL    HW239048   3.989   0.959   1.981  1.0491 -0.6114 -1.3684
 9138SOL     OW39049   3.194   4.664   6.012 -0.1383 -0.3777 -0.4175
 9138SOL    HW139050   3.263   4.686   6.075 -0.0519 -3.6329  0.6284
 9138SOL    HW239051   3.243   4.632   5.936  1.0859 -0.7175  0.5127
 9139SOL     OW39052   3.542   2.459   7.788  0.3333  0.4628  0.0563
 9139SOL    HW139053   3.476   2.415   7.842  1.7955 -1.8253 -0.0254
 9139SOL    HW239054   3.532   2.423   7.700  0.3616 -0.0773  0.2704
 9140SOL     OW39055   3.802   3.796   2.753  0.7597  0.1780  0.6739
 9140SOL    HW139056   3.760   3.716   2.783  1.9266 -0.4320  0.6662
 9140SOL    HW239057   3.895   3.776   2.762 -0.0213 -2.2591  3.2229
 9141SOL     OW39058   3.461   0.296  17.198  0.3017 -0.2521 -0.2648
 9141SOL    HW139059   3.536   0.341  17.160 -1.3188  2.3561 -0.3835
 9141SOL    HW239060   3.508   0.214  17.214 -1.1418 -1.3755 -1.8238
 9142SOL     OW39061   0.123   2.637   8.438 -0.1122  0.0864  0.2866
 9142SOL    HW139062   0.085   2.610   8.355  0.6566 -2.1586  0.6684
 9142SOL    HW239063   0.079   2.581   8.502  1.2886 -1.6520 -0.2547
 9143SOL     OW39064   4.615   4.378   8.125 -0.0322 -0.6145 -0.3446
 9143SOL    HW139065   4.612   4.472   8.143 -0.4695 -0.7662  0.3626
 9143SOL    HW239066   4.552   4.347   8.190 -3.1196  1.5686 -2.3276
 9144SOL     OW39067   2.602   2.014   1.423  0.3842 -0.3079 -0.1480
 9144SOL    HW139068   2.612   1.988   1.514 -2.6213 -0.0872  0.2477
 9144SOL    HW239069   2.531   2.077   1.435 -0.5678 -1.7679  1.9968
 9145SOL     OW39070   4.116   4.054   5.719  0.3526  0.1154 -0.0536
 9145SOL    HW139071   4.150   4.125   5.772  0.3046  0.3781 -0.3771
 9145SOL    HW239072   4.126   3.985   5.785 -0.2915 -0.2076 -0.2950
 9146SOL     OW39073   0.937   4.422   8.254  0.4069  0.1292  0.5157
 9146SOL    HW139074   0.939   4.483   8.328 -0.4612 -1.0593  1.5231
 9146SOL    HW239075   0.990   4.467   8.188 -1.1007  3.0140  1.3034
 9147SOL     OW39076   0.092   4.085   9.111 -0.2088 -0.2265 -0.0003
 9147SOL    HW139077   0.068   3.995   9.091  1.3532 -1.1671  2.3450
 9147SOL    HW239078   0.140   4.113   9.033  0.1409  1.0375  0.6779
 9148SOL     OW39079   1.282   1.146  17.549 -0.7392  0.5487  0.6633
 9148SOL    HW139080   1.264   1.112  17.461  0.5361 -0.2950  0.7245
 9148SOL    HW239081   1.268   1.070  17.605 -1.5801 -0.2593 -0.6389
 9149SOL     OW39082   2.444   2.514   4.347  0.9107 -0.6436  0.4473
 9149SOL    HW139083   2.465   2.501   4.439 -0.1951 -1.6095  0.5513
 9149SOL    HW239084   2.357   2.477   4.357  0.8105 -0.5050  0.0891
 9150SOL     OW39085   1.574   4.082   1.799 -0.3058 -0.0232 -0.6887
 9150SOL    HW139086   1.534   3.995   1.806  1.3213 -0.8019 -1.0639
 9150SOL    HW239087   1.628   4.081   1.878 -0.7403 -0.2321 -0.3959
 9151SOL     OW39088   2.272   3.006   2.912 -0.3215  0.5860  0.7301
 9151SOL    HW139089   2.247   2.915   2.926  0.1274  0.0095 -2.3479
 9151SOL    HW239090   2.210   3.061   2.961 -3.3456 -1.8271 -0.3877
 9152SOL     OW39091   0.389   2.217   3.550 -0.6154 -0.2763  0.1037
 9152SOL    HW139092   0.408   2.208   3.456  1.7402 -0.6319  0.6073
 9152SOL    HW239093   0.476   2.249   3.575 -1.0161 -0.0125  1.1278
 9153SOL     OW39094   3.914   1.408  12.286 -0.6540 -0.1261 -0.8270
 9153SOL    HW139095   3.890   1.324  12.326  0.3652  1.2400  2.6495
 9153SOL    HW239096   3.943   1.455  12.364  0.9742 -0.5779 -1.1471
 9154SOL     OW39097   3.783   2.113  15.584 -0.8148 -0.1026 -0.2039
 9154SOL    HW139098   3.755   2.093  15.673  0.7319 -0.1111  0.2744
 9154SOL    HW239099   3.698   2.129  15.542 -1.5558  0.9849  1.7085
 9155SOL     OW39100   2.546   1.532  11.299  0.2075 -0.4425  0.1614
 9155SOL    HW139101   2.451   1.545  11.297  0.4281  1.2005  0.7002
 9155SOL    HW239102   2.537   1.442  11.332  0.1870 -0.9068 -1.1238
 9156SOL     OW39103   1.576   1.874   6.364 -0.4101 -0.2203  0.3596
 9156SOL    HW139104   1.588   1.949   6.421 -1.0794  0.3435 -0.2410
 9156SOL    HW239105   1.483   1.870   6.342 -0.2679 -0.5377 -0.1953
 9157SOL     OW39106   3.821   2.302  17.651 -0.1880 -0.3834 -0.4335
 9157SOL    HW139107   3.839   2.299  17.557  0.4248  1.2766 -0.3846
 9157SOL    HW239108   3.739   2.253  17.651  0.1883 -1.0195  2.1106
 9158SOL     OW39109   3.872   4.296   4.665 -0.3185  0.0499  0.0288
 9158SOL    HW139110   3.778   4.301   4.645 -0.7490 -1.6573  1.5787
 9158SOL    HW239111   3.873   4.256   4.752  0.9759  0.3771  0.1579
 9159SOL     OW39112   4.156   0.940  10.223 -0.5782  0.1596 -0.0495
 9159SOL    HW139113   4.171   0.846  10.233  0.3276  0.1043 -2.0222
 9159SOL    HW239114   4.210   0.967  10.297 -0.3369 -1.1849  0.2790
 9160SOL     OW39115   2.246   4.086  10.416  0.2750 -0.1714 -0.2806
 9160SOL    HW139116   2.307   4.160  10.419  0.5732 -0.3597 -1.7009
 9160SOL    HW239117   2.171   4.130  10.455 -0.8824 -0.1639 -2.5167
 9161SOL     OW39118   3.334   2.412   4.052 -0.4095  0.0414  0.2622
 9161SOL    HW139119   3.306   2.393   3.962 -1.8696 -1.6511  1.0672
 9161SOL    HW239120   3.261   2.470   4.069  0.3872  1.5621 -1.5750
 9162SOL     OW39121   1.704   3.530   5.981  0.2797 -0.3552  0.1113
 9162SOL    HW139122   1.733   3.516   6.072  0.4174  1.2534  0.3221
 9162SOL    HW239123   1.742   3.615   5.960  0.6776 -0.4800  0.3044
 9163SOL     OW39124   4.487   1.904   4.281 -0.8560  0.7547  0.9452
 9163SOL    HW139125   4.567   1.939   4.319  0.3778  1.1616 -2.0179
 9163SOL    HW239126   4.507   1.810   4.281  0.4989  1.0483 -0.4164
 9164SOL     OW39127   4.376   1.088   8.422 -0.0242  0.1551 -0.1311
 9164SOL    HW139128   4.425   1.017   8.381  1.6041 -0.3029  2.6487
 9164SOL    HW239129   4.441   1.158   8.423  0.3431 -0.1679 -1.2679
 9165SOL     OW39130   1.663   4.706  16.966 -0.5008  0.3726 -0.2273
 9165SOL    HW139131   1.636   4.685  17.055 -1.4469  2.4397 -0.0372
 9165SOL    HW239132   1.746   4.659  16.967 -0.3792  0.5820 -0.6889
 9166SOL     OW39133   4.375   1.755   1.706 -0.6792  0.2667  0.0119
 9166SOL    HW139134   4.450   1.717   1.752 -1.0613  0.4738  0.8166
 9166SOL    HW239135   4.305   1.704   1.747 -0.4366 -1.0455 -1.1887
 9167SOL     OW39136   3.442   2.670  13.830  0.2594  0.8281 -0.1816
 9167SOL    HW139137   3.480   2.620  13.903  1.7054  1.1393 -0.7317
 9167SOL    HW239138   3.396   2.740  13.876  0.4912  0.1183  1.1497
 9168SOL     OW39139   4.659   3.565   2.538  0.3090 -0.1019 -0.5381
 9168SOL    HW139140   4.584   3.505   2.546 -1.0907  1.6242 -0.7392
 9168SOL    HW239141   4.647   3.589   2.446 -0.7725 -2.3086 -0.9784
 9169SOL     OW39142   1.875   0.446  17.438 -0.0289  0.2601  0.2363
 9169SOL    HW139143   1.895   0.382  17.369  2.8754 -2.0158  3.1864
 9169SOL    HW239144   1.911   0.530  17.411  0.3840 -0.6172 -1.9847
 9170SOL     OW39145   0.224   0.158   2.613 -0.0760  0.3721 -0.2130
 9170SOL    HW139146   0.160   0.173   2.682 -1.8255 -2.4089 -1.2036
 9170SOL    HW239147   0.155   0.138   2.549 -0.1666  0.5158 -0.1592
 9171SOL     OW39148   4.554   4.644   5.950 -0.5661 -0.3709  0.5448
 9171SOL    HW139149   4.483   4.597   5.905  1.7891 -0.3046 -3.2164
 9171SOL    HW239150   4.553   4.595   6.032 -0.2693 -2.2144 -0.5618
 9172SOL     OW39151   2.040   2.932   9.148 -0.0576  0.2053 -0.6539
 9172SOL    HW139152   2.020   2.910   9.240 -3.5678  1.5126 -1.1062
 9172SOL    HW239153   2.122   2.883   9.137  0.1654  0.0165  1.8044
 9173SOL     OW39154   3.286   1.167   2.570 -0.2048  0.2255  0.7425
 9173SOL    HW139155   3.291   1.213   2.654 -0.2875  1.1629  0.2298
 9173SOL    HW239156   3.214   1.216   2.531 -1.2216  0.2347  2.6424
 9174SOL     OW39157   0.140   4.558   5.133  0.4697 -0.4024  0.0651
 9174SOL    HW139158   0.168   4.605   5.212  1.1125 -2.9140  1.3125
 9174SOL    HW239159   0.218   4.579   5.082 -1.2144  0.6743 -2.0675
 9175SOL     OW39160   2.219   0.008   4.589  0.2234 -0.0597 -0.3929
 9175SOL    HW139161   2.169   0.066   4.647 -0.7570 -2.2799  0.9848
 9175SOL    HW239162   2.240   0.060   4.511  0.1131  1.0341  0.2977
 9176SOL     OW39163   0.709   4.214   5.248 -0.0065 -0.0643  0.3262
 9176SOL    HW139164   0.748   4.138   5.204 -0.4284 -0.6959  1.0446
 9176SOL    HW239165   0.619   4.223   5.217  0.6923  1.1753 -1.3691
 9177SOL     OW39166   2.572   1.006   4.787  0.6239 -0.0892 -0.1592
 9177SOL    HW139167   2.519   0.969   4.857  3.3439 -0.1927  1.8304
 9177SOL    HW239168   2.514   1.003   4.711 -0.5056 -1.4595  0.7689
 9178SOL     OW39169   3.940   1.745   3.187  0.1234  0.1572 -0.0148
 9178SOL    HW139170   3.980   1.713   3.106 -2.1496 -1.4875 -0.5086
 9178SOL    HW239171   3.854   1.781   3.164 -0.1051  0.4972  1.3893
 9179SOL     OW39172   1.154   3.022   8.766 -0.1096  0.2922  0.2695
 9179SOL    HW139173   1.219   3.089   8.786  2.0615 -1.3835 -1.1894
 9179SOL    HW239174   1.182   2.945   8.814  0.4705  0.6107  0.4290
 9180SOL     OW39175   1.983   0.481   5.040 -0.3412 -0.0476  0.2398
 9180SOL    HW139176   2.063   0.463   4.991  1.2496  2.7239  1.8313
 9180SOL    HW239177   1.942   0.394   5.040 -1.2703  0.3961 -0.6196
 9181SOL     OW39178   3.788   0.520   7.518 -0.7448  0.2161 -0.0794
 9181SOL    HW139179   3.811   0.584   7.584  0.2840 -1.9075  1.6076
 9181SOL    HW239180   3.705   0.559   7.491  0.2792  2.6348  0.3203
 9182SOL     OW39181   4.350   4.004   9.853  0.2767  0.5914  0.2339
 9182SOL    HW139182   4.425   3.964   9.898 -0.3930  2.5706  3.1674
 9182SOL    HW239183   4.291   4.039   9.920  0.1995 -1.0230  1.0007
 9183SOL     OW39184   1.221   2.188   7.250  0.7572  0.2032 -0.2550
 9183SOL    HW139185   1.268   2.121   7.300 -0.1380  0.7474  1.3384
 9183SOL    HW239186   1.151   2.210   7.311 -1.4793 -2.2864 -1.9406
 9184SOL     OW39187   2.180   4.092   1.443 -0.3992  0.0895  0.0264
 9184SOL    HW139188   2.249   4.091   1.377  0.6335  0.7145  1.0910
 9184SOL    HW239189   2.223   4.116   1.526 -1.2507 -0.4204  0.6103
 9185SOL     OW39190   1.821   0.497   4.106 -0.0484  0.4916  0.5829
 9185SOL    HW139191   1.873   0.425   4.142  1.1970  1.3214  0.4632
 9185SOL    HW239192   1.899   0.534   4.064  0.6444 -2.2648 -0.5110
 9186SOL     OW39193   0.444   4.658  10.308  0.0020  0.3601  0.0859
 9186SOL    HW139194   0.402   4.700  10.234  0.0473 -0.7712 -0.5875
 9186SOL    HW239195   0.493   4.585  10.268  0.3087  0.1926  0.7631
 9187SOL     OW39196   0.267   3.261   3.582  0.2158  0.6643  0.4263
 9187SOL    HW139197   0.186   3.312   3.574 -0.6286 -1.0222 -1.8238
 9187SOL    HW239198   0.300   3.279   3.670  1.8772  1.1776 -0.2902
 9188SOL     OW39199   3.030   1.541   3.494  0.0211 -0.4991 -0.3811
 9188SOL    HW139200   3.089   1.491   3.437  1.2279  1.8970 -1.2272
 9188SOL    HW239201   2.993   1.475   3.552  0.8643  0.6486  1.4538
 9189SOL     OW39202   0.480   3.292   1.348  0.4133 -0.3592 -0.2353
 9189SOL    HW139203   0.463   3.364   1.408 -0.0599  1.0745 -2.1032
 9189SOL    HW239204   0.465   3.216   1.405  0.9506  2.1843  3.3100
 9190SOL     OW39205   2.511   2.197  13.111  0.2450  0.5810  0.8494
 9190SOL    HW139206   2.420   2.167  13.103  0.3372  1.4539 -3.3038
 9190SOL    HW239207   2.523   2.180  13.204 -0.1550  0.1216  0.8165
 9191SOL     OW39208   2.019   1.890   0.222  0.0849 -0.1201 -0.5061
 9191SOL    HW139209   1.993   1.817   0.278 -0.7946  0.0134 -0.7443
 9191SOL    HW239210   2.021   1.964   0.283  1.2623 -0.7998  0.2864
 9192SOL     OW39211   0.093   0.585  14.953  0.0439  0.0853 -0.1382
 9192SOL    HW139212   0.005   0.620  14.964 -0.3704 -1.4779  1.5141
 9192SOL    HW239213   0.144   0.630  15.021 -1.9796 -1.3808  2.3467
 9193SOL     OW39214   3.662   0.352  11.086 -0.0891  0.1115 -0.2418
 9193SOL    HW139215   3.740   0.370  11.033 -0.4136 -0.2372 -0.8245
 9193SOL    HW239216   3.594   0.337  11.022 -0.9521 -0.3063  0.7708
 9194SOL     OW39217   2.393   0.341  10.865 -0.0282 -0.5100  0.1743
 9194SOL    HW139218   2.430   0.395  10.935  0.0244  1.5397 -1.4534
 9194SOL    HW239219   2.308   0.382  10.851  0.0193 -0.4958 -0.0659
 9195SOL     OW39220   1.383   3.882  14.467 -0.4161  0.6516  0.1770
 9195SOL    HW139221   1.350   3.969  14.491  1.5848  0.3122  4.1321
 9195SOL    HW239222   1.305   3.836  14.436 -1.3866  2.1040  0.4237
 9196SOL     OW39223   3.714   0.104  10.898 -0.3314 -0.4276  0.5379
 9196SOL    HW139224   3.759   0.077  10.978  0.1749 -3.6151 -0.8166
 9196SOL    HW239225   3.634   0.136  10.939 -2.2364 -1.1258 -2.6149
 9197SOL     OW39226   1.127   3.099  10.661  0.2476 -0.5717 -0.4206
 9197SOL    HW139227   1.078   3.017  10.657  2.2684 -1.7241 -1.3811
 9197SOL    HW239228   1.149   3.103  10.754  0.0026  1.9326 -0.4477
 9198SOL     OW39229   2.210   2.143  12.858 -0.3650  0.5700  0.1616
 9198SOL    HW139230   2.202   2.228  12.814  1.0866  0.4476 -0.3608
 9198SOL    HW239231   2.233   2.159  12.949  1.9071  2.0728 -0.6647
 9199SOL     OW39232   4.450   4.395   6.866  0.5043  0.2409 -0.0278
 9199SOL    HW139233   4.412   4.471   6.909 -1.7188  1.1479 -3.6206
 9199SOL    HW239234   4.418   4.323   6.921  1.5325 -0.0696  0.1717
 9200SOL     OW39235   0.015   2.497   8.222  0.0882  0.1715  0.2092
 9200SOL    HW139236   0.056   2.415   8.252  1.3037  0.7866  0.2215
 9200SOL    HW239237   0.060   2.500   8.138  2.3149 -1.6902  1.3054
 9201SOL     OW39238   4.217   1.237   6.297 -0.1169 -0.2435  0.3819
 9201SOL    HW139239   4.294   1.239   6.354  1.0625  1.0665 -1.2137
 9201SOL    HW239240   4.152   1.271   6.358 -2.7363 -2.4219 -1.1806
 9202SOL     OW39241   1.372   2.283   6.788  0.7621 -0.0956 -0.2728
 9202SOL    HW139242   1.414   2.219   6.730  0.6482 -1.4207  1.0999
 9202SOL    HW239243   1.380   2.239   6.872 -0.0434  1.5705  0.6655
 9203SOL     OW39244   4.502   2.939   4.999 -0.2168  0.2766  0.1373
 9203SOL    HW139245   4.509   3.032   4.975 -0.4555  0.2400 -0.0716
 9203SOL    HW239246   4.581   2.927   5.051  0.8532  1.9618 -1.0757
 9204SOL     OW39247   0.495   2.970   7.075 -0.8955  0.6059  0.3864
 9204SOL    HW139248   0.498   3.011   6.989 -3.1616 -0.4672 -0.2171
 9204SOL    HW239249   0.584   2.988   7.106 -0.6109  1.0919 -0.7062
 9205SOL     OW39250   1.879   2.437  12.613  0.0827  0.3905  0.4481
 9205SOL    HW139251   1.821   2.394  12.550 -2.7364  3.2194  1.1042
 9205SOL    HW239252   1.840   2.525  12.616  1.3415  0.9507  0.5302
 9206SOL     OW39253   3.108   1.379   7.538 -0.4589 -0.8414  0.0361
 9206SOL    HW139254   3.097   1.403   7.446 -1.8718  3.0743  1.2123
 9206SOL    HW239255   3.178   1.440   7.556 -0.2029 -1.0655 -0.2026
 9207SOL     OW39256   4.522   3.985  14.626 -0.2616  0.1077 -0.2722
 9207SOL    HW139257   4.600   3.931  14.642 -0.0165  0.6351  0.3085
 9207SOL    HW239258   4.564   4.056  14.577 -0.9544  2.4293  2.5398
 9208SOL     OW39259   3.331   0.426   7.882  0.3186  0.4190 -0.1975
 9208SOL    HW139260   3.388   0.480   7.936 -0.6428  1.0696  0.1560
 9208SOL    HW239261   3.287   0.492   7.829  0.4048 -1.2680 -2.3596
 9209SOL     OW39262   2.239   3.855   9.613 -0.0806  0.5738 -0.4962
 9209SOL    HW139263   2.172   3.918   9.640 -0.5192  0.3331 -1.0124
 9209SOL    HW239264   2.321   3.904   9.619 -1.2261  2.1667  1.9068
 9210SOL     OW39265   3.779   2.506  17.232 -0.0993 -0.1175 -0.1449
 9210SOL    HW139266   3.842   2.453  17.183  0.4683  0.8527 -0.4594
 9210SOL    HW239267   3.757   2.578  17.172 -0.4835  0.3824  0.5990
 9211SOL     OW39268   3.553   4.330   6.961 -0.3143 -0.5722 -0.1499
 9211SOL    HW139269   3.493   4.403   6.946  0.5228  0.1754  0.0628
 9211SOL    HW239270   3.637   4.371   6.938 -0.4690  1.1096  2.2282
 9212SOL     OW39271   0.243   0.864   4.275 -0.1121  0.5979 -0.4132
 9212SOL    HW139272   0.216   0.780   4.313 -0.7729  0.5745 -0.9277
 9212SOL    HW239273   0.166   0.916   4.253  0.2359  1.2513 -0.0592
 9213SOL     OW39274   2.625   0.699  14.104  0.0877  0.1294 -0.1417
 9213SOL    HW139275   2.653   0.699  14.013 -0.4864  0.2052 -0.3163
 9213SOL    HW239276   2.533   0.723  14.098 -0.4069 -2.1873 -1.8393
 9214SOL     OW39277   4.528   0.849   5.497  0.1591  0.3206 -0.2578
 9214SOL    HW139278   4.613   0.847   5.542  0.4013 -1.1247 -0.8016
 9214SOL    HW239279   4.468   0.862   5.571 -2.1163 -1.0406 -1.8932
 9215SOL     OW39280   4.338   1.994   5.737 -0.3237 -0.3078  0.2708
 9215SOL    HW139281   4.401   1.957   5.676 -1.1814 -1.1907 -0.0793
 9215SOL    HW239282   4.307   2.077   5.702  0.4069 -0.6593 -1.2174
 9216SOL     OW39283   0.816   2.149   4.213 -0.4762 -0.0776  0.1490
 9216SOL    HW139284   0.876   2.135   4.286 -0.6852  0.7777  0.4830
 9216SOL    HW239285   0.740   2.096   4.238 -0.2016 -0.1672  0.7868
 9217SOL     OW39286   4.575   0.366  10.851 -0.2058  0.5625 -0.0294
 9217SOL    HW139287   4.632   0.443  10.852  0.6772 -0.1125  0.7174
 9217SOL    HW239288   4.611   0.309  10.783 -1.5956  0.4672 -0.6933
 9218SOL     OW39289   2.936   3.487   4.765  0.6246  0.0939  0.5234
 9218SOL    HW139290   2.935   3.579   4.792 -0.1999  0.3358 -0.3469
 9218SOL    HW239291   3.030   3.467   4.768  0.9760  1.4175 -2.1768
 9219SOL     OW39292   3.926   4.098   2.170  0.2894  0.5837 -0.1723
 9219SOL    HW139293   4.011   4.142   2.161 -0.5101  2.0602 -0.4913
 9219SOL    HW239294   3.892   4.130   2.254  2.8883  0.6526  0.8543
 9220SOL     OW39295   2.332   1.636   2.418  0.8175  0.2772 -0.4077
 9220SOL    HW139296   2.422   1.625   2.449  0.2103 -1.0562  0.8607
 9220SOL    HW239297   2.330   1.729   2.397  1.2662  0.1206 -1.1622
 9221SOL     OW39298   0.562   1.267   2.572 -0.0677  0.0146  0.5789
 9221SOL    HW139299   0.625   1.243   2.640 -1.6180  0.3544  2.1431
 9221SOL    HW239300   0.603   1.234   2.492 -0.0966  2.4256 -0.4260
 9222SOL     OW39301   2.889   1.469   6.337 -0.0344  0.3563 -0.1508
 9222SOL    HW139302   2.890   1.375   6.357  1.9759  0.0986 -1.4622
 9222SOL    HW239303   2.802   1.460   6.298 -0.1153 -1.5026  0.4360
 9223SOL     OW39304   1.891   0.217  14.648  0.1144 -0.0069 -0.0967
 9223SOL    HW139305   1.847   0.227  14.564  2.3092 -0.8233 -1.3321
 9223SOL    HW239306   1.980   0.225  14.617 -0.0541  2.5024  0.0624
 9224SOL     OW39307   3.854   4.460  11.709 -0.4618  0.1681 -0.2917
 9224SOL    HW139308   3.924   4.394  11.711  0.9022  1.6331  0.3341
 9224SOL    HW239309   3.774   4.407  11.707 -0.9831  0.9968 -1.1277
 9225SOL     OW39310   2.058   0.242   4.092 -0.1433 -0.4845  0.5557
 9225SOL    HW139311   1.985   0.253   4.031 -0.3354 -0.6820  0.7462
 9225SOL    HW239312   2.034   0.155   4.125 -1.2281 -0.6302 -0.6007
 9226SOL     OW39313   2.372   2.343   4.066 -0.1454 -0.5324  0.2194
 9226SOL    HW139314   2.332   2.324   4.151 -0.9008  0.0699  0.0025
 9226SOL    HW239315   2.425   2.265   4.052  0.0624  0.2144 -3.0384
 9227SOL     OW39316   1.820   2.987   0.909 -0.0070 -0.0214 -0.1563
 9227SOL    HW139317   1.807   2.922   0.840  0.3426  0.1751 -0.4082
 9227SOL    HW239318   1.821   2.929   0.985 -1.5093  1.3741  0.9475
 9228SOL     OW39319   2.683   4.456   5.511  0.2268 -0.1101  0.6510
 9228SOL    HW139320   2.754   4.395   5.532  2.2132  1.5610 -1.0988
 9228SOL    HW239321   2.733   4.528   5.471 -0.6286  1.1656  1.8700
 9229SOL     OW39322   3.034   3.162   3.423  0.0731 -0.1056  0.3876
 9229SOL    HW139323   2.997   3.145   3.336  0.9016  2.3616 -0.4501
 9229SOL    HW239324   3.114   3.110   3.424 -0.3857 -0.7481  4.4442
 9230SOL     OW39325   4.455   1.019   9.940 -0.4681 -0.0283 -0.3321
 9230SOL    HW139326   4.484   1.029  10.030 -3.0337  0.6322  0.4170
 9230SOL    HW239327   4.388   1.086   9.931 -0.4789 -0.2934 -2.2726
 9231SOL     OW39328   1.893   4.588   3.293  0.5335  0.0217  0.0003
 9231SOL    HW139329   1.937   4.607   3.210  2.3011  0.0639  0.9473
 9231SOL    HW239330   1.800   4.611   3.278 -0.3957 -4.1250 -0.4741
 9232SOL     OW39331   1.005   0.332   1.385 -0.0685  0.2963  0.2202
 9232SOL    HW139332   1.000   0.257   1.326 -0.2158 -0.3857  1.1091
 9232SOL    HW239333   1.098   0.353   1.382 -0.2842  1.0103 -1.4865
 9233SOL     OW39334   4.696   1.896  13.227 -0.2865 -0.0078 -0.0316
 9233SOL    HW139335   4.630   1.962  13.250 -1.0777 -0.6695 -0.3843
 9233SOL    HW239336   4.654   1.818  13.265  0.3373 -0.0511  0.5718
 9234SOL     OW39337   3.060   2.827   6.266 -0.3262  0.4956 -0.2607
 9234SOL    HW139338   3.021   2.834   6.179  0.0467  0.7280 -0.4051
 9234SOL    HW239339   2.980   2.820   6.319 -0.3824  0.1145 -0.3960
 9235SOL     OW39340   1.175   3.978   7.387  0.1410 -0.7999  0.0666
 9235SOL    HW139341   1.132   3.967   7.472  0.1740 -1.9777 -0.0669
 9235SOL    HW239342   1.101   3.978   7.326  0.0634  1.8796  0.1536
 9236SOL     OW39343   1.175   0.591   5.690  0.6578 -0.2570  0.2253
 9236SOL    HW139344   1.235   0.653   5.732 -0.4324  1.3204 -0.5571
 9236SOL    HW239345   1.207   0.595   5.600 -0.1039 -0.9479 -0.0778
 9237SOL     OW39346   3.317   3.716  15.795 -1.0814  0.5826  0.0028
 9237SOL    HW139347   3.341   3.735  15.885  0.4197  0.3168 -0.3376
 9237SOL    HW239348   3.249   3.649  15.807 -1.6590  0.8680 -1.5775
 9238SOL     OW39349   3.795   3.722  15.063 -0.1720  0.0595 -0.0044
 9238SOL    HW139350   3.788   3.677  14.978 -1.1474 -2.6601  1.5055
 9238SOL    HW239351   3.875   3.770  15.043  0.9123 -0.3178  3.4341
 9239SOL     OW39352   0.329   1.891   6.528 -0.0655 -0.0689  0.7266
 9239SOL    HW139353   0.408   1.906   6.477 -0.9424 -2.2030 -1.2867
 9239SOL    HW239354   0.269   1.901   6.454 -0.9033  3.5878  1.9103
 9240SOL     OW39355   4.226   0.419  15.583 -0.4203  0.2362 -0.1130
 9240SOL    HW139356   4.227   0.323  15.591 -1.6281  0.1281 -1.2148
 9240SOL    HW239357   4.313   0.433  15.621 -1.8913  1.6628  2.7430
 9241SOL     OW39358   0.564   1.228   2.894 -0.9755  0.0182  0.8418
 9241SOL    HW139359   0.497   1.162   2.911 -0.6027 -0.2749  1.1581
 9241SOL    HW239360   0.632   1.178   2.849 -2.2109  0.5294 -1.5993
 9242SOL     OW39361   0.846   2.572   9.314 -0.0539  0.1796  0.3603
 9242SOL    HW139362   0.812   2.621   9.239  0.3219  0.2107  0.2129
 9242SOL    HW239363   0.831   2.481   9.290 -1.2615  0.8329 -1.3994
 9243SOL     OW39364   3.552   4.128   7.131 -0.2244 -0.0076  0.3293
 9243SOL    HW139365   3.545   4.210   7.083  1.8546  0.7896  1.3582
 9243SOL    HW239366   3.478   4.079   7.097  0.1398 -1.2489  1.3310
 9244SOL     OW39367   3.326   2.948   8.824 -0.0361 -0.1793 -0.2461
 9244SOL    HW139368   3.401   2.942   8.882 -0.1987 -0.8038 -0.0965
 9244SOL    HW239369   3.302   3.037   8.848  2.5423  1.0923 -2.3924
 9245SOL     OW39370   1.166   2.074  15.411 -0.6780 -0.3615  0.5279
 9245SOL    HW139371   1.097   2.140  15.419 -1.0027 -0.5185 -1.1027
 9245SOL    HW239372   1.188   2.064  15.504  0.0905 -4.6254 -0.1274
 9246SOL     OW39373   3.247   1.635   2.805  0.6268  0.0213 -0.0091
 9246SOL    HW139374   3.186   1.660   2.873  0.7003  1.5023 -0.4936
 9246SOL    HW239375   3.229   1.696   2.733 -1.7755  1.1506  1.5886
 9247SOL     OW39376   1.940   1.989   0.828 -0.3258  0.5362 -0.0869
 9247SOL    HW139377   2.014   2.022   0.879  0.0292  0.8225 -0.7900
 9247SOL    HW239378   1.875   1.984   0.899  2.6345 -2.6357  2.4067
 9248SOL     OW39379   2.973   0.315   9.027  0.2365  0.1953 -0.4508
 9248SOL    HW139380   2.994   0.408   9.020 -0.1162  0.4939  2.3305
 9248SOL    HW239381   3.054   0.279   8.992 -0.6325 -0.2011 -2.0603
 9249SOL     OW39382   4.540   2.958   4.308  0.3554  0.0587  0.7970
 9249SOL    HW139383   4.583   3.023   4.252  3.1099 -2.0578  0.4760
 9249SOL    HW239384   4.596   2.961   4.385 -0.2915  0.1666  1.2609
 9250SOL     OW39385   4.121   0.960   2.318 -0.3470  0.2343  0.2955
 9250SOL    HW139386   4.105   1.054   2.309  0.9528  0.7117  3.0014
 9250SOL    HW239387   4.134   0.922   2.231  0.0277  0.0999  0.4126
 9251SOL     OW39388   4.059   0.119   2.292  0.1125 -0.1515  0.4465
 9251SOL    HW139389   4.101   0.096   2.375 -1.9792 -0.7376  1.3311
 9251SOL    HW239390   4.125   0.176   2.254 -0.4200  0.3405  0.2611
 9252SOL     OW39391   0.215   1.645   6.678 -0.6958  0.2747  0.2421
 9252SOL    HW139392   0.147   1.593   6.634 -2.0950  1.3789  1.0978
 9252SOL    HW239393   0.260   1.700   6.614  0.5602 -1.1785 -0.1416
 9253SOL     OW39394   0.644   1.138  11.023 -0.0378  0.0019 -1.0779
 9253SOL    HW139395   0.661   1.045  11.038 -0.8629 -0.4303 -2.9892
 9253SOL    HW239396   0.637   1.140  10.928  0.7592  3.4860 -1.0975
 9254SOL     OW39397   1.270   3.157   7.778  0.0237 -0.0966  0.1176
 9254SOL    HW139398   1.257   3.109   7.696  1.2598 -1.0369  0.4705
 9254SOL    HW239399   1.178   3.170   7.802  0.3748 -0.5449  1.6944
 9255SOL     OW39400   1.556   1.550  14.176 -0.0099 -0.1624 -0.4883
 9255SOL    HW139401   1.605   1.474  14.144 -0.2444 -0.8127  0.7149
 9255SOL    HW239402   1.559   1.604  14.097  0.5700  0.4165 -0.0715
 9256SOL     OW39403   2.748   0.684   1.851  0.1938 -0.2698  0.0428
 9256SOL    HW139404   2.842   0.701   1.862  0.6230 -0.8424 -2.7477
 9256SOL    HW239405   2.741   0.597   1.888 -0.2765 -0.0512  0.4617
 9257SOL     OW39406   4.178   0.188  14.582 -0.1772 -0.2934  0.0415
 9257SOL    HW139407   4.102   0.131  14.595  1.0611 -1.9114  0.3076
 9257SOL    HW239408   4.211   0.206  14.670  2.1236  0.2047 -0.9360
 9258SOL     OW39409   2.408   0.813   9.425  0.2717 -0.2375 -0.2989
 9258SOL    HW139410   2.349   0.771   9.488 -0.2129  1.5478  0.4618
 9258SOL    HW239411   2.492   0.771   9.439  0.4372  0.5396  1.0793
 9259SOL     OW39412   3.350   0.693   1.129 -0.7207  0.0064  0.6702
 9259SOL    HW139413   3.385   0.713   1.042 -0.3108  2.4357  1.3920
 9259SOL    HW239414   3.269   0.743   1.138 -0.5850  0.2472  0.5672
 9260SOL     OW39415   0.386   0.066   0.298  0.4768  0.0520 -0.2537
 9260SOL    HW139416   0.301   0.102   0.275  0.6052  0.3835 -0.2107
 9260SOL    HW239417   0.447   0.134   0.271  0.1333  0.7463  0.7011
 9261SOL     OW39418   1.085   4.322   5.833  0.6441  0.3987 -0.0401
 9261SOL    HW139419   1.130   4.345   5.752 -0.1408 -1.9544 -1.1418
 9261SOL    HW239420   1.084   4.409   5.872 -1.3337 -0.2428  1.3785
 9262SOL     OW39421   1.306   4.372   5.198 -0.0591  0.2749 -0.6994
 9262SOL    HW139422   1.275   4.404   5.113 -1.2824  4.0418  1.1379
 9262SOL    HW239423   1.305   4.278   5.183  0.3888 -0.1924  2.1989
 9263SOL     OW39424   3.139   3.362   6.890 -0.1810  0.0463 -0.2683
 9263SOL    HW139425   3.206   3.408   6.840 -0.5103  0.1851 -0.5776
 9263SOL    HW239426   3.122   3.280   6.844 -2.5004  1.6065 -2.1324
 9264SOL     OW39427   2.572   2.912   7.802  0.3733  0.0063  0.2140
 9264SOL    HW139428   2.623   2.982   7.761  0.3465 -0.6422 -0.9356
 9264SOL    HW239429   2.632   2.839   7.784 -0.1949 -0.3405 -0.2888
 9265SOL     OW39430   2.936   2.371   6.303  0.8237 -0.1375 -0.8381
 9265SOL    HW139431   3.003   2.312   6.268  0.8000 -1.3213  1.1041
 9265SOL    HW239432   2.975   2.429   6.368  0.4707  0.4381 -1.1362
 9266SOL     OW39433   0.629   0.463   4.313  0.1665  0.0060 -0.4884
 9266SOL    HW139434   0.626   0.386   4.370 -2.4823 -0.1524 -0.8665
 9266SOL    HW239435   0.724   0.455   4.306 -0.0789 -0.7536 -2.9201
 9267SOL     OW39436   2.971   3.193  16.151  0.3626 -0.0021 -0.0615
 9267SOL    HW139437   3.059   3.197  16.116  0.1246  1.0548 -0.5600
 9267SOL    HW239438   2.930   3.138  16.085 -0.5503  3.1259 -2.1248
 9268SOL     OW39439   1.852   2.573   4.356  0.0106  0.3897  0.4584
 9268SOL    HW139440   1.836   2.663   4.328 -1.2365 -0.1626 -0.6013
 9268SOL    HW239441   1.909   2.588   4.431  0.1062  0.4628  0.3712
 9269SOL     OW39442   2.053   1.824   6.534 -0.3654  0.1766 -0.1011
 9269SOL    HW139443   1.969   1.789   6.505 -1.1661  0.5112  1.8124
 9269SOL    HW239444   2.121   1.756   6.537  0.1760  0.7149 -0.1104
 9270SOL     OW39445   3.880   4.163   8.052 -0.2769 -0.0887 -0.0884
 9270SOL    HW139446   3.790   4.171   8.021 -0.3443 -1.1746 -0.1734
 9270SOL    HW239447   3.924   4.244   8.028 -1.4121  0.8331  1.0052
 9271SOL     OW39448   4.105   3.019  17.614  0.2962  0.0823  0.3230
 9271SOL    HW139449   4.069   2.940  17.655  1.9946 -0.0934  1.4648
 9271SOL    HW239450   4.097   3.070  17.695  1.8501  2.0282 -0.7634
 9272SOL     OW39451   2.244   3.951   4.420 -0.4021  0.0072  0.5124
 9272SOL    HW139452   2.300   4.020   4.388  2.1316 -1.7616  1.1338
 9272SOL    HW239453   2.299   3.942   4.497 -1.0955  1.9884  1.2169
 9273SOL     OW39454   0.938   2.839   2.748  0.3793  0.3569  0.3575
 9273SOL    HW139455   0.916   2.878   2.832 -1.1623  1.9092 -0.7803
 9273SOL    HW239456   0.861   2.782   2.738  0.1397  0.9028 -0.9024
 9274SOL     OW39457   2.808   1.645   9.532  0.6845  0.2216 -0.3113
 9274SOL    HW139458   2.898   1.654   9.563  0.6105 -0.1988  0.0225
 9274SOL    HW239459   2.763   1.614   9.611  1.7213  0.0526  0.2101
 9275SOL     OW39460   0.289   0.364  11.744 -0.1259 -0.2161  0.2131
 9275SOL    HW139461   0.264   0.294  11.683 -1.1688  1.0951 -0.8651
 9275SOL    HW239462   0.382   0.341  11.750 -0.7481 -2.3530  1.8060
 9276SOL     OW39463   4.674   2.530   9.959  0.5268 -0.4289  0.7406
 9276SOL    HW139464   4.725   2.611   9.963  0.6211 -0.5804  2.5314
 9276SOL    HW239465   4.587   2.561   9.981  1.5820  1.2939  2.4822
 9277SOL     OW39466   4.171   1.436   8.800 -0.0739  0.2524  0.8430
 9277SOL    HW139467   4.122   1.408   8.723 -1.2393  0.8391  1.3772
 9277SOL    HW239468   4.258   1.411   8.771  0.0885  1.2495  0.4788
 9278SOL     OW39469   1.312   2.443   3.928  0.4323  0.6437 -0.1831
 9278SOL    HW139470   1.255   2.380   3.973 -0.5500  1.9722  0.4227
 9278SOL    HW239471   1.311   2.505   4.001  0.2201  0.7639 -0.2892
 9279SOL     OW39472   2.441   2.852   8.913 -0.0920 -0.0063 -0.3803
 9279SOL    HW139473   2.410   2.812   8.832 -1.7284  3.5594 -1.4962
 9279SOL    HW239474   2.518   2.895   8.875  0.6838  0.8255  2.1325
 9280SOL     OW39475   3.529   3.444  10.764  0.0286 -0.8169  0.5257
 9280SOL    HW139476   3.576   3.409  10.689  0.5857 -2.0311  1.4308
 9280SOL    HW239477   3.589   3.423  10.835 -0.9395 -1.0434  1.2888
 9281SOL     OW39478   0.041   1.485  12.204 -0.5483 -0.0295  0.1888
 9281SOL    HW139479   4.710   1.434  12.158  0.4903 -1.9333  0.8050
 9281SOL    HW239480   0.080   1.531  12.130 -1.5110  0.4995  0.0169
 9282SOL     OW39481   2.577   2.408  12.834  0.4644 -0.2884  0.2273
 9282SOL    HW139482   2.650   2.443  12.884  1.2482  1.0814 -1.8354
 9282SOL    HW239483   2.499   2.423  12.888 -0.1458 -0.8280 -0.5038
 9283SOL     OW39484   3.389   3.708   9.455 -0.3559  0.4452  0.2760
 9283SOL    HW139485   3.329   3.776   9.484 -0.6371  0.4037 -0.2118
 9283SOL    HW239486   3.336   3.660   9.391  0.4516 -0.7594  0.5053
 9284SOL     OW39487   0.555   0.679   4.969 -0.2850 -0.4372 -0.0670
 9284SOL    HW139488   0.532   0.772   4.972  1.4657  0.0236 -1.2501
 9284SOL    HW239489   0.640   0.685   4.925  0.2038  1.0231  1.0601
 9285SOL     OW39490   0.317   3.056   5.438  0.2790  0.7361 -0.0823
 9285SOL    HW139491   0.373   3.077   5.512  0.0252 -0.2995  0.4049
 9285SOL    HW239492   0.378   3.000   5.390 -1.3970  0.5989 -2.0976
 9286SOL     OW39493   2.206   2.771   5.177 -0.0665 -0.0374  0.3634
 9286SOL    HW139494   2.259   2.837   5.131  1.1430 -0.8096  0.6582
 9286SOL    HW239495   2.119   2.777   5.136 -0.1431  0.6352  0.6324
 9287SOL     OW39496   2.648   1.483   6.153  0.9842  0.1122 -0.1881
 9287SOL    HW139497   2.598   1.445   6.081 -0.4452 -0.9579  1.3928
 9287SOL    HW239498   2.573   1.519   6.200  0.5572 -2.0999  0.8157
 9288SOL     OW39499   4.082   1.923   1.267 -0.3716  0.1180 -0.1520
 9288SOL    HW139500   3.999   1.922   1.220 -0.1237 -1.7176 -0.5384
 9288SOL    HW239501   4.142   1.908   1.194 -0.5654  0.6109 -0.4149
 9289SOL     OW39502   0.171   1.707  13.412  0.2677  0.1957  0.1279
 9289SOL    HW139503   0.241   1.772  13.423 -0.3031  1.1330 -1.7941
 9289SOL    HW239504   0.132   1.738  13.331  1.1353 -0.1839 -0.4369
 9290SOL     OW39505   2.806   2.324   3.721 -0.0508 -0.3564  0.9263
 9290SOL    HW139506   2.816   2.235   3.686 -0.5466 -0.3653  0.8056
 9290SOL    HW239507   2.873   2.357   3.662 -2.8574  2.0698 -0.8820
 9291SOL     OW39508   0.936   3.786   5.909 -0.2028 -0.1163  0.6305
 9291SOL    HW139509   0.848   3.791   5.873 -0.3701 -2.4958  0.7331
 9291SOL    HW239510   0.977   3.854   5.855 -3.5965  1.6673  0.3505
 9292SOL     OW39511   1.757   1.443   8.834 -0.5820 -0.0762 -0.0947
 9292SOL    HW139512   1.748   1.534   8.861  1.9384  1.0788 -3.1857
 9292SOL    HW239513   1.839   1.443   8.784 -0.3995 -1.5379  0.1980
 9293SOL     OW39514   4.431   2.909   3.127  0.2193  0.5737 -0.0133
 9293SOL    HW139515   4.513   2.873   3.161  0.0443  1.8248  1.6956
 9293SOL    HW239516   4.458   2.992   3.088 -0.2880  0.2148 -1.1419
 9294SOL     OW39517   0.759   0.721   3.881 -0.2939  0.4785 -0.5844
 9294SOL    HW139518   0.820   0.666   3.830 -0.7497 -1.2315  0.7184
 9294SOL    HW239519   0.787   0.734   3.971 -0.0409  1.5683 -0.8192
 9295SOL     OW39520   4.611   1.872  16.572 -0.1446  0.4643 -0.2338
 9295SOL    HW139521   4.597   1.967  16.577 -0.6206  0.4273 -0.9395
 9295SOL    HW239522   4.663   1.845  16.648 -0.1255 -1.6937 -1.0115
 9296SOL     OW39523   3.603   0.904   4.122 -0.0370 -0.6207  0.1962
 9296SOL    HW139524   3.561   0.830   4.165  1.2379  0.4124  3.3083
 9296SOL    HW239525   3.572   0.900   4.032 -2.1906 -1.6267  0.9746
 9297SOL     OW39526   2.471   4.303   5.755  0.3766  0.0252  0.2165
 9297SOL    HW139527   2.526   4.253   5.694 -1.7039 -0.2348 -1.4369
 9297SOL    HW239528   2.385   4.262   5.757  0.2068  0.2886 -2.8718
 9298SOL     OW39529   3.195   1.853   2.225 -0.1126  0.6359 -0.0356
 9298SOL    HW139530   3.102   1.856   2.201  0.0511  1.4515 -0.5524
 9298SOL    HW239531   3.209   1.940   2.262  1.4875 -0.1262  1.1382
 9299SOL     OW39532   2.262   1.042   6.381 -0.2955 -0.3005  0.2505
 9299SOL    HW139533   2.259   0.984   6.304  2.3708 -1.7052  1.2281
 9299SOL    HW239534   2.260   1.128   6.340  1.3235 -1.1587 -1.6708
 9300SOL     OW39535   1.527   0.963   4.636 -0.0247  0.6417  0.5403
 9300SOL    HW139536   1.611   0.935   4.673  0.0392 -0.2529 -0.2779
 9300SOL    HW239537   1.476   0.897   4.683  3.2479 -3.4526 -1.6263
 9301SOL     OW39538   4.147   1.445   2.478 -0.5421  0.4226 -0.4122
 9301SOL    HW139539   4.200   1.459   2.557 -1.3877  1.6674 -0.0659
 9301SOL    HW239540   4.185   1.508   2.417  0.5548 -0.2202 -0.3926
 9302SOL     OW39541   4.152   2.472   4.366 -0.6981  0.0332 -0.4257
 9302SOL    HW139542   4.130   2.525   4.290 -1.8175 -0.3539 -0.3742
 9302SOL    HW239543   4.246   2.488   4.374 -0.7258 -0.0884  0.1632
 9303SOL     OW39544   2.692   0.691   3.773 -0.0672  0.4351 -0.3391
 9303SOL    HW139545   2.777   0.705   3.731 -0.5951 -1.7050 -2.1138
 9303SOL    HW239546   2.707   0.740   3.854  2.1929 -1.1698  0.2124
 9304SOL     OW39547   3.610   2.784   6.244  0.4642  0.4793  0.6250
 9304SOL    HW139548   3.598   2.739   6.160 -1.0177  1.1165  0.4866
 9304SOL    HW239549   3.552   2.859   6.235 -0.2253 -0.0661  0.4923
 9305SOL     OW39550   4.387   4.330   6.601 -0.5759 -0.0383 -0.0205
 9305SOL    HW139551   4.414   4.358   6.688  0.1507  0.5907 -0.4448
 9305SOL    HW239552   4.320   4.389   6.565 -1.0591  0.2724  1.4025
 9306SOL     OW39553   4.657   3.862   7.642  0.5764  0.5802 -0.3789
 9306SOL    HW139554   4.588   3.840   7.580  0.3597  2.0222 -0.6497
 9306SOL    HW239555   4.698   3.777   7.658  0.1117  0.5489  0.6160
 9307SOL     OW39556   0.149   0.106  12.801 -0.6369  0.0778 -0.0448
 9307SOL    HW139557   0.083   0.148  12.856  0.8473  2.2157  0.0828
 9307SOL    HW239558   0.221   0.165  12.821 -1.8051  1.1362  1.0439
 9308SOL     OW39559   3.893   4.264  14.796  0.0819  0.3194  0.4090
 9308SOL    HW139560   3.914   4.324  14.724 -0.9833 -1.3269 -1.2724
 9308SOL    HW239561   3.948   4.193  14.765  1.8609  1.4345  1.0481
 9309SOL     OW39562   3.016   2.712  10.085  0.0676 -0.0734  0.5155
 9309SOL    HW139563   2.924   2.688  10.085 -0.1237  0.7015  4.1233
 9309SOL    HW239564   3.017   2.739   9.993 -1.7738 -1.9916 -0.0575
 9310SOL     OW39565   3.184   1.043  17.735  0.0315 -0.1734 -0.0342
 9310SOL    HW139566   3.121   0.973   0.015 -1.7297  0.9188 -1.8287
 9310SOL    HW239567   3.249   0.993  17.686  0.8065  0.9472 -0.1521
 9311SOL     OW39568   4.233   3.684   8.352 -0.1481  0.3060 -0.2342
 9311SOL    HW139569   4.221   3.598   8.312 -0.0877 -0.2973  1.0754
 9311SOL    HW239570   4.288   3.647   8.420 -1.6612  0.8337  1.2820
 9312SOL     OW39571   4.076   2.404  17.139 -0.4913 -0.3148  0.6520
 9312SOL    HW139572   4.124   2.322  17.125 -1.3422 -0.3428 -2.0198
 9312SOL    HW239573   4.120   2.435  17.218 -1.7899 -1.1575  1.6966
 9313SOL     OW39574   1.084   0.987   1.856 -0.0007 -0.2769  0.0799
 9313SOL    HW139575   1.052   0.901   1.829 -0.1643  0.1340 -1.0220
 9313SOL    HW239576   1.064   1.036   1.777 -0.2293  1.6576  1.3538
 9314SOL     OW39577   3.461   4.403   3.837 -0.0296  0.1731  0.1498
 9314SOL    HW139578   3.531   4.339   3.848  0.8831  1.1460 -0.0703
 9314SOL    HW239579   3.487   4.485   3.880 -0.2115  0.1157  0.3770
 9315SOL     OW39580   3.240   4.091   5.023  0.0172  0.0435  0.1133
 9315SOL    HW139581   3.328   4.063   5.048  0.9542  0.6018 -2.5181
 9315SOL    HW239582   3.240   4.169   5.078  1.3764 -0.1170  0.3361
 9316SOL     OW39583   4.287   2.258   3.365 -0.1432 -0.9437  0.4399
 9316SOL    HW139584   4.299   2.284   3.457  0.9324  0.8927 -0.2194
 9316SOL    HW239585   4.203   2.293   3.336  0.3919  0.9851  1.2003
 9317SOL     OW39586   1.615   1.207   9.763 -0.0822 -0.0534 -0.0469
 9317SOL    HW139587   1.696   1.208   9.712 -0.4642  1.0925 -0.6377
 9317SOL    HW239588   1.554   1.168   9.701 -1.7992  1.3896  0.7386
 9318SOL     OW39589   0.021   0.674   3.513 -0.7099 -0.3775 -0.2484
 9318SOL    HW139590   4.716   0.685   3.427 -0.3738  0.4999 -0.2876
 9318SOL    HW239591   4.675   0.673   3.564  0.4047  1.2885  1.5432
 9319SOL     OW39592   2.791   4.012  13.672 -0.1537  0.2743  0.1850
 9319SOL    HW139593   2.761   4.100  13.652  3.7131  1.1844 -1.5565
 9319SOL    HW239594   2.880   4.025  13.706 -0.3693  0.4152  0.6905
 9320SOL     OW39595   1.950   1.357   7.106 -1.0302 -0.0646  0.2880
 9320SOL    HW139596   1.961   1.313   7.190 -0.6370 -0.8136 -0.1537
 9320SOL    HW239597   1.980   1.447   7.112 -2.1159  0.4320 -1.5965
 9321SOL     OW39598   2.806   0.456  14.689 -0.0358 -0.3922 -0.1692
 9321SOL    HW139599   2.769   0.387  14.634 -0.1132 -1.6804  1.4914
 9321SOL    HW239600   2.731   0.487  14.739  0.2472  1.1554 -0.6984
 9322SOL     OW39601   1.141   1.523   4.724 -0.3018  0.1184  0.4416
 9322SOL    HW139602   1.214   1.528   4.786 -1.5774  1.1830  1.8766
 9322SOL    HW239603   1.076   1.545   4.792  2.7474 -0.4330  3.5180
 9323SOL     OW39604   3.325   3.702   7.445 -0.1703  0.1737  0.0941
 9323SOL    HW139605   3.365   3.622   7.480 -1.0748 -0.3514 -0.0682
 9323SOL    HW239606   3.360   3.770   7.501 -0.3017 -1.2972  1.9511
 9324SOL     OW39607   3.783   2.437  15.729 -0.1526 -0.6697 -0.0185
 9324SOL    HW139608   3.829   2.366  15.684 -2.1188 -1.0302 -1.4826
 9324SOL    HW239609   3.786   2.504  15.661  0.5013 -2.6706 -1.9676
 9325SOL     OW39610   3.917   2.742   4.802  0.1066  0.9653 -0.1612
 9325SOL    HW139611   3.907   2.818   4.745  1.5883 -0.5455 -2.4771
 9325SOL    HW239612   3.912   2.673   4.735  1.1741 -2.0684  2.8764
 9326SOL     OW39613   1.740   1.649  10.411 -0.4375 -0.3585  0.2175
 9326SOL    HW139614   1.752   1.583  10.343 -0.9919 -0.1591 -0.0791
 9326SOL    HW239615   1.794   1.723  10.382 -2.4510  1.9988  2.5508
 9327SOL     OW39616   3.397   1.564   7.866 -0.3669  0.0753 -0.4769
 9327SOL    HW139617   3.356   1.645   7.836  3.2538  2.4993  1.1650
 9327SOL    HW239618   3.448   1.586   7.944  0.8242  0.7253 -1.4537
 9328SOL     OW39619   0.037   1.714   4.797 -0.1019 -0.5541 -0.5899
 9328SOL    HW139620   0.016   1.807   4.802 -1.4645 -0.8881 -0.0569
 9328SOL    HW239621   4.704   1.680   4.856  1.4044 -1.2327  0.7503
 9329SOL     OW39622   1.565   4.496  11.063 -0.0979  0.0814 -0.1714
 9329SOL    HW139623   1.636   4.449  11.107 -1.2474 -1.6555 -0.1932
 9329SOL    HW239624   1.618   4.561  11.016 -0.0185  1.0406  1.2344
 9330SOL     OW39625   3.608   0.720   8.410 -0.1515  0.0190 -0.2003
 9330SOL    HW139626   3.591   0.740   8.318 -1.7946  2.3199  0.6136
 9330SOL    HW239627   3.663   0.796   8.430  0.7307 -1.0327  1.3613
 9331SOL     OW39628   0.455   2.101   0.648  1.0703 -0.6318 -0.3292
 9331SOL    HW139629   0.389   2.033   0.635  0.5251 -0.1066 -0.3819
 9331SOL    HW239630   0.513   2.052   0.706  2.1088 -0.8990 -1.6056
 9332SOL     OW39631   3.239   1.482   9.691  0.1366 -0.2982  0.1281
 9332SOL    HW139632   3.242   1.396   9.734  1.7617  0.1128  0.8483
 9332SOL    HW239633   3.281   1.539   9.756 -0.3465 -1.5988  1.5905
 9333SOL     OW39634   2.055   0.942   6.131 -0.0720 -0.5030 -0.0663
 9333SOL    HW139635   1.969   0.952   6.172  0.3708  1.2345  0.4070
 9333SOL    HW239636   2.076   1.035   6.122  0.2772 -0.3168  2.6539
 9334SOL     OW39637   2.028   4.630   2.298  0.3910 -0.2770  0.6906
 9334SOL    HW139638   2.097   4.678   2.253 -0.2936 -2.1565 -2.3998
 9334SOL    HW239639   2.028   4.539   2.269  0.7087  0.0146 -0.2355
 9335SOL     OW39640   2.627   3.147   6.917  0.0571  0.1588  0.0429
 9335SOL    HW139641   2.657   3.059   6.941 -0.1484 -0.5953 -2.4242
 9335SOL    HW239642   2.586   3.187   6.994  1.2893  2.6354 -0.5807
 9336SOL     OW39643   2.848   0.980   7.400  0.2910 -0.9520 -0.0300
 9336SOL    HW139644   2.819   0.931   7.477  1.5423 -3.1360 -0.9457
 9336SOL    HW239645   2.833   0.925   7.324 -0.3602  0.7021 -1.0928
 9337SOL     OW39646   2.820   3.572  11.982 -0.8237  0.6339 -0.1682
 9337SOL    HW139647   2.811   3.484  11.945  1.6439  0.7808 -1.0903
 9337SOL    HW239648   2.730   3.590  12.009 -0.8605  0.1288  0.0398
 9338SOL     OW39649   4.001   4.195  12.004  0.0970  0.1916  0.1459
 9338SOL    HW139650   3.998   4.233  11.917  2.5348  1.5453  0.6759
 9338SOL    HW239651   3.906   4.190  12.019 -0.2990 -2.2177 -3.1455
 9339SOL     OW39652   0.403   3.832   9.618 -0.2833  0.2906 -0.1110
 9339SOL    HW139653   0.487   3.793   9.641  1.0023  1.3024 -3.0372
 9339SOL    HW239654   0.374   3.762   9.558  3.8342 -0.4186 -1.3098
 9340SOL     OW39655   3.901   2.896   2.192 -0.2552 -0.2140 -0.5973
 9340SOL    HW139656   3.824   2.886   2.137  0.1701  0.3446 -1.2989
 9340SOL    HW239657   3.954   2.959   2.142 -1.1628  1.3205  0.3994
 9341SOL     OW39658   4.563   3.823   8.426  0.2558  0.7533 -0.1426
 9341SOL    HW139659   4.519   3.895   8.382 -1.7862 -1.0136 -0.9920
 9341SOL    HW239660   4.635   3.867   8.472  1.1454 -1.1205  0.3010
 9342SOL     OW39661   0.935   1.999   8.470 -0.1860 -0.2768  0.6722
 9342SOL    HW139662   0.861   2.057   8.455  0.6827  0.9812  1.2038
 9342SOL    HW239663   0.931   1.924   8.411  1.7774 -0.4044  0.6760
 9343SOL     OW39664   0.027   2.674   6.360  0.3337 -0.1066 -0.2620
 9343SOL    HW139665   0.054   2.585   6.382 -0.8488 -0.5499 -0.5791
 9343SOL    HW239666   4.667   2.671   6.370  0.1623  2.8748 -0.9904
 9344SOL     OW39667   2.194   0.349  11.983  0.2812  0.4444 -0.1290
 9344SOL    HW139668   2.128   0.287  12.013  0.2603  0.5705  0.0861
 9344SOL    HW239669   2.260   0.341  12.052 -0.1242  0.2562  0.2406
 9345SOL     OW39670   0.845   0.340   0.983 -0.2970 -0.0033 -0.5618
 9345SOL    HW139671   0.931   0.381   0.979 -1.8648  3.0784 -2.7094
 9345SOL    HW239672   0.797   0.416   1.014  0.3171 -0.3806  1.3228
 9346SOL     OW39673   3.101   0.826   1.137  0.1390 -0.1050  0.2135
 9346SOL    HW139674   3.054   0.760   1.087 -0.0578  1.5112 -1.7609
 9346SOL    HW239675   3.022   0.877   1.156  1.1013  0.7161  1.9831
 9347SOL     OW39676   2.557   0.657   2.511 -0.1259 -0.1356  0.1227
 9347SOL    HW139677   2.615   0.616   2.446  0.9926 -1.3470  1.8845
 9347SOL    HW239678   2.604   0.732   2.546  0.5456 -0.8314  0.6873
 9348SOL     OW39679   4.235   3.270  16.349  0.0718 -0.2294  1.0856
 9348SOL    HW139680   4.253   3.349  16.298  0.7880 -1.3882 -0.4475
 9348SOL    HW239681   4.206   3.208  16.282  0.3752  0.5425  0.2402
 9349SOL     OW39682   3.861   1.977  11.426  0.2106 -0.1617  0.4838
 9349SOL    HW139683   3.821   2.016  11.349  1.6804  2.3813  1.0178
 9349SOL    HW239684   3.838   2.047  11.487 -0.7974 -0.7786  0.8146
 9350SOL     OW39685   0.617   1.835  10.153  0.2490  0.0989 -0.9520
 9350SOL    HW139686   0.586   1.750  10.186 -0.0383  1.0037  1.0970
 9350SOL    HW239687   0.712   1.824  10.155  0.0218 -0.9442  2.9292
 9351SOL     OW39688   3.666   4.436   8.134 -0.0300 -0.4571 -0.2248
 9351SOL    HW139689   3.647   4.411   8.043 -3.0425 -1.1580  0.5939
 9351SOL    HW239690   3.612   4.514   8.150  0.9233  0.0594  0.4966
 9352SOL     OW39691   3.078   4.358  10.429  0.0074 -0.2633 -0.1662
 9352SOL    HW139692   3.125   4.298  10.488 -0.6168 -0.7848 -0.2034
 9352SOL    HW239693   2.994   4.370  10.472  1.6805  1.7007  2.5693
 9353SOL     OW39694   1.358   0.341   7.611  0.3338 -0.3130 -0.0000
 9353SOL    HW139695   1.333   0.425   7.651  0.0532 -0.4224  0.0550
 9353SOL    HW239696   1.410   0.314   7.686  0.4448  0.8196  0.3397
 9354SOL     OW39697   4.134   2.523   7.181  0.0771  0.2372  0.3805
 9354SOL    HW139698   4.191   2.450   7.205  1.7152  1.2814 -0.3014
 9354SOL    HW239699   4.079   2.522   7.259 -1.7788 -1.2175 -0.9768
 9355SOL     OW39700   4.030   0.145   3.341 -0.1152  0.2376 -0.2270
 9355SOL    HW139701   3.969   0.150   3.414 -0.2472 -2.0140 -0.1606
 9355SOL    HW239702   3.966   0.147   3.270 -0.4823  0.4132  0.1137
 9356SOL     OW39703   1.433   0.685  16.906  0.4308  0.6490 -0.4037
 9356SOL    HW139704   1.480   0.623  16.850 -0.6099 -0.9928  0.5573
 9356SOL    HW239705   1.515   0.718  16.943  0.5225 -1.6025  1.3597
 9357SOL     OW39706   3.353   3.834   7.222  0.2868  0.0940 -0.0219
 9357SOL    HW139707   3.448   3.819   7.229  0.2181 -0.2936  0.0729
 9357SOL    HW239708   3.333   3.774   7.294 -1.9437  0.6603 -0.1905
 9358SOL     OW39709   3.280   1.898  16.877 -0.0716  0.1410  0.3920
 9358SOL    HW139710   3.259   1.980  16.832  1.2145 -0.8614 -1.9861
 9358SOL    HW239711   3.204   1.846  16.851 -1.2203  1.9004  0.2401
 9359SOL     OW39712   1.660   2.543  10.120  0.0502  0.0867 -0.5381
 9359SOL    HW139713   1.616   2.513  10.200  0.9912  0.7572  0.2326
 9359SOL    HW239714   1.715   2.467  10.097 -2.7295 -1.2247 -2.8306
 9360SOL     OW39715   2.268   2.377   5.640 -0.6373 -0.0771 -0.0863
 9360SOL    HW139716   2.330   2.435   5.685  1.6894 -1.1687 -1.9139
 9360SOL    HW239717   2.284   2.294   5.685 -0.5051  0.2683  0.5092
 9361SOL     OW39718   2.557   1.612   5.557 -0.2326 -0.6897 -0.5511
 9361SOL    HW139719   2.555   1.658   5.473  0.9149  0.7070  0.1758
 9361SOL    HW239720   2.644   1.573   5.553  0.4239  0.6619  0.5346
 9362SOL     OW39721   1.263   3.015   3.730 -0.6419 -0.2738  0.2075
 9362SOL    HW139722   1.268   2.923   3.703  1.0122 -0.3203  0.6671
 9362SOL    HW239723   1.301   3.074   3.665 -1.1013 -0.4239 -0.1927
 9363SOL     OW39724   0.493   3.525   2.633  0.2260 -0.3455 -0.4590
 9363SOL    HW139725   0.448   3.459   2.685  0.4166 -3.0224 -3.6274
 9363SOL    HW239726   0.582   3.490   2.629  0.9552  1.3263  1.5365
 9364SOL     OW39727   2.279   4.716   7.058  0.2021 -0.5155 -0.0932
 9364SOL    HW139728   2.199   0.001   7.106  0.3087 -0.5881  0.1165
 9364SOL    HW239729   2.261   0.014   6.970  0.0347 -1.2936 -0.3442
 9365SOL     OW39730   1.559   1.756   1.963  0.0779 -0.9483 -0.6317
 9365SOL    HW139731   1.633   1.746   2.023 -0.0824  3.0281  0.2304
 9365SOL    HW239732   1.498   1.700   2.010 -0.9716  1.5346  1.0049
 9366SOL     OW39733   3.969   1.607  11.249  0.2781  0.1567  0.1877
 9366SOL    HW139734   3.963   1.512  11.246  0.0742  0.2661 -2.4169
 9366SOL    HW239735   4.064   1.620  11.248  0.4481 -1.1543 -0.7125
 9367SOL     OW39736   2.104   0.222   6.409 -0.3880  0.2139 -0.6058
 9367SOL    HW139737   2.157   0.199   6.333  0.2059 -1.4105  0.3091
 9367SOL    HW239738   2.172   0.248   6.470 -1.4216 -1.2192  1.1437
 9368SOL     OW39739   4.558   3.629   1.674  0.3866 -0.1358 -0.4006
 9368SOL    HW139740   4.641   3.655   1.634  0.0656  0.7020 -0.5268
 9368SOL    HW239741   4.550   3.543   1.633 -2.7244  0.8421 -1.8629
 9369SOL     OW39742   1.045   3.422   6.020  0.5870  0.2083  0.0848
 9369SOL    HW139743   1.055   3.515   6.039 -0.9929 -0.0145  1.9824
 9369SOL    HW239744   1.127   3.383   6.051  1.0483  1.1067 -0.0076
 9370SOL     OW39745   1.445   2.565   4.624 -0.3609 -0.7234  0.3512
 9370SOL    HW139746   1.405   2.499   4.681 -1.6528  0.4714  0.8109
 9370SOL    HW239747   1.399   2.645   4.649 -0.4028  0.4023 -3.4009
 9371SOL     OW39748   2.152   3.013  11.086 -0.2323  0.0537 -0.3117
 9371SOL    HW139749   2.077   2.992  11.030 -1.3579  0.5192  1.0388
 9371SOL    HW239750   2.176   2.927  11.121 -1.2969  0.5760  1.6937
 9372SOL     OW39751   0.301   1.430   1.579 -0.4031  0.6115  0.2882
 9372SOL    HW139752   0.259   1.364   1.634  1.5917 -0.3939  0.6133
 9372SOL    HW239753   0.391   1.420   1.610 -0.2802 -0.0267 -0.2907
 9373SOL     OW39754   0.375   4.175  16.882  0.3057 -0.4743  0.2632
 9373SOL    HW139755   0.388   4.203  16.791 -0.2731 -0.1887  0.2692
 9373SOL    HW239756   0.384   4.083  16.857 -0.7451 -0.3686 -0.4995
 9374SOL     OW39757   1.628   1.201  13.352 -0.3705  0.1300  0.0407
 9374SOL    HW139758   1.693   1.158  13.296 -1.7134 -1.0366 -0.6172
 9374SOL    HW239759   1.561   1.133  13.359 -0.1986 -0.1327 -0.8342
 9375SOL     OW39760   3.221   1.973   6.463 -0.2050 -0.5746 -0.1725
 9375SOL    HW139761   3.275   2.051   6.479 -2.3108  0.5978  1.1431
 9375SOL    HW239762   3.247   1.911   6.531 -1.5473  1.4499  2.2062
 9376SOL     OW39763   2.250   0.764  10.082  0.4321  0.3182  0.6481
 9376SOL    HW139764   2.215   0.690  10.132  0.6921 -0.0067  0.3514
 9376SOL    HW239765   2.338   0.775  10.118 -0.0287 -0.5011  2.0390
 9377SOL     OW39766   2.475   1.727   5.795  0.1980 -0.2333  0.1569
 9377SOL    HW139767   2.508   1.691   5.713 -0.7185  1.3855 -0.9413
 9377SOL    HW239768   2.421   1.655   5.827 -0.7468  1.5654  2.6376
 9378SOL     OW39769   3.552   2.562   7.190  0.0597  0.9861  0.1433
 9378SOL    HW139770   3.584   2.579   7.101 -1.5608  1.2301 -0.3894
 9378SOL    HW239771   3.565   2.468   7.198 -0.9046  0.9036  0.7295
 9379SOL     OW39772   4.615   3.906  11.168  0.0114 -0.3846 -0.0549
 9379SOL    HW139773   4.537   3.865  11.131 -1.0066  1.9946 -0.5371
 9379SOL    HW239774   4.580   3.944  11.249 -2.3411  0.2163 -1.3390
 9380SOL     OW39775   4.419   3.025   5.698 -0.3079  0.2704 -0.3964
 9380SOL    HW139776   4.347   3.055   5.643  0.4223 -1.4930 -2.3309
 9380SOL    HW239777   4.474   2.988   5.630  0.1029  0.9651 -0.4372
 9381SOL     OW39778   3.874   2.398  16.585 -0.5416  0.1245  0.5612
 9381SOL    HW139779   3.965   2.412  16.561 -1.7783  1.3346 -3.4581
 9381SOL    HW239780   3.870   2.466  16.652 -0.9519  0.4655  0.1867
 9382SOL     OW39781   1.188   2.395  11.432 -0.3975  0.4042 -0.1625
 9382SOL    HW139782   1.234   2.466  11.477  0.0352  0.7942 -1.2168
 9382SOL    HW239783   1.143   2.357  11.507  4.3500 -1.1785  1.8777
 9383SOL     OW39784   4.140   3.134  11.494  0.0242  0.0260  0.5109
 9383SOL    HW139785   4.152   3.155  11.401  1.6310  0.1416  0.7406
 9383SOL    HW239786   4.049   3.159  11.506  0.0653  1.5032 -2.1281
 9384SOL     OW39787   2.492   0.830  10.198  0.0745 -0.6577  0.7130
 9384SOL    HW139788   2.515   0.738  10.211  0.7225 -0.8606 -1.8219
 9384SOL    HW239789   2.578   0.870  10.183 -1.2181  1.3297 -1.4401
 9385SOL     OW39790   3.494   3.983   3.070 -0.4636  0.1043  0.1489
 9385SOL    HW139791   3.533   4.069   3.081  0.0184 -0.6822  4.5188
 9385SOL    HW239792   3.413   3.996   3.118 -0.4625  1.8083 -0.3131
 9386SOL     OW39793   4.310   0.445  17.367  0.1564  0.0447 -1.1363
 9386SOL    HW139794   4.294   0.460  17.460 -0.2483  2.5630 -1.6130
 9386SOL    HW239795   4.222   0.446  17.330 -0.5953  0.5033  0.6956
 9387SOL     OW39796   3.992   0.787  16.500 -0.4153  0.6246  0.1334
 9387SOL    HW139797   4.019   0.695  16.507  0.6957  0.8737 -0.8627
 9387SOL    HW239798   3.917   0.780  16.441  1.8095 -0.9935 -2.4936
 9388SOL     OW39799   3.586   3.261  11.247  0.0711 -0.2473 -0.6799
 9388SOL    HW139800   3.592   3.355  11.263 -0.5093 -0.4286  0.6676
 9388SOL    HW239801   3.541   3.239  11.329 -0.6841  0.7211 -0.8373
 9389SOL     OW39802   4.563   2.580  11.351  0.3060  0.1078  0.2179
 9389SOL    HW139803   4.598   2.568  11.439 -2.0890  2.9363  1.5281
 9389SOL    HW239804   4.610   2.514  11.299 -3.6986 -2.4349 -0.2070
 9390SOL     OW39805   0.040   0.823   5.608 -0.2417 -1.0213 -0.0635
 9390SOL    HW139806   0.119   0.806   5.557 -0.3755  0.0137 -0.6211
 9390SOL    HW239807   0.071   0.829   5.698 -0.3660  0.3903 -0.1092
 9391SOL     OW39808   3.411   0.361   3.755  0.3747 -0.5939 -0.1016
 9391SOL    HW139809   3.322   0.374   3.723 -0.8326 -1.2975  2.8820
 9391SOL    HW239810   3.464   0.419   3.700 -1.3641  1.4046  0.3394
 9392SOL     OW39811   0.881   1.383   6.488  0.2053 -0.4515 -0.7220
 9392SOL    HW139812   0.864   1.325   6.414  0.5602  1.6518 -2.4546
 9392SOL    HW239813   0.956   1.332   6.519  0.0550 -0.4021 -0.2762
 9393SOL     OW39814   1.944   4.096   1.341  0.5949  0.0483  0.0689
 9393SOL    HW139815   1.956   4.020   1.284 -1.1334  0.0253 -0.2825
 9393SOL    HW239816   2.035   4.098   1.370  0.5942 -3.1369  0.2295
 9394SOL     OW39817   0.526   1.823  11.847 -0.1264  0.4357  0.2104
 9394SOL    HW139818   0.504   1.915  11.829 -0.6157  0.4354  0.7750
 9394SOL    HW239819   0.612   1.809  11.809  0.0563 -0.8007  1.0958
 9395SOL     OW39820   0.733   1.066   2.732  0.3955  0.1287 -0.2605
 9395SOL    HW139821   0.775   1.019   2.804  1.1628  0.1493 -0.6856
 9395SOL    HW239822   0.691   1.002   2.673 -0.0513 -1.3222  1.6459
 9396SOL     OW39823   3.814   3.503   1.706 -0.3831 -0.4461  0.8203
 9396SOL    HW139824   3.789   3.556   1.782  0.6815 -1.3752  1.8009
 9396SOL    HW239825   3.756   3.549   1.645  0.6510 -1.2183 -0.7144
 9397SOL     OW39826   2.002   4.245   7.716  0.3052  0.2457  0.1914
 9397SOL    HW139827   2.077   4.253   7.658  0.7225  1.4840  0.8928
 9397SOL    HW239828   2.020   4.165   7.765  2.4857  0.8886  0.4475
 9398SOL     OW39829   0.377   0.223   9.753  0.6400  0.0869 -0.2410
 9398SOL    HW139830   0.339   0.136   9.751 -0.0393  0.3578  0.8486
 9398SOL    HW239831   0.458   0.212   9.704  1.5908  1.2112  1.0596
 9399SOL     OW39832   2.322   3.986   8.110 -0.2641 -0.1733 -0.0759
 9399SOL    HW139833   2.315   3.908   8.166 -1.3339 -0.5815 -0.7915
 9399SOL    HW239834   2.373   3.958   8.034  1.3076 -0.4353  1.0749
 9400SOL     OW39835   2.778   3.435   8.748  0.7033 -0.5261 -0.2963
 9400SOL    HW139836   2.860   3.404   8.787  0.0226  0.4625  1.9741
 9400SOL    HW239837   2.748   3.484   8.825 -1.2586  0.7274 -1.8703
 9401SOL     OW39838   4.411   3.923  10.523 -0.0426 -0.4580  0.0827
 9401SOL    HW139839   4.349   3.965  10.582 -0.8665  0.5466 -1.4929
 9401SOL    HW239840   4.474   3.895  10.590  1.2525  2.6211  0.1705
 9402SOL     OW39841   0.318   1.088  10.824 -0.2337 -0.2546 -0.0538
 9402SOL    HW139842   0.312   1.086  10.919 -0.4702 -0.8910 -0.0835
 9402SOL    HW239843   0.407   1.063  10.800  0.2988  0.6935  0.9187
 9403SOL     OW39844   2.079   1.176  10.815 -0.3331  0.9390 -0.1978
 9403SOL    HW139845   2.101   1.250  10.759  3.1918  0.9771  1.2665
 9403SOL    HW239846   2.071   1.220  10.899  0.2303 -1.2339  0.9963
 9404SOL     OW39847   3.607   2.332   6.284 -0.4737 -0.5677 -0.5736
 9404SOL    HW139848   3.588   2.241   6.307  2.6946 -1.5568 -1.8400
 9404SOL    HW239849   3.557   2.343   6.203  2.1222  1.1568 -1.9562
 9405SOL     OW39850   1.100   4.184   0.723  0.1302  0.2163  0.6020
 9405SOL    HW139851   1.060   4.119   0.781 -2.3584  1.2842  0.0965
 9405SOL    HW239852   1.155   4.121   0.678  0.6531 -0.7048  2.5120
 9406SOL     OW39853   2.719   0.516   8.909  0.0585 -0.0789 -0.2709
 9406SOL    HW139854   2.802   0.556   8.937 -0.3943  0.2137  0.6664
 9406SOL    HW239855   2.716   0.440   8.967 -0.3509 -0.8118 -1.2571
 9407SOL     OW39856   1.677   2.062   2.006  0.3521 -0.0811  0.3488
 9407SOL    HW139857   1.718   1.996   2.062  2.4569  1.3834  0.5595
 9407SOL    HW239858   1.624   2.110   2.070  0.8017  0.3012  0.4428
 9408SOL     OW39859   1.467   1.485  11.013 -0.4913 -0.5765  0.2028
 9408SOL    HW139860   1.377   1.487  10.979 -0.5721  0.5849  0.4979
 9408SOL    HW239861   1.494   1.399  10.980  0.9749  0.3900 -1.0604
 9409SOL     OW39862   2.566   2.555   7.351  0.0949  0.4369  0.4859
 9409SOL    HW139863   2.501   2.500   7.393 -1.2508  1.5218 -0.1422
 9409SOL    HW239864   2.650   2.537   7.393  1.0795  0.1149 -1.5774
 9410SOL     OW39865   2.618   3.464  17.000  0.1759 -0.0926  0.0155
 9410SOL    HW139866   2.542   3.463  16.942 -0.2592 -1.7446  0.6090
 9410SOL    HW239867   2.632   3.556  17.025 -1.8514 -0.0522  0.9944
 9411SOL     OW39868   3.169   0.282   3.309  0.2578  0.2956 -0.6154
 9411SOL    HW139869   3.202   0.362   3.351 -0.0646  0.6159 -0.9713
 9411SOL    HW239870   3.142   0.238   3.390 -0.5392  3.0857  0.6294
 9412SOL     OW39871   2.706   1.678  15.905  0.2646 -0.0261  0.2559
 9412SOL    HW139872   2.638   1.680  15.837  1.9547 -0.4258 -1.4360
 9412SOL    HW239873   2.675   1.594  15.941  0.8799 -0.3493  0.0232
 9413SOL     OW39874   4.709   0.879   3.955 -0.6495  0.1838  0.1208
 9413SOL    HW139875   4.702   0.967   3.918  0.2007  0.5343  0.7892
 9413SOL    HW239876   4.699   0.906   4.046  0.7892  0.4906  0.1916
 9414SOL     OW39877   4.386   2.122   7.826  0.2009 -0.4204 -0.3345
 9414SOL    HW139878   4.316   2.173   7.785 -1.6130 -1.8294  0.9630
 9414SOL    HW239879   4.394   2.050   7.764  0.5428 -0.7466  0.0868
 9415SOL     OW39880   1.592   2.631   7.154  0.3061 -0.1810  0.1416
 9415SOL    HW139881   1.639   2.636   7.071 -1.3169 -1.5771 -0.8796
 9415SOL    HW239882   1.598   2.536   7.162 -0.9485 -0.0629  2.4505
 9416SOL     OW39883   1.036   2.566   8.749 -0.4463 -0.5113 -0.0216
 9416SOL    HW139884   1.077   2.500   8.805  1.1916 -0.7962 -1.5835
 9416SOL    HW239885   0.985   2.610   8.817  0.9148 -0.0119  0.6601
 9417SOL     OW39886   0.494   3.845  14.599  0.1536  0.2092 -0.1275
 9417SOL    HW139887   0.447   3.928  14.591  0.8077  0.3999 -2.0315
 9417SOL    HW239888   0.472   3.828  14.690 -0.9885 -1.3232 -0.6942
 9418SOL     OW39889   2.170   1.940   2.170  0.5971 -0.3879 -0.2763
 9418SOL    HW139890   2.174   2.036   2.163 -2.4322 -0.0916  1.9835
 9418SOL    HW239891   2.150   1.931   2.263  3.2371 -2.2850  0.1144
 9419SOL     OW39892   2.759   2.471   7.901 -0.3823  0.6446 -0.1381
 9419SOL    HW139893   2.693   2.412   7.866  1.2397 -0.0441 -2.0078
 9419SOL    HW239894   2.705   2.520   7.964 -0.4845 -0.5995  0.7405
 9420SOL     OW39895   1.519   1.663   1.720  0.2848  0.0426 -0.3191
 9420SOL    HW139896   1.559   1.588   1.764  0.1102  0.2929  0.2699
 9420SOL    HW239897   1.517   1.727   1.792  0.0096 -0.1595 -0.1465
 9421SOL     OW39898   1.844   4.079   3.212  0.0153  0.5512  0.1587
 9421SOL    HW139899   1.926   4.032   3.197 -0.2491 -0.3002  1.3933
 9421SOL    HW239900   1.887   4.163   3.228  0.3068  0.6800 -1.2532
 9422SOL     OW39901   0.675   1.126   0.045 -0.4004  0.2241 -0.3996
 9422SOL    HW139902   0.695   1.152   0.135  0.3927  0.9333 -0.7839
 9422SOL    HW239903   0.743   1.060   0.029 -0.4377  0.6337 -2.2006
 9423SOL     OW39904   1.745   3.447   4.671  0.2552  0.0432 -0.1561
 9423SOL    HW139905   1.707   3.526   4.708  1.2855  0.8383 -0.8075
 9423SOL    HW239906   1.689   3.426   4.596 -1.5245 -3.7819  2.2087
 9424SOL     OW39907   0.150   0.903   9.595  0.6636  0.3422  0.5865
 9424SOL    HW139908   0.172   0.955   9.518  2.0520 -2.1081 -0.6652
 9424SOL    HW239909   0.207   0.956   9.652  1.0620  0.0470  0.4645
 9425SOL     OW39910   2.569   1.997   9.389 -0.1202  0.0177 -0.1365
 9425SOL    HW139911   2.595   2.089   9.398  4.1169 -1.5617  3.3178
 9425SOL    HW239912   2.478   1.999   9.418  0.2452  0.6137  0.9604
 9426SOL     OW39913   4.469   4.042   6.386 -0.2567 -0.2982  0.5960
 9426SOL    HW139914   4.476   4.026   6.480  0.6790  2.0225  0.9100
 9426SOL    HW239915   4.546   4.097   6.373 -1.0027  0.8713  1.1850
 9427SOL     OW39916   0.074   2.158   6.182 -0.0232  0.0234  0.3899
 9427SOL    HW139917   0.039   2.149   6.094 -0.4494  0.0347  0.5577
 9427SOL    HW239918   4.730   2.158   6.237  0.6989 -1.0204  1.4155
 9428SOL     OW39919   1.961   3.091   3.682 -0.0372  0.2887  0.0545
 9428SOL    HW139920   2.020   3.045   3.742 -0.4581  0.4739  0.6041
 9428SOL    HW239921   1.898   3.021   3.664  0.9436 -0.9338  1.2816
 9429SOL     OW39922   3.964   1.142  15.173  0.0034  0.4338  0.3332
 9429SOL    HW139923   4.017   1.155  15.252 -1.9250  0.2262  1.6374
 9429SOL    HW239924   4.036   1.111  15.117 -0.2159  2.5245 -1.1564
 9430SOL     OW39925   1.375   2.493  13.561  0.2659 -0.1358 -0.4151
 9430SOL    HW139926   1.340   2.582  13.573 -0.4982 -0.0762 -3.0402
 9430SOL    HW239927   1.335   2.445  13.488 -1.8065  0.2496  0.4748
 9431SOL     OW39928   0.076   3.276  14.487 -0.2998  0.4787 -0.3002
 9431SOL    HW139929   0.133   3.353  14.486 -0.1791  0.4295  3.4159
 9431SOL    HW239930   0.101   3.228  14.566  0.2531  0.7535 -0.3104
 9432SOL     OW39931   1.569   2.984   2.470 -0.4535  0.3681  0.2622
 9432SOL    HW139932   1.551   3.031   2.551 -0.3790  0.7808  0.0395
 9432SOL    HW239933   1.477   2.979   2.443 -1.2366 -1.4729  3.2553
 9433SOL     OW39934   2.744   4.714   2.288 -0.2595 -0.0464 -0.1130
 9433SOL    HW139935   2.798   4.635   2.292 -0.8694 -0.5691 -2.0007
 9433SOL    HW239936   2.676   4.682   2.346  0.5889  0.8718  1.3895
 9434SOL     OW39937   3.098   4.724   9.541  0.4842  0.3444  0.0987
 9434SOL    HW139938   3.008   0.020   9.547 -0.2398 -1.9647  1.3182
 9434SOL    HW239939   3.145   0.072   9.535 -1.1524  1.4482  2.3620
 9435SOL     OW39940   2.367   4.595   1.283 -0.2702  0.0337 -0.2304
 9435SOL    HW139941   2.369   4.675   1.335 -2.1791  0.3192 -0.6080
 9435SOL    HW239942   2.279   4.569   1.310 -0.1160  1.2545  1.3896
 9436SOL     OW39943   3.609   2.575   1.905  0.4537 -0.5228 -0.1297
 9436SOL    HW139944   3.566   2.555   1.822  0.2673  1.1991 -0.4323
 9436SOL    HW239945   3.611   2.670   1.908  0.9263 -0.4492 -2.6865
 9437SOL     OW39946   1.466   1.836   8.226  0.0750  0.2622 -0.0294
 9437SOL    HW139947   1.509   1.865   8.306 -1.0757  2.2687 -0.1332
 9437SOL    HW239948   1.525   1.767   8.198 -1.9037 -1.3077 -0.3033
 9438SOL     OW39949   4.551   1.563   8.866 -0.5134 -0.8889  0.6553
 9438SOL    HW139950   4.540   1.501   8.938  0.2467 -1.3581  0.3653
 9438SOL    HW239951   4.524   1.646   8.906 -0.9298 -0.6011 -0.2212
 9439SOL     OW39952   1.281   3.736   4.420  0.4496  0.5322  0.0292
 9439SOL    HW139953   1.214   3.799   4.444 -0.5348  0.2708 -2.0060
 9439SOL    HW239954   1.334   3.798   4.369 -0.4439  0.3834 -1.0936
 9440SOL     OW39955   2.884   3.932   3.966  0.2064 -0.1871  0.0199
 9440SOL    HW139956   2.920   4.020   3.952 -2.2997  0.7649 -0.4441
 9440SOL    HW239957   2.964   3.880   3.963  0.4853  0.3980 -2.4729
 9441SOL     OW39958   0.707   3.005   9.546  0.0593  0.1482 -0.4439
 9441SOL    HW139959   0.713   3.004   9.642  3.4488  0.1711 -0.6710
 9441SOL    HW239960   0.665   3.090   9.529  0.9063  0.7532  0.4561
 9442SOL     OW39961   1.646   4.563   5.701  0.0351  0.0481  0.6402
 9442SOL    HW139962   1.685   4.626   5.642 -1.1415  0.7989  0.6589
 9442SOL    HW239963   1.705   4.488   5.691  1.5962  1.4076 -0.2761
 9443SOL     OW39964   2.320   0.697  17.464  0.3600 -0.2149 -0.3627
 9443SOL    HW139965   2.349   0.620  17.415  1.1125 -0.4727  0.4923
 9443SOL    HW239966   2.324   0.773  17.406  2.1587  0.3235  0.4721
 9444SOL     OW39967   4.343   0.027   6.719  0.2513 -0.2595 -0.3571
 9444SOL    HW139968   4.430   0.008   6.753 -1.3490 -3.1176  2.0653
 9444SOL    HW239969   4.370   0.074   6.640  0.3868  1.6374  0.8308
 9445SOL     OW39970   3.572   2.796  11.236  0.0633 -0.6658 -0.2257
 9445SOL    HW139971   3.667   2.784  11.234  0.3137  0.9293  1.6062
 9445SOL    HW239972   3.555   2.855  11.163  0.5299 -3.0793 -2.2811
 9446SOL     OW39973   1.914   2.431   3.433 -0.5456  0.3038 -0.1034
 9446SOL    HW139974   1.880   2.388   3.354 -0.5225  0.6518 -0.3059
 9446SOL    HW239975   1.836   2.466   3.475 -0.6468 -0.3996  0.2921
 9447SOL     OW39976   2.494   3.301   5.164  0.2346  0.1766  0.5179
 9447SOL    HW139977   2.515   3.263   5.249 -2.5848 -0.5880  0.8688
 9447SOL    HW239978   2.563   3.367   5.156 -1.6187  1.9631 -0.8616
 9448SOL     OW39979   0.100   1.594  13.888 -0.1301  0.2800 -0.1401
 9448SOL    HW139980   0.044   1.616  13.962 -1.0830 -3.3361  0.2070
 9448SOL    HW239981   0.048   1.634  13.819 -0.8692 -2.4578 -1.1596
 9449SOL     OW39982   2.559   4.134  10.312  0.1958 -0.6537 -0.3415
 9449SOL    HW139983   2.570   4.102  10.401  0.2343 -1.5658 -0.6768
 9449SOL    HW239984   2.643   4.174  10.288  1.5405 -1.0594  3.6674
 9450SOL     OW39985   3.952   1.077   6.418  0.4799  0.1716 -0.8368
 9450SOL    HW139986   3.976   1.156   6.369 -2.5869  2.5722  1.5271
 9450SOL    HW239987   3.867   1.053   6.381  0.8929  0.9360 -2.2997
 9451SOL     OW39988   3.965   1.636   2.292 -0.3044  0.3186  0.1047
 9451SOL    HW139989   4.050   1.602   2.264 -1.1418 -1.3411 -0.4243
 9451SOL    HW239990   3.974   1.658   2.385  0.0850  0.8362 -0.0520
 9452SOL     OW39991   1.808   4.089  13.467  0.5429  0.0303  0.1828
 9452SOL    HW139992   1.891   4.084  13.513 -0.5581  0.8585  2.2743
 9452SOL    HW239993   1.776   4.179  13.471  1.4629  0.4045 -1.0237
 9453SOL     OW39994   3.850   0.339   2.324 -0.7618 -0.6140  0.4021
 9453SOL    HW139995   3.910   0.264   2.319 -0.3630 -0.1600 -1.5072
 9453SOL    HW239996   3.781   0.317   2.262 -0.9153  1.1626 -0.0627
 9454SOL     OW39997   3.006   3.698   7.475  0.2069  0.1965 -0.2036
 9454SOL    HW139998   3.027   3.609   7.447  1.6691  0.0455  1.3771
 9454SOL    HW239999   3.058   3.705   7.555  1.1181  0.4242 -0.8227
 9455SOL     OW40000   2.804   2.697   5.309  0.3507 -0.0423 -0.3786
 9455SOL    HW140001   2.810   2.735   5.222  0.1947 -0.7769 -0.7109
 9455SOL    HW240002   2.852   2.616   5.294 -1.7881 -0.8364 -2.9023
 9456SOL     OW40003   1.071   2.609  16.870 -0.4065  0.1981 -0.3288
 9456SOL    HW140004   1.122   2.616  16.789 -1.7677 -0.6947 -1.2612
 9456SOL    HW240005   1.032   2.522  16.868 -1.6530  0.7596 -0.2200
 9457SOL     OW40006   4.217   1.993  17.720  0.5455  0.5214  0.0792
 9457SOL    HW140007   4.260   2.007   0.065  0.0310 -0.2605  0.4768
 9457SOL    HW240008   4.158   2.068  17.719  1.1787  1.0103 -0.1541
 9458SOL     OW40009   3.263   3.940   9.526 -0.1330 -0.6817 -0.1742
 9458SOL    HW140010   3.197   3.989   9.477  0.0085 -2.4719 -2.1488
 9458SOL    HW240011   3.296   4.002   9.590 -0.6692 -0.8010  0.2197
 9459SOL     OW40012   2.933   1.197   2.881  0.2894  0.1357  0.4794
 9459SOL    HW140013   2.841   1.186   2.904  0.2286  1.4050  0.8430
 9459SOL    HW240014   2.914   1.244   2.800 -0.1817  1.5394  1.3829
 9460SOL     OW40015   3.584   3.432   5.854 -0.4364 -0.1237  1.0826
 9460SOL    HW140016   3.560   3.416   5.945  0.4122  0.9573  1.5077
 9460SOL    HW240017   3.517   3.380   5.810 -0.2285 -1.9117  2.9059
 9461SOL     OW40018   0.484   0.080   4.820 -0.2859  0.1747 -0.5089
 9461SOL    HW140019   0.515   4.725   4.814 -0.3927  0.0988  0.0673
 9461SOL    HW240020   0.490   0.098   4.726 -0.5707 -0.9746 -0.7476
 9462SOL     OW40021   1.211   4.677  16.184 -0.2909 -0.4195  0.1859
 9462SOL    HW140022   1.125   4.719  16.186 -1.4595 -2.8761  0.9411
 9462SOL    HW240023   1.266   0.020  16.172  1.7081 -1.9106 -0.4048
 9463SOL     OW40024   4.487   2.683   2.048  0.5418 -0.1799 -0.4878
 9463SOL    HW140025   4.488   2.659   2.140 -1.1100  1.6923  0.0197
 9463SOL    HW240026   4.471   2.602   2.001 -0.4737  0.3363 -1.0344
 9464SOL     OW40027   3.538   3.753   2.959  0.4044 -0.0594 -0.2446
 9464SOL    HW140028   3.597   3.745   3.034 -0.4846  0.3774  0.5084
 9464SOL    HW240029   3.520   3.846   2.970  1.9935  0.3665 -1.2222
 9465SOL     OW40030   1.229   0.650   7.483 -0.3186 -0.3700 -0.2723
 9465SOL    HW140031   1.159   0.588   7.462 -1.4497  0.0604  2.1886
 9465SOL    HW240032   1.182   0.713   7.537 -0.9668 -1.3086  0.2570
 9466SOL     OW40033   0.118   4.224  10.655 -0.1124  0.4132 -0.3030
 9466SOL    HW140034   0.055   4.268  10.598 -0.6589 -1.2414 -0.9737
 9466SOL    HW240035   0.088   4.257  10.739  2.2787  1.7614  0.0181
 9467SOL     OW40036   3.891   0.141   6.793  0.0068  0.2632  0.2092
 9467SOL    HW140037   3.942   0.218   6.770  2.0926 -1.0409  0.5260
 9467SOL    HW240038   3.878   0.169   6.884 -0.5064  0.4106  0.0910
 9468SOL     OW40039   4.700   3.505  11.472  0.1852  0.7618 -0.2352
 9468SOL    HW140040   4.713   3.574  11.408  0.2454  0.5724 -0.4257
 9468SOL    HW240041   4.703   3.559  11.551  0.6684 -0.7711  0.7889
 9469SOL     OW40042   2.929   4.004   5.940  0.3924  0.1651 -0.6719
 9469SOL    HW140043   2.904   3.914   5.960  0.3969  0.2174 -0.4320
 9469SOL    HW240044   2.860   4.060   5.975 -0.2314  0.8171 -2.9455
 9470SOL     OW40045   3.102   1.686   1.734 -0.3064 -0.0420  0.1647
 9470SOL    HW140046   3.034   1.619   1.737 -0.5522  0.1769 -0.4022
 9470SOL    HW240047   3.141   1.674   1.647 -0.7666  1.0145 -0.1871
 9471SOL     OW40048   2.653   1.539  14.188 -0.4067  0.1412  0.3266
 9471SOL    HW140049   2.635   1.609  14.251 -0.6201 -1.0913  1.6397
 9471SOL    HW240050   2.725   1.489  14.228 -0.0408 -0.3938 -1.0058
 9472SOL     OW40051   1.364   3.213   4.674 -0.2532 -0.0644 -0.5645
 9472SOL    HW140052   1.434   3.195   4.611  1.0492 -1.4873  1.2675
 9472SOL    HW240053   1.407   3.271   4.737 -0.6056  2.0485 -2.2820
 9473SOL     OW40054   0.231   3.783   7.386 -0.4080 -0.1762 -0.1865
 9473SOL    HW140055   0.184   3.726   7.324 -0.4061 -1.0700  0.6406
 9473SOL    HW240056   0.170   3.857   7.387  0.7264  0.6821  2.9731
 9474SOL     OW40057   0.406   0.416   6.815  0.1096 -0.7099  0.5695
 9474SOL    HW140058   0.318   0.415   6.852 -0.6570 -1.4144 -1.2815
 9474SOL    HW240059   0.444   0.346   6.868 -2.0401 -0.6376  2.1825
 9475SOL     OW40060   3.900   0.416  13.805  0.1544  0.2113 -0.8260
 9475SOL    HW140061   3.984   0.390  13.844  0.0739 -0.3138 -0.9960
 9475SOL    HW240062   3.849   0.335  13.811  1.0646 -0.1538  1.9316
 9476SOL     OW40063   2.365   2.733   2.524 -0.0616  0.0676  0.6409
 9476SOL    HW140064   2.318   2.669   2.471  1.0612  0.5062 -0.8811
 9476SOL    HW240065   2.304   2.807   2.514  1.7436  1.2375 -1.7535
 9477SOL     OW40066   3.173   3.768   9.057  0.0760  0.1790  0.7380
 9477SOL    HW140067   3.207   3.715   9.129  0.8826  1.1012  1.0361
 9477SOL    HW240068   3.239   3.838   9.053 -2.1857  2.2984  0.6584
 9478SOL     OW40069   3.778   0.587   4.719  0.1045 -0.2803  0.8514
 9478SOL    HW140070   3.795   0.492   4.714 -1.6071 -0.5868  0.9042
 9478SOL    HW240071   3.688   0.579   4.748  0.4180 -1.1155  1.5837
 9479SOL     OW40072   4.654   2.728   6.762  0.7000 -0.2719  0.6186
 9479SOL    HW140073   4.579   2.669   6.773  0.3144  0.5584  2.4741
 9479SOL    HW240074   4.628   2.782   6.688 -2.7690  1.7354  3.2557
 9480SOL     OW40075   0.280   1.828   1.722 -0.3141  0.2078  0.2435
 9480SOL    HW140076   0.313   1.916   1.740  0.1724  0.4352 -1.7027
 9480SOL    HW240077   0.348   1.785   1.668 -0.1691  0.7709 -0.0198
 9481SOL     OW40078   0.492   0.519  14.427  0.4864  0.5696 -0.3061
 9481SOL    HW140079   0.582   0.544  14.450  0.7228  0.5111 -1.1781
 9481SOL    HW240080   0.475   0.455  14.496 -0.8565 -0.1823 -1.3465
 9482SOL     OW40081   1.422   2.797   7.588 -0.3714 -0.5355  0.2650
 9482SOL    HW140082   1.397   2.774   7.678  1.0637  1.6204  1.2043
 9482SOL    HW240083   1.386   2.885   7.586  2.8737  0.7882  0.1609
 9483SOL     OW40084   1.713   3.873   7.072  0.1652 -0.0456 -0.4484
 9483SOL    HW140085   1.661   3.944   7.111 -1.1153 -0.0946 -2.0640
 9483SOL    HW240086   1.766   3.929   7.016 -1.5213  2.6760  0.6549
 9484SOL     OW40087   3.907   0.666  17.059  0.3912  0.1787 -0.8708
 9484SOL    HW140088   3.950   0.680  16.975  0.6205  0.5427 -0.6977
 9484SOL    HW240089   3.861   0.749  17.069 -0.2581 -0.0778 -1.7764
 9485SOL     OW40090   3.033   4.437   3.722 -0.0488 -0.3542 -0.8376
 9485SOL    HW140091   3.126   4.447   3.700 -0.1421  1.9020 -0.1948
 9485SOL    HW240092   3.007   4.435   3.630 -0.4071  0.5844 -0.7557
 9486SOL     OW40093   3.001   0.950   3.288  0.6015  0.4792 -0.0877
 9486SOL    HW140094   3.091   0.917   3.292  0.7809  1.0207  0.2742
 9486SOL    HW240095   3.009   1.010   3.214  0.0193  0.4495 -0.1759
 9487SOL     OW40096   2.996   2.322   2.475  0.2244  0.0230 -0.4048
 9487SOL    HW140097   3.007   2.401   2.528  0.2837 -1.2226  1.4559
 9487SOL    HW240098   2.975   2.362   2.391  0.5751  0.8486 -0.1096
 9488SOL     OW40099   1.509   0.110   8.102 -0.1118  0.3003  0.2148
 9488SOL    HW140100   1.417   0.091   8.117  0.2424 -0.4084  1.4668
 9488SOL    HW240101   1.528   0.042   8.037 -3.8923  0.9634 -1.6170
 9489SOL     OW40102   2.378   0.589   4.773 -0.6360  0.2471  0.0238
 9489SOL    HW140103   2.409   0.518   4.829  0.8017 -0.3475 -1.5205
 9489SOL    HW240104   2.459   0.605   4.725  0.1823 -0.1234  1.2715
 9490SOL     OW40105   0.119   3.912   8.539  0.0723  0.0365  0.2588
 9490SOL    HW140106   0.125   3.972   8.465 -1.5514 -1.0072 -0.7382
 9490SOL    HW240107   0.078   3.963   8.609 -0.4640 -0.0671  0.0249
 9491SOL     OW40108   2.541   2.325  17.074 -0.4314 -0.2126  0.0369
 9491SOL    HW140109   2.561   2.253  17.014  0.4083  1.2828 -1.4634
 9491SOL    HW240110   2.468   2.285  17.121 -0.0998 -0.1575  0.6083
 9492SOL     OW40111   4.587   3.571  14.355 -0.0143  0.0417  0.3363
 9492SOL    HW140112   4.520   3.617  14.405 -1.0449 -0.6462 -0.4067
 9492SOL    HW240113   4.661   3.573  14.415 -1.4164 -1.7366  2.1097
 9493SOL     OW40114   0.443   3.461  14.370 -0.2191 -0.2241  0.2431
 9493SOL    HW140115   0.476   3.375  14.342 -4.5480 -2.2112  1.3368
 9493SOL    HW240116   0.432   3.511  14.289 -3.5247  0.4570  1.1163
 9494SOL     OW40117   3.032   0.937   6.177 -0.1103  0.0864 -0.3557
 9494SOL    HW140118   3.108   0.977   6.134 -0.2910 -0.3769 -1.1127
 9494SOL    HW240119   2.997   0.883   6.105 -1.7257  1.7370 -0.8046
 9495SOL     OW40120   4.413   4.227   5.785 -0.0878 -0.2079  0.4965
 9495SOL    HW140121   4.425   4.294   5.718  0.9493  0.8036  1.6945
 9495SOL    HW240122   4.322   4.243   5.811 -0.4204 -1.1456 -0.0807
 9496SOL     OW40123   2.762   2.497   5.504  0.2071  0.8038  0.0626
 9496SOL    HW140124   2.827   2.548   5.551  0.4629 -2.5515  3.3745
 9496SOL    HW240125   2.756   2.560   5.432 -0.4595  0.4842 -0.1688
 9497SOL     OW40126   1.231   3.403   7.885  0.2079 -0.3391 -0.3131
 9497SOL    HW140127   1.298   3.340   7.857  2.1609  0.7035  1.9010
 9497SOL    HW240128   1.267   3.430   7.970 -1.3825  0.5733  0.0726
 9498SOL     OW40129   2.763   2.944   2.858  0.1077  0.0203  0.1154
 9498SOL    HW140130   2.822   3.018   2.857 -0.8709  0.7799 -1.1530
 9498SOL    HW240131   2.692   2.986   2.907  0.1373 -1.4914  1.4891
 9499SOL     OW40132   2.990   3.111  12.455  0.2510  0.1571 -0.3215
 9499SOL    HW140133   2.971   3.042  12.517  0.5504  0.2428 -0.1336
 9499SOL    HW240134   3.045   3.166  12.511  0.1863  0.4107 -0.5063
 9500SOL     OW40135   4.160   1.921  10.483  0.1891 -0.2639  0.3333
 9500SOL    HW140136   4.123   1.952  10.401 -1.8344 -1.3264  0.8542
 9500SOL    HW240137   4.084   1.893  10.533  0.9055  0.1674  1.6644
 9501SOL     OW40138   2.303   1.711  17.191  0.2685  0.6752 -0.6011
 9501SOL    HW140139   2.213   1.740  17.176 -0.5522 -2.0000 -0.9919
 9501SOL    HW240140   2.331   1.758  17.269  0.0214  2.1004 -1.3795
 9502SOL     OW40141   2.271   1.959   8.429  0.7678 -0.1178  0.7308
 9502SOL    HW140142   2.352   1.986   8.473  1.7475  1.0300 -1.7593
 9502SOL    HW240143   2.306   1.963   8.340  0.6531 -1.3887  0.6357
 9503SOL     OW40144   2.172   3.648  13.902 -0.4602  0.2408  0.4870
 9503SOL    HW140145   2.083   3.613  13.909  0.0953 -1.1602  0.5283
 9503SOL    HW240146   2.161   3.730  13.952 -0.0338  0.4594  0.2224
 9504SOL     OW40147   1.897   3.300   8.104 -0.1069 -0.0118 -0.1606
 9504SOL    HW140148   1.802   3.314   8.095 -0.0894  0.0389 -0.2655
 9504SOL    HW240149   1.907   3.223   8.047 -2.2324  0.6065 -1.3522
 9505SOL     OW40150   2.157   0.875   8.982  0.1707  0.0121 -0.2359
 9505SOL    HW140151   2.091   0.812   8.952  1.0160 -0.7397 -0.5246
 9505SOL    HW240152   2.223   0.855   8.916  2.5705  0.4763  2.0369
 9506SOL     OW40153   2.533   1.176   7.276 -0.2143  0.0883 -0.8959
 9506SOL    HW140154   2.463   1.215   7.224  0.6596  1.0836 -1.3376
 9506SOL    HW240155   2.535   1.239   7.348  3.0269 -0.9020 -0.1122
 9507SOL     OW40156   3.937   0.601   2.311  0.0031  0.1726 -0.2722
 9507SOL    HW140157   3.900   0.514   2.322  0.9521 -0.1972  0.0292
 9507SOL    HW240158   3.904   0.622   2.224 -1.6560  2.0461  0.8015
 9508SOL     OW40159   3.521   1.525  16.817 -0.0967 -0.1000 -0.5427
 9508SOL    HW140160   3.551   1.615  16.801 -0.7489  0.3331  0.6862
 9508SOL    HW240161   3.458   1.513  16.745  0.4095  1.9302 -1.3445
 9509SOL     OW40162   0.676   2.143   8.527 -0.3588  0.2606  0.0517
 9509SOL    HW140163   0.637   2.172   8.444  0.1590  0.4843 -0.1126
 9509SOL    HW240164   0.638   2.200   8.594 -1.9129  0.1506 -0.7320
 9510SOL     OW40165   0.701   0.351  16.064  0.4086  0.2521  0.0869
 9510SOL    HW140166   0.743   0.264  16.064 -0.5725 -0.2121 -0.9309
 9510SOL    HW240167   0.694   0.356  16.159  1.7404  1.7636  0.0945
 9511SOL     OW40168   0.799   3.889   1.712 -0.9125  0.5865  0.0417
 9511SOL    HW140169   0.791   3.828   1.639  3.7479  0.5516 -0.4381
 9511SOL    HW240170   0.706   3.904   1.732 -1.1994 -1.2509  0.0861
 9512SOL     OW40171   2.749   1.869   4.914 -0.3969  0.1801  0.1716
 9512SOL    HW140172   2.710   1.788   4.881  0.6780 -0.4048  0.3435
 9512SOL    HW240173   2.831   1.824   4.937  0.6207  1.5508 -0.7608
 9513SOL     OW40174   3.667   1.828   1.413  0.3129  0.0687 -0.0912
 9513SOL    HW140175   3.632   1.800   1.328  0.4098 -0.5836  0.0801
 9513SOL    HW240176   3.601   1.791   1.471  0.5259 -1.5539 -0.8842
 9514SOL     OW40177   3.923   0.742   2.557 -0.1970  0.6277  0.5772
 9514SOL    HW140178   3.919   0.701   2.470 -0.8202  1.2414  0.3171
 9514SOL    HW240179   3.858   0.812   2.564  0.7018  1.5179  0.0181
 9515SOL     OW40180   3.996   0.615   0.979  0.6104 -0.0530 -0.1823
 9515SOL    HW140181   4.007   0.643   1.070 -0.6626  1.2233 -0.4240
 9515SOL    HW240182   3.904   0.639   0.970  0.3423 -1.1593 -0.4344
 9516SOL     OW40183   0.583   4.501  11.794  0.0652  0.0748  0.6043
 9516SOL    HW140184   0.600   4.425  11.740 -0.0632 -1.6108  2.9261
 9516SOL    HW240185   0.617   4.571  11.738  2.1139 -2.3026 -1.1148
 9517SOL     OW40186   0.077   3.445   3.589 -0.1784  0.0015 -0.0599
 9517SOL    HW140187   0.010   3.436   3.521 -1.3340 -0.7475  1.1564
 9517SOL    HW240188   0.020   3.426   3.664  2.8015  0.8422  2.4167
 9518SOL     OW40189   4.181   0.673   5.193  0.0430  0.0140  0.2410
 9518SOL    HW140190   4.158   0.698   5.103  0.8264 -1.1942 -0.2871
 9518SOL    HW240191   4.273   0.699   5.202 -0.2852  1.8170 -1.5812
 9519SOL     OW40192   1.591   4.594   3.267  0.1799 -0.1003  0.1830
 9519SOL    HW140193   1.563   4.509   3.301 -1.5495 -0.1401 -1.3768
 9519SOL    HW240194   1.586   4.578   3.173 -1.7947  1.0414  0.0951
 9520SOL     OW40195   4.227   3.522  11.329 -0.6182 -0.1601 -0.1481
 9520SOL    HW140196   4.238   3.577  11.252 -1.5296 -2.0112 -1.6075
 9520SOL    HW240197   4.219   3.588  11.398  0.0497 -0.1229 -0.1107
 9521SOL     OW40198   1.860   1.667   1.820  0.3550  0.0057  0.4265
 9521SOL    HW140199   1.852   1.575   1.846  0.2889  0.0501  0.5665
 9521SOL    HW240200   1.912   1.709   1.889  1.8921 -0.3995 -0.4868
 9522SOL     OW40201   4.000   0.946  13.760 -0.2094  0.0730  0.7377
 9522SOL    HW140202   4.058   1.022  13.765  1.0894 -0.8577 -0.1903
 9522SOL    HW240203   3.920   0.995  13.779 -0.2379  1.3312 -2.4922
 9523SOL     OW40204   4.178   1.011   2.591  0.4346  0.6221 -0.6633
 9523SOL    HW140205   4.169   0.988   2.499 -1.0811  0.5437 -0.4965
 9523SOL    HW240206   4.244   1.079   2.586  0.3167  0.7888 -0.0081
 9524SOL     OW40207   0.152   4.627   3.546  0.0274  0.0424  0.3584
 9524SOL    HW140208   0.211   4.680   3.599  1.0377 -1.4364  0.6878
 9524SOL    HW240209   0.157   4.548   3.599  2.1723  0.2702  0.4784
 9525SOL     OW40210   1.982   0.584   2.858 -0.0080  0.2683 -0.3909
 9525SOL    HW140211   1.938   0.558   2.939 -2.6705  1.4688 -1.4603
 9525SOL    HW240212   2.049   0.516   2.848  0.6255  1.1375 -2.0781
 9526SOL     OW40213   4.502   4.434   5.618 -0.3290 -0.2308  0.1816
 9526SOL    HW140214   4.529   4.389   5.538 -0.3804  0.5323 -0.2748
 9526SOL    HW240215   4.533   4.523   5.601  0.3623  0.0253  2.8670
 9527SOL     OW40216   4.012   3.339   2.999  0.1305 -0.3381  0.1666
 9527SOL    HW140217   4.088   3.345   3.058  1.5442  0.3874 -1.7558
 9527SOL    HW240218   4.059   3.362   2.919  2.3985 -0.7583  1.3635
 9528SOL     OW40219   4.616   1.387  16.136 -0.5904 -0.2156  0.5291
 9528SOL    HW140220   4.551   1.457  16.133  0.5681  0.9297  2.1844
 9528SOL    HW240221   4.587   1.336  16.212  0.9138  0.3223  1.4466
 9529SOL     OW40222   4.459   0.726   6.468 -0.0797  0.3683 -0.5403
 9529SOL    HW140223   4.472   0.705   6.560 -0.6353  0.6151 -0.4087
 9529SOL    HW240224   4.541   0.707   6.421  0.4824  2.1620 -0.2972
 9530SOL     OW40225   2.594   0.333   3.863 -0.3373  0.6784 -0.4351
 9530SOL    HW140226   2.550   0.250   3.844 -1.3950  1.1697 -0.1236
 9530SOL    HW240227   2.576   0.362   3.952  3.2715 -1.6793  1.0631
 9531SOL     OW40228   3.650   3.105   2.877 -0.3105 -0.3172  0.0761
 9531SOL    HW140229   3.601   3.069   2.804  2.0807  1.3048 -2.3348
 9531SOL    HW240230   3.727   3.117   2.820  1.8122 -2.0285  2.5875
 9532SOL     OW40231   3.996   4.592   6.214  1.0163 -0.2041 -0.2863
 9532SOL    HW140232   4.022   4.671   6.261 -0.8872  0.1497  0.1896
 9532SOL    HW240233   3.918   4.578   6.267  0.3242  1.7944 -0.7977
 9533SOL     OW40234   1.396   3.130  14.987  0.5659 -0.3181  0.3507
 9533SOL    HW140235   1.388   3.052  15.042  1.2603 -0.7941 -0.2074
 9533SOL    HW240236   1.366   3.098  14.902  1.4356  0.9018 -0.4235
 9534SOL     OW40237   0.753   4.328   5.828 -0.0687  0.0374 -0.2028
 9534SOL    HW140238   0.795   4.390   5.887 -0.9932 -0.9432  1.4642
 9534SOL    HW240239   0.804   4.321   5.747  0.2707 -3.5745  0.3176
 9535SOL     OW40240   0.237   1.512   2.812  0.5997 -0.1566 -0.2714
 9535SOL    HW140241   0.270   1.427   2.784 -1.6242 -0.8371 -0.8375
 9535SOL    HW240242   0.155   1.500   2.763  0.2155 -0.8344  0.5511
 9536SOL     OW40243   2.015   0.935   3.505  0.5322 -0.2535  0.2901
 9536SOL    HW140244   2.007   0.857   3.560  1.3541 -0.9476 -0.5726
 9536SOL    HW240245   1.997   1.005   3.568  0.3516  0.9316 -1.0886
 9537SOL     OW40246   3.593   2.400   0.132 -0.5857 -0.0039  0.6950
 9537SOL    HW140247   3.593   2.347   0.052  0.9225  0.1905  0.5557
 9537SOL    HW240248   3.644   2.340   0.187 -0.6743 -1.9354 -1.3034
 9538SOL     OW40249   4.474   3.490  16.313 -0.3504  0.0998 -0.6868
 9538SOL    HW140250   4.466   3.564  16.252 -1.9949 -0.3273 -1.0137
 9538SOL    HW240251   4.474   3.413  16.256 -3.5239 -1.1983  1.0642
 9539SOL     OW40252   0.098   3.401  14.881 -0.1103 -0.2442 -0.0949
 9539SOL    HW140253   0.064   3.388  14.969  1.3205  2.5988  0.8417
 9539SOL    HW240254   0.108   3.313  14.843  2.6651  0.7466 -1.6521
 9540SOL     OW40255   2.962   0.519   1.655  0.5312  0.1648  0.4775
 9540SOL    HW140256   2.920   0.437   1.682 -1.6509  1.0087 -0.2712
 9540SOL    HW240257   3.007   0.526   1.739  1.4046  1.0087 -0.0649
 9541SOL     OW40258   1.436   1.330  14.512  0.4371 -0.4015  0.1861
 9541SOL    HW140259   1.351   1.312  14.551  0.5034  0.7801  0.8742
 9541SOL    HW240260   1.478   1.380  14.582  0.0907 -0.1318  0.2014
 9542SOL     OW40261   1.559   1.960   7.159 -0.1945  0.1263 -0.4264
 9542SOL    HW140262   1.519   1.878   7.187 -0.7997  0.7565  0.5567
 9542SOL    HW240263   1.638   1.961   7.213 -2.1971 -0.7614  2.5043
 9543SOL     OW40264   3.594   4.636  14.722  0.9080  0.5071 -0.4439
 9543SOL    HW140265   3.650   4.640  14.644 -0.0982  0.7748 -1.1589
 9543SOL    HW240266   3.581   4.731  14.729 -0.5547  0.2945 -0.2784
 9544SOL     OW40267   2.327   3.695  11.356  0.4542  0.0844  0.3760
 9544SOL    HW140268   2.360   3.721  11.269  0.9638  1.0096  0.8442
 9544SOL    HW240269   2.399   3.725  11.411  1.0333 -2.8325  1.2256
 9545SOL     OW40270   1.288   3.354   5.654 -0.1728  0.1281 -0.3244
 9545SOL    HW140271   1.195   3.341   5.639  0.0989  0.1501 -1.9997
 9545SOL    HW240272   1.328   3.276   5.615 -1.0879 -0.2431 -0.5069
 9546SOL     OW40273   0.560   2.696   5.212  0.7696  0.1597 -0.2255
 9546SOL    HW140274   0.648   2.713   5.244 -0.0914  0.3037  2.1077
 9546SOL    HW240275   0.536   2.760   5.146  1.1234  3.4089  2.7979
 9547SOL     OW40276   0.291   0.439   5.641  0.1746  0.7077  0.4230
 9547SOL    HW140277   0.304   0.345   5.646  0.2154  0.7856  1.7856
 9547SOL    HW240278   0.296   0.460   5.734 -2.0085 -2.0552  1.1411
 9548SOL     OW40279   0.087   0.044   5.688  0.5106  0.3677  0.3622
 9548SOL    HW140280   0.093   4.684   5.678 -2.3042  0.2075  0.1982
 9548SOL    HW240281   0.110   0.082   5.603  1.7582  0.5975  0.8042
 9549SOL     OW40282   1.928   4.589  10.166 -0.2621 -0.0213 -0.4902
 9549SOL    HW140283   1.953   4.525  10.099  1.3290  1.3916 -1.2676
 9549SOL    HW240284   1.947   4.543  10.247  0.1137 -2.5265 -2.0175
 9550SOL     OW40285   1.385   2.151   7.025  0.0133  0.1011 -0.2820
 9550SOL    HW140286   1.351   2.185   7.107 -0.2505  1.9422 -1.1502
 9550SOL    HW240287   1.441   2.083   7.063 -0.6925 -0.1074  0.3728
 9551SOL     OW40288   4.156   2.015   4.180  0.1714  0.3138  0.6574
 9551SOL    HW140289   4.202   2.081   4.233  0.2365  0.8347 -0.0507
 9551SOL    HW240290   4.226   1.990   4.120 -0.7572 -0.1910 -0.2159
 9552SOL     OW40291   0.627   0.722   9.044  0.1635 -0.5112 -0.1993
 9552SOL    HW140292   0.624   0.699   8.952  0.3881  1.0331 -0.5944
 9552SOL    HW240293   0.552   0.782   9.039 -0.5391 -1.1722  2.1421
 9553SOL     OW40294   3.575   1.302   2.863 -0.0975  0.8387  0.1190
 9553SOL    HW140295   3.656   1.328   2.820  0.1095 -1.8454 -1.1135
 9553SOL    HW240296   3.543   1.390   2.884 -1.4742 -0.3495  2.9925
 9554SOL     OW40297   3.735   2.531   8.817  0.0987  0.0982  0.1299
 9554SOL    HW140298   3.761   2.525   8.909 -1.0793 -0.0704  0.4466
 9554SOL    HW240299   3.650   2.571   8.832 -0.1372  0.6405 -2.6476
 9555SOL     OW40300   2.930   0.173   0.847 -0.3078  0.3305  0.3091
 9555SOL    HW140301   2.898   0.143   0.932  0.0947  0.8886  0.6534
 9555SOL    HW240302   3.009   0.121   0.835  0.5148  1.2064  1.9020
 9556SOL     OW40303   4.516   3.170   2.983  0.9319  0.2438 -0.0893
 9556SOL    HW140304   4.495   3.214   2.901  2.2029  1.9598  0.5038
 9556SOL    HW240305   4.609   3.164   2.966  0.5482 -0.5501 -1.8679
 9557SOL     OW40306   4.178   0.906   8.066 -0.1977 -0.0975 -0.4572
 9557SOL    HW140307   4.135   0.872   8.144 -0.3187 -0.6147 -0.7485
 9557SOL    HW240308   4.123   0.856   8.004 -2.6849 -0.1413  1.8041
 9558SOL     OW40309   2.972   1.724   1.043 -0.1836  0.3606 -0.3601
 9558SOL    HW140310   2.983   1.807   0.996 -0.7296 -1.0267 -2.9142
 9558SOL    HW240311   2.882   1.715   1.011 -0.6441  0.1193  0.9975
 9559SOL     OW40312   1.947   0.349   2.235 -0.0220 -0.1995 -0.5380
 9559SOL    HW140313   1.873   0.342   2.296  1.9565  1.1214  2.0539
 9559SOL    HW240314   1.994   0.424   2.271  1.6943 -2.2160  1.4614
 9560SOL     OW40315   1.602   2.150  17.675 -0.1297  0.3045  0.5344
 9560SOL    HW140316   1.681   2.161  17.728 -0.4938 -1.2803  1.3986
 9560SOL    HW240317   1.540   2.214  17.708  0.1328  0.9003 -0.1261
 9561SOL     OW40318   0.481   4.703  12.853  0.2300 -0.3738 -0.2393
 9561SOL    HW140319   0.477   0.044  12.795  2.1072 -0.4384 -0.4368
 9561SOL    HW240320   0.404   4.717  12.909  1.3252  1.6381  0.7659
 9562SOL     OW40321   0.725   1.093   1.275  0.2991 -0.5753  0.5298
 9562SOL    HW140322   0.759   1.156   1.339 -1.2092 -0.9364  1.7216
 9562SOL    HW240323   0.715   1.149   1.199 -0.3137 -1.6887 -0.2103
 9563SOL     OW40324   4.672   3.078   3.871  0.2562 -0.2699  0.7842
 9563SOL    HW140325   4.598   3.090   3.812  2.0234 -0.0874 -1.4051
 9563SOL    HW240326   4.633   3.063   3.957 -1.2536  0.0004  0.1315
 9564SOL     OW40327   0.367   3.559  14.132 -0.6185 -0.0963 -0.6485
 9564SOL    HW140328   0.369   3.650  14.100 -1.1362 -0.4291 -1.6330
 9564SOL    HW240329   0.282   3.518  14.119 -0.3308 -1.5984  2.3513
 9565SOL     OW40330   3.038   1.009   4.623 -0.1262  0.7580  0.4704
 9565SOL    HW140331   3.016   1.001   4.530 -3.0064  0.6550  1.1668
 9565SOL    HW240332   2.949   1.024   4.656  0.6334  0.2655  2.7536
 9566SOL     OW40333   1.349   1.506   8.110  0.5384 -0.2297  0.1509
 9566SOL    HW140334   1.392   1.581   8.070  1.9301 -1.5243 -0.7666
 9566SOL    HW240335   1.424   1.458   8.144  2.0503  0.4367 -2.2840
 9567SOL     OW40336   3.086   4.386  11.436  0.2618  0.2743  0.7599
 9567SOL    HW140337   3.022   4.408  11.369  0.9001 -0.0632  0.0396
 9567SOL    HW240338   3.033   4.325  11.487  2.1956  0.9498  3.5994
 9568SOL     OW40339   1.333   4.356   6.898  0.1562  0.2497 -0.2647
 9568SOL    HW140340   1.298   4.268   6.884 -1.5269  1.0390 -1.0396
 9568SOL    HW240341   1.323   4.397   6.812 -0.9851 -0.9639 -0.7145
 9569SOL     OW40342   0.635   2.329   7.893  0.3900  0.2819 -0.4309
 9569SOL    HW140343   0.635   2.271   7.968  1.3808  0.7697 -0.0611
 9569SOL    HW240344   0.547   2.362   7.910 -0.4672 -2.4795  0.3585
   4.73510   4.73510  17.73927
