Membrane in water
40344
    1TMC1    C1    1   2.389   3.667  11.542  0.2579 -0.1269  0.5439
    1TMC1    C2    2   2.451   3.790  11.560  0.2242 -0.0780 -0.1566
    1TMC1    C3    3   2.578   3.805  11.507  0.7512  0.1956 -0.9410
    1TMC1    C4    4   2.436   3.572  11.458 -0.4669  0.3046 -0.1072
    1TMC1    C5    5   2.563   3.598  11.407 -0.1094 -0.0552 -0.1738
    1TMC1    C6    6   2.633   3.714  11.425  0.0820 -0.5218 -0.3650
    1TMC1     C    7   2.266   3.646  11.612  0.1362  0.2920  0.1684
    1TMC1     O    8   2.228   3.734  11.689  0.2128 -0.2474 -0.0343
    1TMC1     H    9   2.418   3.867  11.629 -2.5527 -2.4155  1.1272
    1TMC1    H1   10   2.407   3.471  11.430  0.6855 -0.6070  2.0317
    1TMC1    H2   11   2.734   3.721  11.387  0.7176  2.8749  1.8935
    1TMC1    C7   12   2.607   3.521  11.297  0.4349  0.3460  0.2357
    1TMC1    C8   13   2.652   3.920  11.525 -0.5107 -0.2096  0.0329
    1TMC1    O1   14   2.589   3.402  11.289 -0.2396 -0.0875  0.1138
    1TMC1    O2   15   2.647   3.987  11.628 -0.2681  0.0000  0.0036
    1TMC1    O3   16   2.612   3.603  11.185  0.3833  0.1747  0.0993
    1TMC1    H3   17   2.596   3.699  11.194 -0.5847 -0.0865  1.0669
    1TMC1    O5   18   2.682   3.956  11.398 -0.5370 -0.1881 -0.1545
    1TMC1    H5   19   2.646   3.906  11.321  1.2957  2.1859 -2.5470
    2MPD2     C   20   1.861   3.339  11.726 -0.7132 -0.0016 -0.2965
    2MPD2    C1   21   1.899   3.453  11.782 -0.5002 -0.1767 -0.8323
    2MPD2    C2   22   2.000   3.530  11.729 -0.4851 -0.0443  0.5464
    2MPD2    C3   23   2.080   3.474  11.626 -0.6488  0.1271  0.3921
    2MPD2    C4   24   2.048   3.350  11.579 -0.4785 -0.2852 -0.1967
    2MPD2    C5   25   1.945   3.281  11.634  0.2782 -0.3697  0.0844
    2MPD2     H   26   2.020   3.630  11.767 -1.5175  0.2245  0.3981
    2MPD2    H1   27   2.107   3.296  11.506 -1.1178  0.4370 -1.2447
    2MPD2    H2   28   1.774   3.284  11.760  0.6775 -1.2954  1.0954
    2MPD2    H3   29   1.911   3.187  11.592 -1.9358  0.3294  0.3091
    2MPD2     N   30   2.196   3.534  11.570  0.3232  0.8711 -0.1624
    2MPD2    H5   31   2.240   3.479  11.496 -0.8117 -0.5142  0.1834
    2MPD2    N1   32   1.828   3.509  11.888  0.0283 -0.5396  0.6199
    2MPD2    H7   33   1.839   3.606  11.918 -1.1161 -0.8094  1.9207
    3TMC1    C1   34   1.539   0.148  10.304 -0.2778  0.4768  0.0283
    3TMC1    C2   35   1.635   0.213  10.229 -0.3925 -0.7381 -0.2494
    3TMC1    C3   36   1.668   0.158  10.105  0.1003 -0.4069  0.3077
    3TMC1    C4   37   1.484   0.032  10.264 -0.3334  0.8109 -0.3939
    3TMC1    C5   38   1.507   4.720  10.139  0.3087  0.7016  0.0533
    3TMC1    C6   39   1.605   0.044  10.057 -0.6745 -0.2808  0.4844
    3TMC1     C   40   1.513   0.183  10.443  0.0642 -0.9803  0.0920
    3TMC1     O   41   1.502   0.077  10.509 -0.6841  0.4760 -0.0815
    3TMC1     H   42   1.689   0.302  10.260 -0.8972 -1.1879  1.9139
    3TMC1    H1   43   1.412   4.722  10.332 -1.8484  1.0771 -1.8322
    3TMC1    H2   44   1.611   0.019   9.952 -2.1274  1.0050  0.0881
    3TMC1    C7   45   1.444   4.599  10.089  0.8221 -0.3223  0.2904
    3TMC1    C8   46   1.783   0.199  10.028 -0.3310  0.0016 -0.8922
    3TMC1    O1   47   1.412   4.507  10.161  0.4591 -0.2789  0.2401
    3TMC1    O2   48   1.811   0.313  10.028 -0.1676  0.5471 -0.1201
    3TMC1    O3   49   1.367   4.639   9.993  0.2826 -0.4371  0.7105
    3TMC1    H3   50   1.397   4.703   9.925  1.8155  0.5840  2.3782
    3TMC1    O5   51   1.866   0.091  10.021  0.2157  0.0639 -0.8202
    3TMC1    H5   52   1.841   0.016  10.078  3.4380 -0.4052 -0.0383
    4MPD2     C   53   1.448   0.492  10.836  0.1420 -0.3097  0.4732
    4MPD2    C1   54   1.465   0.573  10.724 -0.7202  1.0034  0.2931
    4MPD2    C2   55   1.503   0.510  10.603  0.5861 -0.1052  0.6290
    4MPD2    C3   56   1.510   0.375  10.598  0.1378 -0.1744  0.0386
    4MPD2    C4   57   1.480   0.296  10.704  0.3901 -0.2006  0.1298
    4MPD2    C5   58   1.451   0.363  10.819  0.0091  0.2940  0.6248
    4MPD2     H   59   1.516   0.564  10.510  1.2353  0.8895  1.2886
    4MPD2    H1   60   1.467   0.189  10.690 -2.0878 -0.1557  1.8828
    4MPD2    H2   61   1.416   0.528  10.933 -2.6859  0.0325 -0.5816
    4MPD2    H3   62   1.427   0.296  10.901  0.7964 -0.7866 -0.0233
    4MPD2     N   63   1.529   0.316  10.471  0.9397  0.2738  0.0969
    4MPD2    H5   64   1.557   0.378  10.396 -0.4124 -0.3371 -0.9134
    4MPD2    N1   65   1.449   0.711  10.725  0.5087  0.3887  0.1156
    4MPD2    H7   66   1.488   0.766  10.649 -0.9023  1.1073 -0.0733
    5TCq1    O1   67   2.241   1.311  12.000 -0.5273  0.2802 -0.0925
    5TCq1    C1   68   2.260   1.354  11.876 -0.1252 -0.3662 -0.4860
    5TCq1    O2   69   2.234   1.290  11.778 -0.4603 -0.1173  0.2918
    5TCq1    C2   70   2.290   1.498  11.868  0.1558 -0.4795  0.0284
    5TCq1    C3   71   2.246   1.570  11.976  0.0094 -0.2666  0.0101
    5TCq1    C4   72   2.192   1.693  11.956  0.2299 -0.6225  0.8564
    5TCq1    C5   73   2.180   1.748  11.830 -0.0278 -0.2016  0.0371
    5TCq1    C6   74   2.237   1.676  11.730 -0.2760 -0.2092 -0.5068
    5TCq1    C7   75   2.284   1.548  11.745 -0.6855 -0.8084 -0.3071
    5TCq1    C8   76   2.280   1.739  11.604  0.3330 -0.2205 -0.3858
    5TCq1    O4   77   2.332   1.668  11.518 -0.8042 -0.5061 -0.1173
    5TCq1    C9   78   2.147   1.770  12.064 -0.4419 -0.3921 -0.3587
    5TCq1    O5   79   2.153   1.711  12.177 -0.0618 -0.2926 -0.0335
    5TCq1    O6   80   2.089   1.876  12.042  0.1944 -0.4057  0.2669
    5TCq1    H1   81   2.287   1.367  12.066  0.8296 -0.2334 -0.6031
    5TCq1    H2   82   2.260   1.534  12.078  0.2591 -3.9305 -1.3006
    5TCq1    H3   83   2.138   1.846  11.813 -0.1330  0.2217  2.7069
    5TCq1    H4   84   2.329   1.484  11.670 -0.3267 -2.7263  1.5580
    6MPD2     C   85   2.189   2.079  11.503 -0.3044 -0.0552  0.7294
    6MPD2    C1   86   2.245   1.957  11.492  0.7309  0.0209 -0.2171
    6MPD2    C2   87   2.282   1.924  11.367  0.6501  0.4443 -0.0585
    6MPD2    C3   88   2.261   1.999  11.256 -0.3838  0.2355  0.1793
    6MPD2    C4   89   2.197   2.120  11.270 -0.2381  0.4632  0.0657
    6MPD2    C5   90   2.161   2.156  11.392 -0.2453  0.1956  0.0641
    6MPD2     H   91   2.334   1.830  11.353 -1.1845 -0.7023  0.8472
    6MPD2    H1   92   2.176   2.194  11.194 -0.0579 -0.6797 -1.0996
    6MPD2    H2   93   2.147   2.109  11.598 -0.3994 -0.5494  0.8431
    6MPD2    H3   94   2.119   2.254  11.407  0.4965  0.9298 -2.8328
    6MPD2     N   95   2.305   1.946  11.135  0.0794 -0.7109  0.0505
    6MPD2    H5   96   2.340   1.851  11.139  1.9090  0.0490  2.2679
    6MPD2    N1   97   2.247   1.868  11.602 -0.2071  0.5047 -0.4752
    6MPD2    H7   98   2.212   1.904  11.690 -0.9905  2.2470 -1.4946
    7TCq1    O1   99   4.212   1.278  13.246  0.0053  0.0525  0.3771
    7TCq1    C1  100   4.252   1.192  13.143 -0.0582  0.0076  0.8855
    7TCq1    O2  101   4.273   1.222  13.028 -0.3549 -0.0032 -0.4863
    7TCq1    C2  102   4.218   1.062  13.193 -0.1095 -0.6882 -1.0109
    7TCq1    C3  103   4.154   0.980  13.106 -0.6740 -1.0845  0.0309
    7TCq1    C4  104   4.135   0.849  13.137  0.9239 -1.0078 -0.1971
    7TCq1    C5  105   4.167   0.806  13.269 -0.7731  0.1395  0.5101
    7TCq1    C6  106   4.224   0.894  13.346 -0.1772  0.2575 -0.4862
    7TCq1    C7  107   4.258   1.024  13.318 -0.3205  0.6184 -0.2023
    7TCq1    C8  108   4.218   0.862  13.484  0.3538  0.3651  0.7708
    7TCq1    O4  109   4.217   0.739  13.502 -0.4435 -0.3447  0.3703
    7TCq1    C9  110   4.077   0.761  13.039 -0.2908 -0.3509 -0.1139
    7TCq1    O5  111   4.038   0.644  13.077  0.6470 -0.2159 -0.6545
    7TCq1    O6  112   4.066   0.803  12.919  0.1879  0.2571 -0.0431
    7TCq1    H1  113   4.170   1.237  13.325 -2.5817 -2.1709 -2.1555
    7TCq1    H2  114   4.139   1.009  13.002  1.1393 -0.6279 -0.0969
    7TCq1    H3  115   4.140   0.704  13.295  0.8586  0.0471  1.8106
    7TCq1    H4  116   4.305   1.090  13.390 -0.3351 -0.0020  0.3822
    8MPD2     C  117   4.180   0.961  13.981 -0.1007 -0.9981  0.5944
    8MPD2    C1  118   4.225   0.843  13.918  0.7813  0.0714 -0.0835
    8MPD2    C2  119   4.218   0.836  13.780 -0.4124  0.7002  0.4531
    8MPD2    C3  120   4.188   0.953  13.712 -0.2127  0.1620  0.3706
    8MPD2    C4  121   4.157   1.073  13.774  0.3156 -1.3476 -0.0164
    8MPD2    C5  122   4.148   1.077  13.913 -0.2177 -0.5246 -0.5416
    8MPD2     H  123   4.260   0.752  13.727  0.2313  1.1107  0.3145
    8MPD2    H1  124   4.134   1.166  13.724 -0.2200 -2.2397 -1.4262
    8MPD2    H2  125   4.165   0.965  14.088  1.0752  1.9051  0.6544
    8MPD2    H3  126   4.131   1.172  13.963  1.0230  0.4768 -1.9929
    8MPD2     N  127   4.200   0.968  13.571  0.2139  0.0706 -0.3217
    8MPD2    H5  128   4.184   1.061  13.534 -2.1858  0.4857  1.7949
    8MPD2    N1  129   4.260   0.734  14.002  0.0564  0.3003  0.3312
    8MPD2    H7  130   4.270   0.754  14.101  2.3630 -0.1040  0.1722
    9TMC1    C1  131   2.060   4.571  11.070  0.8399 -0.3329  0.3114
    9TMC1    C2  132   2.162   4.544  10.985 -0.1103  0.0527 -0.1085
    9TMC1    C3  133   2.186   4.623  10.875 -0.8749 -0.6942 -0.0900
    9TMC1    C4  134   1.984   4.680  11.047 -0.2992  0.0433 -0.4431
    9TMC1    C5  135   2.012   0.027  10.948 -0.8111 -0.1640  0.9066
    9TMC1    C6  136   2.111   0.008  10.861  0.1955 -0.1770  0.2841
    9TMC1     C  137   2.024   4.472  11.166 -0.4803 -0.7028 -0.7151
    9TMC1     O  138   2.090   4.366  11.170  0.7062 -0.4471 -0.4730
    9TMC1     H  139   2.231   4.461  10.994 -0.3668 -0.0395  1.0489
    9TMC1    H1  140   1.887   4.681  11.096  1.4795  1.5382  3.0661
    9TMC1    H2  141   2.132   0.080  10.782 -0.3337  0.7588  0.9953
    9TMC1    C7  142   1.934   0.145  10.934 -0.5631 -0.0538  0.1286
    9TMC1    C8  143   2.320   4.640  10.822 -0.2968  0.2345  0.5300
    9TMC1    O1  144   1.890   0.197  11.033  0.1377 -0.7364  0.4971
    9TMC1    O2  145   2.345   4.617  10.704 -0.2108 -0.0616 -0.4105
    9TMC1    O3  146   1.897   0.162  10.806  0.3721 -0.1409  0.2640
    9TMC1    H3  147   1.921   0.090  10.743 -3.3041 -0.9160 -0.2482
    9TMC1    O5  148   2.352   0.012  10.892 -0.1392 -0.0903 -0.0691
    9TMC1    H5  149   2.288   0.039  10.961 -1.8792 -0.6440 -1.4485
   10MPD2     C  150   1.873   4.300  11.347 -0.5434  0.4018 -0.5805
   10MPD2    C1  151   1.875   4.434  11.359  0.6094  0.2880 -0.9027
   10MPD2    C2  152   1.824   4.491  11.466  0.0115  0.2529  0.6397
   10MPD2    C3  153   1.775   4.422  11.570  0.1829  0.0061 -0.6414
   10MPD2    C4  154   1.787   4.280  11.558  0.0277 -0.3974 -0.3546
   10MPD2    C5  155   1.833   4.225  11.447  0.0403 -0.2478  0.4178
   10MPD2     H  156   1.839   4.599  11.469  0.2664  0.2450 -0.2942
   10MPD2    H1  157   1.743   4.213  11.631  3.3406 -2.0981  0.0828
   10MPD2    H2  158   1.902   4.255  11.252  0.6053 -1.5998  0.7259
   10MPD2    H3  159   1.825   4.117  11.438 -0.9724 -0.0544 -1.0652
   10MPD2     N  160   1.742   4.478  11.696  0.0335 -0.0640  0.8256
   10MPD2    H5  161   1.728   4.409  11.770 -1.2105 -0.0087  0.6314
   10MPD2    N1  162   1.936   4.516  11.258  0.2004  0.0907 -0.1481
   10MPD2    H7  163   1.927   4.615  11.280 -2.0226 -0.3129  0.7256
   11TCq1    O1  164   2.634   0.164  14.301 -0.1307 -0.9383  0.0222
   11TCq1    C1  165   2.726   0.196  14.212  0.8311  0.9550  0.0226
   11TCq1    O2  166   2.820   0.268  14.237 -0.0994 -0.1673  0.0610
   11TCq1    C2  167   2.752   0.062  14.149 -0.0062  0.2842  0.0178
   11TCq1    C3  168   2.881   0.007  14.157  0.5348  0.4994 -0.3040
   11TCq1    C4  169   2.906   4.617  14.110 -0.1296 -0.1294 -0.5810
   11TCq1    C5  170   2.807   4.545  14.045  0.1747  0.1301 -0.9559
   11TCq1    C6  171   2.684   4.594  14.031 -0.4753  0.0796  0.2374
   11TCq1    C7  172   2.651   4.718  14.084 -0.1796 -0.8249  0.2460
   11TCq1    C8  173   2.575   4.501  14.012 -0.3012  0.2926 -0.0936
   11TCq1    O4  174   2.458   4.545  14.016  0.8351 -0.3844 -0.3013
   11TCq1    C9  175   3.042   4.569  14.097  0.1285 -0.2868  0.0380
   11TCq1    O5  176   3.127   4.655  14.124 -0.3556  0.0809 -0.5139
   11TCq1    O6  177   3.066   4.461  14.035 -0.8408 -0.1761 -0.0431
   11TCq1    H1  178   2.547   0.133  14.268  1.0889  0.8760 -4.9760
   11TCq1    H2  179   2.970   0.053  14.200  0.3306 -0.8344  1.5509
   11TCq1    H3  180   2.837   4.450  14.003  0.1007  0.1264 -1.0004
   11TCq1    H4  181   2.554   0.033  14.072 -0.1063 -0.2780  1.8031
   12MPD2     C  182   2.385   4.249  13.996  0.3570  0.0060 -0.2815
   12MPD2    C1  183   2.527   4.255  13.971 -0.4429  0.6069  0.8256
   12MPD2    C2  184   2.598   4.137  13.937  0.5342  0.0055  0.2336
   12MPD2    C3  185   2.524   4.022  13.917  0.1407  0.2061 -0.5179
   12MPD2    C4  186   2.384   4.018  13.932 -0.4140 -0.1558 -0.1721
   12MPD2    C5  187   2.317   4.129  13.968 -0.3008 -0.6551  0.6129
   12MPD2     H  188   2.707   4.139  13.937  0.5164  1.4532  1.1976
   12MPD2    H1  189   2.333   3.923  13.927 -0.0539 -0.2995 -1.2566
   12MPD2    H2  190   2.337   4.341  14.028  2.6508  0.4417  1.8977
   12MPD2    H3  191   2.210   4.124  13.985 -0.5056 -0.5043 -0.6451
   12MPD2     N  192   2.582   3.896  13.895  0.0108 -0.1319 -0.0713
   12MPD2    H5  193   2.520   3.815  13.891  0.1788 -0.3939  2.8403
   12MPD2    N1  194   2.612   4.370  13.992  0.8603  0.3266  0.0900
   12MPD2    H7  195   2.712   4.356  13.993  0.9344  0.7777 -1.4822
   13TCq1    O1  196   2.071   3.678  11.308 -0.0380  0.0174  0.2837
   13TCq1    C1  197   2.145   3.630  11.208  0.1197 -0.4908 -0.0897
   13TCq1    O2  198   2.216   3.532  11.218  0.6449  0.5645 -0.0975
   13TCq1    C2  199   2.191   3.749  11.151  0.1668 -0.1203  0.5048
   13TCq1    C3  200   2.319   3.773  11.152  0.1588  0.1792  0.0837
   13TCq1    C4  201   2.360   3.891  11.103 -0.4051 -0.3402  0.0374
   13TCq1    C5  202   2.276   3.972  11.034  0.2542 -0.3750  0.4963
   13TCq1    C6  203   2.142   3.946  11.030 -0.6483 -0.4470 -0.8618
   13TCq1    C7  204   2.094   3.829  11.084  0.0110 -0.0179 -0.1183
   13TCq1    C8  205   2.038   4.041  10.992 -0.1401 -0.4267  0.0868
   13TCq1    O4  206   1.927   4.000  11.022 -0.4440 -0.0147 -0.3669
   13TCq1    C9  207   2.495   3.928  11.120  0.1703  0.4473 -0.7120
   13TCq1    O5  208   2.570   3.849  11.184  0.3456  0.4766 -0.4340
   13TCq1    O6  209   2.529   4.044  11.086 -0.4489  0.2475 -0.0091
   13TCq1    H1  210   2.063   3.776  11.303 -1.1803 -0.0650  0.7083
   13TCq1    H2  211   2.387   3.703  11.199  1.9807  1.9457  0.0648
   13TCq1    H3  212   2.314   4.070  11.008  0.7100 -0.7701 -0.3112
   13TCq1    H4  213   1.992   3.791  11.079  0.4760 -0.7204 -4.0840
   14MPD2     C  214   2.021   4.314  10.759 -0.3359 -0.3417 -0.3076
   14MPD2    C1  215   1.979   4.241  10.867  0.1936  0.3520  0.9248
   14MPD2    C2  216   1.869   4.280  10.946 -0.4131 -0.0193 -0.2003
   14MPD2    C3  217   1.793   4.392  10.910 -0.4827  0.0182  0.6398
   14MPD2    C4  218   1.837   4.455  10.795 -0.3018 -0.4416 -0.3868
   14MPD2    C5  219   1.939   4.412  10.716 -0.3390  0.7126  0.5636
   14MPD2     H  220   1.852   4.223  11.036 -0.5109 -0.6525 -0.6218
   14MPD2    H1  221   1.783   4.543  10.761  1.2826 -0.4082 -2.8016
   14MPD2    H2  222   2.107   4.280  10.702 -0.9535  0.0180 -1.4513
   14MPD2    H3  223   1.972   4.465  10.627  0.5303 -0.5151  0.1571
   14MPD2     N  224   1.688   4.438  10.994  0.0271 -0.1162  0.0895
   14MPD2    H5  225   1.672   4.392  11.083  1.1307 -0.0447  0.3270
   14MPD2    N1  226   2.067   4.135  10.896  0.3172 -0.1463  0.2875
   14MPD2    H7  227   2.159   4.139  10.853  0.2839 -0.6818  0.1622
   15TCq1    O1  228   0.286   4.079   1.953  0.0799  0.1905 -0.0102
   15TCq1    C1  229   0.233   4.199   1.978  0.4643 -0.3528 -0.5082
   15TCq1    O2  230   0.302   4.298   1.979 -0.1065  0.5065 -0.4146
   15TCq1    C2  231   0.092   4.202   1.958  1.0364  0.2555 -0.8338
   15TCq1    C3  232   0.022   4.296   2.025  0.3142  0.3555  0.1786
   15TCq1    C4  233   4.619   4.286   2.028 -0.5667 -0.2473  0.3884
   15TCq1    C5  234   4.550   4.190   1.960 -0.2643 -0.1226 -0.3288
   15TCq1    C6  235   4.630   4.110   1.886  0.6918 -0.0283  0.0025
   15TCq1    C7  236   0.031   4.114   1.875  0.1670  0.4437 -0.4443
   15TCq1    C8  237   4.555   4.023   1.797 -0.2751 -0.5549  0.4701
   15TCq1    O4  238   4.625   3.945   1.733 -0.0992 -0.3442  0.4581
   15TCq1    C9  239   4.547   4.368   2.125 -0.0371  0.3685  1.1427
   15TCq1    O5  240   4.424   4.362   2.127  0.3327  0.5266  0.7128
   15TCq1    O6  241   4.606   4.448   2.206  0.0074  0.0220 -0.3931
   15TCq1    H1  242   0.222   4.006   1.967  0.2475 -0.1785 -1.2182
   15TCq1    H2  243   0.074   4.364   2.092  0.3467  2.8907 -2.3886
   15TCq1    H3  244   4.448   4.166   1.986 -0.7708  2.1457 -0.2443
   15TCq1    H4  245   0.087   4.033   1.829 -2.1489 -1.2578 -0.2590
   16MPD2     C  246   4.205   4.019   1.693 -0.2565 -0.0555  0.6822
   16MPD2    C1  247   4.324   3.963   1.714  0.0213  0.4331 -0.4512
   16MPD2    C2  248   4.355   3.840   1.661 -0.7800  0.3017  0.8137
   16MPD2    C3  249   4.262   3.779   1.586 -0.3922 -0.0840  0.6248
   16MPD2    C4  250   4.142   3.834   1.564  0.2836 -0.3626  0.1840
   16MPD2    C5  251   4.112   3.950   1.619 -0.0954 -0.3141  0.2753
   16MPD2     H  252   4.448   3.789   1.685 -0.5437  0.1649 -0.3442
   16MPD2    H1  253   4.060   3.801   1.502  2.6788 -2.5651 -1.7655
   16MPD2    H2  254   4.177   4.113   1.739  0.7393 -0.0696  1.3220
   16MPD2    H3  255   4.011   3.985   1.606 -0.1597 -1.4159 -2.1797
   16MPD2     N  256   4.298   3.642   1.544  0.0287 -0.6035  0.6913
   16MPD2    H5  257   4.388   3.600   1.565  0.4138 -0.0526  0.1298
   16MPD2    N1  258   4.420   4.051   1.780 -0.8071 -0.3619 -0.3423
   16MPD2    H7  259   4.382   4.134   1.825  3.3549  1.8760 -0.9763
   17TMC1    C1  260   1.336   3.850  11.304 -0.5510  0.7951  0.7985
   17TMC1    C2  261   1.458   3.854  11.375  0.4212 -0.2428  0.1113
   17TMC1    C3  262   1.447   3.826  11.509  0.0380 -0.9703 -0.2992
   17TMC1    C4  263   1.216   3.823  11.370 -0.1101  0.5269 -0.1679
   17TMC1    C5  264   1.221   3.795  11.504  0.7747 -0.2651  0.3449
   17TMC1    C6  265   1.339   3.794  11.576  0.1820  0.4134 -0.3682
   17TMC1     C  266   1.319   3.842  11.158  0.2978  0.0091 -0.0901
   17TMC1     O  267   1.216   3.796  11.107  0.3251 -0.3211  0.2890
   17TMC1     H  268   1.555   3.864  11.328 -0.4757 -2.4066 -2.1755
   17TMC1    H1  269   1.127   3.833  11.309 -0.6123  0.0500  0.4980
   17TMC1    H2  270   1.338   3.780  11.683  0.5808 -0.4416 -0.4756
   17TMC1    C7  271   1.094   3.784  11.579  0.2437 -0.3567  0.3975
   17TMC1    C8  272   1.569   3.825  11.589 -0.0594  0.2974  0.3976
   17TMC1    O1  273   1.096   3.771  11.703 -0.1585  0.6121  0.3067
   17TMC1    O2  274   1.566   3.773  11.701 -0.0159  0.2717  0.4146
   17TMC1    O3  275   0.985   3.752  11.505 -0.1449 -0.1649 -0.2412
   17TMC1    H3  276   1.006   3.745  11.409  1.2805 -0.1948  0.0596
   17TMC1    O5  277   1.608   3.950  11.570 -0.3851 -0.5717  0.3009
   17TMC1    H5  278   1.552   3.988  11.499  2.0777  0.6883 -0.9349
   18MPD2     C  279   1.329   3.974  10.905  0.0790  0.0149 -0.3863
   18MPD2    C1  280   1.445   3.949  10.975  0.4479 -0.2760  0.9336
   18MPD2    C2  281   1.570   3.988  10.926 -0.6811 -0.0237  0.1196
   18MPD2    C3  282   1.574   4.032  10.795 -0.2132 -0.1610 -0.3212
   18MPD2    C4  283   1.455   4.050  10.728 -0.2365 -0.2366 -0.1177
   18MPD2    C5  284   1.337   4.035  10.788  0.6691  0.2621  0.0173
   18MPD2     H  285   1.662   3.967  10.980  0.0326  0.0625 -1.0728
   18MPD2    H1  286   1.456   4.097  10.630  1.5403  1.3641  0.6625
   18MPD2    H2  287   1.231   3.975  10.952  0.3929 -0.4593  0.2898
   18MPD2    H3  288   1.246   4.064  10.736 -0.3383 -1.4393  0.8226
   18MPD2     N  289   1.707   4.040  10.749 -0.0038 -0.7146  0.3209
   18MPD2    H5  290   1.786   4.033  10.812 -0.0520  1.5939  0.6379
   18MPD2    N1  291   1.431   3.899  11.102 -0.4967 -0.1809  0.4190
   18MPD2    H7  292   1.514   3.913  11.159 -0.2184  1.2208 -0.3334
   19TMC2    C1  293   3.621   4.684  13.895  0.0819  0.1242  0.7664
   19TMC2    C2  294   3.598   0.012  13.776 -0.3686  0.2090 -0.0983
   19TMC2    C3  295   3.647   4.686  13.666 -0.3327 -0.5791  0.5723
   19TMC2    C4  296   3.678   4.563  13.896  0.0583  0.3508  0.7346
   19TMC2    C5  297   3.732   4.500  13.783 -0.0796  0.0337 -0.9222
   19TMC2    C6  298   3.712   4.566  13.664  0.4310 -0.1777 -0.3330
   19TMC2     C  299   3.557   0.007  14.007 -0.2007 -0.0427 -0.2391
   19TMC2     O  300   3.452   0.071  13.994  0.2535  0.3620 -0.2030
   19TMC2     H  301   3.560   0.113  13.785 -0.0072  0.2438  1.0605
   19TMC2    H1  302   3.689   4.521  13.996 -0.6231 -0.3909  0.4983
   19TMC2    H2  303   3.745   4.529  13.567  0.3910 -1.0794 -0.0003
   19TMC2    C7  304   3.799   4.373  13.794  0.2844 -0.1640 -0.1444
   19TMC2    C8  305   3.646   0.029  13.540  0.6507 -0.3009 -0.1557
   19TMC2    O1  306   3.804   4.316  13.900  0.5164 -0.0342  0.2555
   19TMC2    O2  307   3.725   0.011  13.450 -0.0226  0.5427  0.3832
   19TMC2    O5  308   3.524   0.087  13.533 -0.0406  0.2520  0.3698
   19TMC2    H5  309   3.470   0.062  13.611 -1.0015 -0.0861 -0.3988
   20MPD2     C  310   3.503   0.162  14.257  0.1424 -0.0023 -0.7454
   20MPD2    C1  311   3.604   0.070  14.241  0.3503  0.2514  0.0019
   20MPD2    C2  312   3.690   0.048  14.341 -0.0474 -0.1353 -0.6781
   20MPD2    C3  313   3.674   0.100  14.468  0.2960  0.2453 -0.1183
   20MPD2    C4  314   3.571   0.192  14.486  0.3056 -0.0804 -0.2283
   20MPD2    C5  315   3.487   0.220  14.380  0.2822 -0.0225 -0.3753
   20MPD2     H  316   3.782   4.726  14.326 -0.1172  0.3826 -3.0218
   20MPD2    H1  317   3.556   0.251  14.576  0.4496 -2.3156  1.2441
   20MPD2    H2  318   3.433   0.195  14.181  0.4481  1.1354 -0.5349
   20MPD2    H3  319   3.413   0.298  14.393 -1.0720 -1.3984  0.1736
   20MPD2     N  320   3.763   0.064  14.570  0.3476  0.2687 -0.2991
   20MPD2    H5  321   3.769   0.123  14.652 -0.5190 -1.1978  0.8062
   20MPD2    N1  322   3.634   0.004  14.119  0.6345  0.2701 -0.3463
   20MPD2    H7  323   3.720   4.684  14.117 -2.2228 -4.4459  1.6068
   21TMC2    C1  324   1.774   0.620  13.909 -0.1431  0.3409  0.5891
   21TMC2    C2  325   1.693   0.555  13.820 -0.3191 -0.0152 -0.1645
   21TMC2    C3  326   1.565   0.533  13.856  1.3310  0.5782  0.1429
   21TMC2    C4  327   1.737   0.641  14.036  0.0686  0.3774  1.4257
   21TMC2    C5  328   1.605   0.607  14.068  0.1207  0.3431  0.3833
   21TMC2    C6  329   1.518   0.555  13.982 -0.1243  0.5871  0.1124
   21TMC2     C  330   1.896   0.537  13.915  0.1974 -0.1068 -0.7528
   21TMC2     O  331   1.893   0.425  13.869  0.1039 -0.1822 -0.2587
   21TMC2     H  332   1.723   0.526  13.720 -0.9455 -1.1941 -0.0052
   21TMC2    H1  333   1.801   0.698  14.102  1.7562 -0.8304  0.8307
   21TMC2    H2  334   1.417   0.522  14.001  0.2885 -0.7176 -0.0117
   21TMC2    C7  335   1.565   0.644  14.197  0.4304 -0.9158  0.0594
   21TMC2    C8  336   1.472   0.479  13.759 -0.1021 -0.3869 -0.2657
   21TMC2    O1  337   1.651   0.633  14.285  0.3479  0.2182  0.8143
   21TMC2    O2  338   1.495   0.396  13.671 -0.2613  0.0536 -0.3225
   21TMC2    O5  339   1.364   0.561  13.758 -0.6309  0.1588  0.1204
   21TMC2    H5  340   1.367   0.636  13.820 -0.8883  0.7696 -0.6129
   22MPD2     C  341   2.327   0.397  14.143  0.0532  0.0515 -0.2139
   22MPD2    C1  342   2.213   0.330  14.120  0.4453 -0.5876 -0.1910
   22MPD2    C2  343   2.111   0.394  14.057 -0.0140 -0.4029 -0.5478
   22MPD2    C3  344   2.117   0.530  14.031  1.1046  1.0768  0.3494
   22MPD2    C4  345   2.225   0.607  14.075 -0.3195 -0.5277 -0.0334
   22MPD2    C5  346   2.327   0.536  14.131  0.0136 -0.0488  0.1654
   22MPD2     H  347   2.014   0.345  14.046  1.0275 -2.1333 -2.0714
   22MPD2    H1  348   2.223   0.714  14.057 -1.5062 -0.4670  0.4682
   22MPD2    H2  349   2.412   0.354  14.195 -0.0534 -0.4822 -0.4766
   22MPD2    H3  350   2.408   0.589  14.181 -0.0479  0.7689 -0.6120
   22MPD2     N  351   2.000   0.596  13.986  0.0340  0.1142  0.1113
   22MPD2    H5  352   1.999   0.697  13.974 -1.2688 -0.0129 -0.7678
   22MPD2    N1  353   2.184   0.195  14.153  0.0800 -0.2289  0.0133
   22MPD2    H7  354   2.092   0.156  14.137  0.4965 -0.5299 -1.6305
   23TMC2    C1  355   2.539   1.304  14.609  0.4409 -0.1629 -0.1213
   23TMC2    C2  356   2.642   1.290  14.517  0.3051 -0.0873 -0.0952
   23TMC2    C3  357   2.630   1.196  14.416  0.2525  0.5690  0.4094
   23TMC2    C4  358   2.423   1.221  14.598 -0.6479 -0.5645  0.5958
   23TMC2    C5  359   2.431   1.125  14.500 -0.5801 -0.1056 -0.6056
   23TMC2    C6  360   2.527   1.111  14.411 -0.3898 -0.1031  0.4299
   23TMC2     C  361   2.563   1.344  14.750  0.2801 -0.2592 -0.5070
   23TMC2     O  362   2.489   1.303  14.838 -0.6127 -0.5266 -0.0686
   23TMC2     H  363   2.738   1.340  14.520 -0.2076  1.0787 -2.7424
   23TMC2    H1  364   2.339   1.238  14.665 -1.1168 -0.9665  0.1107
   23TMC2    H2  365   2.511   1.036  14.334 -1.6427  1.9536 -1.3089
   23TMC2    C7  366   2.340   1.010  14.491 -0.5498 -0.2682  0.6354
   23TMC2    C8  367   2.724   1.195  14.310  0.2579 -0.3796 -0.2275
   23TMC2    O1  368   2.384   0.898  14.463 -0.6173  0.2733 -0.3259
   23TMC2    O2  369   2.781   1.298  14.282  0.1856  0.4541  0.1600
   23TMC2    O5  370   2.709   1.092  14.225 -0.5035  0.6585 -0.1168
   23TMC2    H5  371   2.659   1.014  14.259  0.4959 -0.5013 -1.3148
   24MPD2     C  372   2.899   1.535  15.083  0.1899  0.8581  0.0303
   24MPD2    C1  373   2.797   1.442  15.109 -0.2328  0.0557 -0.5557
   24MPD2    C2  374   2.726   1.403  14.999  0.2081 -0.7274 -0.2991
   24MPD2    C3  375   2.745   1.457  14.873 -0.2938 -0.5292 -0.5620
   24MPD2    C4  376   2.849   1.542  14.853 -0.4808  0.1745  0.0053
   24MPD2    C5  377   2.931   1.580  14.959 -0.3565 -0.2250  0.5362
   24MPD2     H  378   2.656   1.321  15.011 -0.5435  0.0410  0.6021
   24MPD2    H1  379   2.876   1.570  14.752  0.3324  4.0208  1.2870
   24MPD2    H2  380   2.965   1.580  15.156 -0.0311  2.6838 -0.8948
   24MPD2    H3  381   3.017   1.643  14.938 -0.7556  0.2626  0.3638
   24MPD2     N  382   2.678   1.421  14.753 -0.4932 -0.1421 -0.1726
   24MPD2    H5  383   2.715   1.461  14.667 -0.2556 -1.5958 -0.7568
   24MPD2    N1  384   2.777   1.379  15.235 -0.5121 -0.0978  0.0592
   24MPD2    H7  385   2.718   1.297  15.233 -0.4038 -0.1918  0.6284
   25TMC2    C1  386   1.516   3.118  11.606  0.2287 -0.2201  0.5934
   25TMC2    C2  387   1.609   3.024  11.638  0.0295  0.3913 -0.0820
   25TMC2    C3  388   1.632   3.002  11.771  0.0237 -0.1090 -0.4280
   25TMC2    C4  389   1.437   3.179  11.694  0.1229  0.2979 -0.2939
   25TMC2    C5  390   1.462   3.158  11.826 -0.7051  0.7425 -0.4712
   25TMC2    C6  391   1.558   3.071  11.866 -0.5237  0.4417  0.3273
   25TMC2     C  392   1.491   3.132  11.458 -0.0736 -0.2037  0.0757
   25TMC2     O  393   1.595   3.127  11.392 -0.0046  0.2590 -0.1565
   25TMC2     H  394   1.656   2.964  11.561  0.9829  0.0393  0.7812
   25TMC2    H1  395   1.354   3.242  11.662 -0.5493 -0.7309 -0.5562
   25TMC2    H2  396   1.595   3.078  11.968 -0.1429  0.8540  0.1622
   25TMC2    C7  397   1.401   3.239  11.931 -0.0607 -0.0696  0.0746
   25TMC2    C8  398   1.760   2.945  11.808  0.0910  0.5800  0.5575
   25TMC2    O1  399   1.419   3.198  12.043  0.2246 -0.0139 -0.1746
   25TMC2    O2  400   1.858   2.966  11.739 -0.3825 -0.2263  0.4686
   25TMC2    O5  401   1.763   2.930  11.944  0.2346 -0.4914  0.0938
   25TMC2    H5  402   1.676   2.902  11.979  0.0409 -2.3226 -1.8154
   26MPD2     C  403   1.188   3.097  11.052  0.3793  0.1828 -0.4495
   26MPD2    C1  404   1.123   3.035  11.160 -0.3037  0.0677 -0.4537
   26MPD2    C2  405   1.190   3.048  11.285  0.3600  0.6272 -0.0074
   26MPD2    C3  406   1.308   3.113  11.301 -0.0505 -0.0784  1.0216
   26MPD2    C4  407   1.370   3.179  11.194 -0.4215  0.0322  0.6007
   26MPD2    C5  408   1.302   3.170  11.076 -0.2649  0.6228 -0.9721
   26MPD2     H  409   1.140   3.014  11.375  3.5438 -1.2392  1.0479
   26MPD2    H1  410   1.463   3.231  11.213  0.0857 -0.6748  0.0557
   26MPD2    H2  411   1.134   3.108  10.959  0.9700  1.1436 -0.6662
   26MPD2    H3  412   1.348   3.229  10.997 -1.2020 -0.7828 -2.5614
   26MPD2     N  413   1.363   3.113  11.431 -0.0215  0.1324 -0.4322
   26MPD2    H5  414   1.292   3.095  11.501  0.4096 -0.4227 -0.1411
   26MPD2    N1  415   0.996   2.972  11.137 -0.1104 -0.4301  0.2375
   26MPD2    H7  416   0.962   2.984  11.042  0.1962  0.7845  0.2712
   27TMC2    C1  417   0.407   0.534  11.909 -0.2130 -0.1121  0.0272
   27TMC2    C2  418   0.303   0.619  11.873  0.3079 -0.5296 -0.4684
   27TMC2    C3  419   0.332   0.719  11.779  0.4970  0.3074 -0.4245
   27TMC2    C4  420   0.536   0.565  11.869  0.3010 -0.2614  0.2306
   27TMC2    C5  421   0.557   0.677  11.793  1.0443 -0.0963 -0.4294
   27TMC2    C6  422   0.457   0.747  11.737  0.0361  0.2100  0.4323
   27TMC2     C  423   0.389   0.436  12.014  0.4864  0.6746 -0.1588
   27TMC2     O  424   0.482   0.359  12.036  0.1412 -0.2187 -0.0877
   27TMC2     H  425   0.206   0.588  11.908  0.8052 -0.0893  1.2995
   27TMC2    H1  426   0.617   0.509  11.915  0.9472  1.5166  1.2899
   27TMC2    H2  427   0.484   0.840  11.689  1.1711 -1.2706 -1.7628
   27TMC2    C7  428   0.657   0.766  11.843 -0.3995  0.0585 -0.1740
   27TMC2    C8  429   0.223   0.770  11.698 -0.6235 -0.0929 -0.0259
   27TMC2    O1  430   0.701   0.857  11.773 -0.3111 -0.3468  0.0031
   27TMC2    O2  431   0.162   0.690  11.628  0.2291 -0.8051  0.3817
   27TMC2    O5  432   0.244   0.906  11.668 -0.6634 -0.3026 -0.2098
   27TMC2    H5  433   0.296   0.957  11.734 -0.2485 -1.2435  0.1887
   28MPD2     C  434   0.214   0.265  12.466 -0.2202  0.1067 -0.8361
   28MPD2    C1  435   0.154   0.383  12.436 -0.0175 -0.3487 -0.2800
   28MPD2    C2  436   0.182   0.453  12.316 -0.1634 -0.3818  0.0842
   28MPD2    C3  437   0.278   0.407  12.234 -0.0551  0.1800  0.4740
   28MPD2    C4  438   0.341   0.286  12.267  0.3141  0.0153  0.1170
   28MPD2    C5  439   0.302   0.214  12.376 -0.2953  0.1411  0.5307
   28MPD2     H  440   0.130   0.542  12.283  2.3806  1.6482  1.4876
   28MPD2    H1  441   0.409   0.228  12.205 -0.5143  0.9755 -1.7095
   28MPD2    H2  442   0.187   0.204  12.552 -1.1276  2.2688  0.4025
   28MPD2    H3  443   0.358   0.124  12.399  1.3312  1.3468  1.2522
   28MPD2     N  444   0.293   0.470  12.108 -0.3337 -0.6824 -0.0590
   28MPD2    H5  445   0.235   0.551  12.088  0.6527  0.3265  1.1751
   28MPD2    N1  446   0.053   0.421  12.529  0.0815 -0.1007  0.3668
   28MPD2    H7  447   0.047   0.366  12.613 -1.1728  0.9240  0.9514
   29TMC2    C1  448   0.512   3.181  13.931  1.1388  0.1900 -0.2154
   29TMC2    C2  449   0.511   3.157  14.065  0.7144 -0.2045  0.2392
   29TMC2    C3  450   0.505   3.267  14.151  0.3751 -0.2622  0.3712
   29TMC2    C4  451   0.498   3.302  13.870  0.4808 -0.3796  0.3502
   29TMC2    C5  452   0.519   3.407  13.957 -0.1136  0.4945  0.8892
   29TMC2    C6  453   0.523   3.392  14.092  0.1237  0.2157 -0.0882
   29TMC2     C  454   0.494   3.054  13.854  0.5590  0.6337  0.2277
   29TMC2     O  455   0.554   2.955  13.899  0.1906 -0.3364 -0.7539
   29TMC2     H  456   0.505   3.053  14.096 -2.2584 -0.8281 -2.5560
   29TMC2    H1  457   0.512   3.312  13.763  2.9850 -0.5203  0.6583
   29TMC2    H2  458   0.530   3.480  14.155  1.7469 -0.9938  1.4121
   29TMC2    C7  459   0.565   3.532  13.895 -0.3273  0.4851  0.1458
   29TMC2    C8  460   0.413   3.263  14.261 -0.4376 -0.5870 -0.1604
   29TMC2    O1  461   0.515   3.552  13.784  0.1293  0.1910  0.4207
   29TMC2    O2  462   0.364   3.364  14.305  0.0783 -0.1811 -0.5909
   29TMC2    O5  463   0.377   3.131  14.274  0.4834  0.2500 -0.4538
   29TMC2    H5  464   0.461   3.086  14.253  0.4921  0.5193 -0.9944
   30MPD2     C  465   0.179   2.750  13.587  0.4992 -0.5187  0.2219
   30MPD2    C1  466   0.296   2.721  13.660  0.0174 -0.3096  0.1179
   30MPD2    C2  467   0.380   2.827  13.704  0.4475  0.1735 -0.1158
   30MPD2    C3  468   0.335   2.957  13.693  0.3370  0.4244  0.4507
   30MPD2    C4  469   0.213   2.982  13.632 -0.6021 -0.1278  0.0407
   30MPD2    C5  470   0.136   2.878  13.584  0.9213  0.3690 -0.4235
   30MPD2     H  471   0.474   2.809  13.756  1.3137 -1.0462 -2.1195
   30MPD2    H1  472   0.176   3.083  13.623 -2.0000 -0.6608 -0.2030
   30MPD2    H2  473   0.104   2.678  13.554 -0.7878  0.4746  0.9592
   30MPD2    H3  474   0.051   2.901  13.520  0.1528  1.5594  1.0164
   30MPD2     N  475   0.404   3.065  13.752 -0.1837  0.5407 -0.0664
   30MPD2    H5  476   0.368   3.159  13.742  0.8144  0.8298 -1.0239
   30MPD2    N1  477   0.345   2.592  13.662  0.2256 -0.4163  0.7856
   30MPD2    H7  478   0.438   2.581  13.702  0.2556 -0.6349  0.6576
   31TMC2    C1  479   2.368   2.250  15.794 -0.3112  0.3503 -0.5010
   31TMC2    C2  480   2.286   2.352  15.825  0.2649  0.1688 -0.3002
   31TMC2    C3  481   2.247   2.376  15.958  0.2891  0.4444  0.4065
   31TMC2    C4  482   2.417   2.158  15.888 -0.2487  0.7591  0.3943
   31TMC2    C5  483   2.374   2.190  16.016 -0.5430 -0.5560  0.2183
   31TMC2    C6  484   2.301   2.297  16.058 -0.1818  0.1782  0.4459
   31TMC2     C  485   2.428   2.248  15.669  0.2093 -0.8350  0.7792
   31TMC2     O  486   2.377   2.317  15.582 -0.0256  0.6787  0.1493
   31TMC2     H  487   2.239   2.407  15.744 -3.3836  0.6922  2.1835
   31TMC2    H1  488   2.433   2.053  15.865 -0.3602  1.2555 -1.9548
   31TMC2    H2  489   2.266   2.301  16.160  2.1444 -1.9275  1.3275
   31TMC2    C7  490   2.453   2.120  16.119 -0.4646 -0.0758  0.0444
   31TMC2    C8  491   2.191   2.501  15.995  0.5353  0.0447  0.1919
   31TMC2    O1  492   2.481   2.007  16.090 -0.0910 -0.6602  0.4402
   31TMC2    O2  493   2.126   2.514  16.100 -0.2090 -0.8579  0.1235
   31TMC2    O5  494   2.250   2.598  15.920  0.0259  0.3192 -0.0966
   31TMC2    H5  495   2.328   2.573  15.867 -0.8190 -1.4958 -0.4800
   32MPD2     C  496   2.867   2.177  15.424 -0.4835  0.1244 -0.6470
   32MPD2    C1  497   2.758   2.260  15.397  0.1670  0.3545  0.1325
   32MPD2    C2  498   2.648   2.255  15.469  0.1041 -0.1774  0.4101
   32MPD2    C3  499   2.649   2.174  15.581  0.3772 -0.1436  0.2396
   32MPD2    C4  500   2.761   2.106  15.621 -0.1561  0.0042  0.2204
   32MPD2    C5  501   2.873   2.098  15.537  0.3474 -0.5726  0.0041
   32MPD2     H  502   2.559   2.313  15.450 -1.0370 -1.4379  1.8467
   32MPD2    H1  503   2.761   2.053  15.715 -1.5436 -0.2221  0.0938
   32MPD2    H2  504   2.957   2.179  15.362  0.1812  1.9681  0.3762
   32MPD2    H3  505   2.959   2.035  15.554 -0.6623 -1.5271  1.5509
   32MPD2     N  506   2.550   2.183  15.681  0.8731  0.5197 -0.3417
   32MPD2    H5  507   2.576   2.157  15.775 -1.6987  2.1744  0.8241
   32MPD2    N1  508   2.780   2.352  15.295 -0.0879 -0.1248 -0.1850
   32MPD2    H7  509   2.870   2.345  15.249 -1.0502  0.1759 -2.0961
   33TMC2    C1  510   2.322   0.093  10.115 -0.3079 -0.4502 -0.6515
   33TMC2    C2  511   2.264   0.169  10.026  0.4385  1.0323  0.0129
   33TMC2    C3  512   2.292   0.301  10.028  0.8000  0.8710 -0.8501
   33TMC2    C4  513   2.407   0.142  10.214  0.9580 -0.3804  0.3449
   33TMC2    C5  514   2.437   0.278  10.215 -0.3143 -0.7208 -0.5082
   33TMC2    C6  515   2.386   0.355  10.112  0.8498  0.2761  0.1662
   33TMC2     C  516   2.270   4.695  10.131  0.3090  0.4450  0.4150
   33TMC2     O  517   2.299   4.635  10.235 -0.0138  0.2036  0.0871
   33TMC2     H  518   2.214   0.138   9.935 -1.2403 -0.0227  1.2831
   33TMC2    H1  519   2.455   0.068  10.276 -1.2000 -1.4772  0.7022
   33TMC2    H2  520   2.416   0.459  10.098  0.1046  0.7645  2.3083
   33TMC2    C7  521   2.567   0.320  10.267 -0.4126 -0.0205  0.4814
   33TMC2    C8  522   2.250   0.387   9.921 -0.2742 -0.2304 -0.2086
   33TMC2    O1  523   2.627   0.405  10.205 -0.2110 -0.1876 -0.2243
   33TMC2    O2  524   2.198   0.336   9.824 -0.4406  0.5450  0.1348
   33TMC2    O5  525   2.244   0.524   9.954  0.0790 -0.1250 -0.0376
   33TMC2    H5  526   2.275   0.556  10.042  1.7581  0.1964 -0.7448
   34MPD2     C  527   1.936   4.324  10.041  0.1708 -0.4433 -0.2410
   34MPD2    C1  528   2.016   4.336  10.149  0.0835  0.1703 -0.0489
   34MPD2    C2  529   2.119   4.433  10.137 -0.0002  0.3957  0.0765
   34MPD2    C3  530   2.120   4.526  10.032 -0.0136  0.7185  0.8755
   34MPD2    C4  531   2.028   4.507   9.929 -0.8664 -0.6426 -0.1718
   34MPD2    C5  532   1.937   4.408   9.935 -0.0699 -0.1463  0.0641
   34MPD2     H  533   2.196   4.434  10.213 -0.0590 -1.6795  0.1747
   34MPD2    H1  534   2.018   4.570   9.841 -0.3761 -0.9131 -0.4190
   34MPD2    H2  535   1.860   4.247  10.033 -0.9488  0.7097 -0.7933
   34MPD2    H3  536   1.852   4.405   9.868  0.0812  0.0960 -0.1352
   34MPD2     N  537   2.193   4.647  10.029 -0.3197  0.5098 -0.1726
   34MPD2    H5  538   2.176   4.695   9.941 -1.9947 -1.6666 -1.0402
   34MPD2    N1  539   2.004   4.243  10.256  0.0712  0.0514 -0.4111
   34MPD2    H7  540   1.931   4.173  10.243  1.5378 -1.6009  0.1830
   35TMC2    C1  541   3.550   0.828  11.567  0.1821  0.2489  0.2286
   35TMC2    C2  542   3.422   0.876  11.554  0.2257  0.2555 -0.0261
   35TMC2    C3  543   3.319   0.785  11.563  0.2677 -0.4814 -0.8932
   35TMC2    C4  544   3.579   0.692  11.580 -0.7582  0.1650  0.5103
   35TMC2    C5  545   3.468   0.609  11.598 -0.2506 -0.3640 -0.7641
   35TMC2    C6  546   3.337   0.647  11.584  0.2342 -0.5215  0.3284
   35TMC2     C  547   3.663   0.924  11.544  0.3570  0.8368  0.7104
   35TMC2     O  548   3.633   1.027  11.481 -0.0535 -0.1301 -0.6121
   35TMC2     H  549   3.408   0.981  11.535  1.4128  0.3812 -0.2102
   35TMC2    H1  550   3.674   0.641  11.594 -1.7172 -1.5322  0.8980
   35TMC2    H2  551   3.251   0.585  11.608 -0.8493  0.7862 -0.1813
   35TMC2    C7  552   3.486   0.473  11.641  0.0418 -0.3587 -0.1323
   35TMC2    C8  553   3.189   0.829  11.566 -0.3928 -0.3405  0.4566
   35TMC2    O1  554   3.389   0.404  11.629 -0.2850 -0.0092 -0.5175
   35TMC2    O2  555   3.159   0.933  11.620  0.5541 -0.1337 -0.4158
   35TMC2    O5  556   3.120   0.767  11.470  0.6379  0.0587 -0.5649
   35TMC2    H5  557   3.178   0.709  11.416  1.0617  0.6292 -0.7219
   36MPD2     C  558   4.134   1.109  11.636 -0.1786 -0.9664  0.2173
   36MPD2    C1  559   4.127   0.984  11.699 -0.1685 -0.4121  0.6106
   36MPD2    C2  560   4.012   0.906  11.682  0.9806 -0.7934  0.2490
   36MPD2    C3  561   3.903   0.959  11.611 -0.5642  0.6157 -0.1861
   36MPD2    C4  562   3.918   1.075  11.536 -0.0914  0.4897 -0.1122
   36MPD2    C5  563   4.037   1.143  11.551 -0.6747 -0.8294  1.0360
   36MPD2     H  564   4.009   0.807  11.726  1.3127  0.1545  2.4049
   36MPD2    H1  565   3.849   1.119  11.467  2.1700  2.8675 -0.8564
   36MPD2    H2  566   4.206   1.186  11.660 -0.7471  0.4249 -2.5955
   36MPD2    H3  567   4.044   1.241  11.505 -1.2515 -1.3122 -0.0759
   36MPD2     N  568   3.777   0.886  11.611 -0.2123 -0.1422  0.7372
   36MPD2    H5  569   3.760   0.806  11.671  1.1211 -1.3735 -0.5350
   36MPD2    N1  570   4.230   0.949  11.787 -0.1741  0.0193 -0.0137
   36MPD2    H7  571   4.287   1.024  11.825  1.3754 -0.5500 -1.2198
   37TMC2    C1  572   1.817   0.687  11.390  0.3731  0.1687 -0.4333
   37TMC2    C2  573   1.864   0.577  11.325  0.2790 -0.1612 -0.1165
   37TMC2    C3  574   1.966   0.597  11.239  0.7679 -0.0125  0.4678
   37TMC2    C4  575   1.870   0.811  11.370  0.0476 -0.3036  0.4114
   37TMC2    C5  576   1.976   0.830  11.280 -0.3117 -0.3497  0.0381
   37TMC2    C6  577   2.020   0.722  11.217 -0.8157  0.2634 -0.0766
   37TMC2     C  578   1.714   0.670  11.494 -0.2168 -0.1113  0.1387
   37TMC2     O  579   1.654   0.567  11.491 -0.9111  0.6122 -0.2992
   37TMC2     H  580   1.810   0.483  11.316 -0.5649  0.4962 -1.9073
   37TMC2    H1  581   1.829   0.900  11.417  0.2088  0.5286 -1.0461
   37TMC2    H2  582   2.105   0.723  11.149 -1.5282 -1.7349 -0.9905
   37TMC2    C7  583   2.009   0.967  11.242 -0.3714 -0.4037  0.1648
   37TMC2    C8  584   2.029   0.479  11.190  0.9228 -0.1291 -0.2518
   37TMC2    O1  585   1.944   1.054  11.299  1.0948  0.0921 -0.3881
   37TMC2    O2  586   2.090   0.477  11.083  0.9360 -0.7535 -0.5388
   37TMC2    O5  587   2.052   0.394  11.286 -0.8147 -0.3279  0.3139
   37TMC2    H5  588   2.019   0.434  11.370 -1.3615  0.2582 -0.1782
   38MPD2     C  589   1.386   0.890  11.812  0.1269 -0.0950  0.4045
   38MPD2    C1  590   1.508   0.956  11.822 -0.0880  0.5020 -0.0732
   38MPD2    C2  591   1.622   0.913  11.753 -0.4419  0.2910 -0.0984
   38MPD2    C3  592   1.608   0.810  11.662  0.2547 -0.2790  0.5205
   38MPD2    C4  593   1.481   0.750  11.653  0.4301 -0.0272 -0.4175
   38MPD2    C5  594   1.373   0.786  11.726  0.1457 -0.3478 -0.1539
   38MPD2     H  595   1.716   0.963  11.772 -1.0132  1.9915 -1.6824
   38MPD2    H1  596   1.464   0.680  11.572  0.9340  0.4650 -0.9461
   38MPD2    H2  597   1.303   0.915  11.877  0.7093  2.6070  0.0975
   38MPD2    H3  598   1.276   0.747  11.698 -0.2149 -0.2109  0.8905
   38MPD2     N  599   1.716   0.773  11.585  0.0953 -0.0853 -0.0194
   38MPD2    H5  600   1.801   0.825  11.602 -0.6214  0.6179  1.3534
   38MPD2    N1  601   1.543   1.058  11.914  0.3757  0.0777  0.1088
   38MPD2    H7  602   1.637   1.097  11.919  0.6922 -0.6001 -0.7291
   39TMC2    C1  603   0.045   2.416   1.901 -0.0916 -0.6556  0.6660
   39TMC2    C2  604   0.012   2.287   1.864  0.1818  0.1510  0.0036
   39TMC2    C3  605   0.115   2.208   1.820 -1.0606 -0.9551 -0.1386
   39TMC2    C4  606   0.173   2.460   1.900  0.7437  0.2722 -0.0000
   39TMC2    C5  607   0.270   2.385   1.844  0.1190  0.0242 -0.0016
   39TMC2    C6  608   0.241   2.254   1.804 -0.0935 -0.7853 -0.0332
   39TMC2     C  609   4.683   2.508   1.957 -0.7860  0.0524  0.1266
   39TMC2     O  610   4.720   2.583   2.049 -0.4296 -0.2007 -0.4944
   39TMC2     H  611   4.648   2.245   1.889 -0.2189  1.0390 -0.0617
   39TMC2    H1  612   0.199   2.562   1.928 -1.2920  2.2606 -5.3117
   39TMC2    H2  613   0.323   2.190   1.772  0.4908  0.1635 -0.4144
   39TMC2    C7  614   0.404   2.429   1.867 -0.4087  0.0620 -0.4133
   39TMC2    C8  615   0.077   2.084   1.757 -0.8556 -0.6629 -0.0595
   39TMC2    O1  616   0.493   2.345   1.882 -0.5508 -0.0572 -0.0480
   39TMC2    O2  617   4.703   2.026   1.790 -0.1471  0.5717 -0.6297
   39TMC2    O5  618   0.103   2.113   1.632  0.2030  0.2377 -0.0395
   39TMC2    H5  619   0.191   2.151   1.615 -0.6326  1.0446 -2.5647
   40MPD2     C  620   4.444   2.660   2.039  0.0179 -0.4206  0.0845
   40MPD2    C1  621   4.465   2.609   1.913 -0.0484  0.4255  0.7125
   40MPD2    C2  622   4.370   2.633   1.813 -0.1554 -0.7830 -0.2385
   40MPD2    C3  623   4.268   2.733   1.835 -0.0399  0.2679 -0.3502
   40MPD2    C4  624   4.249   2.777   1.963  0.7215 -0.2152 -0.5924
   40MPD2    C5  625   4.341   2.744   2.063 -0.2566  0.4374  0.6377
   40MPD2     H  626   4.382   2.589   1.715 -0.9873  0.4311 -0.8961
   40MPD2    H1  627   4.188   2.862   1.991 -0.7319 -1.6083  0.4559
   40MPD2    H2  628   4.503   2.628   2.123  0.3269 -0.0946 -0.0116
   40MPD2    H3  629   4.320   2.791   2.159 -2.4615 -0.5402  0.6306
   40MPD2     N  630   4.178   2.783   1.741 -0.3941 -0.4731  0.2163
   40MPD2    H5  631   4.116   2.859   1.768 -1.7027 -1.7571  0.8124
   40MPD2    N1  632   4.567   2.509   1.889  0.4151  0.1631  0.1639
   40MPD2    H7  633   4.561   2.479   1.793 -1.7293  1.1121  0.0014
   41TMC2    C1  634   3.350   0.826  13.710  0.2230  0.3542 -0.2315
   41TMC2    C2  635   3.305   0.718  13.632 -0.2150 -0.2645  0.8433
   41TMC2    C3  636   3.337   0.717  13.497  0.2868 -0.3533 -0.5155
   41TMC2    C4  637   3.436   0.918  13.657 -0.2838 -0.0983  0.3580
   41TMC2    C5  638   3.460   0.915  13.523  0.4131 -0.0092 -0.3972
   41TMC2    C6  639   3.404   0.820  13.443  0.6346  0.2397 -0.2030
   41TMC2     C  640   3.339   0.808  13.856  0.0629  0.8279 -0.5224
   41TMC2     O  641   3.303   0.702  13.898  0.2144 -0.3036 -0.6489
   41TMC2     H  642   3.248   0.641  13.684 -1.2542  0.1095  0.2670
   41TMC2    H1  643   3.473   0.998  13.720 -1.0002  0.0154  0.6382
   41TMC2    H2  644   3.440   0.805  13.341  0.1513  0.3867 -0.3962
   41TMC2    C7  645   3.534   1.017  13.466 -0.8117  0.2596  0.0823
   41TMC2    C8  646   3.270   0.639  13.402  0.9452 -0.2899  0.3982
   41TMC2    O1  647   3.550   1.112  13.542  0.4162  0.5766 -0.1118
   41TMC2    O2  648   3.264   0.664  13.283 -0.2688  0.2276 -0.0684
   41TMC2    O5  649   3.196   0.542  13.458  0.8837  0.2475 -0.1315
   41TMC2    H5  650   3.157   0.560  13.546  2.5812  0.0141  0.6806
   42MPD2     C  651   3.318   0.844  14.150  0.1721  0.1399 -0.4909
   42MPD2    C1  652   3.349   0.944  14.059 -0.7829 -0.2525 -0.8717
   42MPD2    C2  653   3.396   1.066  14.105 -0.5537 -0.4054 -0.6097
   42MPD2    C3  654   3.414   1.083  14.245 -0.6555  0.2570 -0.4375
   42MPD2    C4  655   3.382   0.985  14.334 -0.1343  0.0410 -0.0897
   42MPD2    C5  656   3.340   0.864  14.284  0.8475  0.2787 -0.2479
   42MPD2     H  657   3.431   1.139  14.033 -1.0102  0.4062 -0.0064
   42MPD2    H1  658   3.391   0.997  14.441  1.4015 -0.1221 -0.2013
   42MPD2    H2  659   3.275   0.749  14.120  1.9043 -1.0411  0.8393
   42MPD2    H3  660   3.317   0.786  14.354  3.2736  1.8675  2.3244
   42MPD2     N  661   3.469   1.202  14.297  0.3748  0.7513 -0.1701
   42MPD2    H5  662   3.467   1.224  14.396 -0.0745  1.8759 -0.4199
   42MPD2    N1  663   3.352   0.926  13.920 -0.0214 -0.4055 -0.5678
   42MPD2    H7  664   3.374   1.010  13.868 -0.2590 -0.3701 -0.6103
   43TMC2    C1  665   0.298   4.505   1.339 -0.1080 -0.8895  1.0782
   43TMC2    C2  666   0.196   4.585   1.377  0.4263  0.2630  0.3098
   43TMC2    C3  667   0.216   4.678   1.479 -0.8657  0.5439 -0.1958
   43TMC2    C4  668   0.418   4.509   1.406 -0.4233  0.0016  0.6164
   43TMC2    C5  669   0.437   4.602   1.509  0.4533 -0.1319 -0.9287
   43TMC2    C6  670   0.338   4.694   1.540 -0.0669 -0.0383 -0.4435
   43TMC2     C  671   0.283   4.407   1.232  0.4691 -0.3600  0.6025
   43TMC2     O  672   0.378   4.345   1.200 -0.1131  0.0518  0.5466
   43TMC2     H  673   0.103   4.584   1.320  0.5301 -3.3304  0.1965
   43TMC2    H1  674   0.505   4.457   1.366 -0.9741 -1.0110  0.7500
   43TMC2    H2  675   0.354   0.046   1.605  0.1474 -1.0650  0.8368
   43TMC2    C7  676   0.573   4.636   1.547 -0.3907  0.2010  0.8221
   43TMC2    C8  677   0.104   0.027   1.520  0.2919 -0.0449  0.1781
   43TMC2    O1  678   0.658   4.603   1.464 -0.0075 -0.4538 -0.0758
   43TMC2    O2  679   4.725   0.010   1.470  0.0911  0.0381 -0.4300
   43TMC2    O5  680   0.119   0.054   1.651  0.1509 -0.5172 -0.3050
   43TMC2    H5  681   0.204   0.056   1.699  0.0862  1.1554 -0.2396
   44MPD2     C  682   4.705   4.034   1.058  0.1158  0.4542 -0.1363
   44MPD2    C1  683   0.104   4.039   1.070  1.1502  0.0444  0.1605
   44MPD2    C2  684   0.169   4.160   1.114  0.3867 -0.7360  0.5216
   44MPD2    C3  685   0.098   4.274   1.137  0.6334  0.4158 -0.7717
   44MPD2    C4  686   4.693   4.263   1.118 -0.0738  0.1389  0.1059
   44MPD2    C5  687   4.631   4.143   1.087 -0.0363 -0.1552 -0.8896
   44MPD2     H  688   0.276   4.159   1.133  0.5211 -2.6618 -0.3967
   44MPD2    H1  689   4.634   4.354   1.123  1.2976  0.9894  1.0604
   44MPD2    H2  690   4.661   3.943   1.018 -0.7881  0.7760  0.1564
   44MPD2    H3  691   4.524   4.136   1.072 -0.2416  0.7499  0.1110
   44MPD2     N  692   0.155   4.393   1.192 -0.1663 -0.2693 -0.2050
   44MPD2    H5  693   0.094   4.473   1.196 -0.1315 -0.2667  0.3202
   44MPD2    N1  694   0.185   3.929   1.027  0.2951  0.2129 -0.5415
   44MPD2    H7  695   0.283   3.953   1.020  0.7400 -1.4510 -0.1471
   45TMC2    C1  696   1.143   1.050   9.507 -0.3108 -1.0254 -0.8246
   45TMC2    C2  697   1.259   0.990   9.544 -0.6847  0.4694  0.2253
   45TMC2    C3  698   1.348   1.058   9.626  0.4392 -0.4853  1.2656
   45TMC2    C4  699   1.103   1.173   9.572  0.0498 -0.1036 -0.0326
   45TMC2    C5  700   1.199   1.230   9.663 -0.1098  0.1511  0.1910
   45TMC2    C6  701   1.318   1.173   9.692 -0.4206  0.4999  0.5208
   45TMC2     C  702   1.045   0.962   9.442  0.0493  0.2729 -0.2181
   45TMC2     O  703   1.063   0.843   9.423 -0.0360 -0.8353 -0.6710
   45TMC2     H  704   1.290   0.899   9.494  0.4949  0.1662  1.4886
   45TMC2    H1  705   1.003   1.211   9.558  1.0793  2.3324 -0.8976
   45TMC2    H2  706   1.397   1.226   9.744 -1.5082  3.1680 -0.5622
   45TMC2    C7  707   1.170   1.364   9.716 -0.6670  0.1623 -1.0163
   45TMC2    C8  708   1.472   0.987   9.663 -0.1779 -0.0303 -0.9105
   45TMC2    O1  709   1.224   1.394   9.822  0.6451  0.2591  0.2188
   45TMC2    O2  710   1.522   0.894   9.600  0.1669 -0.4487  0.2925
   45TMC2    O5  711   1.488   1.025   9.789 -0.1965  0.3576 -0.3169
   45TMC2    H5  712   1.410   1.080   9.813  0.2322  1.2756 -1.0221
   46MPD2     C  713   0.790   0.857   9.328  0.1873 -0.2431 -0.1649
   46MPD2    C1  714   0.826   0.988   9.336  0.4776 -0.4870 -0.2001
   46MPD2    C2  715   0.740   1.081   9.284 -0.5791 -0.4125  0.4831
   46MPD2    C3  716   0.603   1.045   9.251  0.2837 -0.1566  0.4010
   46MPD2    C4  717   0.570   0.909   9.264  0.2471 -0.1128 -0.4574
   46MPD2    C5  718   0.665   0.811   9.295  0.2197  0.1001 -0.3664
   46MPD2     H  719   0.771   1.185   9.291 -0.6056 -0.3270 -0.5627
   46MPD2    H1  720   0.468   0.876   9.244 -0.7698  2.2206  0.7804
   46MPD2    H2  721   0.856   0.781   9.367 -0.3919 -0.4085  0.4894
   46MPD2    H3  722   0.647   0.705   9.298 -2.7815  0.7045  2.2744
   46MPD2     N  723   0.514   1.147   9.211  0.1166 -0.0747 -0.2061
   46MPD2    H5  724   0.550   1.239   9.186  1.0109 -0.3386  0.1044
   46MPD2    N1  725   0.940   1.040   9.401 -0.5501  0.1383 -0.0457
   46MPD2    H7  726   0.950   1.141   9.399 -1.6921  0.2726  0.9156
   47TMC2    C1  727   4.473   0.713   9.263  0.3435  0.1431 -0.0518
   47TMC2    C2  728   4.445   0.579   9.257  0.4443  1.1492 -0.1112
   47TMC2    C3  729   4.528   0.518   9.167 -0.7318  0.4250 -0.4328
   47TMC2    C4  730   4.573   0.780   9.190  0.6629 -0.8281  0.2605
   47TMC2    C5  731   4.641   0.711   9.097  0.4534 -0.3288  0.7814
   47TMC2    C6  732   4.626   0.577   9.093  0.1627 -0.1443 -0.2440
   47TMC2     C  733   4.426   0.765   9.389  0.1767 -0.0202  0.5338
   47TMC2     O  734   4.393   0.681   9.473 -0.4943 -0.2989  0.4065
   47TMC2     H  735   4.368   0.526   9.312 -0.1345 -0.2093 -2.2302
   47TMC2    H1  736   4.608   0.879   9.216 -1.0479 -0.2352  0.3230
   47TMC2    H2  737   4.699   0.525   9.031  1.1666  0.2152  0.6447
   47TMC2    C7  738   0.038   0.765   9.063  0.0020  0.2584  0.1660
   47TMC2    C8  739   4.501   0.375   9.141  0.1086  0.0018  0.0334
   47TMC2    O1  740   0.135   0.686   9.076 -0.2810 -0.2377  0.3902
   47TMC2    O2  741   4.473   0.298   9.232 -0.4894  0.2761 -0.2741
   47TMC2    O5  742   4.524   0.344   9.011  0.2307 -0.4047 -0.2153
   47TMC2    H5  743   4.510   0.423   8.954 -1.9897  1.6271  3.1334
   48MPD2     C  744   4.372   1.105   9.487 -1.0658 -0.6447 -0.4256
   48MPD2    C1  745   4.385   0.970   9.507  0.2579 -0.0190 -0.2419
   48MPD2    C2  746   4.388   0.924   9.641 -0.5149 -0.7949  0.5665
   48MPD2    C3  747   4.384   1.018   9.750  0.2877  0.0957 -0.2414
   48MPD2    C4  748   4.373   1.149   9.725  0.6504  0.1072 -0.2138
   48MPD2    C5  749   4.361   1.192   9.595 -0.8082 -0.0891 -0.0546
   48MPD2     H  750   4.421   0.824   9.667 -0.2914 -0.5838  1.1046
   48MPD2    H1  751   4.356   1.222   9.804  2.0055 -0.2365  0.3889
   48MPD2    H2  752   4.359   1.145   9.387 -2.8691  0.5885  0.3125
   48MPD2    H3  753   4.344   1.299   9.592 -0.8382 -0.1025 -0.3144
   48MPD2     N  754   4.380   0.977   9.884 -0.3500 -0.2012  0.3424
   48MPD2    H5  755   4.401   1.051   9.951 -1.0846  0.3816 -0.0861
   48MPD2    N1  756   4.429   0.899   9.397  0.2744  0.6256  0.5119
   48MPD2    H7  757   4.451   0.945   9.309  1.4065  1.2964  1.1456
   49TMC2    C1  758   0.760   3.867   9.969 -0.5744  0.2650 -0.5489
   49TMC2    C2  759   0.634   3.850   9.912  0.1145 -0.9901 -0.4255
   49TMC2    C3  760   0.552   3.748   9.947 -0.7192  0.5497 -0.1770
   49TMC2    C4  761   0.802   3.764  10.060 -0.2568 -0.2707 -0.7815
   49TMC2    C5  762   0.720   3.665  10.091  0.0683 -0.3465 -0.5956
   49TMC2    C6  763   0.596   3.652  10.042  0.5296 -0.1868  0.5429
   49TMC2     C  764   0.842   3.985   9.935  0.1731 -0.1149  0.9398
   49TMC2     O  765   0.815   4.059   9.840 -0.5942 -0.4919 -0.3624
   49TMC2     H  766   0.605   3.924   9.838 -2.5435  0.1438  1.7669
   49TMC2    H1  767   0.900   3.774  10.106 -1.2799 -0.2601  1.4253
   49TMC2    H2  768   0.532   3.565  10.057 -0.0640 -0.2323 -2.0926
   49TMC2    C7  769   0.750   3.569  10.191 -0.3432 -1.1331 -0.1738
   49TMC2    C8  770   0.426   3.724   9.896  0.0688  0.3325 -0.1058
   49TMC2    O1  771   0.684   3.463  10.196  0.0723 -0.1155  0.0443
   49TMC2    O2  772   0.359   3.622   9.919 -0.2861 -1.0001 -0.8639
   49TMC2    O5  773   0.391   3.828   9.811 -0.0895  0.1058  0.1479
   49TMC2    H5  774   0.441   3.905   9.844 -1.5597  0.9280  0.4397
   50MPD2     C  775   1.087   4.155   9.880 -0.1868  0.2775  0.7093
   50MPD2    C1  776   1.063   4.081   9.996 -0.9000  0.5918  0.5770
   50MPD2    C2  777   1.143   4.099  10.102 -0.6144  0.2153 -0.0278
   50MPD2    C3  778   1.230   4.207  10.105  0.0119 -0.6771 -0.5458
   50MPD2    C4  779   1.244   4.278   9.993  0.2778  0.3469 -0.7404
   50MPD2    C5  780   1.182   4.253   9.881 -0.5085 -0.6718 -0.2693
   50MPD2     H  781   1.133   4.043  10.194 -2.1341  0.2854 -0.1575
   50MPD2    H1  782   1.319   4.357   9.991  0.7206 -0.0985 -1.6453
   50MPD2    H2  783   1.038   4.137   9.785  1.4549 -2.4239  0.3696
   50MPD2    H3  784   1.196   4.311   9.790  1.8812 -1.4717 -0.3978
   50MPD2     N  785   1.307   4.250  10.215 -0.1773 -0.0839 -0.1416
   50MPD2    H5  786   1.372   4.323  10.189  0.7523 -0.9530 -0.2750
   50MPD2    N1  787   0.959   3.988  10.014  0.1030 -0.5165 -0.1509
   50MPD2    H7  788   0.972   3.936  10.100 -2.0962  0.6062  0.8628
   51TMC2    C1  789   1.967   2.636   1.347  0.6626  0.1851  0.2468
   51TMC2    C2  790   1.830   2.625   1.381  0.0642 -0.4535 -0.2580
   51TMC2    C3  791   1.754   2.740   1.395 -0.2993 -0.4251 -0.8214
   51TMC2    C4  792   2.024   2.762   1.322 -0.1133 -0.1826  0.1617
   51TMC2    C5  793   1.944   2.869   1.343  0.4237  0.0746  0.1943
   51TMC2    C6  794   1.809   2.860   1.379  0.5607 -1.1369  0.0890
   51TMC2     C  795   2.053   2.515   1.352  0.7845 -0.1895  1.1418
   51TMC2     O  796   2.162   2.522   1.303  0.1322  0.1192 -0.5036
   51TMC2     H  797   1.785   2.529   1.404  1.0287 -0.9292 -0.3487
   51TMC2    H1  798   2.127   2.770   1.287 -0.6840  2.4803 -0.9880
   51TMC2    H2  799   1.758   2.954   1.393  0.4156 -1.3003  0.6590
   51TMC2    C7  800   1.994   3.003   1.321  0.0484 -0.4219 -0.8395
   51TMC2    C8  801   1.624   2.722   1.452  0.7628  0.0061  0.3274
   51TMC2    O1  802   2.076   3.014   1.232  0.1305  0.4033  0.5183
   51TMC2    O2  803   1.612   2.640   1.542 -0.2115 -0.9491 -0.0785
   51TMC2    O5  804   1.557   2.841   1.452  0.6081  0.3263  0.5691
   51TMC2    H5  805   1.562   2.899   1.374 -2.8545  0.5310  0.4733
   52MPD2     C  806   2.119   2.019   1.484 -0.4362 -0.3399 -0.0156
   52MPD2    C1  807   2.198   2.101   1.394  0.0861  0.0923 -0.8669
   52MPD2    C2  808   2.158   2.233   1.371  0.0827 -0.4090 -0.0889
   52MPD2    C3  809   2.039   2.277   1.420 -0.2342 -0.0100 -0.1271
   52MPD2    C4  810   1.964   2.193   1.496  0.9584  0.0087 -0.3554
   52MPD2    C5  811   2.006   2.067   1.538  0.5175 -0.7180 -0.0695
   52MPD2     H  812   2.230   2.291   1.313 -0.4167  2.3428  2.0680
   52MPD2    H1  813   1.871   2.222   1.543  0.5735 -2.5771  0.4723
   52MPD2    H2  814   2.138   1.912   1.486  1.6381 -0.0007 -1.5773
   52MPD2    H3  815   1.942   2.002   1.597 -1.3772  0.3436 -0.9333
   52MPD2     N  816   1.994   2.415   1.418 -0.0508  0.1323  0.4928
   52MPD2    H5  817   1.908   2.431   1.470 -1.2704 -2.2789 -0.8321
   52MPD2    N1  818   2.321   2.059   1.331  0.0906  0.0200 -0.1110
   52MPD2    H7  819   2.363   2.133   1.276  0.6019 -0.5157 -0.4449
   53TMC2    C1  820   2.020   1.675  11.094 -0.2733  0.3497  0.7040
   53TMC2    C2  821   1.981   1.779  11.020  0.0539 -1.0025  1.0607
   53TMC2    C3  822   1.935   1.895  11.087 -0.2372 -0.0660  0.9433
   53TMC2    C4  823   2.023   1.679  11.227  0.1358 -0.0343 -0.1597
   53TMC2    C5  824   1.972   1.790  11.285  0.1719  0.1756  0.4074
   53TMC2    C6  825   1.921   1.896  11.220 -0.2796  0.0230 -0.0442
   53TMC2     C  826   2.091   1.573  11.026  0.0844 -0.8273  0.4619
   53TMC2     O  827   2.173   1.612  10.943  0.6271  0.0234 -0.3188
   53TMC2     H  828   1.973   1.771  10.912 -1.5207  0.3514  1.0773
   53TMC2    H1  829   2.073   1.601  11.283  1.4038 -0.1344 -1.4180
   53TMC2    H2  830   1.870   1.970  11.280 -0.5108  0.7605 -1.1366
   53TMC2    C7  831   1.935   1.782  11.428 -0.8427 -0.6612  0.7403
   53TMC2    C8  832   1.853   2.000  11.017 -0.2150  0.4711  0.1968
   53TMC2    O1  833   1.897   1.884  11.485  0.0069  0.2434 -0.6558
   53TMC2    O2  834   1.811   2.102  11.069  0.1665 -0.4292  0.2146
   53TMC2    O5  835   1.786   1.937  10.914 -0.0450  0.5294 -0.0597
   53TMC2    H5  836   1.810   1.843  10.901 -0.5676  0.2948  0.6505
   54MPD2     C  837   2.271   1.327  10.976 -0.3208 -0.1661  0.2764
   54MPD2    C1  838   2.168   1.338  11.071 -0.2914  0.2269  0.1743
   54MPD2    C2  839   2.116   1.220  11.126 -0.2788 -0.5356  0.0625
   54MPD2    C3  840   2.171   1.093  11.099 -0.3026 -0.4505  0.4997
   54MPD2    C4  841   2.282   1.083  11.016 -0.6925  0.7027  1.0271
   54MPD2    C5  842   2.332   1.203  10.960 -0.6245 -0.3630  0.6144
   54MPD2     H  843   2.034   1.229  11.196  0.0490  0.8800  0.2690
   54MPD2    H1  844   2.329   0.988  10.994 -1.4199  0.4493  0.5527
   54MPD2    H2  845   2.315   1.414  10.929  0.6861 -1.5016 -1.2953
   54MPD2    H3  846   2.416   1.202  10.892 -0.9723  0.1613  0.1736
   54MPD2     N  847   2.117   0.973  11.154  0.3004 -0.2256  0.1396
   54MPD2    H5  848   2.161   0.884  11.130 -0.4029 -0.4023 -0.5043
   54MPD2    N1  849   2.081   1.449  11.094 -0.2263 -0.1756  0.3921
   54MPD2    H7  850   2.006   1.430  11.160 -0.9140 -1.6823 -0.8181
   55TMC2    C1  851   3.325   3.870   0.154 -0.1545 -0.2127  0.2624
   55TMC2    C2  852   3.413   3.815   0.065 -0.2988  0.4600  0.4478
   55TMC2    C3  853   3.479   3.701   0.101 -0.4994  0.7943 -0.0735
   55TMC2    C4  854   3.312   3.817   0.279 -0.0762  0.6813 -0.3213
   55TMC2    C5  855   3.367   3.700   0.308 -0.4527  0.0771  0.3264
   55TMC2    C6  856   3.453   3.641   0.222  0.4592  0.6049  0.4754
   55TMC2     C  857   3.259   4.003   0.132  0.6990  0.4698 -0.2487
   55TMC2     O  858   3.211   4.067   0.219 -0.0978 -0.2402  0.5151
   55TMC2     H  859   3.412   3.857  17.697 -0.6865 -0.6839 -0.0343
   55TMC2    H1  860   3.232   3.864   0.336 -0.8707 -0.1180 -0.7743
   55TMC2    H2  861   3.500   3.550   0.257  1.5389  0.9918  0.0110
   55TMC2    C7  862   3.368   3.648   0.453 -0.1643 -0.3758  0.2516
   55TMC2    C8  863   3.528   3.602   0.011 -0.0421  0.0114 -0.3072
   55TMC2    O1  864   3.400   3.529   0.467 -0.3202 -0.4182 -0.0322
   55TMC2    O2  865   3.582   3.500   0.050  0.7281  0.3628 -0.1524
   55TMC2    O5  866   3.451   3.606  17.630  0.5375  0.5467 -0.1602
   55TMC2    H5  867   3.432   3.701  17.614 -0.7417  0.3942  0.4077
   56MPD2     C  868   3.196   4.172  17.547 -0.8361  0.2260 -0.3235
   56MPD2    C1  869   3.215   4.170  17.684 -0.6563 -1.0434  0.4910
   56MPD2    C2  870   3.162   4.274   0.025 -0.7654  0.0889  0.4719
   56MPD2    C3  871   3.077   4.364  17.700  0.1777  0.0401 -0.1654
   56MPD2    C4  872   3.066   4.376  17.562 -0.6088  0.0893  0.3539
   56MPD2    C5  873   3.126   4.277  17.488  0.3166 -0.7286 -0.1154
   56MPD2     H  874   3.170   4.277   0.133  0.8340  0.4247  0.3498
   56MPD2    H1  875   3.006   4.453  17.513 -0.6775 -0.2833 -0.1459
   56MPD2    H2  876   3.216   4.093  17.476 -0.3900 -0.6106  0.7322
   56MPD2    H3  877   3.128   4.285  17.380  0.9503 -0.3740 -0.0781
   56MPD2     N  878   3.031   4.466   0.057 -0.4439  0.1726  0.2927
   56MPD2    H5  879   3.059   4.461   0.154  0.6955  0.7564 -0.0146
   56MPD2    N1  880   3.263   4.047   0.003 -0.1788  0.8809  0.8081
   56MPD2    H7  881   3.307   3.991  17.663  0.6523  1.7536  0.6248
   57TMC2    C1  882   1.652   4.322  13.261  0.0074 -0.4877  0.4579
   57TMC2    C2  883   1.697   4.277  13.384 -0.1224 -0.4711 -0.3640
   57TMC2    C3  884   1.814   4.208  13.379 -0.0224  0.3165  0.1762
   57TMC2    C4  885   1.719   4.313  13.144  0.4312  0.0093  0.5187
   57TMC2    C5  886   1.845   4.265  13.151 -0.2588 -0.8473  0.0678
   57TMC2    C6  887   1.899   4.221  13.271  0.6043  0.0316 -0.7964
   57TMC2     C  888   1.545   4.419  13.259 -0.6214 -0.2983  0.1866
   57TMC2     O  889   1.514   4.475  13.361 -0.6458  0.0167  0.6536
   57TMC2     H  890   1.644   4.303  13.475  0.0301 -1.3262 -0.0292
   57TMC2    H1  891   1.691   4.337  13.042 -0.3251 -0.7416  0.5533
   57TMC2    H2  892   1.992   4.165  13.276  0.2344 -0.6783 -1.7744
   57TMC2    C7  893   1.920   4.262  13.022 -0.0629  0.3824 -0.0566
   57TMC2    C8  894   1.869   4.155  13.499  0.3410 -0.2941  0.1986
   57TMC2    O1  895   1.855   4.262  12.919 -0.4916 -0.2486  0.3782
   57TMC2    O2  896   1.985   4.137  13.519  0.2896 -0.4880  0.4553
   57TMC2    O5  897   1.772   4.118  13.588  0.1411  0.0071  0.0992
   57TMC2    H5  898   1.680   4.141  13.563 -0.5226 -2.9904 -0.1736
   58MPD2     C  899   1.291   0.049  12.996 -0.0105 -0.2928 -0.1425
   58MPD2    C1  900   1.348   0.048  13.122 -0.9936  0.1204 -0.4906
   58MPD2    C2  901   1.412   4.669  13.166 -0.0646 -0.3161 -0.3635
   58MPD2    C3  902   1.424   4.553  13.094  0.0879 -0.2328 -0.2113
   58MPD2    C4  903   1.358   4.550  12.969 -0.2726  0.3306  0.1968
   58MPD2    C5  904   1.293   4.665  12.923  0.1231 -0.5923  0.5268
   58MPD2     H  905   1.458   4.681  13.263 -0.2146 -1.7102 -0.1126
   58MPD2    H1  906   1.364   4.468  12.898  0.7009  0.6892 -0.1504
   58MPD2    H2  907   1.232   0.133  12.961  0.8080  0.9955  1.5538
   58MPD2    H3  908   1.245   4.673  12.827 -0.4700 -0.2493  0.8571
   58MPD2     N  909   1.498   4.441  13.134 -0.1744  0.2737  0.2315
   58MPD2    H5  910   1.532   4.374  13.066 -0.1209  1.2498 -0.7114
   58MPD2    N1  911   1.337   0.158  13.209  0.4586  0.8111 -0.2304
   58MPD2    H7  912   1.361   0.149  13.308 -3.0162 -0.0864  0.5050
   59TMC2    C1  913   4.419   4.699  12.823  0.3752 -0.6559 -0.9348
   59TMC2    C2  914   4.370   4.574  12.810  0.1722 -0.3234 -0.1524
   59TMC2    C3  915   4.418   4.498  12.711  0.2535  0.3137 -0.1571
   59TMC2    C4  916   4.497   0.029  12.730  0.3889 -0.2972  0.1625
   59TMC2    C5  917   4.540   4.679  12.632 -0.1871 -0.0380 -0.1639
   59TMC2    C6  918   4.516   4.543  12.630  0.1855  0.2052  0.1055
   59TMC2     C  919   4.384   0.034  12.948 -0.3308  0.2814  0.5904
   59TMC2     O  920   4.284   4.733  13.002 -0.7142  0.1112  0.3302
   59TMC2     H  921   4.324   4.533  12.900  0.5990  0.3882  0.3928
   59TMC2    H1  922   4.521   0.134  12.727  1.0207 -0.5510 -3.6285
   59TMC2    H2  923   4.557   4.477  12.555  2.3252  1.1204  0.4949
   59TMC2    C7  924   4.592   0.003  12.509  0.0772 -0.4822  0.6019
   59TMC2    C8  925   4.395   4.356  12.713 -0.3616 -0.2222 -0.5967
   59TMC2    O1  926   4.651   4.657  12.440 -0.6895 -0.3343  0.0926
   59TMC2    O2  927   4.467   4.269  12.659 -0.0728 -0.2908  0.3657
   59TMC2    O5  928   4.278   4.331  12.770 -0.0088  0.1986  0.6613
   59TMC2    H5  929   4.216   4.400  12.802  1.0682  1.7626 -0.6236
   60MPD2     C  930   4.357   0.207  13.182  0.1209  0.2206  0.7483
   60MPD2    C1  931   4.468   0.213  13.096  0.4922 -0.5829 -0.6717
   60MPD2    C2  932   4.576   0.300  13.126 -0.0294  0.1815 -0.3581
   60MPD2    C3  933   4.584   0.363  13.245  0.4027 -0.1335 -0.7446
   60MPD2    C4  934   4.476   0.352  13.334  0.4478  0.0620 -0.3033
   60MPD2    C5  935   4.367   0.279  13.296 -0.5417 -0.1553 -0.3254
   60MPD2     H  936   4.663   0.300  13.061  0.7666  0.8451  0.7230
   60MPD2    H1  937   4.472   0.411  13.425 -0.1445  0.5342 -0.6378
   60MPD2    H2  938   4.269   0.147  13.163 -0.1701  1.0300 -0.4374
   60MPD2    H3  939   4.280   0.282  13.361 -0.1229 -1.2588  0.2940
   60MPD2     N  940   4.680   0.459  13.280 -0.6405  0.3660  0.1577
   60MPD2    H5  941   4.669   0.508  13.368  1.5570  0.0747  0.5875
   60MPD2    N1  942   4.473   0.132  12.981 -0.6662  0.0300 -0.0037
   60MPD2    H7  943   4.553   0.144  12.920  0.8208 -0.6213  1.8106
   61TMC2    C1  944   3.651   1.915  15.565  0.2505  1.0215  0.0110
   61TMC2    C2  945   3.594   1.902  15.689 -0.2060 -0.1360 -0.7722
   61TMC2    C3  946   3.557   2.021  15.750 -0.1735 -0.3577 -0.2691
   61TMC2    C4  947   3.684   2.039  15.506  0.1634  0.3459 -0.2826
   61TMC2    C5  948   3.632   2.152  15.571  0.1557  0.0615 -0.1359
   61TMC2    C6  949   3.566   2.145  15.691  0.2392 -0.4420  0.7492
   61TMC2     C  950   3.748   1.805  15.541 -0.3030 -0.4868 -0.1330
   61TMC2     O  951   3.711   1.693  15.579 -0.1964  0.3875 -0.1698
   61TMC2     H  952   3.574   1.810  15.742  2.7403 -0.1051  0.3672
   61TMC2    H1  953   3.744   2.049  15.416 -1.2997 -0.6971 -1.3725
   61TMC2    H2  954   3.527   2.234  15.738 -0.9972 -0.9218  0.6363
   61TMC2    C7  955   3.664   2.267  15.502 -0.1420 -0.1437  0.1002
   61TMC2    C8  956   3.467   2.006  15.865  0.2824 -0.3042 -0.2623
   61TMC2    O1  957   3.750   2.272  15.414 -0.1676  0.5969 -0.6039
   61TMC2    O2  958   3.462   2.095  15.949  0.1363 -0.6167  0.4011
   61TMC2    O5  959   3.369   1.912  15.841  0.7507  0.2226  0.2829
   61TMC2    H5  960   3.383   1.855  15.763  1.0869  1.4282 -0.5350
   62MPD2     C  961   3.883   1.625  15.357 -0.6481  0.3141  0.2730
   62MPD2    C1  962   3.932   1.749  15.383  0.8123 -1.2183  0.0448
   62MPD2    C2  963   4.043   1.798  15.325  0.0693  0.1856 -0.1295
   62MPD2    C3  964   4.120   1.723  15.243 -0.2134 -0.2285  0.2011
   62MPD2    C4  965   4.074   1.594  15.220  0.2825  0.2809  0.5119
   62MPD2    C5  966   3.955   1.552  15.273 -0.2848  0.8295 -0.2806
   62MPD2     H  967   4.067   1.901  15.348  2.9561  0.0437 -2.5489
   62MPD2    H1  968   4.114   1.526  15.146  0.5811  2.0226 -0.9392
   62MPD2    H2  969   3.801   1.574  15.404 -1.1616  2.2971  1.5360
   62MPD2    H3  970   3.909   1.459  15.240  1.1813  0.3049 -0.8368
   62MPD2     N  971   4.228   1.767  15.174 -0.3013  0.1896 -0.2018
   62MPD2    H5  972   4.265   1.700  15.108  0.6100  0.4103  0.0914
   62MPD2    N1  973   3.859   1.839  15.462  0.0867  0.1037  0.1026
   62MPD2    H7  974   3.907   1.927  15.482  0.0105  0.2534 -0.3753
   63TMC2    C1  975   3.173   1.850   9.908 -0.2757 -0.5651  0.5370
   63TMC2    C2  976   3.297   1.794   9.918 -0.3997  0.1789 -0.0589
   63TMC2    C3  977   3.385   1.804   9.806  0.3836  0.5979 -0.1360
   63TMC2    C4  978   3.138   1.921   9.790  0.2534  0.6643  0.8332
   63TMC2    C5  979   3.229   1.935   9.689 -0.1483  0.5606 -0.2154
   63TMC2    C6  980   3.354   1.884   9.696 -0.2768 -0.1362  0.1819
   63TMC2     C  981   3.070   1.840  10.013  0.4746  0.1689  0.5971
   63TMC2     O  982   2.962   1.901  10.002  0.5789  0.2938 -0.3503
   63TMC2     H  983   3.336   1.742  10.005  1.8196  1.2774 -0.3889
   63TMC2    H1  984   3.037   1.960   9.788  0.0735  0.1613  0.0183
   63TMC2    H2  985   3.430   1.910   9.623  0.5601  1.6971  1.7102
   63TMC2    C7  986   3.196   1.967   9.549  0.0064  0.4372  0.1216
   63TMC2    C8  987   3.521   1.798   9.844  0.2162 -0.2070 -0.3984
   63TMC2    O1  988   3.237   1.881   9.471 -0.0344  0.2481 -0.2598
   63TMC2    O2  989   3.557   1.811   9.960 -0.4895  0.5527 -0.2969
   63TMC2    O5  990   3.598   1.788   9.731  0.5051  0.0235 -0.0093
   63TMC2    H5  991   3.551   1.759   9.650  0.6041  0.3328 -0.1790
   64MPD2     C  992   2.818   1.585  10.383 -0.2064 -0.2590 -0.2057
   64MPD2    C1  993   2.951   1.547  10.384  0.3113  0.0744 -0.4728
   64MPD2    C2  994   3.037   1.603  10.292 -0.3082 -0.0844  0.0461
   64MPD2    C3  995   2.994   1.700  10.206  0.0640  0.4279 -0.2520
   64MPD2    C4  996   2.863   1.743  10.208  0.2940  0.5721 -0.1408
   64MPD2    C5  997   2.780   1.684  10.300  0.5597 -0.4419 -0.5141
   64MPD2     H  998   3.140   1.570  10.288 -0.2556  0.0354  0.3997
   64MPD2    H1  999   2.813   1.814  10.143 -1.4810  0.8313  1.5184
   64MPD2    H2 1000   2.746   1.533  10.445  0.3025 -2.3346 -1.3535
   64MPD2    H3 1001   2.675   1.712  10.303  1.1608  1.7901 -0.6138
   64MPD2     N 1002   3.087   1.746  10.112  0.6758  1.0128  0.2047
   64MPD2    H5 1003   3.177   1.700  10.120 -0.1829 -0.6738  0.3342
   64MPD2    N1 1004   2.999   1.434  10.461 -0.1986  0.2018  0.0373
   64MPD2    H7 1005   3.101   1.428  10.460 -0.1386  1.7045 -1.9216
   65TMC2    C1 1006   0.030   1.511  15.764 -0.5399 -0.6253 -0.5036
   65TMC2    C2 1007   0.052   1.468  15.636  0.5567 -0.3294  0.0892
   65TMC2    C3 1008   0.085   1.571  15.551  0.9133  0.3434 -0.6536
   65TMC2    C4 1009   0.036   1.637  15.812  0.4155 -0.1831 -0.1162
   65TMC2    C5 1010   0.060   1.734  15.718 -0.3202  0.1597 -0.1988
   65TMC2    C6 1011   0.080   1.707  15.585  0.6476 -0.1392  0.1531
   65TMC2     C 1012   4.712   1.414  15.857  0.9305  1.3680  0.4292
   65TMC2     O 1013   4.670   1.447  15.968 -0.4046  0.5384  0.0982
   65TMC2     H 1014   0.101   1.376  15.607  1.4798  0.0581  0.4171
   65TMC2    H1 1015   0.018   1.655  15.917 -2.0528  1.2608 -0.7742
   65TMC2    H2 1016   0.086   1.790  15.515  3.0015 -1.2854 -1.0125
   65TMC2    C7 1017   0.057   1.872  15.758 -0.0773 -0.6850  0.7022
   65TMC2    C8 1018   0.143   1.543  15.422  0.3214 -0.0178  0.2483
   65TMC2    O1 1019   0.126   1.950  15.697 -0.1812 -0.1049 -0.0002
   65TMC2    O2 1020   0.215   1.626  15.368 -0.0472 -0.2134  0.0617
   65TMC2    O5 1021   0.043   1.477  15.368  0.2813  0.3258 -0.4009
   65TMC2    H5 1022   4.708   1.458  15.435 -1.2210 -1.6008 -2.5088
   66MPD2     C 1023   4.670   1.176  16.016  0.0443 -0.4489 -0.0246
   66MPD2    C1 1024   4.661   1.174  15.880 -0.2781 -0.0134  0.3269
   66MPD2    C2 1025   4.595   1.069  15.811 -0.8724  0.6194 -0.1254
   66MPD2    C3 1026   4.534   0.971  15.886  1.2714  0.1327 -0.4937
   66MPD2    C4 1027   4.548   0.973  16.017  0.4880 -0.0119 -0.1641
   66MPD2    C5 1028   4.615   1.076  16.085 -0.0353  0.3290  0.6658
   66MPD2     H 1029   4.575   1.072  15.704 -1.7868  1.7294  0.0729
   66MPD2    H1 1030   4.509   0.890  16.074  0.9393  0.5394  0.9661
   66MPD2    H2 1031   0.001   1.246  16.069  0.7539 -1.1214  0.0046
   66MPD2    H3 1032   4.632   1.080  16.192 -1.7691  0.8636  0.9216
   66MPD2     N 1033   4.457   0.870  15.830  0.7827 -0.6853 -0.3043
   66MPD2    H5 1034   4.410   0.813  15.900  0.0501  1.5100  1.0008
   66MPD2    N1 1035   4.703   1.286  15.804 -0.1288 -0.2396 -0.0667
   66MPD2    H7 1036   4.702   1.272  15.704  1.4613 -0.4539 -0.0511
   67TMC2    C1 1037   4.518   0.538  14.676 -0.2183 -0.0275 -0.6154
   67TMC2    C2 1038   4.463   0.666  14.679  0.2372 -0.2136 -0.0461
   67TMC2    C3 1039   4.538   0.767  14.730  0.2012 -0.4879  1.1113
   67TMC2    C4 1040   4.642   0.509  14.719  0.9941 -0.0792  0.3005
   67TMC2    C5 1041   4.711   0.621  14.775 -0.1624 -0.2397 -0.1450
   67TMC2    C6 1042   4.663   0.749  14.783  0.4079 -0.2796  0.1614
   67TMC2     C 1043   4.456   0.430  14.609  0.4353 -0.0121 -0.3845
   67TMC2     O 1044   4.470   0.316  14.652  0.0257 -0.1470  0.5545
   67TMC2     H 1045   4.366   0.693  14.639  0.1460 -0.9234 -0.2986
   67TMC2    H1 1046   4.672   0.406  14.707  1.1444  0.0045 -0.0429
   67TMC2    H2 1047   4.727   0.833  14.808 -0.7424  0.6004  0.1555
   67TMC2    C7 1048   0.095   0.592  14.840  0.1481 -0.1248  0.3148
   67TMC2    C8 1049   4.498   0.906  14.713  0.2782 -0.2044  0.2520
   67TMC2    O1 1050   0.168   0.508  14.784  0.6574 -0.2535  0.3080
   67TMC2    O2 1051   4.426   0.937  14.621  0.0538  0.1632  1.1665
   67TMC2    O5 1052   4.483   0.954  14.840  0.7314 -0.4711  0.3033
   67TMC2    H5 1053   4.539   0.909  14.907  2.0749  0.4335 -0.2377
   68MPD2     C 1054   4.244   0.254  14.480  0.0557 -0.5735 -0.4521
   68MPD2    C1 1055   4.255   0.393  14.455 -0.2937  0.4462 -0.2443
   68MPD2    C2 1056   4.170   0.466  14.372 -0.3057  0.3152  0.1234
   68MPD2    C3 1057   4.059   0.398  14.329 -0.0971 -0.0080  0.3456
   68MPD2    C4 1058   4.046   0.259  14.357  0.0270  0.4438  0.1273
   68MPD2    C5 1059   4.131   0.198  14.437 -0.1400  0.3389 -0.0677
   68MPD2     H 1060   4.186   0.573  14.358  1.7055  0.1042  0.8070
   68MPD2    H1 1061   3.957   0.211  14.318 -0.7348  2.3367 -0.4376
   68MPD2    H2 1062   4.308   0.196  14.546 -0.7633 -0.9435  0.0255
   68MPD2    H3 1063   4.117   0.090  14.437 -0.3921  0.3711 -0.0658
   68MPD2     N 1064   3.962   0.463  14.250 -0.1518  0.2964  0.1720
   68MPD2    H5 1065   3.895   0.405  14.201  0.7722 -1.6325  1.1955
   68MPD2    N1 1066   4.361   0.470  14.519  0.4648  0.3547  0.1113
   68MPD2    H7 1067   4.367   0.564  14.481 -1.0979  0.2195 -0.4725
   69TMC2    C1 1068   2.271   1.548  12.591  0.0228  0.6562  0.2416
   69TMC2    C2 1069   2.281   1.683  12.565  0.6941  0.3975 -0.6174
   69TMC2    C3 1070   2.348   1.713  12.454 -0.2672  0.2318  0.3835
   69TMC2    C4 1071   2.308   1.449  12.508  0.0985  0.0901 -0.3996
   69TMC2    C5 1072   2.378   1.487  12.395 -0.0991  0.3768 -0.2766
   69TMC2    C6 1073   2.389   1.617  12.365 -0.4942  0.1114  0.0644
   69TMC2     C 1074   2.177   1.509  12.687  1.1239 -0.1069  0.7766
   69TMC2     O 1075   2.097   1.415  12.675 -0.0749 -0.1353 -0.0473
   69TMC2     H 1076   2.226   1.755  12.624  1.2870  0.1989  0.1793
   69TMC2    H1 1077   2.289   1.347  12.536  0.5526  0.1796  0.2400
   69TMC2    H2 1078   2.441   1.642  12.273 -0.9993  1.0596  0.0376
   69TMC2    C7 1079   2.423   1.386  12.305 -0.2490 -0.0480 -0.0785
   69TMC2    C8 1080   2.346   1.854  12.414 -0.3814 -0.4850  0.7067
   69TMC2    O1 1081   2.417   1.416  12.191 -0.5691 -0.2590 -0.2720
   69TMC2    O2 1082   2.394   1.944  12.478 -0.7124  0.7027 -0.2548
   69TMC2    O5 1083   2.352   1.852  12.283 -0.3094 -0.2446 -0.0430
   69TMC2    H5 1084   2.294   1.779  12.252  0.4411 -0.9080  0.1416
   70MPD2     C 1085   2.098   1.722  12.974  0.3346  0.0521 -1.0224
   70MPD2    C1 1086   2.077   1.609  12.889  0.1498 -0.0751  0.1610
   70MPD2    C2 1087   2.006   1.496  12.937 -0.6228  0.2499 -0.4099
   70MPD2    C3 1088   1.967   1.497  13.068 -0.0685  0.3327 -0.2112
   70MPD2    C4 1089   1.988   1.604  13.150 -0.3383 -0.0994  0.1628
   70MPD2    C5 1090   2.050   1.713  13.098  0.5167  0.1995  0.3249
   70MPD2     H 1091   1.989   1.408  12.876  0.8083 -0.3078 -0.0245
   70MPD2    H1 1092   1.951   1.616  13.251 -1.6961 -0.3585 -0.3039
   70MPD2    H2 1093   2.145   1.813  12.939 -0.7150  1.1366  0.4224
   70MPD2    H3 1094   2.062   1.808  13.150  1.6186  0.7407 -0.9135
   70MPD2     N 1095   1.901   1.396  13.138 -0.6987  0.1471 -0.2447
   70MPD2    H5 1096   1.886   1.401  13.238  0.7367  1.8651 -0.1216
   70MPD2    N1 1097   2.177   1.603  12.787  0.0951  0.2697  0.0377
   70MPD2    H7 1098   2.251   1.671  12.789  1.3231 -0.9842 -2.5135
   71TMC2    C1 1099   4.268   2.401   1.262  0.3926  0.2429 -0.3835
   71TMC2    C2 1100   4.382   2.438   1.317  0.9293 -0.4124  0.1284
   71TMC2    C3 1101   4.407   2.403   1.445  0.2598  0.4248  0.2926
   71TMC2    C4 1102   4.171   2.331   1.328  0.4020  0.0010  0.2091
   71TMC2    C5 1103   4.196   2.302   1.460  0.2195  0.4723 -0.5659
   71TMC2    C6 1104   4.314   2.338   1.523 -0.2870  0.1890 -0.1356
   71TMC2     C 1105   4.258   2.434   1.121 -0.1059 -0.0485 -0.7776
   71TMC2     O 1106   4.319   2.536   1.086 -0.0409  0.8376 -0.7459
   71TMC2     H 1107   4.461   2.477   1.254 -0.7026  0.9827 -1.0749
   71TMC2    H1 1108   4.070   2.313   1.292 -0.5338 -1.3606  3.4540
   71TMC2    H2 1109   4.340   2.307   1.623 -0.0552 -0.7242 -0.4838
   71TMC2    C7 1110   4.102   2.229   1.545  0.5525  0.0194 -0.0420
   71TMC2    C8 1111   4.521   2.456   1.515  0.2212 -0.9255 -0.2133
   71TMC2    O1 1112   4.138   2.214   1.660 -0.1116 -0.3935  0.6271
   71TMC2    O2 1113   4.575   2.424   1.619  0.3527  0.2822 -0.1938
   71TMC2    O5 1114   4.536   2.576   1.460 -0.2779  0.6452 -0.2116
   71TMC2    H5 1115   4.446   2.601   1.433  0.2543  1.6585 -1.0346
   72MPD2     C 1116   4.162   2.306   0.643  0.5050 -0.3565  0.5968
   72MPD2    C1 1117   4.218   2.422   0.695  0.1509  0.5965  0.4817
   72MPD2    C2 1118   4.234   2.429   0.835 -0.3458 -0.0498  0.3778
   72MPD2    C3 1119   4.198   2.327   0.915 -0.3994 -0.5204  0.2880
   72MPD2    C4 1120   4.150   2.216   0.858  0.0096  0.2807  0.8240
   72MPD2    C5 1121   4.129   2.206   0.723  0.8927  0.1979  0.4043
   72MPD2     H 1122   4.268   2.523   0.877 -3.1372  0.6701  1.0045
   72MPD2    H1 1123   4.118   2.131   0.917  1.5436 -0.1605  1.0293
   72MPD2    H2 1124   4.142   2.307   0.536  2.5152 -2.1725  0.2199
   72MPD2    H3 1125   4.078   2.124   0.674  0.4275  0.1351  0.9946
   72MPD2     N 1126   4.204   2.332   1.055  0.4089 -0.2696  0.2823
   72MPD2    H5 1127   4.183   2.245   1.103  2.3076  0.0882  1.7211
   72MPD2    N1 1128   4.238   2.539   0.615  0.3830  0.1856  0.0458
   72MPD2    H7 1129   4.248   2.628   0.663 -2.6220  0.2050  0.5957
   73TMC2    C1 1130   0.412   3.988  13.992  0.4751  0.2462 -0.1366
   73TMC2    C2 1131   0.434   3.880  14.068  0.1736 -0.0857  0.6933
   73TMC2    C3 1132   0.522   3.888  14.175  0.3364  0.2228  0.4349
   73TMC2    C4 1133   0.486   4.098  14.020  0.5912 -0.2071  0.0940
   73TMC2    C5 1134   0.573   4.102  14.126  0.3115  0.5217 -0.3348
   73TMC2    C6 1135   0.601   3.996  14.209  0.0240  0.0535  0.3789
   73TMC2     C 1136   0.277   4.029  13.973 -0.1235 -0.0046 -0.1379
   73TMC2     O 1137   0.253   4.144  14.008  0.2736 -0.0977  0.2094
   73TMC2     H 1138   0.386   3.786  14.044  1.1334 -0.2735 -0.4625
   73TMC2    H1 1139   0.477   4.183  13.953  3.2670  1.2083  1.5380
   73TMC2    H2 1140   0.659   4.000  14.300  0.9474 -0.6525 -0.1712
   73TMC2    C7 1141   0.564   4.214  14.217 -0.5304  0.2862 -0.0818
   73TMC2    C8 1142   0.540   3.778  14.260  0.0731  0.0371  0.7503
   73TMC2    O1 1143   0.660   4.252  14.282 -0.2633 -0.2892 -0.0205
   73TMC2    O2 1144   0.642   3.761  14.329 -0.1450  0.1128  0.1992
   73TMC2    O5 1145   0.418   3.731  14.279 -0.2263 -0.4247  0.0622
   73TMC2    H5 1146   0.352   3.787  14.234  1.6063  1.0531 -0.7357
   74MPD2     C 1147   4.545   4.050  13.754 -0.2049 -0.1567 -0.1019
   74MPD2    C1 1148   4.598   4.117  13.856 -1.1793 -0.5115 -0.1898
   74MPD2    C2 1149   4.715   4.076  13.905 -0.4705  0.7144 -0.1881
   74MPD2    C3 1150   0.062   3.983  13.845  0.4560  0.6085 -0.1951
   74MPD2    C4 1151   0.006   3.914  13.737  0.4117  0.4629 -0.0320
   74MPD2    C5 1152   4.615   3.951  13.690  0.1873 -0.1256 -0.1244
   74MPD2     H 1153   0.028   4.144  13.976 -0.6910 -0.3113  0.9376
   74MPD2    H1 1154   0.059   3.831  13.692  0.9777  1.4229 -1.1584
   74MPD2    H2 1155   4.450   4.087  13.718 -1.1475 -1.7116  0.7725
   74MPD2    H3 1156   4.569   3.901  13.605 -0.0246  0.9342 -0.6274
   74MPD2     N 1157   0.197   3.948  13.891  0.5419  0.1821 -1.1557
   74MPD2    H5 1158   0.239   3.871  13.841  0.2353 -0.8808  0.2185
   74MPD2    N1 1159   4.547   4.243  13.905 -0.4694 -0.7837  0.2931
   74MPD2    H7 1160   4.473   4.279  13.846  0.3387 -0.0346 -0.2555
   75TMC2    C1 1161   3.832   0.620  14.157 -0.5231  0.7098 -0.3032
   75TMC2    C2 1162   3.729   0.566  14.228  0.5654  0.6841 -0.3936
   75TMC2    C3 1163   3.606   0.555  14.176  0.5290 -0.5901 -0.6897
   75TMC2    C4 1164   3.810   0.662  14.029  0.9820  0.1448  0.2780
   75TMC2    C5 1165   3.681   0.647  13.982 -0.2020  0.0874 -0.1719
   75TMC2    C6 1166   3.575   0.598  14.055 -0.5412  0.1542 -0.0072
   75TMC2     C 1167   3.963   0.593  14.205 -0.1467  0.3480  0.1113
   75TMC2     O 1168   4.047   0.681  14.220  0.1385  0.2559  0.3868
   75TMC2     H 1169   3.751   0.554  14.334 -2.1350  1.9571  0.3194
   75TMC2    H1 1170   3.895   0.682  13.965  0.9306 -0.1670  0.1124
   75TMC2    H2 1171   3.473   0.604  14.019 -1.1944 -2.3676  1.4397
   75TMC2    C7 1172   3.661   0.648  13.840 -0.0821  0.1264  0.5836
   75TMC2    C8 1173   3.502   0.546  14.271  0.3820  0.2286 -0.1452
   75TMC2    O1 1174   3.584   0.556  13.809  0.4804 -0.3603 -0.5843
   75TMC2    O2 1175   3.515   0.571  14.390 -0.7642 -0.3464  0.6009
   75TMC2    O5 1176   3.402   0.472  14.211 -0.6085 -0.0234 -0.1524
   75TMC2    H5 1177   3.425   0.442  14.121  2.6836  3.1083 -0.3791
   76TMC2    C1 1178   3.204   0.360  11.909 -0.3368  0.7442 -0.7022
   76TMC2    C2 1179   3.205   0.222  11.888 -0.2893 -0.4639  0.3467
   76TMC2    C3 1180   3.260   0.158  12.000  0.1201 -0.3639 -0.7338
   76TMC2    C4 1181   3.283   0.420  12.003 -0.5894 -0.1638  0.6457
   76TMC2    C5 1182   3.350   0.343  12.089 -0.7864  0.4907  0.3005
   76TMC2    C6 1183   3.334   0.209  12.099  0.0315  0.2072  0.9033
   76TMC2     C 1184   3.123   0.449  11.829  0.2840  0.4745  0.0211
   76TMC2     O 1185   3.123   0.563  11.865  0.0102 -0.6036 -0.5500
   76TMC2     H 1186   3.154   0.173  11.806 -0.0776  0.5779 -0.4071
   76TMC2    H1 1187   3.292   0.528  12.013  0.1128 -0.2091  0.5474
   76TMC2    H2 1188   3.372   0.152  12.184 -0.2617  0.4125  1.1707
   76TMC2    C7 1189   3.444   0.410  12.184 -0.2519 -0.1828  0.5081
   76TMC2    C8 1190   3.235   0.017  12.016 -0.3283 -0.2146  0.2282
   76TMC2    O1 1191   3.436   0.533  12.194  0.5814  0.5281  0.4258
   76TMC2    O2 1192   3.319   4.683  12.075 -0.1003  0.0053 -0.3952
   76TMC2    O5 1193   3.137   4.710  11.938  0.0034 -0.5368  0.3864
   76TMC2    H5 1194   3.062   0.040  11.935  0.1120 -0.4809 -1.2613
   77MPD2     C 1195   2.773   0.526  11.472  1.1058 -0.0913  0.0349
   77MPD2    C1 1196   2.814   0.613  11.571 -0.4638 -0.0581 -0.9329
   77MPD2    C2 1197   2.910   0.560  11.656 -0.2904 -0.0512  0.4179
   77MPD2    C3 1198   2.977   0.441  11.623  0.4228  0.4704 -0.2975
   77MPD2    C4 1199   2.935   0.365  11.515 -0.5248 -0.6986 -0.3314
   77MPD2    C5 1200   2.829   0.407  11.442  0.7062 -0.6356 -0.0133
   77MPD2     H 1201   2.937   0.626  11.737  0.6040 -2.8232  2.4059
   77MPD2    H1 1202   2.971   0.265  11.496  0.0862 -0.4664 -0.3865
   77MPD2    H2 1203   2.693   0.553  11.404 -1.1187 -2.0185  1.8543
   77MPD2    H3 1204   2.791   0.347  11.360 -2.2335 -1.8141  2.2326
   77MPD2     N 1205   3.066   0.382  11.715  0.2856 -0.1155  0.9650
   77MPD2    H5 1206   3.112   0.296  11.687 -0.5229 -0.2231  0.0059
   77MPD2    N1 1207   2.760   0.743  11.588  0.0083 -0.6818 -0.2081
   77MPD2    H7 1208   2.802   0.799  11.662  3.6864  1.2322 -3.7444
   78TMC2    C1 1209   3.910   1.845   0.843  0.0269  0.2723  0.1798
   78TMC2    C2 1210   3.804   1.792   0.913 -0.5267  0.4682  0.3036
   78TMC2    C3 1211   3.819   1.791   1.054 -0.2682  0.1985  0.2558
   78TMC2    C4 1212   4.028   1.875   0.897  0.0150 -0.2646  0.4340
   78TMC2    C5 1213   4.048   1.857   1.034 -0.2814 -0.1901 -1.2683
   78TMC2    C6 1214   3.942   1.816   1.111 -0.7495 -0.0231  0.0358
   78TMC2     C 1215   3.912   1.840   0.694  0.3146  0.3352 -0.6146
   78TMC2     O 1216   3.995   1.905   0.633  0.1169 -0.0835  0.0756
   78TMC2     H 1217   3.708   1.797   0.863  0.4011 -2.2965 -1.7991
   78TMC2    H1 1218   4.112   1.910   0.837  1.6329 -0.6159  2.4904
   78TMC2    H2 1219   3.957   1.807   1.218  1.6864  0.2260 -0.2768
   78TMC2    C7 1220   4.167   1.923   1.088  0.4066 -0.1738 -0.0977
   78TMC2    C8 1221   3.723   1.728   1.136 -0.2131  0.3911  0.4955
   78TMC2    O1 1222   4.251   1.964   1.009  0.1949  0.5577 -0.2738
   78TMC2    O2 1223   3.716   1.759   1.252  0.1845 -0.0239 -0.0947
   78TMC2    O5 1224   3.641   1.646   1.064  0.7289  0.4157 -0.5011
   78TMC2    H5 1225   3.674   1.632   0.973  2.2685  0.8198 -0.0024
   79MPD1     C 1226   3.729   1.666   0.246  0.0006  0.3109  0.7902
   79MPD1    C1 1227   3.825   1.758   0.273 -0.1444 -0.1702 -0.4985
   79MPD1    C2 1228   3.855   1.792   0.405 -0.1583 -0.3825  0.1744
   79MPD1    C3 1229   3.785   1.734   0.510  0.4893 -0.6455  0.5550
   79MPD1    C4 1230   3.676   1.653   0.475  0.5147  0.7957  0.0106
   79MPD1    C5 1231   3.651   1.615   0.352 -0.0019  0.2939 -0.3551
   79MPD1     H 1232   3.925   1.872   0.425 -0.0924 -1.0800  2.8044
   79MPD1    H1 1233   3.615   1.605   0.551  0.4293 -0.3569 -0.7834
   79MPD1    H2 1234   3.696   1.630   0.149  2.6421 -0.0663  0.0320
   79MPD1    H3 1235   3.573   1.543   0.333  0.2385  0.1168 -0.6917
   79MPD1     N 1236   3.817   1.752   0.646  0.6761  0.6128  0.1046
   79MPD1    H5 1237   3.762   1.708   0.720 -0.5017  2.8966  0.5790
   79MPD1    N1 1238   3.892   1.823   0.164  0.1212 -0.2576 -0.1442
   79MPD1    H6 1239   3.946   1.904   0.193  0.6883 -0.2950 -1.0999
   79MPD1    H7 1240   3.815   1.853   0.105  1.7559  0.1997 -2.0433
   80TMC2    C1 1241   1.788   0.510  11.875 -0.6122  0.0351  0.5605
   80TMC2    C2 1242   1.857   0.475  11.759 -0.1374 -0.1576  0.1607
   80TMC2    C3 1243   1.799   0.370  11.691  0.5189  0.0379 -0.0940
   80TMC2    C4 1244   1.683   0.440  11.924  0.0713 -0.3877  0.5094
   80TMC2    C5 1245   1.618   0.359  11.834 -0.6736 -0.8367 -0.9612
   80TMC2    C6 1246   1.681   0.311  11.720  0.4261  0.0623 -0.4695
   80TMC2     C 1247   1.826   0.631  11.949  0.6800  0.4371 -0.1011
   80TMC2     O 1248   1.742   0.696  12.008  0.0988  0.4768 -0.0307
   80TMC2     H 1249   1.935   0.538  11.718 -1.9386  0.0151 -2.9950
   80TMC2    H1 1250   1.651   0.467  12.024 -0.8208 -1.1818  0.4487
   80TMC2    H2 1251   1.628   0.244  11.654  0.0103 -1.5296  1.4841
   80TMC2    C7 1252   1.523   0.265  11.898 -0.4438 -0.3735  0.3790
   80TMC2    C8 1253   1.870   0.329  11.576 -0.0413  0.1319 -0.5475
   80TMC2    O1 1254   1.507   0.161  11.832  0.0686  0.1155 -0.0237
   80TMC2    O2 1255   1.951   0.397  11.517 -0.1757 -0.0103 -0.5096
   80TMC2    O5 1256   1.845   0.199  11.559 -0.0872 -0.4165 -0.4398
   80TMC2    H5 1257   1.799   0.148  11.629 -1.6265  0.4192 -0.8449
   81MPD2     C 1258   2.142   0.746  12.066 -0.6689 -0.1973 -0.0788
   81MPD2    C1 1259   2.018   0.767  12.019 -0.0134  0.4207  0.3919
   81MPD2    C2 1260   1.956   0.881  12.050  0.1610 -1.2097 -0.4258
   81MPD2    C3 1261   2.031   0.984  12.109 -0.1564 -0.0794  0.6860
   81MPD2    C4 1262   2.161   0.964  12.146  0.7298 -0.6729 -0.0448
   81MPD2    C5 1263   2.211   0.841  12.132  0.3886  0.1469  0.4424
   81MPD2     H 1264   1.851   0.894  12.028  0.7194  0.4279 -2.1492
   81MPD2    H1 1265   2.211   1.039  12.205 -0.0494  1.2773 -1.8444
   81MPD2    H2 1266   2.186   0.649  12.048 -0.0475 -0.0361  0.5447
   81MPD2    H3 1267   2.301   0.804  12.179  0.4969 -0.7804 -0.5018
   81MPD2     N 1268   1.957   1.102  12.148 -0.0789 -0.6086  0.4084
   81MPD2    H5 1269   1.982   1.140  12.238  1.5934 -0.2747 -0.1994
   81MPD2    N1 1270   1.962   0.647  11.959  0.7555 -0.3961  0.0840
   81MPD2    H7 1271   2.024   0.574  11.926  0.4974 -0.1522 -0.9309
   82TMC2    C1 1272   4.683   0.043  11.143  0.0339  0.2501 -0.4500
   82TMC2    C2 1273   0.061   0.125  11.137  0.1298  0.6082  0.1140
   82TMC2    C3 1274   0.183   0.081  11.182 -0.2552 -0.3413  0.2074
   82TMC2    C4 1275   4.684   4.652  11.196 -0.0654 -0.2767  1.4315
   82TMC2    C5 1276   0.078   4.611  11.233  1.0208  0.0667  0.0644
   82TMC2    C6 1277   0.193   4.685  11.226  0.4786 -0.1113 -0.1919
   82TMC2     C 1278   4.547   0.099  11.127  0.2632  0.1699  0.3019
   82TMC2     O 1279   4.453   0.040  11.180  0.0266 -0.0055 -0.2266
   82TMC2     H 1280   0.054   0.230  11.114 -1.2202  0.2774 -1.0281
   82TMC2    H1 1281   4.599   4.586  11.181 -0.0222  0.0173 -0.0607
   82TMC2    H2 1282   0.290   4.646  11.256  1.1604  2.4294  0.8556
   82TMC2    C7 1283   0.093   4.464  11.249 -0.3740 -0.4254  0.4118
   82TMC2    C8 1284   0.298   0.146  11.118 -0.4543 -0.3453  0.2474
   82TMC2    O1 1285   0.210   4.430  11.266  0.8125  0.0015 -0.1934
   82TMC2    O2 1286   0.285   0.181  11.000  0.2735  0.4820  0.2775
   82TMC2    O5 1287   0.418   0.104  11.155  0.1583 -0.1540  0.6514
   82TMC2    H5 1288   0.433   0.085  11.250 -1.9445 -1.8509  0.6184
   83MPD2     C 1289   4.233   0.426  10.895 -0.0913 -0.4870  0.1748
   83MPD2    C1 1290   4.204   0.312  10.978 -0.1110 -0.1238  0.3652
   83MPD2    C2 1291   4.310   0.238  11.033 -0.1516 -0.1533 -0.2982
   83MPD2    C3 1292   4.440   0.278  11.000  0.0205 -0.3526  0.8485
   83MPD2    C4 1293   4.465   0.382  10.913  0.3396 -0.7332 -0.2109
   83MPD2    C5 1294   4.363   0.453  10.858  0.0873 -0.3257  0.0339
   83MPD2     H 1295   4.288   0.161  11.106 -0.5383 -0.0185 -0.2762
   83MPD2    H1 1296   4.570   0.401  10.893  0.9488 -1.1638  2.5474
   83MPD2    H2 1297   4.150   0.485  10.858 -0.1998 -0.2957  0.7251
   83MPD2    H3 1298   4.386   0.539  10.796  0.3782 -1.9184 -2.0663
   83MPD2     N 1299   4.551   0.215  11.053 -0.2847 -0.2008 -0.2265
   83MPD2    H5 1300   4.642   0.228  11.012  0.2818 -0.6982  0.8796
   83MPD2    N1 1301   4.068   0.285  11.006 -0.6780  0.2334  0.6981
   83MPD2    H7 1302   4.001   0.358  10.988 -0.8811 -0.0974  0.0906
   84TMC2    C1 1303   1.370   4.413  10.644 -0.3302 -0.0700 -0.7030
   84TMC2    C2 1304   1.480   4.479  10.604  0.2447  0.7533 -0.3311
   84TMC2    C3 1305   1.537   4.457  10.479  0.6960 -0.6863  0.3356
   84TMC2    C4 1306   1.316   4.320  10.560  0.0072 -0.4069 -0.6667
   84TMC2    C5 1307   1.372   4.287  10.441  0.4083 -0.0130 -0.0165
   84TMC2    C6 1308   1.483   4.359  10.397  0.3943 -0.5079 -0.7738
   84TMC2     C 1309   1.313   4.446  10.778  0.6240  0.0342  0.1505
   84TMC2     O 1310   1.281   4.347  10.845 -0.6460 -0.1968 -0.6654
   84TMC2     H 1311   1.534   4.545  10.671  0.8282  0.0340 -0.0922
   84TMC2    H1 1312   1.214   4.283  10.569 -0.7729  1.3848 -2.1851
   84TMC2    H2 1313   1.535   4.328  10.307  0.5510  0.8741 -1.1613
   84TMC2    C7 1314   1.295   4.209  10.344 -0.0148 -0.0305 -0.1512
   84TMC2    C8 1315   1.671   4.490  10.449  0.0184  0.2106  0.7492
   84TMC2    O1 1316   1.211   4.137  10.393 -0.0291 -0.5466  0.2799
   84TMC2    O2 1317   1.734   4.429  10.364 -0.7609  0.0788  0.2357
   84TMC2    O5 1318   1.681   4.622  10.450  0.4213  0.3924 -0.3362
   84TMC2    H5 1319   1.602   4.660  10.494 -0.4558 -0.0818 -1.5061
   85TMC2    C1 1320   2.029   2.813  16.221 -0.0047  0.0646 -0.0803
   85TMC2    C2 1321   1.988   2.767  16.095  0.4812 -0.6121  0.1968
   85TMC2    C3 1322   2.014   2.845  15.989  0.8823  0.0308  0.3661
   85TMC2    C4 1323   2.081   2.940  16.231 -0.2500 -0.2649  0.5890
   85TMC2    C5 1324   2.086   3.024  16.126 -0.4743  0.1680 -0.0497
   85TMC2    C6 1325   2.059   2.976  16.000 -0.0056 -0.5800  0.1430
   85TMC2     C 1326   2.011   2.738  16.341  0.0396 -0.1263 -0.0799
   85TMC2     O 1327   2.010   2.792  16.453 -0.1205  0.1707  0.6359
   85TMC2     H 1328   1.937   2.673  16.076 -0.2886 -0.3126  0.7963
   85TMC2    H1 1329   2.092   2.977  16.332 -1.4122  0.6280  0.3792
   85TMC2    H2 1330   2.077   3.038  15.914  2.4345  1.1118  1.8971
   85TMC2    C7 1331   2.179   3.132  16.135  0.2818 -0.1576  0.0681
   85TMC2    C8 1332   1.983   2.782  15.859 -0.6294  0.3540 -0.2375
   85TMC2    O1 1333   2.239   3.156  16.030 -1.0031  0.2503  0.2374
   85TMC2    O2 1334   1.879   2.713  15.835 -0.1149  0.1167 -0.0734
   85TMC2    O5 1335   2.075   2.830  15.772  0.2027  0.6002 -0.6383
   85TMC2    H5 1336   2.149   2.883  15.809  0.0868 -0.7145  1.4944
   86MPD2     C 1337   1.903   2.280  16.539  0.0087 -0.6658 -0.5221
   86MPD2    C1 1338   1.884   2.278  16.404 -0.5916  0.2903  0.0748
   86MPD2    C2 1339   1.922   2.386  16.329 -1.1492  0.0194 -0.1096
   86MPD2    C3 1340   1.957   2.503  16.386 -0.3455 -0.9577 -0.2288
   86MPD2    C4 1341   1.958   2.513  16.518 -0.0392 -0.9038  0.2975
   86MPD2    C5 1342   1.946   2.396  16.594 -0.4947  0.4009  0.4999
   86MPD2     H 1343   1.918   2.381  16.220  1.9566 -2.7810 -0.0891
   86MPD2    H1 1344   1.983   2.601  16.576 -0.4049 -0.5577 -0.0728
   86MPD2    H2 1345   1.893   2.187  16.594  2.1188 -0.7850 -0.3180
   86MPD2    H3 1346   1.975   2.397  16.698  0.6801 -1.3004  0.1906
   86MPD2     N 1347   1.995   2.609  16.302  0.3723 -0.4261 -0.7685
   86MPD2    H5 1348   2.009   2.586  16.204  0.7174 -0.4738 -0.7081
   86MPD2    N1 1349   1.839   2.161  16.330 -0.0885  0.3430 -0.1370
   86MPD2    H7 1350   1.838   2.163  16.228  0.4980 -1.3422 -0.1756
   87TMC2    C1 1351   0.159   0.545   1.216 -0.1654 -0.1915 -0.5368
   87TMC2    C2 1352   0.282   0.552   1.276  0.3747 -0.6400 -0.5293
   87TMC2    C3 1353   0.292   0.645   1.376 -0.0957 -0.0170 -0.0061
   87TMC2    C4 1354   0.049   0.625   1.246  0.1042 -0.1175  0.3743
   87TMC2    C5 1355   0.064   0.714   1.355  0.1433 -0.6164  0.1409
   87TMC2    C6 1356   0.186   0.728   1.418 -0.4206  0.7307 -0.4939
   87TMC2     C 1357   0.141   0.447   1.109 -0.1824 -0.1070 -0.0465
   87TMC2     O 1358   0.079   0.479   1.008  0.5288  0.0964 -0.0584
   87TMC2     H 1359   0.370   0.497   1.246  0.9976 -1.0080  2.0250
   87TMC2    H1 1360   4.692   0.614   1.187  1.9108  0.4925 -2.5372
   87TMC2    H2 1361   0.195   0.782   1.511 -2.1349 -0.4782  0.3634
   87TMC2    C7 1362   4.687   0.797   1.397 -0.2229 -0.0929  0.2487
   87TMC2    C8 1363   0.427   0.668   1.430 -0.4170 -0.5669  0.8903
   87TMC2    O1 1364   4.724   0.902   1.453  0.4528  0.2970  0.2957
   87TMC2    O2 1365   0.521   0.597   1.395 -0.6197  0.1399 -0.5268
   87TMC2    O5 1366   0.432   0.803   1.456 -0.6310  0.8302 -0.1347
   87TMC2    H5 1367   0.357   0.861   1.429 -0.2496  1.4262  0.0781
   88MPD2     C 1368   4.352   0.682   1.467 -0.2079  0.4281  0.0193
   88MPD2    C1 1369   4.443   0.775   1.436 -0.3391 -0.4692 -0.1644
   88MPD2    C2 1370   4.402   0.906   1.424  0.4675 -0.1087 -0.2661
   88MPD2    C3 1371   4.269   0.941   1.446  0.8412 -0.5657  0.5032
   88MPD2    C4 1372   4.173   0.844   1.479  0.3333  0.6834 -0.0661
   88MPD2    C5 1373   4.222   0.721   1.489  0.3010 -0.0042  0.5762
   88MPD2     H 1374   4.471   0.982   1.390 -0.7114  1.0159 -0.1311
   88MPD2    H1 1375   4.072   0.863   1.515 -0.2059 -2.3873  0.0023
   88MPD2    H2 1376   4.367   0.576   1.482  2.5086  0.7950  0.0504
   88MPD2    H3 1377   4.152   0.645   1.523 -0.4971  0.5393  0.1425
   88MPD2     N 1378   4.220   1.073   1.442  0.0123 -0.1681 -0.2049
   88MPD2    H5 1379   4.121   1.096   1.444  0.2162  0.6526  0.4065
   88MPD2    N1 1380   4.571   0.721   1.407 -0.5621 -0.2173 -0.2889
   88MPD2    H7 1381   4.562   0.621   1.397  2.7130 -0.7097  1.8831
   89TMC2    C1 1382   0.647   3.136   1.512 -0.5348  0.1699  0.4485
   89TMC2    C2 1383   0.539   3.194   1.569 -0.5525  0.1205  0.1439
   89TMC2    C3 1384   0.488   3.300   1.497  0.2124 -0.3161 -0.2292
   89TMC2    C4 1385   0.708   3.181   1.396  0.7621  0.0585 -0.2252
   89TMC2    C5 1386   0.651   3.281   1.326  0.4337  0.4538 -0.0550
   89TMC2    C6 1387   0.543   3.346   1.380  0.1945  0.0199  0.2314
   89TMC2     C 1388   0.704   3.020   1.573 -0.4383 -0.3192  0.0321
   89TMC2     O 1389   0.817   2.982   1.541 -0.3955  0.3964 -0.6683
   89TMC2     H 1390   0.484   3.160   1.656  1.2357 -0.3372  1.1019
   89TMC2    H1 1391   0.781   3.122   1.343  0.0094 -0.5246 -0.6111
   89TMC2    H2 1392   0.490   3.425   1.327 -0.5235  0.3578  1.4681
   89TMC2    C7 1393   0.725   3.322   1.207  0.1910  0.1636 -0.6136
   89TMC2    C8 1394   0.367   3.365   1.546  0.2468 -0.0020  0.6157
   89TMC2    O1 1395   0.814   3.248   1.176 -0.0016 -0.2343 -0.1268
   89TMC2    O2 1396   0.293   3.424   1.467  0.2801 -0.0427  0.3765
   89TMC2    O5 1397   0.361   3.372   1.679  0.0865  0.0288 -0.1355
   89TMC2    H5 1398   0.441   3.343   1.728 -0.3553 -1.4317 -0.2503
   90MPD2     C 1399   0.654   2.589   1.846 -0.4116  0.0097  0.1084
   90MPD2    C1 1400   0.531   2.634   1.806 -0.0297 -0.2397  0.0660
   90MPD2    C2 1401   0.511   2.753   1.741 -0.1231  0.3241 -0.4802
   90MPD2    C3 1402   0.620   2.823   1.700  0.7111  0.2268  0.0892
   90MPD2    C4 1403   0.749   2.768   1.724  0.2608  0.8509 -0.3383
   90MPD2    C5 1404   0.765   2.657   1.809  0.6532 -0.3142 -0.1871
   90MPD2     H 1405   0.413   2.780   1.705 -0.4469  1.3087  1.1644
   90MPD2    H1 1406   0.836   2.822   1.689  1.2277  0.7494  1.9208
   90MPD2    H2 1407   0.674   2.497   1.900 -1.3386 -0.8582 -1.0149
   90MPD2    H3 1408   0.858   2.635   1.860 -0.8428  0.8729  3.0715
   90MPD2     N 1409   0.601   2.946   1.634 -0.6051  0.1151 -0.3287
   90MPD2    H5 1410   0.507   2.972   1.609 -0.4646  0.6806 -0.2649
   90MPD2    N1 1411   0.412   2.553   1.814 -0.1425 -0.6505 -0.7710
   90MPD2    H7 1412   0.323   2.594   1.788 -0.3164 -1.6908 -1.8005
   91TMC2    C1 1413   1.962   3.525  16.363  0.5257 -0.1242  0.3850
   91TMC2    C2 1414   2.042   3.511  16.479  0.2487 -0.3356 -0.1372
   91TMC2    C3 1415   1.978   3.505  16.600  0.1728 -0.1646  0.2908
   91TMC2    C4 1416   1.824   3.510  16.373  0.3186 -0.4879 -0.1977
   91TMC2    C5 1417   1.763   3.505  16.495  0.4663 -0.1323  0.3457
   91TMC2    C6 1418   1.842   3.504  16.613 -0.1543 -0.5464  0.0471
   91TMC2     C 1419   2.017   3.530  16.225 -0.2662  0.3830 -0.2767
   91TMC2     O 1420   1.939   3.506  16.137  0.0172  0.6763 -0.3026
   91TMC2     H 1421   2.150   3.502  16.465  0.5086  2.6946  0.0393
   91TMC2    H1 1422   1.771   3.473  16.286 -0.2356  0.2850 -0.1911
   91TMC2    H2 1423   1.798   3.500  16.712 -0.2503  0.1830  0.0345
   91TMC2    C7 1424   1.642   3.429  16.506  0.3262 -0.7215  0.1010
   91TMC2    C8 1425   2.061   3.465  16.710  0.4101  0.5300  0.5357
   91TMC2    O1 1426   1.640   3.367  16.611  0.1037  0.0173  0.4855
   91TMC2    O2 1427   2.031   3.372  16.781 -0.0050  0.0977 -0.3972
   91TMC2    O5 1428   2.119   3.576  16.757  0.2670  0.3724 -0.4748
   91TMC2    H5 1429   2.121   3.641  16.683 -3.1220  1.6144  0.4764
   92MPD2     C 1430   2.189   3.592  15.985  0.2657 -0.7422 -0.1917
   92MPD2    C1 1431   2.238   3.576  16.116  0.6462  0.0288  0.7074
   92MPD2    C2 1432   2.376   3.575  16.135 -0.1136  0.5670  0.2970
   92MPD2    C3 1433   2.465   3.579  16.030  0.2878 -0.0033  0.0564
   92MPD2    C4 1434   2.413   3.596  15.907 -1.0165 -0.6418  0.2696
   92MPD2    C5 1435   2.279   3.606  15.888  0.4388 -0.0574 -0.6287
   92MPD2     H 1436   2.412   3.578  16.237 -0.4851  0.7215  0.4222
   92MPD2    H1 1437   2.472   3.593  15.816  0.2747  1.4856  1.0118
   92MPD2    H2 1438   2.081   3.594  15.970  0.5213  1.1883 -1.6883
   92MPD2    H3 1439   2.252   3.620  15.784 -1.0218  2.0988  0.0459
   92MPD2     N 1440   2.605   3.572  16.057 -0.2613 -0.3248  0.3111
   92MPD2    H5 1441   2.627   3.563  16.156  3.3630 -1.0499 -0.5809
   92MPD2    N1 1442   2.156   3.553  16.223  0.5423 -0.7992  0.2972
   92MPD2    H7 1443   2.203   3.561  16.312  0.1649  3.9801  0.0563
   93TMC2    C1 1444   4.358   3.159  14.169  0.5369 -0.0155 -0.3278
   93TMC2    C2 1445   4.316   3.279  14.227  0.0408 -0.4559  0.3234
   93TMC2    C3 1446   4.398   3.386  14.211  0.2140 -0.3917 -0.1373
   93TMC2    C4 1447   4.461   3.160  14.080 -0.2631 -0.2670 -0.3735
   93TMC2    C5 1448   4.531   3.279  14.054  0.9509 -0.2395 -0.0093
   93TMC2    C6 1449   4.503   3.390  14.123  0.1594  0.1811 -0.1224
   93TMC2     C 1450   4.257   3.057  14.166  0.1726  0.3232  0.9200
   93TMC2     O 1451   4.304   2.941  14.158  0.0479 -0.3595 -0.3024
   93TMC2     H 1452   4.222   3.284  14.280 -0.5963 -0.1483 -0.8262
   93TMC2    H1 1453   4.480   3.080  14.009 -2.0887 -0.5662 -0.5044
   93TMC2    H2 1454   4.561   3.480  14.103 -0.2842  0.5541  0.2448
   93TMC2    C7 1455   4.587   3.300  13.921 -0.0133  0.0574 -0.4471
   93TMC2    C8 1456   4.344   3.508  14.270 -0.2086 -0.2221 -0.2009
   93TMC2    O1 1457   4.649   3.213  13.864 -0.3029 -0.3592 -0.3415
   93TMC2    O2 1458   4.228   3.511  14.303  0.0992  0.6568 -0.9952
   93TMC2    O5 1459   4.442   3.601  14.265  0.2540  0.1452 -0.8209
   93TMC2    H5 1460   4.526   3.553  14.250  0.3308  0.4009 -1.1972
   94MPD2     C 1461   3.998   2.914  14.176 -0.2095  0.9430 -0.0824
   94MPD2    C1 1462   4.020   3.029  14.110  0.7138  0.1425 -0.3067
   94MPD2    C2 1463   3.910   3.090  14.052  0.1487  0.4683 -0.5904
   94MPD2    C3 1464   3.784   3.038  14.052 -0.0510  0.6647 -0.3795
   94MPD2    C4 1465   3.768   2.919  14.110 -0.6999 -0.4458 -0.3936
   94MPD2    C5 1466   3.873   2.860  14.179  0.4230  0.1811 -0.7087
   94MPD2     H 1467   3.938   3.184  14.005  1.6336  1.2952  1.9404
   94MPD2    H1 1468   3.672   2.870  14.096  1.0157 -4.2098  0.9969
   94MPD2    H2 1469   4.073   2.858  14.230  0.8700  0.4017 -2.1506
   94MPD2    H3 1470   3.862   2.756  14.205 -0.4480  0.2957 -0.6176
   94MPD2     N 1471   3.671   3.087  13.982  0.8509  0.4657 -0.2938
   94MPD2    H5 1472   3.588   3.029  13.988  1.2750 -0.1182 -0.0278
   94MPD2    N1 1473   4.142   3.106  14.113  0.0612  0.2984 -0.0815
   94MPD2    H7 1474   4.141   3.201  14.077 -0.9888  0.2325 -0.2082
   95TMC2    C1 1475   3.941   0.721  16.493  0.2645 -0.4412 -0.1387
   95TMC2    C2 1476   3.821   0.689  16.536 -0.9718 -0.3590 -0.1714
   95TMC2    C3 1477   3.783   0.752  16.654  0.2886  0.6137  0.1928
   95TMC2    C4 1478   4.023   0.806  16.553 -0.5283  0.8624 -0.2903
   95TMC2    C5 1479   3.980   0.870  16.667 -0.2522  0.3648 -0.5508
   95TMC2    C6 1480   3.861   0.845  16.720  0.3861  0.1012  0.7139
   95TMC2     C 1481   3.971   0.671  16.361  0.3203 -0.1233 -0.3029
   95TMC2     O 1482   4.035   0.742  16.289 -0.2189 -0.3034 -0.0732
   95TMC2     H 1483   3.749   0.623  16.487  2.7924 -3.0311 -2.1186
   95TMC2    H1 1484   4.123   0.819  16.512 -0.1670 -1.9976 -0.3357
   95TMC2    H2 1485   3.830   0.883  16.817  0.4892  0.9923  0.3932
   95TMC2    C7 1486   4.080   0.957  16.739 -0.4460 -0.5756 -0.2427
   95TMC2    C8 1487   3.638   0.748  16.679 -0.3137 -0.0836 -0.5326
   95TMC2    O1 1488   4.183   0.984  16.678  0.1695  0.0138  0.0747
   95TMC2    O2 1489   3.587   0.758  16.791  0.5380 -0.1061  0.2584
   95TMC2    O5 1490   3.576   0.798  16.569 -0.1485  0.6424  0.4121
   95TMC2    H5 1491   3.640   0.822  16.499 -1.0888  0.2058 -0.5857
   96MPD2     C 1492   4.029   0.315  16.013 -0.5017  1.0463 -0.1494
   96MPD2    C1 1493   4.072   0.442  16.009 -0.8923 -0.0344 -0.5896
   96MPD2    C2 1494   4.050   0.512  16.128 -0.6712  0.2703 -0.0620
   96MPD2    C3 1495   3.981   0.460  16.236  0.1607  0.1940  0.5781
   96MPD2    C4 1496   3.933   0.338  16.234  0.4056  0.1183 -0.0812
   96MPD2    C5 1497   3.964   0.263  16.120 -1.0696 -0.5150  0.0997
   96MPD2     H 1498   4.108   0.603  16.140 -0.6683  0.2212  0.2987
   96MPD2    H1 1499   3.868   0.304  16.313 -1.3239  1.9616 -0.7126
   96MPD2    H2 1500   4.062   0.249  15.934 -1.0082  1.0376 -0.3569
   96MPD2    H3 1501   3.919   0.165  16.112 -0.1459 -1.0413  1.2589
   96MPD2     N 1502   3.950   0.538  16.352  0.3359  0.3114 -0.1824
   96MPD2    H5 1503   3.902   0.492  16.428  0.9642 -0.6793 -0.3875
   96MPD2    N1 1504   4.149   0.501  15.903 -0.2418 -0.0655 -0.4632
   96MPD2    H7 1505   4.194   0.585  15.938  1.3405  0.2194 -3.2130
   97TMC2    C1 1506   1.655   3.211   1.188 -0.3271 -0.5402  0.3693
   97TMC2    C2 1507   1.567   3.262   1.279  0.2580  0.3961 -0.3079
   97TMC2    C3 1508   1.565   3.397   1.295  0.1192 -0.4359 -0.8133
   97TMC2    C4 1509   1.730   3.291   1.105  0.3378 -0.2975  0.5804
   97TMC2    C5 1510   1.737   3.428   1.135 -0.2754  0.0392 -0.7144
   97TMC2    C6 1511   1.650   3.485   1.227 -0.5083 -0.5209  0.1862
   97TMC2     C 1512   1.649   3.067   1.166  0.2518  0.3756  0.5893
   97TMC2     O 1513   1.576   3.000   1.235  0.6105  0.0144 -0.1540
   97TMC2     H 1514   1.512   3.198   1.348 -0.4220  0.7609 -0.5111
   97TMC2    H1 1515   1.801   3.258   1.030  0.2937  2.7220 -0.7829
   97TMC2    H2 1516   1.670   3.589   1.249  0.0579 -0.6492  0.2794
   97TMC2    C7 1517   1.778   3.517   1.036  0.1559 -0.0748 -0.0081
   97TMC2    C8 1518   1.496   3.450   1.415  0.1056  0.3756 -0.0419
   97TMC2    O1 1519   1.875   3.481   0.966  0.0925  1.1796 -0.2419
   97TMC2    O2 1520   1.479   3.377   1.513  0.1899  0.2414  0.1016
   97TMC2    O5 1521   1.406   3.542   1.365  0.5834 -0.0929 -0.0262
   97TMC2    H5 1522   1.424   3.561   1.270 -0.1178 -0.8922 -0.3121
   98MPD2     C 1523   1.835   2.625   0.970  0.8174  0.7158 -0.3141
   98MPD2    C1 1524   1.715   2.652   1.034 -0.3203 -0.1188 -0.1619
   98MPD2    C2 1525   1.678   2.784   1.067  0.1385 -0.2341 -0.0916
   98MPD2    C3 1526   1.766   2.888   1.035 -0.0894  0.2109 -0.2786
   98MPD2    C4 1527   1.888   2.859   0.983 -1.1663 -0.1956  0.5637
   98MPD2    C5 1528   1.921   2.730   0.941  0.1070 -0.9038  0.5491
   98MPD2     H 1529   1.576   2.797   1.100  0.2544 -2.2728  1.1096
   98MPD2    H1 1530   1.962   2.938   0.974 -2.8288  1.1191 -1.8482
   98MPD2    H2 1531   1.863   2.522   0.950  0.5242  0.6717 -0.5116
   98MPD2    H3 1532   2.018   2.702   0.902 -0.0364 -2.0472  1.0045
   98MPD2     N 1533   1.742   3.019   1.071  0.3613  0.0967  0.1017
   98MPD2    H5 1534   1.819   3.076   1.038 -0.2182  0.4640 -0.6336
   98MPD2    N1 1535   1.630   2.542   1.052 -0.2415  0.2277  0.2767
   98MPD2    H7 1536   1.648   2.461   0.994 -0.2788 -0.0357  0.6364
   99TMC2    C1 1537   0.760   0.412   2.195 -0.0979 -0.4367 -0.1593
   99TMC2    C2 1538   0.847   0.460   2.288  0.8403 -0.0971  0.8161
   99TMC2    C3 1539   0.797   0.527   2.392  0.5938  0.3643 -0.7997
   99TMC2    C4 1540   0.625   0.430   2.211 -1.0511 -0.0193 -0.3518
   99TMC2    C5 1541   0.580   0.493   2.326 -0.3657  0.5127 -0.2794
   99TMC2    C6 1542   0.665   0.541   2.415 -0.0068  0.1740 -0.8271
   99TMC2     C 1543   0.821   0.345   2.082  0.5715 -0.0887  0.1943
   99TMC2     O 1544   0.936   0.386   2.055  0.0902 -0.0918 -0.0641
   99TMC2     H 1545   0.954   0.442   2.285  1.0149  0.8999  1.0900
   99TMC2    H1 1546   0.560   0.382   2.138 -0.2473 -1.3017 -0.2258
   99TMC2    H2 1547   0.629   0.569   2.513  0.5332 -0.0861 -0.5558
   99TMC2    C7 1548   0.440   0.512   2.350  0.0834  0.3390 -0.1524
   99TMC2    C8 1549   0.873   0.512   2.514  0.6439 -0.6079  0.1228
   99TMC2    O1 1550   0.410   0.597   2.438 -0.4582 -0.4434  0.2034
   99TMC2    O2 1551   0.930   0.404   2.541 -0.0527 -0.6121 -0.2478
   99TMC2    O5 1552   0.906   0.638   2.556 -0.2954 -0.0507 -0.0338
   99TMC2    H5 1553   0.860   0.699   2.495 -1.8046  0.4294  1.5797
  100MPD2     C 1554   0.889   0.215   1.804  0.4671 -0.0078  0.1360
  100MPD2    C1 1555   0.770   0.213   1.874  0.4234  1.3007 -0.1654
  100MPD2    C2 1556   0.669   0.132   1.826 -0.1453 -0.0287 -0.4764
  100MPD2    C3 1557   0.689   0.051   1.716 -0.6897 -0.2244  0.3456
  100MPD2    C4 1558   0.812   0.052   1.649  0.1276  0.3217 -0.4486
  100MPD2    C5 1559   0.914   0.129   1.702  0.6263 -0.0931 -0.1466
  100MPD2     H 1560   0.570   0.130   1.870  0.4555  1.7969  0.9812
  100MPD2    H1 1561   0.829   4.717   1.566 -1.0896  1.0581 -1.2992
  100MPD2    H2 1562   0.970   0.281   1.835  0.0278  1.2466 -1.3965
  100MPD2    H3 1563   1.012   0.135   1.655 -0.1647 -2.0957 -2.0575
  100MPD2     N 1564   0.578   4.713   1.662  0.7220 -0.5198 -0.2025
  100MPD2    H5 1565   0.501   4.705   1.727  0.4006  0.4702 -0.4667
  100MPD2    N1 1566   0.741   0.266   2.002  0.2856 -0.3426  0.2016
  100MPD2    H7 1567   0.645   0.256   2.035  0.1678 -1.0908 -0.3891
  101TMC2    C1 1568   0.772   1.377  12.813  0.1638 -0.0285  0.0031
  101TMC2    C2 1569   0.683   1.480  12.783  0.0061 -0.1292 -0.2282
  101TMC2    C3 1570   0.726   1.573  12.695  0.0912 -0.0745 -0.2385
  101TMC2    C4 1571   0.907   1.383  12.778  0.0477 -0.2985  0.7263
  101TMC2    C5 1572   0.939   1.478  12.687 -0.2448  0.2781  0.2124
  101TMC2    C6 1573   0.852   1.574  12.647  0.2490  0.4384  0.0083
  101TMC2     C 1574   0.716   1.268  12.891 -0.0633  0.5915 -0.5945
  101TMC2     O 1575   0.617   1.294  12.954  0.0708  0.6681 -0.3218
  101TMC2     H 1576   0.584   1.476  12.827  0.0695 -0.2682 -0.0950
  101TMC2    H1 1577   0.975   1.311  12.822 -0.8768 -0.4135  1.9709
  101TMC2    H2 1578   0.884   1.663  12.592  3.7840  0.4414  2.0694
  101TMC2    C7 1579   1.076   1.505  12.638 -0.3634 -0.1286 -0.2855
  101TMC2    C8 1580   0.651   1.694  12.679  0.1074 -0.8111  0.2876
  101TMC2    O1 1581   1.090   1.554  12.527  0.3676  0.1023  0.3094
  101TMC2    O2 1582   0.647   1.761  12.573 -0.0212  0.2640  0.4719
  101TMC2    O5 1583   0.623   1.737  12.804 -0.5647 -0.6883 -0.1304
  101TMC2    H5 1584   0.680   1.690  12.868 -0.8336  0.4774  0.9643
  102MPD2     C 1585   0.852   0.924  12.903 -0.6724  0.2508  0.2626
  102MPD2    C1 1586   0.757   1.019  12.928 -0.3109 -0.2723 -0.2144
  102MPD2    C2 1587   0.645   0.988  13.005  0.2416  0.1404 -0.5665
  102MPD2    C3 1588   0.617   0.864  13.059 -0.1422 -0.3183  0.4130
  102MPD2    C4 1589   0.714   0.769  13.028  0.1177 -0.3569 -0.3944
  102MPD2    C5 1590   0.830   0.799  12.957 -0.3745 -0.1797  0.3796
  102MPD2     H 1591   0.574   1.066  13.030 -0.6334 -1.4078  1.7655
  102MPD2    H1 1592   0.711   0.668  13.067 -0.3355 -0.5667 -0.9605
  102MPD2    H2 1593   0.937   0.950  12.841 -0.0181 -0.3025  0.9333
  102MPD2    H3 1594   0.910   0.726  12.952 -2.2948 -2.2291 -0.5870
  102MPD2     N 1595   0.502   0.841  13.146  0.1342  0.2183  0.2386
  102MPD2    H5 1596   0.436   0.916  13.165 -1.8859 -0.9774 -2.0824
  102MPD2    N1 1597   0.786   1.151  12.874  0.5872 -0.2181 -0.0310
  102MPD2    H7 1598   0.863   1.156  12.808  0.3774 -0.6959 -0.3126
  103TMC2    C1 1599   3.779   0.872  12.539 -0.5454 -0.2532  0.3033
  103TMC2    C2 1600   3.917   0.863  12.535  0.6962  0.3524  0.1496
  103TMC2    C3 1601   3.987   0.938  12.627  0.1347  0.2845  0.1894
  103TMC2    C4 1602   3.719   0.957  12.631  0.0129 -0.1673 -0.4408
  103TMC2    C5 1603   3.800   1.019  12.729 -0.1694 -0.5255 -0.1724
  103TMC2    C6 1604   3.937   1.011  12.730  0.1864  0.0942 -0.9740
  103TMC2     C 1605   3.693   0.754  12.502  0.6947 -0.6906  0.2818
  103TMC2     O 1606   3.571   0.773  12.481  0.1714 -0.4458 -0.1559
  103TMC2     H 1607   3.981   0.803  12.470 -0.1311 -0.0841 -0.2641
  103TMC2    H1 1608   3.613   0.979  12.631  0.3017  1.2084  2.8895
  103TMC2    H2 1609   4.007   1.057  12.797  0.5190 -1.3630 -0.3082
  103TMC2    C7 1610   3.737   1.033  12.855  0.5267  0.7205 -0.1968
  103TMC2    C8 1611   4.127   0.941  12.612  0.1640 -0.7037  0.8027
  103TMC2    O1 1612   3.628   0.976  12.877  0.2238  0.4842  0.4985
  103TMC2    O2 1613   4.176   0.953  12.499 -0.1848 -0.2628 -0.2172
  103TMC2    O5 1614   4.188   0.896  12.719  0.4576 -0.0909  0.0139
  103TMC2    H5 1615   4.120   0.867  12.784  2.0390  3.0863  3.0987
  104MPD2     C 1616   3.805   0.411  12.539 -0.8475 -0.0494  0.8094
  104MPD2    C1 1617   3.728   0.512  12.490  0.7335  0.5518  0.5354
  104MPD2    C2 1618   3.630   0.492  12.390  0.4613 -0.3443  0.4660
  104MPD2    C3 1619   3.615   0.362  12.354  0.5487  1.0802 -0.9381
  104MPD2    C4 1620   3.686   0.258  12.404  0.3171  0.0187  0.0936
  104MPD2    C5 1621   3.782   0.282  12.498  0.1647  0.3860 -0.5531
  104MPD2     H 1622   3.561   0.570  12.359  1.0189  0.7508  1.9977
  104MPD2    H1 1623   3.665   0.157  12.370 -0.0363  0.1813 -0.1717
  104MPD2    H2 1624   3.885   0.428  12.610 -0.5773 -1.0259  0.7474
  104MPD2    H3 1625   3.849   0.202  12.529 -1.1375 -0.7881 -0.7855
  104MPD2     N 1626   3.522   0.326  12.253 -0.0234 -0.0039  0.0882
  104MPD2    H5 1627   3.510   0.229  12.228 -0.5315 -0.5497  2.4499
  104MPD2    N1 1628   3.766   0.644  12.528 -0.1869 -0.6583 -0.3270
  104MPD2    H7 1629   3.852   0.662  12.579 -0.9191 -2.3458  1.5282
  105TMC2    C1 1630   0.007   4.693   0.283  0.1016  0.4585 -1.0906
  105TMC2    C2 1631   4.609   4.713   0.304 -0.2511 -0.1138 -0.3399
  105TMC2    C3 1632   4.578   0.040   0.420 -0.1665 -0.0073 -0.4319
  105TMC2    C4 1633   0.096   4.720   0.379 -0.3130 -0.2090  0.5049
  105TMC2    C5 1634   0.058   0.044   0.495  0.2492  0.1234 -0.0980
  105TMC2    C6 1635   4.662   0.078   0.523 -0.5340 -0.2536 -0.6416
  105TMC2     C 1636   0.044   4.674   0.147  0.3463  0.0116 -0.1390
  105TMC2     O 1637   4.699   4.604   0.087 -0.1734  0.6478 -0.2071
  105TMC2     H 1638   4.539   4.715   0.221  1.3984 -0.0516 -1.7207
  105TMC2    H1 1639   0.203   4.717   0.365 -0.3374  0.4995  0.2133
  105TMC2    H2 1640   4.627   0.119   0.618  1.2222  1.4391 -0.7235
  105TMC2    C7 1641   0.144   0.021   0.608  1.1861 -0.0067 -0.3607
  105TMC2    C8 1642   4.432   0.039   0.434 -0.6237 -0.2592  0.5064
  105TMC2    O1 1643   0.235   4.677   0.599  0.4539  0.2282 -0.7132
  105TMC2    O2 1644   4.377   0.034   0.539  0.0984 -0.2990 -0.2795
  105TMC2    O5 1645   4.394   0.112   0.329 -0.6684  0.1913  0.5918
  105TMC2    H5 1646   4.468   0.132   0.268  0.8656  0.7576  2.6245
  106MPD2     C 1647   0.260   0.079  17.431 -0.2090 -0.2534  0.2060
  106MPD2    C1 1648   0.281   0.185  17.527  0.1102  0.2012  0.3422
  106MPD2    C2 1649   0.245   0.166  17.662  0.3499 -0.2043 -0.9189
  106MPD2    C3 1650   0.179   0.055  17.695  0.1185 -0.2116 -0.5473
  106MPD2    C4 1651   0.143   4.695  17.599 -0.3959 -0.4067 -0.5206
  106MPD2    C5 1652   0.182   4.705  17.467 -0.2937 -0.2877 -0.1106
  106MPD2     H 1653   0.266   0.246  17.731  0.3229 -0.3461 -0.7451
  106MPD2    H1 1654   0.076   4.615  17.628 -0.1427  0.0806  1.4107
  106MPD2    H2 1655   0.293   0.080  17.328  1.5489  0.2892  0.7707
  106MPD2    H3 1656   0.149   4.628  17.398  3.7778 -1.4068 -0.8178
  106MPD2     N 1657   0.143   0.031   0.099  0.8561  0.5446  0.0296
  106MPD2    H5 1658   0.181   0.096   0.167  0.5105 -1.0628  1.7661
  106MPD2    N1 1659   0.345   0.301  17.487 -0.3499 -0.2037 -0.9596
  106MPD2    H7 1660   0.364   0.370  17.559 -1.0071 -1.6754  0.6230
  107TMC2    C1 1661   0.925   4.474  11.638  0.5814 -0.4603  0.4173
  107TMC2    C2 1662   0.970   4.345  11.625 -0.0537  0.2558 -0.6326
  107TMC2    C3 1663   1.061   4.311  11.524  0.0781  0.7034  0.6566
  107TMC2    C4 1664   0.970   4.567  11.555 -0.6709  0.8397  1.1104
  107TMC2    C5 1665   1.066   4.531  11.459 -0.9055 -0.1093 -0.0859
  107TMC2    C6 1666   1.120   4.409  11.448 -0.4303  0.1444 -0.3921
  107TMC2     C 1667   0.790   4.500  11.688  0.1747  0.0093  0.6991
  107TMC2     O 1668   0.786   4.599  11.760 -0.2187  0.1411  0.1487
  107TMC2     H 1669   0.929   4.261  11.680 -1.4916  1.3355 -0.0472
  107TMC2    H1 1670   0.942   4.670  11.572 -0.2547  1.1574 -0.0866
  107TMC2    H2 1671   1.208   4.379  11.392 -1.3862 -1.8982 -0.8264
  107TMC2    C7 1672   1.140   4.633  11.387  0.0534  0.2966  0.3975
  107TMC2    C8 1673   1.105   4.172  11.523 -0.0391 -0.3109 -0.5962
  107TMC2    O1 1674   1.157   0.011  11.433  0.0017  0.9178 -0.1758
  107TMC2    O2 1675   1.104   4.092  11.619 -0.4778 -0.1279  0.1726
  107TMC2    O5 1676   1.167   4.148  11.403  0.1880 -0.6158  0.5154
  107TMC2    H5 1677   1.134   4.212  11.337  0.1282 -0.6767  0.4863
  108MPD2     C 1678   0.471   4.370  11.552  0.0586 -0.1751  0.0480
  108MPD2    C1 1679   0.553   4.449  11.632 -0.1728 -0.2939 -0.2265
  108MPD2    C2 1680   0.494   4.533  11.722  0.2816 -0.0357  0.2311
  108MPD2    C3 1681   0.358   4.541  11.743 -0.0491  0.7641  0.4685
  108MPD2    C4 1682   0.279   4.463  11.657 -0.4262  0.5493  0.1964
  108MPD2    C5 1683   0.334   4.381  11.560 -0.3148  0.3972  1.1368
  108MPD2     H 1684   0.566   4.584  11.784 -0.4587  2.0296 -0.6128
  108MPD2    H1 1685   0.171   4.468  11.663 -0.4689  0.0542 -0.2239
  108MPD2    H2 1686   0.511   4.295  11.484 -1.3737 -1.9666  1.1655
  108MPD2    H3 1687   0.274   4.314  11.499  1.0710  0.3906 -0.2147
  108MPD2     N 1688   0.297   4.611  11.849 -0.6712  0.3490  0.4520
  108MPD2    H5 1689   0.200   4.586  11.865 -0.2495 -1.0075  0.8403
  108MPD2    N1 1690   0.695   4.432  11.615 -1.5181  0.1073 -0.0887
  108MPD2    H7 1691   0.732   4.370  11.544  1.0365  1.1311  0.3753
  109TMC2    C1 1692   0.549   2.936   0.540  0.7905 -0.1916  0.1367
  109TMC2    C2 1693   0.546   2.997   0.415  0.1093  0.2034 -0.1954
  109TMC2    C3 1694   0.649   2.956   0.335  0.1171  0.1222 -0.2340
  109TMC2    C4 1695   0.647   2.846   0.580 -0.0638 -0.0033  1.1888
  109TMC2    C5 1696   0.743   2.814   0.492  0.0944 -0.7470 -0.2650
  109TMC2    C6 1697   0.749   2.867   0.365 -0.0576  0.1963  0.2890
  109TMC2     C 1698   0.446   2.971   0.629 -0.1521  0.5795 -0.2407
  109TMC2     O 1699   0.396   3.083   0.612 -0.1426  0.1256 -0.2318
  109TMC2     H 1700   0.472   3.073   0.391 -0.0606  0.5943  1.5113
  109TMC2    H1 1701   0.647   2.813   0.683 -1.3173 -1.1224  0.8289
  109TMC2    H2 1702   0.832   2.840   0.301  0.1132  0.0182  0.5868
  109TMC2    C7 1703   0.858   2.746   0.543 -0.3798  0.0577  0.3918
  109TMC2    C8 1704   0.637   2.978   0.192  0.4338 -0.0073  0.5656
  109TMC2    O1 1705   0.849   2.675   0.644 -0.5446 -0.1504 -0.5370
  109TMC2    O2 1706   0.623   3.091   0.151 -0.2052 -0.3842 -0.3075
  109TMC2    O5 1707   0.608   2.862   0.138 -0.1381  0.1180 -0.1842
  109TMC2    H5 1708   0.592   2.792   0.205 -0.9872  0.1891 -0.3100
  110MPD2     C 1709   0.114   2.848   0.992 -0.3601  0.2962 -0.2542
  110MPD2    C1 1710   0.193   2.737   0.972 -0.1070 -1.3297  0.7175
  110MPD2    C2 1711   0.290   2.745   0.871  0.2311 -0.1586 -0.6984
  110MPD2    C3 1712   0.304   2.865   0.799  0.4190  0.4788 -0.2695
  110MPD2    C4 1713   0.234   2.978   0.831  0.5638  0.5294  0.3990
  110MPD2    C5 1714   0.142   2.973   0.933 -0.3719 -0.2212 -0.7807
  110MPD2     H 1715   0.353   2.663   0.841 -0.7104 -1.0026 -0.3664
  110MPD2    H1 1716   0.244   3.075   0.784 -1.0140  1.4090  1.8502
  110MPD2    H2 1717   0.037   2.852   1.068 -0.2578 -2.7366  0.0346
  110MPD2    H3 1718   0.087   3.057   0.974  1.2060 -0.2590  1.4418
  110MPD2     N 1719   0.410   2.861   0.703 -0.2299 -0.4065  0.4616
  110MPD2    H5 1720   0.455   2.772   0.682 -0.1593 -0.3367  0.3192
  110MPD2    N1 1721   0.167   2.620   1.052 -1.0048  0.1792 -0.3475
  110MPD2    H7 1722   0.092   2.622   1.120  0.3758 -3.8143  1.2751
  111TMC2    C1 1723   0.735   2.257  11.829  0.1839 -0.4962  0.7555
  111TMC2    C2 1724   0.694   2.372  11.762  0.2243 -0.0746 -0.1325
  111TMC2    C3 1725   0.792   2.468  11.741 -0.4186 -0.5873  0.4372
  111TMC2    C4 1726   0.862   2.237  11.863 -0.6374  1.0285  0.5827
  111TMC2    C5 1727   0.960   2.330  11.833  0.1297  0.0745  0.8950
  111TMC2    C6 1728   0.925   2.451  11.779 -0.5869  0.4453 -0.3987
  111TMC2     C 1729   0.669   2.143  11.779  0.5604 -0.3469 -0.2363
  111TMC2     O 1730   0.616   2.153  11.669 -0.0350 -0.7405 -0.1622
  111TMC2     H 1731   0.594   2.378  11.720  0.0979  2.0279  0.4523
  111TMC2    H1 1732   0.891   2.149  11.918  0.1780  0.8616 -0.1056
  111TMC2    H2 1733   0.998   2.530  11.761 -1.2111  0.6938 -1.7959
  111TMC2    C7 1734   1.094   2.297  11.868  1.2142 -0.8540 -0.4545
  111TMC2    C8 1735   0.768   2.565  11.638 -0.2274  0.5683  0.0315
  111TMC2    O1 1736   1.103   2.230  11.970  0.4758 -0.6384 -0.1009
  111TMC2    O2 1737   0.862   2.623  11.582  0.1868  0.1870  0.1585
  111TMC2    O5 1738   0.653   2.621  11.663 -0.3134 -0.6229 -0.7414
  111TMC2    H5 1739   0.600   2.565  11.723 -3.4406  0.7024 -2.2662
  112MPD2     C 1740   0.665   1.625  11.769  0.2594  0.2429 -0.3890
  112MPD2    C1 1741   0.652   1.723  11.674 -0.5310 -0.8087 -0.6546
  112MPD2    C2 1742   0.647   1.858  11.702  1.0146 -0.5549 -0.8343
  112MPD2    C3 1743   0.666   1.903  11.834 -0.3407  0.6547 -0.0433
  112MPD2    C4 1744   0.691   1.802  11.932 -0.4900 -0.2334 -0.4282
  112MPD2    C5 1745   0.683   1.667  11.902 -0.3851 -0.9727  0.8558
  112MPD2     H 1746   0.626   1.926  11.620  1.6328  0.9983  0.2823
  112MPD2    H1 1747   0.713   1.823  12.036  2.6117  1.3918 -1.3996
  112MPD2    H2 1748   0.663   1.519  11.744 -0.1898 -0.1349  1.2154
  112MPD2    H3 1749   0.724   1.602  11.978 -2.1041 -1.5208  1.3095
  112MPD2     N 1750   0.676   2.038  11.867  0.0957  0.5574  0.6440
  112MPD2    H5 1751   0.715   2.054  11.960  0.6503  2.4290  0.0924
  112MPD2    N1 1752   0.645   1.691  11.536  0.0819 -0.2509 -0.2992
  112MPD2    H7 1753   0.658   1.764  11.468  1.8488 -0.5961 -0.3409
  113TMC2    C1 1754   3.685   0.014   1.091 -0.4551 -0.1531  0.0725
  113TMC2    C2 1755   3.713   4.709   0.957 -0.3103  0.3364  0.2327
  113TMC2    C3 1756   3.603   4.675   0.880  0.0565  0.6918  0.9005
  113TMC2    C4 1757   3.559   0.026   1.138  0.1112 -0.0805 -0.3593
  113TMC2    C5 1758   3.458   4.718   1.057 -0.2382 -0.7799  0.0131
  113TMC2    C6 1759   3.478   4.679   0.927 -0.8998  0.5602  1.0019
  113TMC2     C 1760   3.791   0.021   1.192 -0.1806 -0.5369  0.0364
  113TMC2     O 1761   3.766   0.079   1.297  0.3567  0.1330  0.0138
  113TMC2     H 1762   3.809   4.712   0.907 -0.2540 -1.4084  0.2111
  113TMC2    H1 1763   3.542   0.026   1.244 -0.1383  1.0779 -0.3994
  113TMC2    H2 1764   3.391   4.648   0.870  0.3630  0.2976 -0.7923
  113TMC2    C7 1765   3.342   4.658   1.123 -0.3238 -0.7001 -0.8448
  113TMC2    C8 1766   3.616   4.708   0.738 -0.3359  0.1760 -1.3586
  113TMC2    O1 1767   3.290   0.001   1.205 -0.1732 -0.3364 -0.1848
  113TMC2    O2 1768   3.711   4.667   0.670  0.1778  0.2100  0.1529
  113TMC2    O5 1769   3.517   0.063   0.708 -0.2634  0.6279  0.4320
  113TMC2    H5 1770   3.458   0.089   0.782 -1.2057  0.8519 -0.4074
  114MPD2     C 1771   4.257   4.641   1.367  0.9839 -0.3439  0.3380
  114MPD2    C1 1772   4.168   0.015   1.397  0.2651 -0.4987 -0.2656
  114MPD2    C2 1773   4.052   0.017   1.330  0.5863  0.3828 -0.0233
  114MPD2    C3 1774   4.016   4.655   1.229 -0.0986 -0.2368  0.3166
  114MPD2    C4 1775   4.109   4.566   1.190 -0.0949  0.1997  0.0995
  114MPD2    C5 1776   4.229   4.565   1.261  0.3842  0.5289  0.2076
  114MPD2     H 1777   3.987   0.102   1.348 -1.0974 -1.0679  0.8047
  114MPD2    H1 1778   4.079   4.495   1.113  2.2934  0.3031 -0.9128
  114MPD2    H2 1779   4.351   4.632   1.420 -0.3380 -2.1592  2.3697
  114MPD2    H3 1780   4.298   4.483   1.243  1.9362  2.1218 -1.0652
  114MPD2     N 1781   3.895   4.671   1.154 -0.2366  0.1421  0.5648
  114MPD2    H5 1782   3.888   4.618   1.068  3.1449 -0.5859  0.7220
  114MPD2    N1 1783   4.201   0.118   1.486 -0.3905 -0.0464 -0.2085
  114MPD2    H7 1784   4.127   0.187   1.497 -0.8636 -0.5784 -0.0895
  115TMC2    C1 1785   0.003   2.210   0.232 -0.5286  0.5667 -0.3603
  115TMC2    C2 1786   0.140   2.206   0.218 -0.3636  0.0280 -0.9217
  115TMC2    C3 1787   0.201   2.329   0.199 -0.4971 -0.1781  0.4927
  115TMC2    C4 1788   4.660   2.323   0.218 -0.1098 -0.0936 -0.2164
  115TMC2    C5 1789   4.726   2.436   0.192 -0.1027 -0.0198 -0.6032
  115TMC2    C6 1790   0.130   2.443   0.182 -0.3720  0.0079 -0.3476
  115TMC2     C 1791   4.668   2.084   0.234 -0.4841 -0.7288  0.5258
  115TMC2     O 1792   4.722   1.983   0.192 -0.3793  0.3384 -0.4678
  115TMC2     H 1793   0.201   2.117   0.228  0.2066  0.5261  0.0237
  115TMC2    H1 1794   4.553   2.312   0.210  0.0194 -0.4373 -1.5853
  115TMC2    H2 1795   0.185   2.537   0.180 -1.6188  0.7542  0.1063
  115TMC2    C7 1796   4.659   2.558   0.231 -0.7542  0.8461  0.4716
  115TMC2    C8 1797   0.337   2.344   0.224  0.3047 -0.0025  0.1323
  115TMC2    O1 1798   4.558   2.547   0.299 -0.1097 -0.4034  0.3185
  115TMC2    O2 1799   0.405   2.411   0.149  0.1779  0.5704  0.5000
  115TMC2    O5 1800   0.348   2.362   0.356 -0.1474 -0.1961  1.2348
  115TMC2    H5 1801   0.273   2.322   0.405 -1.7551  1.6906  0.2733
  116MPD2     C 1802   4.220   1.837   0.288  0.1456  0.2713  0.1358
  116MPD2    C1 1803   4.326   1.827   0.195  0.1078  0.3910 -0.2210
  116MPD2    C2 1804   4.439   1.901   0.206 -0.2445 -0.0889 -0.2085
  116MPD2    C3 1805   4.443   1.999   0.305  0.2223  0.1565 -0.9776
  116MPD2    C4 1806   4.333   2.021   0.386  0.2981  0.0352  0.0331
  116MPD2    C5 1807   4.226   1.936   0.377  0.2669 -0.1033 -0.3732
  116MPD2     H 1808   4.518   1.895   0.131 -1.0741 -0.5193 -1.0488
  116MPD2    H1 1809   4.325   2.096   0.464 -0.2464  0.4305 -0.4075
  116MPD2    H2 1810   4.139   1.769   0.270  1.4694 -0.9733 -1.0781
  116MPD2    H3 1811   4.142   1.964   0.440  0.4966 -0.8978  0.2902
  116MPD2     N 1812   4.552   2.094   0.305  0.5767 -0.6758  0.3184
  116MPD2    H5 1813   4.538   2.174   0.367  0.3433  0.0251 -0.6452
  116MPD2    N1 1814   4.312   1.728   0.096  0.1124  0.1058  0.5301
  116MPD2    H7 1815   4.219   1.691   0.076  0.8623 -1.7075  0.4062
  117TMC2    C1 1816   3.816   3.547  14.040  0.3713  0.5181  0.4953
  117TMC2    C2 1817   3.941   3.482  14.030 -0.5209 -0.2199 -0.4227
  117TMC2    C3 1818   4.043   3.546  13.967 -0.1976  0.3393 -0.4867
  117TMC2    C4 1819   3.805   3.679  13.996 -0.6283  0.1728 -0.1081
  117TMC2    C5 1820   3.910   3.735  13.931 -0.1150 -0.1587 -0.7792
  117TMC2    C6 1821   4.027   3.668  13.906  0.5859 -0.0752  0.4272
  117TMC2     C 1822   3.707   3.495  14.119 -0.1801 -0.3371 -0.3250
  117TMC2     O 1823   3.745   3.413  14.200 -0.3511  0.4076  0.1443
  117TMC2     H 1824   3.956   3.387  14.079  0.3270  0.0070 -0.2431
  117TMC2    H1 1825   3.709   3.728  14.013 -0.1080  1.0388  0.3646
  117TMC2    H2 1826   4.109   3.716  13.853  1.3315  1.3874  2.8879
  117TMC2    C7 1827   3.868   3.844  13.854 -0.2566  0.3892  0.0804
  117TMC2    C8 1828   4.156   3.461  13.940  0.5551  1.2098 -0.2077
  117TMC2    O1 1829   3.788   3.914  13.917 -0.2713 -0.3368 -0.1197
  117TMC2    O2 1830   4.147   3.338  13.949 -0.4816 -0.3538  0.3301
  117TMC2    O5 1831   4.262   3.533  13.900  0.1125  0.0534 -0.4337
  117TMC2    H5 1832   4.260   3.631  13.905  1.9387  0.1868 -2.1118
  118MPD2     C 1833   4.009   3.972  13.548 -0.3162  0.0587 -0.2654
  118MPD2    C1 1834   3.943   3.982  13.661 -0.6129 -0.4621 -0.7843
  118MPD2    C2 1835   3.891   4.101  13.709 -0.0122 -0.4680 -0.2527
  118MPD2    C3 1836   3.913   4.221  13.640 -0.8147 -0.7372 -0.2842
  118MPD2    C4 1837   3.982   4.210  13.521  0.7110  0.6960  0.2249
  118MPD2    C5 1838   4.022   4.093  13.477 -0.2529  0.9174 -0.2503
  118MPD2     H 1839   3.840   4.103  13.804  1.1961  0.0156  0.3884
  118MPD2    H1 1840   4.001   4.291  13.452  0.5937  1.4094  1.0258
  118MPD2    H2 1841   4.019   3.873  13.506 -0.8905 -0.3291  0.5252
  118MPD2    H3 1842   4.070   4.090  13.380 -1.7935  0.2222 -0.9954
  118MPD2     N 1843   3.858   4.347  13.675  0.1393  0.4990 -0.2295
  118MPD2    H5 1844   3.878   4.420  13.608 -0.5630  0.4074 -0.5343
  118MPD2    N1 1845   3.929   3.855  13.731  0.0230 -0.5621 -0.5935
  118MPD2    H7 1846   3.974   3.774  13.689 -0.6355 -0.5463 -1.3432
  119TMC2    C1 1847   0.904   0.229  12.767 -0.0405 -0.0786 -0.3155
  119TMC2    C2 1848   0.965   0.183  12.652  0.1189  0.2978  0.1855
  119TMC2    C3 1849   0.957   0.046  12.631 -0.3536 -0.5817  0.1907
  119TMC2    C4 1850   0.840   0.149  12.854 -0.2217 -0.5857  0.3696
  119TMC2    C5 1851   0.835   0.014  12.832  0.9768  0.2367 -0.8162
  119TMC2    C6 1852   0.891   4.693  12.714  0.6442  0.5027  0.2104
  119TMC2     C 1853   0.949   0.355  12.828  0.3204  0.0599 -0.4542
  119TMC2     O 1854   0.923   0.374  12.945  0.0190  0.0830  0.3585
  119TMC2     H 1855   1.030   0.240  12.587 -0.3136  1.8468  1.1041
  119TMC2    H1 1856   0.775   0.188  12.931  0.6654  2.3821 -0.3734
  119TMC2    H2 1857   0.899   4.586  12.704 -0.0089  0.4732 -0.0103
  119TMC2    C7 1858   0.870   4.661  12.944  0.1132 -0.0937  0.0620
  119TMC2    C8 1859   1.055   4.720  12.551 -0.4051  0.1837  0.0043
  119TMC2    O1 1860   0.887   4.541  12.930  0.3537 -0.3362 -0.2471
  119TMC2    O2 1861   1.175   4.716  12.570 -0.3497 -0.1761  0.2642
  119TMC2    O5 1862   0.990   4.611  12.490 -0.1399  0.0267 -0.1942
  119TMC2    H5 1863   0.901   4.631  12.455 -0.0966 -0.4605 -0.5910
  120MPD2     C 1864   1.246   0.779  12.824  0.0947 -0.2283  0.1065
  120MPD2    C1 1865   1.196   0.695  12.928 -0.4792  0.2197  0.0367
  120MPD2    C2 1866   1.115   0.585  12.900 -0.1817 -0.3944 -0.6425
  120MPD2    C3 1867   1.084   0.559  12.770 -0.2065  0.5391 -0.1191
  120MPD2    C4 1868   1.136   0.640  12.669  0.0169  0.6330 -0.1274
  120MPD2    C5 1869   1.219   0.746  12.698 -0.0387 -0.5020 -0.2538
  120MPD2     H 1870   1.078   0.520  12.978 -0.6043  0.2666 -0.2867
  120MPD2    H1 1871   1.122   0.612  12.566 -0.1639  0.9457 -0.1888
  120MPD2    H2 1872   1.308   0.865  12.847 -0.4746  0.1756  0.1348
  120MPD2    H3 1873   1.251   0.817  12.622  0.7360 -0.3635  0.2024
  120MPD2     N 1874   1.008   0.445  12.736  0.8187 -0.0742  0.5559
  120MPD2    H5 1875   0.987   0.431  12.638 -1.2409 -1.1144  1.1483
  120MPD2    N1 1876   1.243   0.716  13.058  0.0312  0.5269 -0.2612
  120MPD2    H7 1877   1.324   0.776  13.062  0.4795  0.1371 -2.9678
  121TMC2    C1 1878   3.131   1.960  14.418  0.8231 -0.4658 -0.0785
  121TMC2    C2 1879   3.211   2.046  14.485  0.9636 -0.1701 -0.0359
  121TMC2    C3 1880   3.228   2.035  14.620  0.4567 -0.0968 -0.1536
  121TMC2    C4 1881   3.072   1.850  14.486  0.0116  0.7376  0.5956
  121TMC2    C5 1882   3.075   1.856  14.626  0.4337  0.0489 -0.1604
  121TMC2    C6 1883   3.161   1.945  14.691  0.0666 -0.8735  0.2618
  121TMC2     C 1884   3.044   2.033  14.323 -0.0969 -0.6630  0.2653
  121TMC2     O 1885   2.927   2.040  14.347  0.5516 -0.6496 -0.6444
  121TMC2     H 1886   3.250   2.137  14.440  2.0018 -0.2711  0.6538
  121TMC2    H1 1887   2.997   1.792  14.434  2.4744  1.0872 -3.3100
  121TMC2    H2 1888   3.166   1.943  14.799  0.3989  2.7264  0.3050
  121TMC2    C7 1889   2.944   1.861  14.693 -0.0179 -0.0214 -0.0359
  121TMC2    C8 1890   3.280   2.151  14.688  0.3896  0.1586 -0.3411
  121TMC2    O1 1891   2.949   1.859  14.815 -0.2082 -0.8252 -0.3539
  121TMC2    O2 1892   3.228   2.182  14.794 -0.1578  0.4170  0.6161
  121TMC2    O5 1893   3.406   2.176  14.654  0.1510  0.2043  0.1922
  121TMC2    H5 1894   3.427   2.133  14.567 -0.4698 -1.0408  0.6592
  122MPD2     C 1895   2.935   2.200  14.095 -0.3119  0.4036  0.3881
  122MPD2    C1 1896   3.061   2.143  14.099 -0.3770  0.4816  0.9135
  122MPD2    C2 1897   3.141   2.135  13.982  0.6408 -0.2567  0.0400
  122MPD2    C3 1898   3.093   2.191  13.869 -0.0242  0.0628  0.1002
  122MPD2    C4 1899   2.966   2.246  13.871 -0.1639 -0.9771  0.0475
  122MPD2    C5 1900   2.886   2.248  13.978 -0.7629  0.1323  0.1458
  122MPD2     H 1901   3.236   2.083  13.985  0.7883  0.0832  1.2917
  122MPD2    H1 1902   2.939   2.295  13.778  0.3996 -1.8694 -0.5888
  122MPD2    H2 1903   2.869   2.220  14.178 -0.5306 -1.2002  0.5943
  122MPD2    H3 1904   2.789   2.297  13.978 -1.1993 -0.7461  0.8277
  122MPD2     N 1905   3.164   2.204  13.748  0.6338 -0.1213 -0.4789
  122MPD2    H5 1906   3.117   2.252  13.672  1.3959  1.3212 -0.0454
  122MPD2    N1 1907   3.118   2.078  14.215 -0.0182 -0.0273  0.1446
  122MPD2    H7 1908   3.219   2.067  14.219  0.0016  0.6294  1.5740
  123TMC2    C1 1909   1.047   0.392  10.924 -0.4368  0.0672  0.8428
  123TMC2    C2 1910   1.075   0.525  10.925  1.0034  0.5605  0.2868
  123TMC2    C3 1911   1.106   0.595  10.809  0.1459 -0.0494  0.1308
  123TMC2    C4 1912   1.069   0.324  10.807  0.7247 -0.0365  0.2218
  123TMC2    C5 1913   1.111   0.389  10.692  0.0875  0.6692  0.0654
  123TMC2    C6 1914   1.128   0.525  10.695  0.0236 -0.0650 -0.2250
  123TMC2     C 1915   0.990   0.320  11.041  0.0975  0.2696  0.0120
  123TMC2     O 1916   0.962   0.385  11.142 -0.3652 -0.6477 -0.5246
  123TMC2     H 1917   1.038   0.574  11.015 -2.4026  0.6486 -1.1659
  123TMC2    H1 1918   1.039   0.219  10.804 -2.7188  1.0527 -3.5730
  123TMC2    H2 1919   1.149   0.587  10.608 -1.3842  1.9055  0.8456
  123TMC2    C7 1920   1.133   0.305  10.575 -0.3127 -0.1931 -0.1243
  123TMC2    C8 1921   1.067   0.735  10.798 -0.3394  0.6790  0.0351
  123TMC2    O1 1922   1.102   0.190  10.592 -0.2408  0.2493  0.1955
  123TMC2    O2 1923   1.044   0.784  10.689 -0.0080  0.2845  0.1470
  123TMC2    O5 1924   1.054   0.796  10.917 -0.5993  0.4283  0.5753
  123TMC2    H5 1925   1.107   0.765  10.994  0.9763  1.7523  0.0379
  124MPD2     C 1926   0.749   4.622  11.189 -0.0688  0.1145  0.0353
  124MPD2    C1 1927   0.780   4.613  11.055 -0.4395  0.3684  0.3142
  124MPD2    C2 1928   0.833   4.725  10.996  0.1399 -0.0667  0.2702
  124MPD2    C3 1929   0.870   0.100  11.073 -0.3619  0.4462  0.6360
  124MPD2    C4 1930   0.852   0.097  11.213 -0.2245  0.2867 -0.2125
  124MPD2    C5 1931   0.783   4.726  11.267  0.9904  0.4727 -0.0422
  124MPD2     H 1932   0.860   4.719  10.891  0.9486  4.0047  0.2169
  124MPD2    H1 1933   0.887   0.175  11.280 -0.1505  2.3685 -2.6694
  124MPD2    H2 1934   0.712   4.542  11.252 -0.0095 -0.6046 -0.8486
  124MPD2    H3 1935   0.759   4.718  11.372 -0.2590 -0.5798 -0.4023
  124MPD2     N 1936   0.922   0.209  10.998  0.0165 -0.3801  0.2827
  124MPD2    H5 1937   0.938   0.187  10.900  2.4190  1.7768  0.1679
  124MPD2    N1 1938   0.740   4.494  10.985 -0.8583 -0.8798 -0.4705
  124MPD2    H7 1939   0.683   4.428  11.035 -1.3903 -0.0180  0.0669
  125TMC2    C1 1940   0.946   1.019   8.970  0.8663  0.1811 -0.6283
  125TMC2    C2 1941   0.977   0.885   8.933  0.9503  0.4923 -0.1934
  125TMC2    C3 1942   0.865   0.814   8.887  0.2938  0.5925 -0.0481
  125TMC2    C4 1943   0.830   1.078   8.937  0.3177  0.7925  0.1532
  125TMC2    C5 1944   0.726   1.002   8.897  0.0152 -0.7179 -0.3943
  125TMC2    C6 1945   0.742   0.868   8.869  0.3328  0.2340 -0.4901
  125TMC2     C 1946   1.043   1.099   9.055 -0.1318  0.5503  0.3950
  125TMC2     O 1947   1.030   1.218   9.081 -0.7674 -0.2525 -0.0475
  125TMC2     H 1948   1.072   0.835   8.946  0.5918 -0.2853 -0.5113
  125TMC2    H1 1949   0.821   1.182   8.964  0.8642  0.3923  1.8903
  125TMC2    H2 1950   0.663   0.819   8.814 -0.2763  1.0328 -0.3330
  125TMC2    C7 1951   0.597   1.077   8.882 -0.1063 -0.2235  0.1363
  125TMC2    C8 1952   0.883   0.674   8.854 -0.6117  0.2868 -0.1750
  125TMC2    O1 1953   0.606   1.199   8.895 -0.2539 -0.2147  0.1452
  125TMC2    O2 1954   0.844   0.626   8.747 -0.9190  0.4802  0.0570
  125TMC2    O5 1955   0.932   0.616   8.954  0.3593 -0.2050 -0.1985
  125TMC2    H5 1956   0.964   0.675   9.025  0.3856  0.4042 -0.7134
  126MPD1     C 1957   1.496   1.098   9.293  0.2205  0.3355 -0.3080
  126MPD1    C1 1958   1.460   0.970   9.263 -0.0708 -0.1286  0.0106
  126MPD1    C2 1959   1.341   0.947   9.201  0.1855 -0.9065 -0.7344
  126MPD1    C3 1960   1.246   1.052   9.174 -0.4452  0.6312  0.3395
  126MPD1    C4 1961   1.282   1.180   9.210 -0.0551  0.0509  0.0487
  126MPD1    C5 1962   1.412   1.205   9.265 -0.5128 -0.3438 -0.1414
  126MPD1     H 1963   1.311   0.845   9.180  1.1161 -0.9622 -1.8201
  126MPD1    H1 1964   1.223   1.268   9.186 -0.0544  0.1836  0.5206
  126MPD1    H2 1965   1.595   1.117   9.332  0.9812 -3.2933 -0.5677
  126MPD1    H3 1966   1.457   1.301   9.287 -0.9234 -0.5779  1.6910
  126MPD1     N 1967   1.131   1.017   9.109  0.1965  0.2744  0.2922
  126MPD1    H5 1968   1.121   0.918   9.089  2.0167  0.1117  0.1270
  126MPD1    N1 1969   1.556   0.860   9.281 -0.4481  0.4566  0.2961
  126MPD1    H6 1970   1.527   0.765   9.259 -2.2089  0.9047  0.6873
  126MPD1    H7 1971   1.583   0.869   9.379  0.8597 -0.2991  0.0178
  127TMC2    C1 1972   3.505   0.541  10.240 -0.3305  0.1422  0.1452
  127TMC2    C2 1973   3.447   0.628  10.154  0.2003 -0.4644  0.2978
  127TMC2    C3 1974   3.313   0.622  10.133  0.5002  0.5064 -0.3126
  127TMC2    C4 1975   3.422   0.455  10.311  0.2582 -0.0088 -0.3024
  127TMC2    C5 1976   3.287   0.451  10.289 -0.3942 -0.4015  0.1517
  127TMC2    C6 1977   3.234   0.537  10.198 -0.3604 -1.1338 -0.3600
  127TMC2     C 1978   3.648   0.542  10.264 -0.6872 -0.2972 -0.0875
  127TMC2     O 1979   3.711   0.597  10.176  0.3044 -0.2919 -0.6324
  127TMC2     H 1980   3.517   0.686  10.096  0.4641  0.7287  1.8175
  127TMC2    H1 1981   3.465   0.377  10.373 -1.1786  1.6394  2.7574
  127TMC2    H2 1982   3.130   0.562  10.183  0.0249  0.9012  0.3072
  127TMC2    C7 1983   3.211   0.386  10.393  0.2933  0.0637  0.4514
  127TMC2    C8 1984   3.256   0.717  10.038  0.2708  0.4909 -0.0836
  127TMC2    O1 1985   3.266   0.367  10.503  0.2137 -0.0085  0.0524
  127TMC2    O2 1986   3.151   0.694   9.981 -0.3392  0.2695 -0.4212
  127TMC2    O5 1987   3.335   0.826  10.024  0.4638  0.3916  0.2993
  127TMC2    H5 1988   3.401   0.823  10.097  1.2213 -0.4214 -0.4120
  128MPD2     C 1989   3.840   0.464  10.554  0.4283  0.1066 -0.1911
  128MPD2    C1 1990   3.823   0.509  10.428  0.1942 -0.1587 -0.4851
  128MPD2    C2 1991   3.940   0.557  10.352 -0.6944 -0.0298  0.1269
  128MPD2    C3 1992   4.062   0.581  10.415 -0.0727 -0.4834 -0.1132
  128MPD2    C4 1993   4.071   0.535  10.543 -0.1380  0.4979 -0.0212
  128MPD2    C5 1994   3.966   0.475  10.609  0.6335 -0.2150  0.6849
  128MPD2     H 1995   3.932   0.594  10.250 -2.9833 -0.6514  0.0967
  128MPD2    H1 1996   4.165   0.545  10.597 -0.5407 -0.5615  0.8743
  128MPD2    H2 1997   3.757   0.424  10.611  1.5759  1.1444  2.1910
  128MPD2    H3 1998   3.980   0.443  10.712 -0.0128 -0.1467  0.7919
  128MPD2     N 1999   4.158   0.644  10.347  0.4644 -0.2243 -0.3849
  128MPD2    H5 2000   4.126   0.675  10.255  1.0898 -2.2510 -1.2839
  128MPD2    N1 2001   3.688   0.503  10.386 -0.5030  0.0215 -0.5955
  128MPD2    H7 2002   3.611   0.487  10.450 -0.8927 -2.2143 -1.6146
  129TMC2    C1 2003   2.625   0.948   1.346  0.2626 -0.7224 -0.0593
  129TMC2    C2 2004   2.641   0.811   1.335  0.4566 -0.7824  0.1746
  129TMC2    C3 2005   2.539   0.727   1.358 -0.4830  0.4536 -0.1584
  129TMC2    C4 2006   2.503   0.995   1.386 -0.6144 -0.8347 -0.1145
  129TMC2    C5 2007   2.398   0.912   1.391  0.2387 -0.3031  0.2736
  129TMC2    C6 2008   2.417   0.775   1.371 -0.3181  0.0413 -0.1309
  129TMC2     C 2009   2.734   1.030   1.305  0.7110  0.2625  0.1405
  129TMC2     O 2010   2.846   0.978   1.300  0.0676  0.2680  0.7276
  129TMC2     H 2011   2.738   0.771   1.308  0.8524  1.2669 -1.4749
  129TMC2    H1 2012   2.490   1.100   1.411 -0.8709 -1.0121  0.4878
  129TMC2    H2 2013   2.329   0.713   1.368 -0.2005 -0.2326  2.9826
  129TMC2    C7 2014   2.259   0.970   1.410 -0.0759  0.8046  0.5363
  129TMC2    C8 2015   2.548   0.588   1.313 -0.2727  0.1282 -0.0999
  129TMC2    O1 2016   2.175   0.887   1.432 -0.6976  0.8734  0.1029
  129TMC2    O2 2017   2.615   0.546   1.221  0.0903 -0.3217  0.1231
  129TMC2    O5 2018   2.462   0.510   1.383  0.2560 -0.9046  0.2960
  129TMC2    H5 2019   2.429   0.556   1.463 -0.8670 -2.3836  0.6896
  130MPD2     C 2020   2.920   1.256   1.242 -0.6590 -0.5370 -0.1819
  130MPD2    C1 2021   2.785   1.264   1.249 -0.3797 -0.0890  0.2623
  130MPD2    C2 2022   2.725   1.385   1.238 -0.2353  0.0169 -0.4593
  130MPD2    C3 2023   2.801   1.499   1.217 -0.5588  0.6812  0.1823
  130MPD2    C4 2024   2.945   1.495   1.222  0.5972 -0.6195  0.1498
  130MPD2    C5 2025   2.997   1.369   1.240 -0.1266  0.3222  0.2440
  130MPD2     H 2026   2.617   1.394   1.243 -0.1489  1.0428 -0.2606
  130MPD2    H1 2027   3.012   1.580   1.220 -0.7387  0.4094 -1.6430
  130MPD2    H2 2028   2.979   1.165   1.250 -0.4568 -0.3524  0.4087
  130MPD2    H3 2029   3.105   1.365   1.240  0.0034  3.9010  2.7319
  130MPD2     N 2030   2.732   1.617   1.213 -0.1678  0.3253  0.6361
  130MPD2    H5 2031   2.631   1.613   1.224 -0.2850  0.9532 -0.2168
  130MPD2    N1 2032   2.698   1.157   1.279 -0.5249  0.2141  0.0262
  130MPD2    H7 2033   2.598   1.174   1.278 -0.4496  0.5386 -1.5943
  131TMC2    C1 2034   0.804   0.313  10.202  0.3492  0.0865  0.3471
  131TMC2    C2 2035   0.862   0.393  10.301 -0.0667  0.0651 -0.2651
  131TMC2    C3 2036   0.909   0.514  10.267  0.4676 -0.3292 -0.1441
  131TMC2    C4 2037   0.827   0.346  10.069  0.0189  0.3231 -0.2708
  131TMC2    C5 2038   0.883   0.471  10.036  0.4603 -0.3445  0.2284
  131TMC2    C6 2039   0.920   0.559  10.142  0.1890 -0.6294 -0.5055
  131TMC2     C 2040   0.760   0.181  10.234  0.2373  1.0250 -0.1068
  131TMC2     O 2041   0.770   0.159  10.353 -0.3331  0.3902  0.4261
  131TMC2     H 2042   0.843   0.353  10.400  0.8425  2.5548  0.9210
  131TMC2    H1 2043   0.802   0.284   9.983 -1.1902 -2.5686  2.1846
  131TMC2    H2 2044   0.950   0.660  10.117  1.0230 -0.5658  0.7799
  131TMC2    C7 2045   0.922   0.510   9.911  0.3954 -0.2441  0.5684
  131TMC2    C8 2046   0.929   0.615  10.367  0.3559 -0.6592  0.1680
  131TMC2    O1 2047   0.865   0.471   9.809  0.3976 -0.2736 -0.6120
  131TMC2    O2 2048   1.019   0.697  10.367  0.3947 -0.0898 -0.1706
  131TMC2    O5 2049   0.836   0.606  10.460 -0.2213 -0.3875 -0.2824
  131TMC2    H5 2050   0.766   0.541  10.436  0.2391 -0.2937 -1.9087
  132MPD2     C 2051   0.556   4.666  10.051  0.6135  0.4422  0.9106
  132MPD2    C1 2052   0.635   4.714  10.152  0.1504 -0.2886  0.5383
  132MPD2    C2 2053   0.649   4.637  10.260  0.3799 -0.3425 -0.0387
  132MPD2    C3 2054   0.592   4.513  10.278  0.3732  0.4478  0.1904
  132MPD2    C4 2055   0.507   4.467  10.179  0.0024 -0.1587  0.4868
  132MPD2    C5 2056   0.491   4.542  10.065 -0.2091  0.2464 -0.0154
  132MPD2     H 2057   0.706   4.666  10.347  0.0897 -0.1903  0.0991
  132MPD2    H1 2058   0.442   4.382  10.191  1.3962 -0.9774  2.2751
  132MPD2    H2 2059   0.536   4.725   9.962  0.3582  0.5268  1.0227
  132MPD2    H3 2060   0.421   4.510   9.988 -2.5257 -2.3113  3.1200
  132MPD2     N 2061   0.603   4.462  10.408 -0.3894 -0.0809  0.0237
  132MPD2    H5 2062   0.673   4.514  10.460 -0.3084  0.9865 -1.1509
  132MPD2    N1 2063   0.688   0.113  10.137  0.1459 -0.0780  0.2656
  132MPD2    H7 2064   0.676   0.159  10.047 -1.8846 -0.6811  0.2346
  133TMC2    C1 2065   0.978   1.999   9.267  0.8371 -0.0205 -0.0147
  133TMC2    C2 2066   1.061   1.965   9.168 -0.0563  0.5887 -0.6752
  133TMC2    C3 2067   1.190   2.003   9.184  0.2337 -0.2623 -0.2558
  133TMC2    C4 2068   1.009   2.064   9.383 -0.5188  0.4105 -0.1080
  133TMC2    C5 2069   1.138   2.105   9.389 -0.2934 -0.7549 -0.6900
  133TMC2    C6 2070   1.234   2.076   9.296 -0.7763 -0.6157 -0.3098
  133TMC2     C 2071   0.845   1.937   9.261  0.7414  0.2735  0.2985
  133TMC2     O 2072   0.840   1.830   9.202 -0.6044 -0.0263  0.2654
  133TMC2     H 2073   1.019   1.927   9.075 -3.0272  0.8645  0.5753
  133TMC2    H1 2074   0.941   2.080   9.466 -0.4319  2.9534 -0.5248
  133TMC2    H2 2075   1.332   2.120   9.311 -1.9977  2.4223 -1.3380
  133TMC2    C7 2076   1.182   2.210   9.481 -0.8628  0.5538  0.3899
  133TMC2    C8 2077   1.267   2.026   9.060 -0.2832  0.4826  0.6920
  133TMC2    O1 2078   1.289   2.204   9.530 -0.8000 -1.1398 -0.5847
  133TMC2    O2 2079   1.336   2.125   9.047  0.2363 -0.9063  0.2726
  133TMC2    O5 2080   1.231   1.934   8.967  0.4256 -0.0546  0.1613
  133TMC2    H5 2081   1.177   1.862   9.005  1.5719 -2.6772 -3.1873
  134MPD2     C 2082   0.542   2.056   9.418  0.0909 -0.0348 -0.4680
  134MPD2    C1 2083   0.616   1.958   9.355 -0.0989  0.0089 -0.0040
  134MPD2    C2 2084   0.558   1.836   9.319  0.0364 -0.3793 -0.6335
  134MPD2    C3 2085   0.426   1.809   9.359 -0.7944  0.4221 -1.2882
  134MPD2    C4 2086   0.355   1.912   9.422  0.4302  0.7935  0.5578
  134MPD2    C5 2087   0.415   2.029   9.454  0.0748 -0.6565  0.2221
  134MPD2     H 2088   0.622   1.765   9.269  1.8301  0.9378 -0.2457
  134MPD2    H1 2089   0.250   1.891   9.443 -0.4531  1.4910 -3.2008
  134MPD2    H2 2090   0.599   2.145   9.445 -1.1547  0.4192  0.6227
  134MPD2    H3 2091   0.352   2.101   9.505 -0.6971 -2.1338  1.3305
  134MPD2     N 2092   0.361   1.687   9.337  0.2577  0.0857  0.5486
  134MPD2    H5 2093   0.263   1.674   9.361  0.1687 -3.7824 -1.7890
  134MPD2    N1 2094   0.754   1.998   9.332  0.5985 -0.5427  0.9013
  134MPD2    H7 2095   0.778   2.085   9.380  0.6102 -0.1214  0.1340
  135TMC2    C1 2096   2.199   2.781   8.998 -0.9816 -0.0538 -0.5049
  135TMC2    C2 2097   2.063   2.800   9.018 -0.0617 -0.0426  0.3185
  135TMC2    C3 2098   1.992   2.695   9.064 -1.2169 -0.3145 -0.2183
  135TMC2    C4 2099   2.264   2.663   9.024  0.5518  0.1582  0.0485
  135TMC2    C5 2100   2.184   2.575   9.097  0.7454 -0.2883 -0.1224
  135TMC2    C6 2101   2.051   2.588   9.126 -0.1614  0.1739  0.3138
  135TMC2     C 2102   2.270   2.900   8.952 -0.2139  0.5001 -0.2502
  135TMC2     O 2103   2.201   3.000   8.923 -0.5260 -0.4288  0.2844
  135TMC2     H 2104   2.018   2.899   9.014 -0.2042 -0.1025  0.4107
  135TMC2    H1 2105   2.367   2.647   8.992  0.6222  1.1612 -0.2519
  135TMC2    H2 2106   1.983   2.511   9.161 -0.5011  1.0355  1.5466
  135TMC2    C7 2107   2.245   2.441   9.103  0.4695  0.4583  0.0791
  135TMC2    C8 2108   1.854   2.724   9.097 -0.1582  0.0182 -0.5020
  135TMC2    O1 2109   2.339   2.419   9.031 -0.0388 -0.4429  0.1726
  135TMC2    O2 2110   1.807   2.837   9.120  0.2402 -0.6577 -0.0019
  135TMC2    O5 2111   1.780   2.623   9.055 -0.1263 -0.4370 -0.3624
  135TMC2    H5 2112   1.818   2.534   9.037  0.1969 -0.2850 -0.4194
  136MPD2     C 2113   2.453   3.108   8.870 -0.2597 -0.2430 -0.3700
  136MPD2    C1 2114   2.494   2.993   8.928 -0.5789  0.1866 -0.1775
  136MPD2    C2 2115   2.626   2.974   8.954 -0.2459 -0.5479 -0.3887
  136MPD2    C3 2116   2.721   3.064   8.909  0.1770 -0.1707  0.7842
  136MPD2    C4 2117   2.681   3.179   8.842 -0.7882  0.2226  0.0367
  136MPD2    C5 2118   2.548   3.203   8.836  0.4258  0.1544  0.4603
  136MPD2     H 2119   2.660   2.890   9.014  2.4184  2.4006  2.2626
  136MPD2    H1 2120   2.747   3.246   8.788  0.2295 -1.0788 -0.3389
  136MPD2    H2 2121   2.348   3.129   8.850  0.2228  1.0969 -1.5290
  136MPD2    H3 2122   2.514   3.287   8.776  1.0077 -0.4358 -0.7050
  136MPD2     N 2123   2.855   3.045   8.942  0.5525  0.3661 -0.1028
  136MPD2    H5 2124   2.916   3.121   8.913  0.2884  0.8157  0.5201
  136MPD2    N1 2125   2.407   2.890   8.976 -0.4579  0.1903 -0.4843
  136MPD2    H7 2126   2.446   2.805   9.015 -0.7087 -0.5362 -1.8122
  137TMC2    C1 2127   2.718   0.606  10.597 -0.1283 -0.1507 -1.0939
  137TMC2    C2 2128   2.769   0.567  10.721  0.0972 -0.7874  0.8280
  137TMC2    C3 2129   2.686   0.508  10.809 -0.4481  0.6578 -0.5966
  137TMC2    C4 2130   2.591   0.563  10.559  0.4032 -1.2661  0.3430
  137TMC2    C5 2131   2.520   0.491  10.652  0.4379  0.4202 -0.1258
  137TMC2    C6 2132   2.566   0.461  10.776 -0.1827 -0.5376 -0.8036
  137TMC2     C 2133   2.793   0.679  10.501 -0.0552 -0.3124  0.1864
  137TMC2     O 2134   2.728   0.723  10.410 -0.0660  0.1689  0.4462
  137TMC2     H 2135   2.868   0.598  10.752  0.2343 -1.1872  0.7914
  137TMC2    H1 2136   2.554   0.578  10.458  0.7907  0.3779  0.4509
  137TMC2    H2 2137   2.518   0.389  10.841 -0.9295  0.3632 -0.3609
  137TMC2    C7 2138   2.404   0.413  10.608  0.0364 -0.6815  0.3694
  137TMC2    C8 2139   2.747   0.447  10.927  0.8035 -0.1387 -0.1135
  137TMC2    O1 2140   2.384   0.312  10.670  0.2097  0.5418  0.1520
  137TMC2    O2 2141   2.864   0.459  10.951 -0.2636 -0.5911 -0.3453
  137TMC2    O5 2142   2.656   0.435  11.023  0.5000 -0.4558 -0.5735
  137TMC2    H5 2143   2.568   0.476  11.005  0.6511  0.4151  0.6531
  138MPD2     C 2144   3.151   0.760  10.472  0.5398  0.2635  0.2443
  138MPD2    C1 2145   3.018   0.769  10.458  0.3934  0.5511  0.0844
  138MPD2    C2 2146   2.969   0.885  10.394  0.1190  0.0623  0.2658
  138MPD2    C3 2147   3.055   0.978  10.331  0.2798 -0.9407 -0.4119
  138MPD2    C4 2148   3.191   0.958  10.334 -0.3786 -0.4039 -0.0560
  138MPD2    C5 2149   3.234   0.848  10.408  0.0637  0.5020  0.5651
  138MPD2     H 2150   2.862   0.903  10.393 -0.0800 -1.1508 -0.5722
  138MPD2    H1 2151   3.261   1.028  10.290 -0.0778 -0.6319  0.0601
  138MPD2    H2 2152   3.202   0.679  10.523 -2.4691 -2.0165 -0.3109
  138MPD2    H3 2153   3.340   0.824  10.409  0.0839  0.5533 -0.1438
  138MPD2     N 2154   2.989   1.085  10.268 -0.0721 -0.5849  0.6030
  138MPD2    H5 2155   2.888   1.078  10.277 -0.2354  1.3370  0.2998
  138MPD2    N1 2156   2.928   0.683  10.525  0.4877 -0.2502 -0.3659
  138MPD2    H7 2157   2.956   0.617  10.597 -1.4809  0.7179  1.2911
  139TMC2    C1 2158   2.537   4.466  12.934  0.1866 -0.5159 -0.1899
  139TMC2    C2 2159   2.505   4.470  12.802 -0.0612  0.7974 -0.6311
  139TMC2    C3 2160   2.394   4.538  12.768 -0.1707  0.0400  0.1071
  139TMC2    C4 2161   2.452   4.499  13.032 -0.9832 -0.3041 -0.6127
  139TMC2    C5 2162   2.337   4.560  12.995 -0.1193 -0.6409  0.3001
  139TMC2    C6 2163   2.309   4.589  12.866 -0.4085  0.0787 -0.3539
  139TMC2     C 2164   2.657   4.401  12.968  0.3815 -0.1940  0.2333
  139TMC2     O 2165   2.688   4.311  12.893 -0.6261  0.2238 -0.3362
  139TMC2     H 2166   2.570   4.425  12.727  1.5023  3.1699 -0.7022
  139TMC2    H1 2167   2.466   4.473  13.137  0.4699  1.2239 -0.4241
  139TMC2    H2 2168   2.215   4.636  12.840 -1.0619 -0.8451  0.3742
  139TMC2    C7 2169   2.243   4.581  13.104  0.2626 -0.2941 -0.1917
  139TMC2    C8 2170   2.416   4.616  12.652 -0.1304  0.3452 -0.4859
  139TMC2    O1 2171   2.289   4.595  13.218 -0.2343 -0.1649 -0.2667
  139TMC2    O2 2172   2.466   4.552  12.558  0.5390  0.2390 -0.2859
  139TMC2    O5 2173   2.451   0.008  12.695 -0.0379  0.0506  0.0156
  139TMC2    H5 2174   2.439   0.023  12.791 -1.0238  3.0037 -0.6057
  140MPD2     C 2175   2.827   4.414  13.299  0.3722 -0.6071  0.6174
  140MPD2    C1 2176   2.817   4.374  13.169 -0.1695 -0.1689 -0.9447
  140MPD2    C2 2177   2.918   4.298  13.110 -0.0075 -0.2488  0.0128
  140MPD2    C3 2178   3.025   4.266  13.190 -0.1470  0.8657  0.0619
  140MPD2    C4 2179   3.023   4.286  13.326 -0.4102 -0.2844  0.9258
  140MPD2    C5 2180   2.927   4.373  13.379 -0.2094  0.8727  0.6892
  140MPD2     H 2181   2.927   4.281  13.003  0.9682  1.4518 -0.1787
  140MPD2    H1 2182   3.100   4.242  13.389  0.1664  1.5419  1.5040
  140MPD2    H2 2183   2.756   4.480  13.347  0.3302  0.4785 -0.9395
  140MPD2    H3 2184   2.913   4.392  13.485 -4.0752  0.5746  0.2508
  140MPD2     N 2185   3.124   4.186  13.123 -0.3156  0.3975 -0.5469
  140MPD2    H5 2186   3.115   4.150  13.029 -1.3288  0.1025 -0.3407
  140MPD2    N1 2187   2.704   4.431  13.097  0.1154  0.2601 -0.2168
  140MPD2    H7 2188   2.657   4.505  13.147 -3.1054 -0.8129 -1.6354
  141TMC2    C1 2189   3.561   1.416  14.305 -0.7929 -0.1309 -0.1719
  141TMC2    C2 2190   3.487   1.452  14.412  0.5450  0.2272  0.5611
  141TMC2    C3 2191   3.524   1.565  14.469 -0.4793  0.6968  0.5437
  141TMC2    C4 2192   3.677   1.473  14.275 -0.0498  0.1851  0.1552
  141TMC2    C5 2193   3.724   1.565  14.357 -0.8761  0.4345  0.4737
  141TMC2    C6 2194   3.649   1.615  14.456  0.4104 -0.0448 -0.3604
  141TMC2     C 2195   3.532   1.300  14.222  0.0292 -0.8379  0.3131
  141TMC2     O 2196   3.572   1.301  14.106 -0.2177 -0.2487 -0.3020
  141TMC2     H 2197   3.386   1.413  14.414  0.4424  0.5240  1.1704
  141TMC2    H1 2198   3.744   1.444  14.194 -0.8251  1.4368 -0.9333
  141TMC2    H2 2199   3.670   1.716  14.487 -0.7344 -0.2454  1.0405
  141TMC2    C7 2200   3.844   1.636  14.332  0.5281 -0.1337  0.1457
  141TMC2    C8 2201   3.431   1.648  14.542  0.1480  0.1917 -0.4173
  141TMC2    O1 2202   3.877   1.640  14.215  0.4405 -0.1431 -0.2541
  141TMC2    O2 2203   3.313   1.629  14.535  0.0926  0.0037  0.3347
  141TMC2    O5 2204   3.495   1.698  14.648  0.1135  0.2092 -0.0173
  141TMC2    H5 2205   3.591   1.679  14.661  0.3373  1.7076  0.5304
  142TMC2    C1 2206   0.887   4.326  10.194  0.0388 -0.4987 -0.2842
  142TMC2    C2 2207   0.828   4.336  10.066 -0.2705  0.8733  0.2303
  142TMC2    C3 2208   0.842   4.452  10.000 -0.8519 -0.8761  0.0346
  142TMC2    C4 2209   0.979   4.426  10.227 -0.0073  0.0978  0.3449
  142TMC2    C5 2210   0.990   4.537  10.153  0.9317 -0.9255 -0.2747
  142TMC2    C6 2211   0.932   4.544  10.029 -0.1175 -0.1718  0.0075
  142TMC2     C 2212   0.859   4.217  10.286  0.7253 -0.5391 -0.5186
  142TMC2     O 2213   0.790   4.122  10.243 -0.0750 -0.2927  0.1649
  142TMC2     H 2214   0.744   4.272  10.041 -0.2193  0.1632  1.8921
  142TMC2    H1 2215   1.038   4.412  10.317 -0.1933 -0.8163  0.3305
  142TMC2    H2 2216   0.924   4.639   9.977  0.7272 -0.0811  0.0372
  142TMC2    C7 2217   1.051   4.647  10.214  0.6739 -0.3351 -0.6508
  142TMC2    C8 2218   0.782   4.457   9.861  0.0026  0.7763  0.1336
  142TMC2    O1 2219   1.072   4.628  10.331  0.5461  0.8404 -0.2785
  142TMC2    O2 2220   0.750   4.555   9.796 -0.4627 -0.4392  0.0142
  142TMC2    O5 2221   0.831   4.347   9.800  0.6190  0.0994 -0.2654
  142TMC2    H5 2222   0.852   4.276   9.864  0.0418  0.3416  0.1846
  143MPD2     C 2223   0.859   3.962  10.743  0.1561 -0.2068  0.3998
  143MPD2    C1 2224   0.794   3.931  10.631  0.5013  0.2434  0.0674
  143MPD2    C2 2225   0.803   4.020  10.521 -0.3570 -0.1476 -0.4187
  143MPD2    C3 2226   0.883   4.140  10.521  0.2749 -0.2533  0.0668
  143MPD2    C4 2227   0.944   4.167  10.642 -0.0560 -0.3009  0.1087
  143MPD2    C5 2228   0.929   4.083  10.746 -0.3996  0.4890  0.4746
  143MPD2     H 2229   0.739   3.998  10.436  1.8011 -0.3278 -1.9840
  143MPD2    H1 2230   1.000   4.258  10.660 -1.5985  0.5621  0.5492
  143MPD2    H2 2231   0.849   3.893  10.826 -0.2034  1.0579  1.3977
  143MPD2    H3 2232   0.959   4.100  10.848 -0.1245  1.6861  0.1854
  143MPD2     N 2233   0.904   4.234  10.418  0.0931 -0.1178  0.2415
  143MPD2    H5 2234   0.940   4.325  10.445 -1.3653  1.4360 -2.9642
  143MPD2    N1 2235   0.744   3.795  10.630 -0.3758 -0.2981 -0.1041
  143MPD2    H7 2236   0.752   3.761  10.726  2.9288  1.1958  0.1475
  144TMC2    C1 2237   4.394   3.864   1.262 -0.3072  0.0524 -0.9302
  144TMC2    C2 2238   4.424   3.733   1.226 -0.1406  0.1023 -0.4679
  144TMC2    C3 2239   4.551   3.679   1.256  0.9798 -0.3398  0.1212
  144TMC2    C4 2240   4.485   3.935   1.337  0.2062  0.1117 -0.1231
  144TMC2    C5 2241   4.614   3.884   1.357  0.4479 -0.3245 -0.1395
  144TMC2    C6 2242   4.651   3.760   1.317 -0.6645  0.3692  0.4209
  144TMC2     C 2243   4.270   3.921   1.220  0.2605 -0.0422 -0.7353
  144TMC2     O 2244   4.239   3.881   1.108 -0.1868 -0.2162  0.7456
  144TMC2     H 2245   4.348   3.671   1.180  0.2026  0.1279 -1.0723
  144TMC2    H1 2246   4.462   4.033   1.378 -2.8529 -1.2723  1.4086
  144TMC2    H2 2247   0.015   3.722   1.347 -0.0516  1.7451  0.1494
  144TMC2    C7 2248   4.711   3.970   1.421 -0.5090  0.2000 -0.0189
  144TMC2    C8 2249   4.590   3.557   1.181  0.3829  0.4374  0.1938
  144TMC2    O1 2250   0.089   3.919   1.434  0.4380  0.1086  0.2204
  144TMC2    O2 2251   4.510   3.490   1.118 -0.6766  0.9870  0.2172
  144TMC2    O5 2252   4.723   3.533   1.206  0.0657 -0.0121  0.3096
  144TMC2    H5 2253   0.042   3.598   1.258  0.5419  0.5245 -0.8390
  145MPD2     C 2254   3.839   4.204   1.279 -0.7434 -0.0004  0.6452
  145MPD2    C1 2255   3.868   4.096   1.208 -0.1626  0.1610 -0.2548
  145MPD2    C2 2256   3.990   4.025   1.222 -0.9013  0.0252 -0.4666
  145MPD2    C3 2257   4.099   4.087   1.288  0.0235 -0.2750  0.0399
  145MPD2    C4 2258   4.068   4.200   1.362 -0.3693 -0.4789 -0.8796
  145MPD2    C5 2259   3.938   4.254   1.356 -0.0865 -0.5425 -0.1800
  145MPD2     H 2260   4.006   3.923   1.191  0.6433  0.3448 -0.7100
  145MPD2    H1 2261   4.134   4.249   1.432 -0.6787 -1.6077  0.2048
  145MPD2    H2 2262   3.750   4.266   1.282 -0.2524  0.7977 -0.8486
  145MPD2    H3 2263   3.917   4.342   1.416 -1.3462 -0.4905 -0.7075
  145MPD2     N 2264   4.231   4.032   1.292  0.1436  0.2760 -0.6341
  145MPD2    H5 2265   4.285   4.063   1.372 -0.8442 -2.5321  1.1322
  145MPD2    N1 2266   3.766   4.051   1.125 -0.4778 -0.1444 -0.0923
  145MPD2    H7 2267   3.671   4.076   1.151 -0.1098  0.2675  0.8381
  146TMC2    C1 2268   0.455   2.329  12.408 -0.2541  0.0190 -0.1939
  146TMC2    C2 2269   0.365   2.351  12.308  0.4381  0.4077 -0.1699
  146TMC2    C3 2270   0.369   2.274  12.193  0.1704 -0.0450  0.2973
  146TMC2    C4 2271   0.551   2.236  12.401 -0.2707  0.1167  0.3909
  146TMC2    C5 2272   0.556   2.165  12.285 -0.1592 -1.0603 -0.4167
  146TMC2    C6 2273   0.467   2.178  12.183  0.6301  0.1471  0.3388
  146TMC2     C 2274   0.438   2.395  12.541  0.7241  0.0451 -0.5258
  146TMC2     O 2275   0.377   2.501  12.544 -0.3078 -0.0533  0.5673
  146TMC2     H 2276   0.300   2.436  12.319  1.8796  1.4864 -0.0291
  146TMC2    H1 2277   0.628   2.236  12.477 -0.4017  0.8187  0.5183
  146TMC2    H2 2278   0.481   2.124  12.090 -1.7328  1.4560 -0.7873
  146TMC2    C7 2279   0.685   2.131  12.247 -0.2984  0.1182  0.4778
  146TMC2    C8 2280   0.310   2.328  12.071 -0.1399  0.2719  0.2432
  146TMC2    O1 2281   0.711   2.136  12.126 -0.6892  0.3000  0.1900
  146TMC2    O2 2282   0.367   2.318  11.966 -0.1435 -0.4348 -0.1747
  146TMC2    O5 2283   0.177   2.346  12.096 -0.0590 -0.4127 -0.0690
  146TMC2    H5 2284   0.153   2.316  12.186  2.0935  0.9090  0.9545
  147MPD2     C 2285   1.137   1.909  12.332 -0.5681  0.3570 -0.2946
  147MPD2    C1 2286   1.069   1.912  12.453 -0.2347 -0.3292  0.3093
  147MPD2    C2 2287   0.947   1.963  12.457  0.3311 -0.2353  0.1550
  147MPD2    C3 2288   0.881   2.012  12.341 -0.1417  0.2450 -0.2975
  147MPD2    C4 2289   0.950   2.015  12.223 -0.5178  0.0425 -0.6641
  147MPD2    C5 2290   1.074   1.959  12.225  0.2540 -0.5217  0.1451
  147MPD2     H 2291   0.894   1.973  12.551 -0.0963 -0.0439 -0.1029
  147MPD2    H1 2292   0.927   2.075  12.135 -0.8426  0.0946 -0.5407
  147MPD2    H2 2293   1.230   1.854  12.325 -0.4299  0.6218 -0.5031
  147MPD2    H3 2294   1.136   1.953  12.136 -1.8059  0.6110 -1.3534
  147MPD2     N 2295   0.757   2.075  12.352  0.1975 -0.3937 -0.5593
  147MPD2    H5 2296   0.724   2.065  12.448 -0.9844  1.8226 -0.7378
  147MPD2    N1 2297   1.134   1.874  12.570  0.2630 -0.1132 -0.6280
  147MPD2    H7 2298   1.233   1.855  12.561 -0.3707 -1.9145 -3.5184
  148TMC2    C1 2299   0.854   0.998  10.251 -0.6471  0.4855 -0.2657
  148TMC2    C2 2300   0.987   0.987  10.279 -0.3078 -0.9105  0.5888
  148TMC2    C3 2301   1.026   1.000  10.414  0.3101 -0.3560 -0.4394
  148TMC2    C4 2302   0.771   1.046  10.350  0.1274 -0.0683 -0.0502
  148TMC2    C5 2303   0.804   1.037  10.479  0.4101  0.7617 -0.0426
  148TMC2    C6 2304   0.934   1.028  10.519 -0.2274  0.1486  0.9872
  148TMC2     C 2305   0.797   0.917  10.146  0.1354  0.2447 -0.2983
  148TMC2     O 2306   0.867   0.886  10.049 -0.3098 -0.0824  0.1888
  148TMC2     H 2307   1.051   0.960  10.195  0.9106  0.5853  1.0378
  148TMC2    H1 2308   0.672   1.080  10.323 -1.4444 -2.6228  2.5719
  148TMC2    H2 2309   0.961   1.029  10.624  0.0985  1.2533  0.9009
  148TMC2    C7 2310   0.716   0.930  10.531 -0.1585 -0.4799  0.1021
  148TMC2    C8 2311   1.162   1.000  10.431 -0.2522  0.0173  0.3067
  148TMC2    O1 2312   0.622   0.905  10.460 -0.6622  0.6844  0.1999
  148TMC2    O2 2313   1.248   1.026  10.342 -0.0675  0.6900  0.2558
  148TMC2    O5 2314   1.193   0.930  10.541 -0.3000  0.0283 -0.1291
  148TMC2    H5 2315   1.114   0.896  10.588 -0.3224 -2.8250 -2.2440
  149MPD2     C 2316   0.617   0.743   9.980  0.4364 -0.1078 -0.2180
  149MPD2    C1 2317   0.593   0.772  10.116 -0.5198  0.4786  0.1432
  149MPD2    C2 2318   0.478   0.727  10.178 -0.2329 -0.3913  0.3865
  149MPD2    C3 2319   0.386   0.648  10.111 -0.5246 -0.0488  0.0421
  149MPD2    C4 2320   0.421   0.613   9.981  0.4388 -0.5104  0.1828
  149MPD2    C5 2321   0.537   0.655   9.918  0.1983  0.1928 -0.0371
  149MPD2     H 2322   0.461   0.754  10.282 -1.7729 -1.1441  0.3210
  149MPD2    H1 2323   0.365   0.540   9.925  1.3392 -1.1252  0.0743
  149MPD2    H2 2324   0.696   0.791   9.924 -1.0896  2.9233  0.2046
  149MPD2    H3 2325   0.551   0.626   9.815 -0.9265  1.9586 -0.6731
  149MPD2     N 2326   0.266   0.594  10.173  0.0839  0.0435  0.0099
  149MPD2    H5 2327   0.214   0.521  10.126  0.6258 -0.5134  0.2825
  149MPD2    N1 2328   0.674   0.866  10.190  0.1253  0.1944 -0.3953
  149MPD2    H7 2329   0.643   0.901  10.280 -0.2062 -0.2491 -0.3364
  150TMC2    C1 2330   2.567   0.537  12.137 -1.0581  0.5618 -1.0975
  150TMC2    C2 2331   2.556   0.498  12.009  0.0402  0.6498  0.6877
  150TMC2    C3 2332   2.668   0.439  11.960 -0.2094 -0.5811  0.2033
  150TMC2    C4 2333   2.690   0.553  12.189 -0.4204 -0.1757 -0.2183
  150TMC2    C5 2334   2.798   0.494  12.140 -0.0747 -0.2514  0.1650
  150TMC2    C6 2335   2.783   0.423  12.025  0.2067 -0.3995 -0.2955
  150TMC2     C 2336   2.448   0.539  12.223  0.1771 -0.0058  0.2124
  150TMC2     O 2337   2.464   0.602  12.328  0.3228  0.7029 -0.0117
  150TMC2     H 2338   2.458   0.486  11.965  0.8470  0.2699 -0.9871
  150TMC2    H1 2339   2.698   0.586  12.291 -1.6054  2.3614 -0.9500
  150TMC2    H2 2340   2.862   0.359  11.986  0.0937 -1.0624  0.5829
  150TMC2    C7 2341   2.908   0.479  12.231 -0.1065  0.5732 -0.4641
  150TMC2    C8 2342   2.659   0.360  11.835 -0.2939  0.5353 -0.4588
  150TMC2    O1 2343   2.930   0.562  12.321  1.0529 -0.1326  0.1764
  150TMC2    O2 2344   2.731   0.264  11.811 -0.6059  0.3985 -0.7363
  150TMC2    O5 2345   2.559   0.404  11.757  0.0522 -0.1147  0.1674
  150TMC2    H5 2346   2.529   0.489  11.793  0.2912 -0.1653  0.4799
  151MPD2     C 2347   1.990   0.364  12.367 -0.2579 -0.1869  0.6205
  151MPD2    C1 2348   2.025   0.287  12.258 -0.0765  0.1782 -0.8443
  151MPD2    C2 2349   2.144   0.320  12.202 -0.2826  0.6440 -0.1492
  151MPD2    C3 2350   2.230   0.422  12.245  0.3382  0.1552 -0.4714
  151MPD2    C4 2351   2.189   0.497  12.354 -0.1918  0.2943 -0.4022
  151MPD2    C5 2352   2.072   0.465  12.416 -0.1053  0.3151 -0.3399
  151MPD2     H 2353   2.184   0.263  12.118 -0.4099 -3.4484  2.5912
  151MPD2    H1 2354   2.244   0.580  12.397  2.2503 -0.2554 -2.4718
  151MPD2    H2 2355   1.896   0.351  12.420 -0.1889 -0.3090  0.7135
  151MPD2    H3 2356   2.035   0.529  12.496 -1.2653 -0.3398 -0.3582
  151MPD2     N 2357   2.348   0.448  12.179  0.4634 -0.1842  0.5487
  151MPD2    H5 2358   2.355   0.394  12.093 -1.8017 -2.8920  2.1048
  151MPD2    N1 2359   1.931   0.191  12.205  0.0870 -0.4670 -0.4039
  151MPD2    H7 2360   1.845   0.180  12.259  0.0119 -2.3091 -0.8803
  152TMC2    C1 2361   2.353   0.353  12.686  0.5124  0.1920  0.0852
  152TMC2    C2 2362   2.427   0.311  12.573  0.1458 -0.0020  0.2743
  152TMC2    C3 2363   2.559   0.339  12.563  0.2728 -0.1408  0.4046
  152TMC2    C4 2364   2.413   0.413  12.790  0.0692  0.5935  0.4612
  152TMC2    C5 2365   2.550   0.424  12.779 -0.2221  0.6769 -0.2526
  152TMC2    C6 2366   2.624   0.372  12.675 -0.7622  0.0415 -0.2689
  152TMC2     C 2367   2.226   0.298  12.707 -0.3463  0.3277  0.1896
  152TMC2     O 2368   2.174   0.327  12.812  0.6967 -0.3882 -0.3149
  152TMC2     H 2369   2.378   0.291  12.479 -1.4135  0.4693  0.9963
  152TMC2    H1 2370   2.361   0.435  12.883 -0.0597 -0.9987  0.7608
  152TMC2    H2 2371   2.727   0.404  12.662 -0.2328 -2.1721 -1.4606
  152TMC2    C7 2372   2.621   0.458  12.899  0.2024 -0.6117 -0.0588
  152TMC2    C8 2373   2.626   0.279  12.445 -0.6177  0.4314  0.0242
  152TMC2    O1 2374   2.542   0.497  12.985  0.4868 -0.2831 -0.6827
  152TMC2    O2 2375   2.561   0.255  12.346  0.1343  1.1618  0.0422
  152TMC2    O5 2376   2.743   0.217  12.483 -0.6689 -0.4828 -0.2862
  152TMC2    H5 2377   2.774   0.236  12.574 -0.4089  0.2670 -0.5334
  153MPD2     C 2378   2.069   0.032  12.525  0.9294  0.1071  0.0542
  153MPD2    C1 2379   2.073   0.142  12.609 -0.3507  0.2791  0.0771
  153MPD2    C2 2380   1.959   0.188  12.671  0.3833  0.3233  0.1793
  153MPD2    C3 2381   1.840   0.117  12.665  0.6973  0.3615  0.6463
  153MPD2    C4 2382   1.834   4.731  12.592  0.3946 -0.5203  0.2801
  153MPD2    C5 2383   1.948   4.700  12.515  0.1343 -0.4686  0.3229
  153MPD2     H 2384   1.964   0.282  12.724 -1.4118  0.1219  0.7032
  153MPD2    H1 2385   1.743   4.672  12.588 -1.2013  1.8985  1.4588
  153MPD2    H2 2386   2.142   4.718  12.460 -1.4959 -1.9435 -1.2043
  153MPD2    H3 2387   1.958   4.615  12.448 -0.5595 -0.4156  0.1595
  153MPD2     N 2388   1.731   0.170  12.741 -0.4196 -0.2060 -0.8010
  153MPD2    H5 2389   1.746   0.266  12.773  0.3209  0.1124 -2.1333
  153MPD2    N1 2390   2.192   0.209  12.609  0.0836 -0.2482  0.0304
  153MPD2    H7 2391   2.260   0.183  12.538  0.8903 -0.0544  0.7340
  154TMC2    C1 2392   4.338   0.214   1.145  0.2561  0.0454  0.6881
  154TMC2    C2 2393   4.412   0.296   1.229  0.3185 -0.3758 -0.3821
  154TMC2    C3 2394   4.536   0.252   1.261 -0.5087  0.5982  0.0037
  154TMC2    C4 2395   4.383   0.085   1.111  0.4879  0.3929  0.2488
  154TMC2    C5 2396   4.510   0.044   1.150  0.5375 -0.1656  0.6690
  154TMC2    C6 2397   4.584   0.132   1.217 -0.2102  0.0167  0.4187
  154TMC2     C 2398   4.207   0.254   1.110  0.7354  0.3040 -0.3927
  154TMC2     O 2399   4.145   0.306   1.200 -0.0741  0.6125  0.5431
  154TMC2     H 2400   4.371   0.387   1.271 -2.3571 -2.2416  1.0713
  154TMC2    H1 2401   4.324   0.019   1.048 -0.0163 -1.0179  2.1908
  154TMC2    H2 2402   4.688   0.106   1.234 -0.2997  0.1333  1.1718
  154TMC2    C7 2403   4.580   4.669   1.089  0.5071 -0.2536  0.5870
  154TMC2    C8 2404   4.590   0.333   1.370  0.1885  0.3141 -0.0549
  154TMC2    O1 2405   4.667   4.614   1.154 -0.1227  0.0268 -0.0819
  154TMC2    O2 2406   4.568   0.451   1.393 -0.1133 -0.1581  0.1093
  154TMC2    O5 2407   4.686   0.267   1.443  0.0268  0.1966 -0.2701
  154TMC2    H5 2408   4.685   0.169   1.437  0.1269  0.2468 -1.1262
  155MPD2     C 2409   4.068   0.230   0.777 -0.0393  0.1956 -0.5545
  155MPD2    C1 2410   4.061   0.252   0.912 -0.2899  0.4926  0.1557
  155MPD2    C2 2411   3.945   0.306   0.978 -0.2486 -0.6492  0.1439
  155MPD2    C3 2412   3.829   0.304   0.905  0.5982  0.3003 -0.6578
  155MPD2    C4 2413   3.834   0.270   0.773 -0.4417 -0.6139 -0.9442
  155MPD2    C5 2414   3.954   0.243   0.707  0.1383  0.2239 -0.8119
  155MPD2     H 2415   3.940   0.330   1.083 -1.4454 -0.0522 -0.0594
  155MPD2    H1 2416   3.750   0.257   0.705 -0.9696  2.9230 -0.9840
  155MPD2    H2 2417   4.158   0.198   0.725  1.4088  1.8274  0.9639
  155MPD2    H3 2418   3.953   0.206   0.605 -2.1628 -1.8456 -0.0649
  155MPD2     N 2419   3.708   0.342   0.975  0.0252 -0.9096  0.6162
  155MPD2    H5 2420   3.709   0.348   1.076 -1.0149  2.2911  0.4288
  155MPD2    N1 2421   4.187   0.230   0.978  0.2406 -0.3012 -0.6908
  155MPD2    H7 2422   4.268   0.186   0.936  0.8746 -0.5770  0.8505
  156TMC2    C1 2423   2.660   1.580  11.632  0.5369 -0.7702 -0.2714
  156TMC2    C2 2424   2.748   1.481  11.591 -0.1239  1.0622  0.3411
  156TMC2    C3 2425   2.808   1.494  11.467 -0.6505  0.6827  0.1288
  156TMC2    C4 2426   2.630   1.688  11.551  1.2577  1.0590 -0.4066
  156TMC2    C5 2427   2.687   1.692  11.427 -0.5260 -0.5293  0.0219
  156TMC2    C6 2428   2.787   1.605  11.393 -0.1473  0.4750 -0.1325
  156TMC2     C 2429   2.666   1.620  11.774  0.4146  0.2417  0.0330
  156TMC2     O 2430   2.673   1.740  11.783 -0.4881  0.6632  0.4094
  156TMC2     H 2431   2.781   1.407  11.664  1.1229  1.8289  0.5547
  156TMC2    H1 2432   2.541   1.746  11.574 -1.5469 -2.7974 -1.4991
  156TMC2    H2 2433   2.825   1.614  11.292 -1.3973 -1.3826 -0.7614
  156TMC2    C7 2434   2.678   1.811  11.343 -0.3617  0.4733 -0.0833
  156TMC2    C8 2435   2.901   1.393  11.420  0.3548 -0.2523  0.5942
  156TMC2    O1 2436   2.698   1.792  11.223 -0.5798 -0.7213 -0.6189
  156TMC2    O2 2437   2.908   1.278  11.455 -0.1559 -0.2242  0.2432
  156TMC2    O5 2438   2.999   1.465  11.361  0.1639 -0.0078 -0.4768
  156TMC2    H5 2439   3.002   1.560  11.385 -1.4584  0.1961 -1.1078
  157MPD2     C 2440   2.735   1.443  12.084 -0.0762 -0.1229 -0.7437
  157MPD2    C1 2441   2.716   1.556  12.012 -0.1068 -0.5130 -0.5155
  157MPD2    C2 2442   2.722   1.678  12.070  0.1464  0.5836 -0.3052
  157MPD2    C3 2443   2.757   1.693  12.202 -0.3137  0.0331 -0.1657
  157MPD2    C4 2444   2.764   1.576  12.277 -0.5631  0.4132  0.1135
  157MPD2    C5 2445   2.751   1.452  12.218 -0.2991 -0.6799 -0.3552
  157MPD2     H 2446   2.713   1.771  12.015  3.4658  1.2273  0.2845
  157MPD2    H1 2447   2.786   1.576  12.383 -1.5089  0.3325  0.3101
  157MPD2    H2 2448   2.725   1.341  12.047 -0.1559  0.2161 -1.6314
  157MPD2    H3 2449   2.742   1.360  12.274 -2.5618  0.0120  0.3954
  157MPD2     N 2450   2.761   1.822  12.259 -0.1461  0.3355 -0.1896
  157MPD2    H5 2451   2.746   1.897  12.192  0.0796  1.6904  1.2890
  157MPD2    N1 2452   2.698   1.531  11.872  0.5666 -0.5312  0.3765
  157MPD2    H7 2453   2.712   1.433  11.846  0.3333 -0.3058 -0.6219
  158TMC2    C1 2454   2.552   1.254  13.223 -0.7662  0.1733 -0.1704
  158TMC2    C2 2455   2.545   1.370  13.160 -0.9236  0.1126 -0.5421
  158TMC2    C3 2456   2.430   1.441  13.172 -0.0362  0.0422 -0.1381
  158TMC2    C4 2457   2.460   1.212  13.318 -0.1735  0.2480 -0.2230
  158TMC2    C5 2458   2.353   1.298  13.345 -0.6289 -0.0159  0.0827
  158TMC2    C6 2459   2.338   1.413  13.271 -0.0338 -0.6400 -0.2751
  158TMC2     C 2460   2.674   1.165  13.204 -0.0401 -0.1104  0.3807
  158TMC2     O 2461   2.701   1.143  13.085  0.1412 -1.0123 -0.7170
  158TMC2     H 2462   2.631   1.397  13.100 -1.0340  0.1002 -0.7047
  158TMC2    H1 2463   2.471   1.110  13.352  1.5913  0.6547  0.4153
  158TMC2    H2 2464   2.245   1.468  13.274  0.4601  0.1942  0.0765
  158TMC2    C7 2465   2.240   1.245  13.418  0.3299  0.0268  0.8185
  158TMC2    C8 2466   2.427   1.572  13.100 -0.0776  0.2591 -0.2616
  158TMC2    O1 2467   2.141   1.322  13.433 -0.2319  0.7855  0.0691
  158TMC2    O2 2468   2.390   1.675  13.158 -0.4384  0.4903 -0.2524
  158TMC2    O5 2469   2.450   1.556  12.970 -0.4652 -0.2192  0.1944
  158TMC2    H5 2470   2.447   1.464  12.938  2.1764 -0.0423 -0.5123
  159MPD2     C 2471   2.933   0.773  13.424 -0.1178  0.0754 -0.6994
  159MPD2    C1 2472   2.913   0.871  13.516  0.0416 -0.8417  1.1682
  159MPD2    C2 2473   2.836   0.980  13.485  0.1934  0.5733  0.7094
  159MPD2    C3 2474   2.802   1.005  13.354 -0.6713 -0.4229  0.4384
  159MPD2    C4 2475   2.831   0.909  13.259  0.0409 -0.3914  0.3992
  159MPD2    C5 2476   2.885   0.795  13.296 -0.0199  0.2327  0.0543
  159MPD2     H 2477   2.817   1.048  13.568 -0.8206 -0.1831  1.0895
  159MPD2    H1 2478   2.796   0.923  13.158 -0.2266  0.3966  0.6018
  159MPD2    H2 2479   2.990   0.686  13.455 -0.3453  0.6172  1.2194
  159MPD2    H3 2480   2.904   0.713  13.228  0.7558 -1.6866  2.6087
  159MPD2     N 2481   2.725   1.122  13.325  0.2345 -0.4721 -0.1887
  159MPD2    H5 2482   2.697   1.174  13.408  0.7485 -1.1102  0.3848
  159MPD2    N1 2483   2.966   0.852  13.650 -0.1243  0.5091  0.1466
  159MPD2    H7 2484   3.005   0.762  13.673 -1.8785  0.1630  1.7700
  160TMC2    C1 2485   2.676   4.369   1.840  0.2349  0.1212 -0.4520
  160TMC2    C2 2486   2.580   4.280   1.819 -0.8790 -0.0674 -0.7020
  160TMC2    C3 2487   2.618   4.147   1.801  0.2504  1.3199 -0.8640
  160TMC2    C4 2488   2.806   4.336   1.849 -0.0578 -0.0408  0.9543
  160TMC2    C5 2489   2.846   4.205   1.832  0.3339 -0.4912 -0.0063
  160TMC2    C6 2490   2.748   4.108   1.807  0.4028  0.2884  0.5095
  160TMC2     C 2491   2.645   4.506   1.841  0.6353  0.6707  0.5349
  160TMC2     O 2492   2.716   4.575   1.908  0.3159  0.1544  0.1381
  160TMC2     H 2493   2.477   4.310   1.800 -1.2954 -2.0879 -1.6915
  160TMC2    H1 2494   2.876   4.416   1.871 -0.6268  0.1789  1.9818
  160TMC2    H2 2495   2.776   4.006   1.785  0.8793  0.5806 -0.2070
  160TMC2    C7 2496   2.980   4.178   1.780  0.2359 -0.1884  0.0709
  160TMC2    C8 2497   2.530   4.064   1.720  0.3256 -0.4742  0.4211
  160TMC2    O1 2498   3.022   4.060   1.786 -0.4136 -0.3347 -0.5630
  160TMC2    O2 2499   2.434   4.114   1.663 -0.7159  0.7437  0.1470
  160TMC2    O5 2500   2.536   3.940   1.763 -0.6123  0.6612 -0.1712
  160TMC2    H5 2501   2.607   3.926   1.829  0.0370  1.1680 -0.7627
  161MPD2     C 2502   2.603   0.060   1.756 -0.7033  0.0038 -0.2653
  161MPD2    C1 2503   2.556   4.679   1.688 -0.1839  0.4305  0.3557
  161MPD2    C2 2504   2.487   4.695   1.570 -0.2436 -0.1759 -0.4147
  161MPD2    C3 2505   2.469   0.094   1.519  0.3628  0.1028  0.2962
  161MPD2    C4 2506   2.516   0.201   1.589  1.2682 -0.3386  0.0835
  161MPD2    C5 2507   2.587   0.186   1.700  0.1975  0.2052 -0.2910
  161MPD2     H 2508   2.464   4.606   1.512 -0.1964 -1.0273  0.8841
  161MPD2    H1 2509   2.504   0.305   1.564  0.5728 -0.7403 -1.2536
  161MPD2    H2 2510   2.641   0.055   1.858  2.0309  0.7994 -1.2296
  161MPD2    H3 2511   2.611   0.278   1.752  0.0545  0.0889 -0.0183
  161MPD2     N 2512   2.372   0.132   1.430  0.0527  0.0291  0.1452
  161MPD2    H5 2513   2.350   0.231   1.423  0.2406  0.1082  0.6618
  161MPD2    N1 2514   2.570   4.547   1.735 -0.5892 -0.0598 -0.0604
  161MPD2    H7 2515   2.525   4.475   1.678 -0.6166  2.5296 -3.2715
  162TMC2    C1 2516   0.686   1.680   1.398  0.6019 -0.2108 -0.4455
  162TMC2    C2 2517   0.579   1.758   1.422 -0.0927  0.5460 -0.2984
  162TMC2    C3 2518   0.504   1.747   1.538 -0.2450  0.3065 -0.0129
  162TMC2    C4 2519   0.718   1.578   1.484  0.0494 -0.2162 -0.3319
  162TMC2    C5 2520   0.647   1.575   1.604 -0.2463  0.0081  0.0647
  162TMC2    C6 2521   0.534   1.654   1.631 -0.3817  0.7055 -0.1874
  162TMC2     C 2522   0.749   1.684   1.262 -0.1119 -0.1510 -0.1406
  162TMC2     O 2523   0.674   1.727   1.176  0.0178  0.1086  0.4687
  162TMC2     H 2524   0.567   1.845   1.358  1.9207  1.0210 -0.0164
  162TMC2    H1 2525   0.778   1.493   1.453  0.6631 -0.0680  0.4473
  162TMC2    H2 2526   0.469   1.645   1.718  0.3942 -0.0895  0.2972
  162TMC2    C7 2527   0.665   1.469   1.695  0.3461 -0.1815  0.3573
  162TMC2    C8 2528   0.387   1.828   1.573 -0.0898  0.4053  1.0981
  162TMC2    O1 2529   0.563   1.426   1.743 -0.4075 -0.3146  0.2314
  162TMC2    O2 2530   0.349   1.829   1.692 -0.1977  0.1872 -0.4521
  162TMC2    O5 2531   0.321   1.863   1.457 -0.0921 -0.4935 -0.0093
  162TMC2    H5 2532   0.365   1.849   1.370  1.8787  2.0731  0.5473
  163MPD2     C 2533   1.153   1.583   0.960 -0.0179  0.1294 -0.1639
  163MPD2    C1 2534   1.017   1.592   0.936  0.6203 -0.2006 -0.3203
  163MPD2    C2 2535   0.926   1.614   1.036 -0.2774 -0.4508 -0.4064
  163MPD2    C3 2536   0.973   1.630   1.164 -0.0976 -0.2773 -0.1233
  163MPD2    C4 2537   1.103   1.609   1.194 -0.0869 -0.4790  0.5617
  163MPD2    C5 2538   1.191   1.580   1.089 -0.0363  0.0384 -0.4165
  163MPD2     H 2539   0.819   1.623   1.021  0.2001  2.5862 -1.9412
  163MPD2    H1 2540   1.147   1.617   1.293  0.7998 -0.0058  0.1404
  163MPD2    H2 2541   1.217   1.584   0.873 -2.4062  2.2039 -1.8780
  163MPD2    H3 2542   1.296   1.565   1.111  0.2292  0.5795 -1.3326
  163MPD2     N 2543   0.877   1.639   1.271 -0.0977  0.7130  0.6372
  163MPD2    H5 2544   0.915   1.630   1.364  0.9598  1.9179  0.3197
  163MPD2    N1 2545   0.974   1.560   0.805 -0.7040 -0.2378  0.1707
  163MPD2    H7 2546   1.030   1.501   0.744  1.7742  2.9049 -0.5590
  164TMC2    C1 2547   1.415   0.930  10.812  0.0218  0.7966 -0.2531
  164TMC2    C2 2548   1.500   0.987  10.713  0.5347  0.3115  1.3108
  164TMC2    C3 2549   1.459   1.105  10.660  0.4707  0.7979  0.3030
  164TMC2    C4 2550   1.309   1.000  10.872 -0.4344 -0.4443 -0.5209
  164TMC2    C5 2551   1.288   1.125  10.826 -0.1037 -0.6397  0.0956
  164TMC2    C6 2552   1.366   1.184  10.730 -0.1771  0.7109  0.6596
  164TMC2     C 2553   1.419   0.785  10.839  0.1609  0.2514  0.1847
  164TMC2     O 2554   1.356   0.740  10.936  0.3998 -0.0933 -0.1159
  164TMC2     H 2555   1.579   0.924  10.675 -1.8220 -0.6165 -2.0862
  164TMC2    H1 2556   1.243   0.943  10.936 -1.1638 -0.8485 -1.6522
  164TMC2    H2 2557   1.353   1.284  10.691  0.5975  0.6659  0.2735
  164TMC2    C7 2558   1.152   1.178  10.847 -0.1493  0.2653  0.3612
  164TMC2    C8 2559   1.552   1.176  10.579 -0.2687  0.4350  0.3516
  164TMC2    O1 2560   1.096   1.233  10.757  0.3645 -0.1160  0.4181
  164TMC2    O2 2561   1.668   1.147  10.567  0.5951 -0.7384 -0.0706
  164TMC2    O5 2562   1.491   1.282  10.517  0.1854 -0.2153 -0.1869
  164TMC2    H5 2563   1.394   1.295  10.515  0.1400 -0.6111 -0.6040
  165TMC2    C1 2564   2.264   3.665   1.085  0.8812  0.1503 -0.0800
  165TMC2    C2 2565   2.251   3.765   0.988 -0.8165 -0.9381  0.6468
  165TMC2    C3 2566   2.365   3.831   0.960  1.0221 -0.8321 -0.1272
  165TMC2    C4 2567   2.373   3.638   1.156 -0.0803  0.1213 -0.1279
  165TMC2    C5 2568   2.489   3.698   1.111  0.0175  0.3483 -0.2396
  165TMC2    C6 2569   2.483   3.799   1.015  0.2027  0.3707 -0.4098
  165TMC2     C 2570   2.139   3.627   1.153 -0.8843 -0.4139  0.3825
  165TMC2     O 2571   2.040   3.698   1.146  0.4097  0.0337 -0.2351
  165TMC2     H 2572   2.152   3.786   0.949 -1.0103 -1.4789  0.8492
  165TMC2    H1 2573   2.367   3.595   1.256 -1.1501 -0.6335 -0.5211
  165TMC2    H2 2574   2.573   3.841   0.973  1.4676  0.1125  2.0088
  165TMC2    C7 2575   2.613   3.687   1.186 -0.7373 -0.3527  0.2491
  165TMC2    C8 2576   2.362   3.931   0.853 -0.3198  0.7677 -0.2837
  165TMC2    O1 2577   2.701   3.770   1.171  0.3124  0.1606  0.5762
  165TMC2    O2 2578   2.469   3.952   0.792  0.5159 -0.2870 -0.0768
  165TMC2    O5 2579   2.235   3.985   0.839  0.1814  0.1809  0.2059
  165TMC2    H5 2580   2.178   3.969   0.917 -1.6195  0.2078 -1.1204
  166MPD2     C 2581   1.869   3.305   1.470 -0.0717 -0.6746 -0.1317
  166MPD2    C1 2582   1.943   3.232   1.386 -0.1329  0.2349  0.5430
  166MPD2    C2 2583   2.033   3.293   1.294 -0.1691 -0.1237 -0.0659
  166MPD2    C3 2584   2.035   3.430   1.283  0.1640  0.1835 -0.7423
  166MPD2    C4 2585   1.953   3.500   1.364  0.1980 -0.1166 -0.4366
  166MPD2    C5 2586   1.872   3.439   1.459 -1.0794 -0.1480  0.0552
  166MPD2     H 2587   2.100   3.234   1.233 -1.2400 -1.3325 -0.0972
  166MPD2    H1 2588   1.965   3.606   1.384  0.5399 -0.2029 -0.2013
  166MPD2    H2 2589   1.799   3.259   1.538  1.5405 -3.8704 -0.6133
  166MPD2    H3 2590   1.816   3.498   1.532 -1.5655 -0.7465  0.1657
  166MPD2     N 2591   2.136   3.498   1.199  0.1316 -0.2695 -0.3301
  166MPD2    H5 2592   2.208   3.436   1.162  0.3056  0.3041 -0.9388
  166MPD2    N1 2593   1.945   3.092   1.404  0.0659  0.6016  0.7992
  166MPD2    H7 2594   1.889   3.060   1.482 -0.6925  2.8407  1.1842
  167TMC2    C1 2595   0.562   0.902  12.643 -0.2220  0.2975 -0.2895
  167TMC2    C2 2596   0.465   0.973  12.710  0.1246  0.0668  0.9106
  167TMC2    C3 2597   0.384   0.894  12.791 -0.0804 -0.3267 -0.3373
  167TMC2    C4 2598   0.592   0.771  12.665  0.3725  0.4810  0.5266
  167TMC2    C5 2599   0.502   0.703  12.739 -0.0071 -0.2807  0.2940
  167TMC2    C6 2600   0.396   0.761  12.803  0.7277 -0.7989 -0.1899
  167TMC2     C 2601   0.644   0.967  12.544  0.3350 -0.0288 -0.5549
  167TMC2     O 2602   0.682   1.085  12.558  0.0561  0.4648 -0.1557
  167TMC2     H 2603   0.437   1.077  12.696  3.8329  1.0503  0.9083
  167TMC2    H1 2604   0.678   0.722  12.620 -0.6339 -0.6457 -0.1610
  167TMC2    H2 2605   0.328   0.706  12.867  0.4103 -1.3494 -0.9996
  167TMC2    C7 2606   0.513   0.555  12.757  0.0482 -0.3735 -0.2877
  167TMC2    C8 2607   0.271   0.952  12.853 -0.3224  0.5497 -0.7113
  167TMC2    O1 2608   0.435   0.507  12.838  0.5141  0.5054  0.5105
  167TMC2    O2 2609   0.223   0.913  12.958  0.2983 -0.1001 -0.2772
  167TMC2    O5 2610   0.226   1.059  12.785 -0.2675 -0.2438 -0.0360
  167TMC2    H5 2611   0.259   1.073  12.694  1.5445  0.3305  0.6950
  168MPD2     C 2612   0.764   1.021  12.279  0.2662  0.5378  0.1335
  168MPD2    C1 2613   0.683   0.910  12.308  0.0869 -0.0929  0.3786
  168MPD2    C2 2614   0.635   0.841  12.203 -0.4382 -0.8154 -0.1527
  168MPD2    C3 2615   0.682   0.855  12.077  0.8430  0.0669 -0.1557
  168MPD2    C4 2616   0.749   0.968  12.045  0.6953 -0.1843  0.2637
  168MPD2    C5 2617   0.796   1.048  12.150 -0.4898  0.3315  0.0995
  168MPD2     H 2618   0.571   0.755  12.220 -1.8308  0.5034  1.2088
  168MPD2    H1 2619   0.770   0.996  11.942 -1.5075 -1.4754 -0.5219
  168MPD2    H2 2620   0.815   1.072  12.361  0.0311  1.6487 -0.4229
  168MPD2    H3 2621   0.855   1.136  12.127 -1.1556  0.7399 -0.0547
  168MPD2     N 2622   0.641   0.764  11.977  0.4193  0.1933 -0.0418
  168MPD2    H5 2623   0.591   0.683  12.011  1.8685 -0.9374 -0.6269
  168MPD2    N1 2624   0.647   0.876  12.438 -0.3174 -0.4494 -0.5408
  168MPD2    H7 2625   0.603   0.787  12.457 -0.5809 -0.0627  0.6973
  169MPD1     C 2626   2.607   3.400   9.924 -0.0759  0.5543  0.1689
  169MPD1    C1 2627   2.674   3.506   9.858 -0.6547  0.0445  1.3926
  169MPD1    C2 2628   2.600   3.622   9.857  0.1557  0.4304 -0.3017
  169MPD1    C3 2629   2.487   3.639   9.924 -0.1647  0.3258  0.3784
  169MPD1    C4 2630   2.426   3.536   9.991  0.0401 -0.5819  0.4813
  169MPD1    C5 2631   2.492   3.413   9.987 -0.5646  0.1434  0.7609
  169MPD1     H 2632   2.647   3.699   9.796 -1.9318  0.1065 -2.3097
  169MPD1    H1 2633   2.339   3.543  10.056  0.8480 -1.3177  1.6303
  169MPD1    H2 2634   2.643   3.298   9.922 -0.9982  0.2519 -1.2777
  169MPD1    H3 2635   2.454   3.328  10.043  0.4301 -1.5947 -1.1780
  169MPD1     N 2636   2.427   3.763   9.924 -0.3347  0.7799 -0.7094
  169MPD1    H5 2637   2.475   3.847   9.894  1.7726  0.0604  0.6729
  169MPD1    N1 2638   2.789   3.491   9.784 -0.0355  0.4210 -0.0311
  169MPD1    H6 2639   2.845   3.572   9.760  2.5911 -1.9235 -1.9198
  169MPD1    H7 2640   2.850   3.411   9.802  1.7494  1.4476 -1.5669
  170MPD1     C 2641   2.215   3.330  13.163  0.4444 -0.2879  0.2778
  170MPD1    C1 2642   2.211   3.277  13.293  0.5136  0.8278  0.1536
  170MPD1    C2 2643   2.098   3.207  13.327 -1.0351 -0.0259 -0.5674
  170MPD1    C3 2644   1.995   3.182  13.240  0.0300 -1.0014  0.8712
  170MPD1    C4 2645   1.996   3.222  13.105  0.1310  0.4996  0.0200
  170MPD1    C5 2646   2.108   3.299  13.075  0.3278  0.0024  0.1470
  170MPD1     H 2647   2.076   3.182  13.430  0.2278 -0.6478 -0.4470
  170MPD1    H1 2648   1.919   3.202  13.032  2.4969  0.5469 -2.4669
  170MPD1    H2 2649   2.292   3.397  13.126  1.9641 -0.9677  2.2378
  170MPD1    H3 2650   2.122   3.343  12.976  0.5846  0.1259  0.2378
  170MPD1     N 2651   1.889   3.097  13.289 -0.2456  0.1588  0.3141
  170MPD1    H5 2652   1.904   3.074  13.387  0.8981  0.5062  0.2274
  170MPD1    N1 2653   2.305   3.319  13.391  0.0464 -0.3269  0.0063
  170MPD1    H6 2654   2.318   3.257  13.471  0.2872  0.8706  0.8882
  170MPD1    H7 2655   2.396   3.322  13.345  0.2331  0.0267  0.4009
  171MPD1     C 2656   4.466   4.553  15.619  0.1826 -0.5586 -0.5089
  171MPD1    C1 2657   4.420   4.425  15.613 -0.2445 -0.1782 -0.4525
  171MPD1    C2 2658   4.481   4.326  15.689 -0.1648  0.5154  0.5514
  171MPD1    C3 2659   4.586   4.351  15.774  0.1391  0.6366  0.2054
  171MPD1    C4 2660   4.628   4.484  15.787  0.3917 -0.1091  0.3071
  171MPD1    C5 2661   4.570   4.585  15.709  0.0707  0.1824 -0.0340
  171MPD1     H 2662   4.448   4.225  15.669 -0.4622  0.8190 -0.5047
  171MPD1    H1 2663   4.715   4.515  15.844 -0.2225 -0.8412  1.6465
  171MPD1    H2 2664   4.413   4.631  15.567  0.8925  0.3401  0.1218
  171MPD1    H3 2665   4.609   4.685  15.724 -0.0161  0.3690 -1.0415
  171MPD1     N 2666   4.665   4.249  15.841 -0.1355 -0.5756 -0.1091
  171MPD1    H5 2667   0.014   4.274  15.895 -1.0542  0.8514  0.6202
  171MPD1    N1 2668   4.333   4.387  15.513 -0.2245  0.4626  0.8524
  171MPD1    H6 2669   4.281   4.302  15.531  0.7805 -0.1435  0.9271
  171MPD1    H7 2670   4.275   4.450  15.458 -1.2373 -0.7923  0.4971
  172MPD1     C 2671   3.932   3.430   0.977 -0.1749 -0.0316  0.1437
  172MPD1    C1 2672   3.967   3.441   0.843 -0.0804 -0.1064 -0.0510
  172MPD1    C2 2673   4.039   3.551   0.801 -0.3523  0.1775  0.1428
  172MPD1    C3 2674   4.083   3.643   0.895 -0.4315  0.3483  0.2225
  172MPD1    C4 2675   4.041   3.632   1.030  0.3549  0.0438 -0.4967
  172MPD1    C5 2676   3.967   3.526   1.061  0.2269  0.0217 -0.1864
  172MPD1     H 2677   4.040   3.569   0.694  2.6679  0.4296  0.1981
  172MPD1    H1 2678   4.066   3.702   1.109  0.7794 -1.0821  0.3651
  172MPD1    H2 2679   3.867   3.355   1.020 -1.1998 -0.2429 -1.8017
  172MPD1    H3 2680   3.949   3.496   1.164 -1.6417  1.8968  0.0402
  172MPD1     N 2681   4.167   3.756   0.860 -0.9207 -0.6348  0.2786
  172MPD1    H5 2682   4.187   3.815   0.940 -0.2150 -1.2235  0.5361
  172MPD1    N1 2683   3.899   3.356   0.747 -0.3291  0.4060 -0.0691
  172MPD1    H6 2684   3.870   3.273   0.798 -0.0976  1.8845  2.4567
  172MPD1    H7 2685   3.947   3.339   0.659  1.4863  1.0800  0.8025
  173MPD1     C 2686   1.024   3.356  13.678  0.1853  0.7066  0.8622
  173MPD1    C1 2687   1.142   3.332  13.746 -0.1061  0.7240  0.0347
  173MPD1    C2 2688   1.131   3.298  13.881  0.5770  0.5225  0.3753
  173MPD1    C3 2689   1.012   3.321  13.944 -0.3930  0.4908  0.3316
  173MPD1    C4 2690   0.895   3.346  13.869  0.7411 -0.1737 -0.0744
  173MPD1    C5 2691   0.901   3.348  13.737  0.6469 -0.8119  0.4111
  173MPD1     H 2692   1.217   3.250  13.927  0.8279  0.7060  0.0907
  173MPD1    H1 2693   0.798   3.354  13.917  0.9332  1.4746  0.0345
  173MPD1    H2 2694   1.032   3.368  13.571 -0.6955  0.5670  0.7798
  173MPD1    H3 2695   0.808   3.361  13.682  1.4550 -0.8626 -0.9682
  173MPD1     N 2696   1.010   3.304  14.086 -0.2819 -0.4036 -0.0034
  173MPD1    H5 2697   1.096   3.278  14.134 -0.6800 -0.8906  0.4490
  173MPD1    N1 2698   1.256   3.311  13.667 -0.5615 -0.4358 -0.5839
  173MPD1    H6 2699   1.253   3.377  13.589 -0.6282  0.8548  0.5185
  173MPD1    H7 2700   1.343   3.338  13.713 -0.5993 -0.5821 -0.4276
  174MPD1     C 2701   1.303   2.889  14.950  0.6976 -0.3848 -0.2467
  174MPD1    C1 2702   1.358   2.925  14.828 -0.5981  0.0508 -0.3015
  174MPD1    C2 2703   1.279   2.953  14.718 -0.5978  0.1060  0.3943
  174MPD1    C3 2704   1.140   2.970  14.733  0.7255  0.0102  0.4693
  174MPD1    C4 2705   1.086   2.921  14.854  0.0577  0.9639 -0.1707
  174MPD1    C5 2706   1.169   2.881  14.959 -0.1704 -0.3721  0.5798
  174MPD1     H 2707   1.328   2.972  14.623  0.6659  0.2763  1.0771
  174MPD1    H1 2708   0.980   2.935  14.872 -0.1941 -0.1428 -0.8163
  174MPD1    H2 2709   1.357   2.869  15.042 -1.0649  0.7904  1.0614
  174MPD1    H3 2710   1.118   2.843  15.046 -2.6264  0.9761 -0.2802
  174MPD1     N 2711   1.052   3.034  14.648  0.0482  0.1242  0.1727
  174MPD1    H5 2712   0.955   3.011  14.668  0.0677  0.5551  0.7821
  174MPD1    N1 2713   1.499   2.902  14.806  0.4669 -0.4184  0.3653
  174MPD1    H6 2714   1.539   2.973  14.745 -0.2498 -0.5738 -0.2852
  174MPD1    H7 2715   1.549   2.922  14.892 -1.5821 -0.7426  1.6154
  175MPD1     C 2716   3.550   4.336  15.608 -0.3697  0.1240  0.0790
  175MPD1    C1 2717   3.561   4.200  15.633 -0.3430  0.2564 -0.6182
  175MPD1    C2 2718   3.599   4.165  15.767  0.9687 -0.3774 -0.1069
  175MPD1    C3 2719   3.597   4.254  15.871  0.8384  0.2754 -0.0743
  175MPD1    C4 2720   3.554   4.382  15.835 -0.0340 -0.0537  0.0882
  175MPD1    C5 2721   3.554   4.425  15.707 -0.0171  0.4166 -0.2030
  175MPD1     H 2722   3.612   4.059  15.788  0.7383 -0.3477  0.1790
  175MPD1    H1 2723   3.531   4.459  15.908  0.9212  0.1678  0.1584
  175MPD1    H2 2724   3.529   4.371  15.507  2.3527  2.1114  0.2061
  175MPD1    H3 2725   3.536   4.531  15.691  0.9924  0.5555 -0.4349
  175MPD1     N 2726   3.624   4.231  16.008 -0.5372  0.0515  0.2563
  175MPD1    H5 2727   3.604   4.307  16.072 -0.9338  1.3252 -1.3632
  175MPD1    N1 2728   3.520   4.109  15.535 -0.5642  0.4911 -0.3457
  175MPD1    H6 2729   3.584   4.030  15.529  1.5134  2.1791 -0.1725
  175MPD1    H7 2730   3.517   4.164  15.450 -0.4565  0.9058 -0.0778
  176MPD1     C 2731   0.490   1.992  16.704  0.2195 -0.4471 -0.3609
  176MPD1    C1 2732   0.401   2.054  16.788  0.0075  0.0133  0.2606
  176MPD1    C2 2733   0.420   2.045  16.925  0.1146  0.7810  0.1018
  176MPD1    C3 2734   0.536   1.984  16.977  0.1714 -0.4765  0.0410
  176MPD1    C4 2735   0.621   1.922  16.892 -0.2282 -0.8519 -0.1071
  176MPD1    C5 2736   0.600   1.928  16.754 -0.2287  0.8624  0.1699
  176MPD1     H 2737   0.338   2.077  16.987  2.0603  2.4188  1.8297
  176MPD1    H1 2738   0.703   1.864  16.934  1.7270  3.8412  2.5026
  176MPD1    H2 2739   0.480   1.995  16.596 -0.2150  0.1789 -0.3007
  176MPD1    H3 2740   0.662   1.882  16.678 -0.0611  0.7952  0.3473
  176MPD1     N 2741   0.545   1.991  17.118  0.0712  0.9101  0.1173
  176MPD1    H5 2742   0.496   2.069  17.160 -1.3422  0.4525 -0.7053
  176MPD1    N1 2743   0.280   2.106  16.733  0.6120  0.1794 -0.1192
  176MPD1    H6 2744   0.286   2.131  16.634  0.0057 -0.0272 -0.2038
  176MPD1    H7 2745   0.231   2.184  16.775  1.4460  0.0500  1.0927
  177MPD1     C 2746   0.427   1.071  10.163 -0.6113  0.4017  0.0536
  177MPD1    C1 2747   0.367   1.037  10.044 -0.2780  0.0507  0.0306
  177MPD1    C2 2748   0.235   1.000  10.050  0.3233  0.1398  0.1721
  177MPD1    C3 2749   0.175   0.980  10.175 -0.4782  0.4847 -0.0391
  177MPD1    C4 2750   0.242   1.006  10.294 -0.1434 -0.0905  0.5972
  177MPD1    C5 2751   0.371   1.049  10.287 -0.2030  0.1418 -0.4128
  177MPD1     H 2752   0.172   1.007   9.963 -0.1737 -1.3325  0.4131
  177MPD1    H1 2753   0.190   1.006  10.389 -3.2111 -0.2783 -1.0471
  177MPD1    H2 2754   0.522   1.122  10.167 -0.4428  0.1965 -1.2659
  177MPD1    H3 2755   0.421   1.071  10.381 -2.1050 -0.1094  0.6382
  177MPD1     N 2756   0.040   0.953  10.159 -0.1037  0.5090  0.5017
  177MPD1    H5 2757   0.011   0.929  10.065  1.7359 -0.8803  0.2896
  177MPD1    N1 2758   0.434   1.053   9.923  0.3678 -0.5992  0.3155
  177MPD1    H6 2759   0.388   0.997   9.851  1.1038  0.3149 -0.8660
  177MPD1    H7 2760   0.524   1.005   9.934 -0.6969 -2.0383  2.6131
  178MPD1     C 2761   1.379   2.276   0.377  0.3476 -0.4821  0.2341
  178MPD1    C1 2762   1.325   2.202   0.279  0.4709 -0.0634 -0.0701
  178MPD1    C2 2763   1.330   2.253   0.151  0.1536  0.2676 -0.6725
  178MPD1    C3 2764   1.379   2.386   0.129 -0.3046 -0.2975  1.1789
  178MPD1    C4 2765   1.431   2.463   0.228  0.6218 -0.2791  0.0727
  178MPD1    C5 2766   1.431   2.403   0.352 -0.3662  0.0462 -0.1887
  178MPD1     H 2767   1.289   2.192   0.071  0.1751  0.4868 -0.8500
  178MPD1    H1 2768   1.477   2.561   0.218  2.5901 -1.3197 -1.1183
  178MPD1    H2 2769   1.385   2.242   0.480 -0.7562 -1.1329  0.0747
  178MPD1    H3 2770   1.487   2.459   0.426 -1.7520 -0.9598  1.6106
  178MPD1     N 2771   1.393   2.438  17.729  0.4506 -0.2556  0.2549
  178MPD1    H5 2772   1.444   2.524  17.716  1.1210 -1.1817 -3.2491
  178MPD1    N1 2773   1.306   2.063   0.302 -0.3122  0.1930  0.4657
  178MPD1    H6 2774   1.248   2.033   0.380 -0.6982 -3.2827 -1.1528
  178MPD1    H7 2775   1.251   2.025   0.225  0.9248 -2.7247  1.0139
  179MPD1     C 2776   1.387   4.733  15.368  0.0046 -0.7445 -0.2886
  179MPD1    C1 2777   1.252   0.025  15.391 -0.4401 -0.2315 -0.2908
  179MPD1    C2 2778   1.214   0.108  15.498 -0.7359  0.1233 -0.1365
  179MPD1    C3 2779   1.303   0.177  15.573 -0.3387 -0.3952 -0.1434
  179MPD1    C4 2780   1.433   0.156  15.542 -1.0281 -0.9192  0.2882
  179MPD1    C5 2781   1.473   0.076  15.433 -0.0271  0.2437  1.0055
  179MPD1     H 2782   1.109   0.119  15.521 -0.7701  3.4938 -2.0164
  179MPD1    H1 2783   1.519   0.191  15.598 -0.5863 -0.9432 -0.3784
  179MPD1    H2 2784   1.422   4.661  15.294  0.4670  1.4607 -2.2045
  179MPD1    H3 2785   1.580   0.061  15.425 -0.3127 -1.7840  1.1361
  179MPD1     N 2786   1.275   0.263  15.683 -0.7296  0.6634  0.0958
  179MPD1    H5 2787   1.356   0.299  15.733 -0.1656  0.3679 -0.6024
  179MPD1    N1 2788   1.151   4.696  15.309 -0.2587 -0.1691  0.1638
  179MPD1    H6 2789   1.177   4.680  15.212 -2.5429  1.2523 -0.6884
  179MPD1    H7 2790   1.055   4.728  15.318  1.0147  3.9103 -0.5734
  180MPD1     C 2791   0.509   2.150  15.257  0.1513 -0.1643 -0.2382
  180MPD1    C1 2792   0.633   2.154  15.201  0.8682 -0.4329  0.0990
  180MPD1    C2 2793   0.647   2.110  15.069 -0.0087 -0.4659  0.5470
  180MPD1    C3 2794   0.540   2.045  15.007  1.0295 -0.3614  0.2407
  180MPD1    C4 2795   0.421   2.018  15.078 -0.2477 -0.3821  0.4266
  180MPD1    C5 2796   0.409   2.079  15.203  0.1635  0.5958  0.0336
  180MPD1     H 2797   0.734   2.136  15.010 -0.4545  1.6713  0.8313
  180MPD1    H1 2798   0.339   1.961  15.039 -0.8499  1.1166 -0.4745
  180MPD1    H2 2799   0.498   2.196  15.354 -1.0090 -1.3544  0.1981
  180MPD1    H3 2800   0.308   2.080  15.242  0.2751  1.7439  0.2996
  180MPD1     N 2801   0.557   2.015  14.869  0.2174 -0.7045  0.0683
  180MPD1    H5 2802   0.644   2.049  14.829 -0.5280  0.2029 -0.7745
  180MPD1    N1 2803   0.733   2.228  15.258  0.2381  0.2722  0.3641
  180MPD1    H6 2804   0.718   2.249  15.356  0.6752 -1.1408  0.7308
  180MPD1    H7 2805   0.830   2.202  15.240  0.9041  3.1286 -0.2607
  181MPD1     C 2806   1.443   3.636  10.741  0.0313  0.3729  0.5458
  181MPD1    C1 2807   1.507   3.532  10.799 -0.2910  0.3951  0.7058
  181MPD1    C2 2808   1.624   3.485  10.740 -0.2787 -0.2238 -0.0648
  181MPD1    C3 2809   1.706   3.561  10.661  0.4823 -0.6469 -0.8806
  181MPD1    C4 2810   1.653   3.687  10.631  0.3240 -0.3861  0.1944
  181MPD1    C5 2811   1.522   3.717  10.662  0.0986 -0.7134 -0.2795
  181MPD1     H 2812   1.652   3.382  10.759 -3.0353 -1.3839 -2.3587
  181MPD1    H1 2813   1.712   3.759  10.576 -1.1699  0.1968 -0.6389
  181MPD1    H2 2814   1.343   3.672  10.763  0.0303 -0.8038  2.4600
  181MPD1    H3 2815   1.477   3.807  10.621 -1.2651 -1.5495 -0.6407
  181MPD1     N 2816   1.823   3.527  10.604 -0.5452  0.0984  1.4605
  181MPD1    H5 2817   1.866   3.588  10.535 -1.8637  0.3632  0.8809
  181MPD1    N1 2818   1.441   3.445  10.882 -0.1671  0.1142 -0.4427
  181MPD1    H6 2819   1.507   3.392  10.937  0.0344  0.4511 -0.3629
  181MPD1    H7 2820   1.388   3.504  10.947 -1.6882  1.5000 -2.9224
  182MPD1     C 2821   3.689   3.043   1.809 -0.3709  0.0742  0.1570
  182MPD1    C1 2822   3.709   2.916   1.765  0.2890  1.0438 -0.6719
  182MPD1    C2 2823   3.693   2.894   1.630  0.1852 -0.0444 -0.4358
  182MPD1    C3 2824   3.648   2.997   1.546  0.5478 -0.2819  0.5911
  182MPD1    C4 2825   3.633   3.123   1.594  0.2344  0.5685 -0.0061
  182MPD1    C5 2826   3.650   3.151   1.730 -0.4942  0.4616 -1.2094
  182MPD1     H 2827   3.702   2.791   1.600 -0.7830 -0.3435  0.2836
  182MPD1    H1 2828   3.609   3.209   1.533 -0.5580 -0.4394 -1.0994
  182MPD1    H2 2829   3.720   3.077   1.908 -0.4492 -1.0519  0.5618
  182MPD1    H3 2830   3.653   3.254   1.765  1.5717  0.1367 -0.3965
  182MPD1     N 2831   3.637   2.973   1.408  0.3241 -0.4537 -0.1904
  182MPD1    H5 2832   3.597   3.056   1.366 -1.1187 -1.1857 -0.2648
  182MPD1    N1 2833   3.778   2.826   1.846 -0.5839  0.1244  0.0243
  182MPD1    H6 2834   3.744   2.838   1.941 -1.4128 -0.9113 -0.1399
  182MPD1    H7 2835   3.751   2.734   1.814 -0.0436  0.2398 -0.7701
  183MPD1     C 2836   2.805   3.562   9.070  0.4195  0.1219 -0.2101
  183MPD1    C1 2837   2.704   3.470   9.045 -0.2700 -0.1393 -0.3771
  183MPD1    C2 2838   2.692   3.362   9.134 -0.8616  0.9541  0.6085
  183MPD1    C3 2839   2.779   3.342   9.248 -0.9403 -0.0545  0.3991
  183MPD1    C4 2840   2.888   3.421   9.254  1.1000 -1.0004  0.3895
  183MPD1    C5 2841   2.899   3.531   9.169 -0.7111 -0.8285 -0.0865
  183MPD1     H 2842   2.606   3.296   9.133  0.5592 -0.8837  1.4650
  183MPD1    H1 2843   2.967   3.405   9.327  2.0361 -0.2636 -0.4693
  183MPD1    H2 2844   2.823   3.645   9.001  1.0465  1.7779  1.9375
  183MPD1    H3 2845   2.980   3.598   9.196 -1.3538  0.1987 -0.7018
  183MPD1     N 2846   2.749   3.241   9.343  0.2733  0.0305 -0.5534
  183MPD1    H5 2847   2.656   3.202   9.325  0.1083 -0.4676  1.3731
  183MPD1    N1 2848   2.603   3.498   8.949 -0.6513 -0.8565 -0.0280
  183MPD1    H6 2849   2.557   3.411   8.922 -1.2597 -0.8597  0.9958
  183MPD1    H7 2850   2.648   3.543   8.869  1.4750 -0.2081  1.5409
  184MPD1     C 2851   2.766   0.929  10.065  0.3843 -0.1455 -0.1027
  184MPD1    C1 2852   2.680   1.024  10.021  0.3938  0.9061  0.6271
  184MPD1    C2 2853   2.714   1.093   9.905  0.6648 -0.1723 -0.1905
  184MPD1    C3 2854   2.841   1.080   9.848  0.0567 -0.0620  1.0831
  184MPD1    C4 2855   2.923   0.988   9.904  0.0132  0.6656  0.7051
  184MPD1    C5 2856   2.888   0.907  10.010  0.1839 -0.0592 -0.5399
  184MPD1     H 2857   2.639   1.157   9.861 -0.0289  1.2753  3.0636
  184MPD1    H1 2858   3.029   0.985   9.881  0.0895 -1.0803  1.2681
  184MPD1    H2 2859   2.736   0.857  10.141  1.2914 -0.6917 -0.2708
  184MPD1    H3 2860   2.962   0.844  10.058 -1.7749 -4.1746 -2.8866
  184MPD1     N 2861   2.889   1.151   9.743 -0.3330  0.7621  0.3414
  184MPD1    H5 2862   2.979   1.119   9.708 -0.7810  1.8993 -1.8511
  184MPD1    N1 2863   2.543   1.020  10.054  0.1700 -0.1807 -0.3187
  184MPD1    H6 2864   2.499   1.110  10.033 -0.1437 -0.1796  0.3497
  184MPD1    H7 2865   2.526   0.976  10.144  0.5682  1.5707  0.6247
  185MPD1     C 2866   2.819   1.896   8.913 -0.1194 -0.5208  0.4114
  185MPD1    C1 2867   2.752   1.882   9.035  0.0635 -0.1463 -0.3414
  185MPD1    C2 2868   2.774   1.777   9.121  0.0411 -0.3735 -0.6585
  185MPD1    C3 2869   2.881   1.690   9.092  0.5439  0.6058 -1.0844
  185MPD1    C4 2870   2.957   1.714   8.974  0.0498  0.5098  0.4827
  185MPD1    C5 2871   2.927   1.816   8.885  0.6705  0.3716 -1.1023
  185MPD1     H 2872   2.731   1.779   9.221  0.4239  0.6289 -0.5191
  185MPD1    H1 2873   3.044   1.650   8.964  0.2057  0.9126 -0.6889
  185MPD1    H2 2874   2.797   1.982   8.852  0.5186  0.0494  0.9873
  185MPD1    H3 2875   3.000   1.847   8.811  0.6200  3.1308 -0.0024
  185MPD1     N 2876   2.921   1.578   9.176 -0.0472 -0.3504  0.1156
  185MPD1    H5 2877   3.009   1.532   9.153  0.0740  0.4029 -0.9056
  185MPD1    N1 2878   2.631   1.950   9.049 -0.2824 -0.4175 -0.0108
  185MPD1    H6 2879   2.602   1.954   9.147 -0.3128 -1.3034  0.0208
  185MPD1    H7 2880   2.632   2.044   9.010  0.2231 -0.1524  0.6379
  186MPD1     C 2881   1.611   0.375  16.027 -0.1089 -0.7163 -0.0930
  186MPD1    C1 2882   1.666   0.483  15.954 -0.5914  0.1242 -0.5056
  186MPD1    C2 2883   1.631   0.611  15.999 -0.7153  0.2306 -0.4643
  186MPD1    C3 2884   1.540   0.640  16.107  1.1769 -0.0763  0.1907
  186MPD1    C4 2885   1.482   0.530  16.164 -0.0396 -0.4019 -0.2614
  186MPD1    C5 2886   1.530   0.404  16.135  0.2751  0.2495  0.1917
  186MPD1     H 2887   1.676   0.699  15.954  3.3832 -1.7155 -0.1439
  186MPD1    H1 2888   1.410   0.534  16.245  0.1638  0.7483 -0.1306
  186MPD1    H2 2889   1.644   0.275  15.999  0.7392 -0.1280 -1.1966
  186MPD1    H3 2890   1.489   0.326  16.197  0.7343  1.5171  2.0984
  186MPD1     N 2891   1.504   0.765  16.161  0.5767  0.4970 -0.3580
  186MPD1    H5 2892   1.443   0.766  16.241  3.2398 -2.0002  1.7005
  186MPD1    N1 2893   1.730   0.459  15.831  1.1289  0.3830 -0.0655
  186MPD1    H6 2894   1.787   0.375  15.841  0.3305 -0.1635 -0.0962
  186MPD1    H7 2895   1.783   0.541  15.803  2.5239  0.1329  1.8749
  187MPD1     C 2896   0.944   2.410   0.428  0.7227  0.2738 -0.7351
  187MPD1    C1 2897   0.819   2.413   0.383  0.1523 -0.4790  0.2700
  187MPD1    C2 2898   0.798   2.479   0.262  0.7453  0.6470 -0.3894
  187MPD1    C3 2899   0.893   2.554   0.199 -1.1685  0.2419 -0.2051
  187MPD1    C4 2900   1.015   2.559   0.255  0.1532  0.4043 -0.2005
  187MPD1    C5 2901   1.042   2.483   0.365  0.2723  0.1131  0.3883
  187MPD1     H 2902   0.704   2.467   0.208 -0.6662 -0.8283  2.4181
  187MPD1    H1 2903   1.101   2.608   0.209 -0.4071 -0.6220 -2.3466
  187MPD1    H2 2904   0.976   2.366   0.522  0.8059  2.4977  0.2697
  187MPD1    H3 2905   1.143   2.480   0.404  0.2575  0.6317  0.4657
  187MPD1     N 2906   0.877   2.628   0.080  0.5259 -0.8309 -0.4960
  187MPD1    H5 2907   0.948   2.699   0.065 -0.4813  0.4418  0.8042
  187MPD1    N1 2908   0.720   2.327   0.438  0.6444 -0.3271  0.2167
  187MPD1    H6 2909   0.628   2.368   0.421  1.3071  1.5479  1.1399
  187MPD1    H7 2910   0.748   2.324   0.535 -0.5562 -1.4696  0.5129
  188MPD1     C 2911   0.411   1.630  10.668 -0.1199  0.4748 -0.1617
  188MPD1    C1 2912   0.524   1.555  10.655 -0.1726  0.2449 -0.0126
  188MPD1    C2 2913   0.562   1.521  10.522  0.7617 -1.0467 -0.4070
  188MPD1    C3 2914   0.485   1.564  10.411 -0.4117 -0.0580  0.0846
  188MPD1    C4 2915   0.382   1.651  10.434 -0.0779  0.5591 -0.0303
  188MPD1    C5 2916   0.343   1.685  10.564 -0.4703  0.5352  0.8786
  188MPD1     H 2917   0.650   1.463  10.499  0.2335 -0.6924 -3.3849
  188MPD1    H1 2918   0.320   1.678  10.350  0.8949  0.7152 -0.7050
  188MPD1    H2 2919   0.379   1.660  10.767  1.0412  2.9297 -0.5358
  188MPD1    H3 2920   0.264   1.758  10.582 -1.7047 -0.7443  0.6304
  188MPD1     N 2921   0.509   1.528  10.277  0.1531  0.5886  0.1904
  188MPD1    H5 2922   0.456   1.578  10.206 -1.8206 -1.0757  0.4746
  188MPD1    N1 2923   0.598   1.511  10.768 -0.0249  0.0813 -0.5301
  188MPD1    H6 2924   0.539   1.513  10.851 -1.6450 -2.3112 -1.6252
  188MPD1    H7 2925   0.638   1.418  10.756  0.8327  0.2313  1.2290
  189MPD1     C 2926   2.680   3.389   0.329  0.0885 -0.1776 -0.2759
  189MPD1    C1 2927   2.577   3.359   0.416  0.6831 -0.3111 -0.0977
  189MPD1    C2 2928   2.506   3.470   0.460 -0.5818 -0.3482 -0.3495
  189MPD1    C3 2929   2.532   3.598   0.422 -0.0271 -0.2706 -0.8674
  189MPD1    C4 2930   2.620   3.617   0.316 -0.3659 -0.1743 -0.1826
  189MPD1    C5 2931   2.701   3.516   0.282  0.1454 -0.2281 -0.4128
  189MPD1     H 2932   2.420   3.447   0.523 -1.0078  0.4130 -0.6542
  189MPD1    H1 2933   2.649   3.713   0.276  2.9746 -0.9844  0.2147
  189MPD1    H2 2934   2.735   3.306   0.288  1.6277  1.5494 -1.7211
  189MPD1    H3 2935   2.773   3.533   0.202  0.6744 -2.3185 -0.3707
  189MPD1     N 2936   2.447   3.695   0.472  0.2719 -0.0023 -0.0611
  189MPD1    H5 2937   2.396   3.668   0.554 -1.4336 -0.3976 -1.2634
  189MPD1    N1 2938   2.569   3.229   0.467  0.1280 -0.3790  0.3325
  189MPD1    H6 2939   2.586   3.158   0.396  1.4507  0.5191 -0.2571
  189MPD1    H7 2940   2.478   3.210   0.508  0.4455 -0.1915  1.1251
  190MPD1     C 2941   1.432   1.314  15.964  0.0708 -0.3542 -0.0721
  190MPD1    C1 2942   1.539   1.311  15.874 -0.3754  0.5612 -0.6175
  190MPD1    C2 2943   1.576   1.426  15.816 -0.3241  0.3262  0.7966
  190MPD1    C3 2944   1.522   1.547  15.853 -0.0962  0.2450  0.5789
  190MPD1    C4 2945   1.434   1.552  15.953  0.3833 -0.1584  0.1684
  190MPD1    C5 2946   1.389   1.435  16.006 -0.4123  0.2029  0.5980
  190MPD1     H 2947   1.644   1.431  15.732  0.1722 -2.5680  1.0270
  190MPD1    H1 2948   1.372   1.636  15.982  0.0560 -1.2902  2.7067
  190MPD1    H2 2949   1.381   1.229  16.007 -0.3194 -0.4783 -0.7872
  190MPD1    H3 2950   1.314   1.442  16.083 -0.8968 -1.0612  0.2341
  190MPD1     N 2951   1.560   1.658  15.785  0.3195  0.0895  0.6231
  190MPD1    H5 2952   1.642   1.653  15.726 -0.1697  1.2242 -0.1573
  190MPD1    N1 2953   1.592   1.189  15.815 -0.4103 -0.0542 -0.0989
  190MPD1    H6 2954   1.686   1.198  15.779 -0.7213 -1.1173 -1.1933
  190MPD1    H7 2955   1.594   1.120  15.889 -1.9247  0.8700  0.8100
  191MPD1     C 2956   4.650   4.303  12.994  0.1545  1.2319 -0.2809
  191MPD1    C1 2957   4.693   4.420  12.941  0.1473 -0.6502 -0.4661
  191MPD1    C2 2958   0.042   4.416  12.829  0.4414  0.5008  0.5964
  191MPD1    C3 2959   0.081   4.301  12.765 -0.1768 -0.0294  0.5076
  191MPD1    C4 2960   0.040   4.177  12.818 -0.7849 -0.2672 -0.3297
  191MPD1    C5 2961   4.698   4.184  12.937 -0.3042  0.2313 -0.2157
  191MPD1     H 2962   0.073   4.511  12.787 -2.5115  1.4752  0.6336
  191MPD1    H1 2963   0.069   4.077  12.787 -0.3185 -0.2938  0.2005
  191MPD1    H2 2964   4.593   4.310  13.086  2.7272  1.8625  1.2752
  191MPD1    H3 2965   4.664   4.095  12.987  0.7052  0.1220  0.2684
  191MPD1     N 2966   0.174   4.305  12.661  0.4125 -0.9760  0.6057
  191MPD1    H5 2967   0.196   4.395  12.619 -0.4162 -0.3225  1.5663
  191MPD1    N1 2968   4.650   4.548  12.995 -0.3637 -0.1856  0.7245
  191MPD1    H6 2969   4.710   4.629  12.978 -1.2036  0.1788 -0.5355
  191MPD1    H7 2970   4.608   4.557  13.087  1.1947 -1.1983  1.5361
  192MPD1     C 2971   4.729   4.176  11.689  0.1312  0.0267  0.3440
  192MPD1    C1 2972   4.701   4.268  11.787 -0.2820  0.1505 -0.0118
  192MPD1    C2 2973   0.033   4.257  11.911  0.6090 -0.1977 -0.0559
  192MPD1    C3 2974   0.147   4.185  11.924 -0.7207 -0.2032  0.6032
  192MPD1    C4 2975   0.180   4.099  11.820  0.3281  0.1180 -0.0141
  192MPD1    C5 2976   0.102   4.092  11.703 -0.0813 -0.7175  0.3502
  192MPD1     H 2977   0.022   4.336  11.984 -0.9513 -1.0661  0.6506
  192MPD1    H1 2978   0.277   4.053  11.834 -0.6236 -1.7617  0.3795
  192MPD1    H2 2979   4.664   4.170  11.602  0.4312 -1.4002  0.2267
  192MPD1    H3 2980   0.136   4.022  11.627 -0.9971  2.1692 -2.6917
  192MPD1     N 2981   0.221   4.189  12.042 -0.2949  0.1337 -0.6644
  192MPD1    H5 2982   0.308   4.138  12.039  0.1896  0.9580 -0.8626
  192MPD1    N1 2983   4.591   4.357  11.784 -0.7076 -0.0363 -0.1795
  192MPD1    H6 2984   4.614   4.441  11.838 -0.0023 -0.7856  0.6931
  192MPD1    H7 2985   4.587   4.393  11.689  1.9951 -3.1857 -1.4815
  193MPD1     C 2986   4.559   3.890  16.360 -0.9203 -0.2515 -0.2460
  193MPD1    C1 2987   4.518   4.019  16.409  0.0464  0.5417  0.5892
  193MPD1    C2 2988   4.609   4.101  16.482  0.2066  0.1045 -0.6569
  193MPD1    C3 2989   0.006   4.054  16.502 -0.1694 -0.0679  0.0757
  193MPD1    C4 2990   0.035   3.927  16.457  0.0803 -0.1413 -0.0839
  193MPD1    C5 2991   4.678   3.841  16.401  0.4956 -0.0754  0.5948
  193MPD1     H 2992   4.572   4.198  16.512  0.2352 -0.2200  0.3990
  193MPD1    H1 2993   0.133   3.888  16.483 -0.3354  1.2437  3.5851
  193MPD1    H2 2994   4.497   3.829  16.295 -0.5823 -0.1907 -0.6274
  193MPD1    H3 2995   4.706   3.745  16.360 -1.4543 -1.0832  1.6562
  193MPD1     N 2996   0.110   4.141  16.563 -0.3961 -0.2507  0.3353
  193MPD1    H5 2997   0.196   4.096  16.594  1.0978  1.3035 -1.5516
  193MPD1    N1 2998   4.403   4.083  16.366  0.1272 -0.0077  0.7318
  193MPD1    H6 2999   4.362   4.162  16.416 -2.4527  1.0322 -3.0511
  193MPD1    H7 3000   4.329   4.014  16.372  1.7993 -1.8582 -0.0506
  194MPD1     C 3001   2.483   1.128  16.824  0.3851  0.4964  0.4493
  194MPD1    C1 3002   2.533   1.215  16.917 -0.0268 -0.2168  0.9583
  194MPD1    C2 3003   2.580   1.166  17.041 -0.2442 -0.1484  0.3863
  194MPD1    C3 3004   2.564   1.035  17.077 -0.8377  0.3644 -0.3140
  194MPD1    C4 3005   2.505   0.948  16.988 -0.0720 -0.3231 -0.5326
  194MPD1    C5 3006   2.472   0.996  16.865 -0.5843  0.1807  0.0030
  194MPD1     H 3007   2.643   1.229  17.103  1.3116 -0.1015 -1.2678
  194MPD1    H1 3008   2.485   0.843  17.007 -2.4910  0.2290  0.0611
  194MPD1    H2 3009   2.454   1.154  16.723  0.6919  0.3366  0.3223
  194MPD1    H3 3010   2.411   0.931  16.804 -0.0451 -1.6556  1.4498
  194MPD1     N 3011   2.607   0.973  17.194 -0.3589  0.2957  0.1823
  194MPD1    H5 3012   2.586   0.874  17.203 -0.1927  0.3277  0.9069
  194MPD1    N1 3013   2.580   1.344  16.882 -0.0199  0.3712  0.1408
  194MPD1    H6 3014   2.527   1.388  16.808 -0.4784 -0.0485  0.2127
  194MPD1    H7 3015   2.591   1.410  16.958  1.6826 -0.0620  0.2771
  195MPD1     C 3016   0.025   3.620   0.666 -0.4806 -0.2791  0.8706
  195MPD1    C1 3017   0.088   3.627   0.550 -0.1356 -0.1610  0.4749
  195MPD1    C2 3018   0.129   3.509   0.488  0.0494 -0.1226  0.5129
  195MPD1    C3 3019   0.094   3.386   0.542  0.1809  0.1162  0.2367
  195MPD1    C4 3020   0.023   3.387   0.662  0.3654  0.8290  0.3538
  195MPD1    C5 3021   4.721   3.499   0.724 -0.1064 -0.0308 -0.0874
  195MPD1     H 3022   0.194   3.518   0.402 -0.9537  0.3733 -0.1877
  195MPD1    H1 3023   0.002   3.294   0.713 -0.6983  1.1515  0.4971
  195MPD1    H2 3024   4.721   3.708   0.719  0.1560 -0.9301  2.4128
  195MPD1    H3 3025   4.656   3.496   0.811  0.4067 -2.2563  0.2070
  195MPD1     N 3026   0.118   3.260   0.474 -0.3683  0.1201 -0.1647
  195MPD1    H5 3027   0.066   3.178   0.506 -1.0493 -0.1377 -1.9526
  195MPD1    N1 3028   0.112   3.752   0.490 -0.1380  0.3902 -0.4175
  195MPD1    H6 3029   0.181   3.755   0.415 -0.5964  0.8326 -0.8190
  195MPD1    H7 3030   0.113   3.829   0.556 -1.1474  0.6055 -0.6480
  196MPD1     C 3031   3.813   2.903  17.522 -0.1399  0.1153 -0.1468
  196MPD1    C1 3032   3.813   2.998  17.614  0.7330  0.2533 -0.4154
  196MPD1    C2 3033   3.891   2.966  17.728  0.6854 -0.9910 -0.1317
  196MPD1    C3 3034   3.969   2.853   0.006 -0.6565  0.5052  0.2898
  196MPD1    C4 3035   3.977   2.770  17.634  0.3557  0.0607  0.1585
  196MPD1    C5 3036   3.898   2.794  17.529 -0.2491 -0.0528 -0.1201
  196MPD1     H 3037   3.901   3.046   0.069  0.5489 -0.7144 -0.4151
  196MPD1    H1 3038   4.034   2.678  17.627 -0.8779 -0.7444  0.5615
  196MPD1    H2 3039   3.747   2.906  17.436  0.7493  1.6548 -0.7644
  196MPD1    H3 3040   3.879   2.728  17.445 -1.6153  1.4244 -0.9751
  196MPD1     N 3041   4.055   2.827   0.115 -0.1247 -0.5899 -0.3578
  196MPD1    H5 3042   4.139   2.771   0.103  0.7962  0.7154  0.0332
  196MPD1    N1 3043   3.715   3.093  17.616  0.3891  0.5919  0.0283
  196MPD1    H6 3044   3.753   3.165  17.679  1.4400  0.3469 -0.3284
  196MPD1    H7 3045   3.702   3.116  17.518 -0.4207  0.1618  0.0407
  197MPD1     C 3046   3.613   4.151   0.111  0.4689  0.8377 -0.0954
  197MPD1    C1 3047   3.712   4.225   0.165 -0.0577  0.0242 -0.3952
  197MPD1    C2 3048   3.785   4.308   0.083  0.4129  1.0868 -0.0660
  197MPD1    C3 3049   3.768   4.312  17.682 -0.0982  0.7020  0.3941
  197MPD1    C4 3050   3.675   4.227  17.628 -0.8444 -0.0757 -0.0131
  197MPD1    C5 3051   3.595   4.156  17.707  0.1346 -0.4371 -0.3163
  197MPD1     H 3052   3.857   4.372   0.133  0.6348  2.7436 -2.4815
  197MPD1    H1 3053   3.650   4.220  17.523  1.7096 -0.4512 -0.6119
  197MPD1    H2 3054   3.538   4.098   0.169  0.1259 -0.5462 -1.8363
  197MPD1    H3 3055   3.519   4.095  17.659  0.1378 -0.2141 -0.6070
  197MPD1     N 3056   3.839   4.398  17.590  0.3951  0.3339 -0.2477
  197MPD1    H5 3057   3.809   4.405  17.494 -2.1100 -1.9247  0.3651
  197MPD1    N1 3058   3.723   4.247   0.300  0.0776  0.6456  0.1340
  197MPD1    H6 3059   3.816   4.280   0.325  0.5918  0.7656 -1.8944
  197MPD1    H7 3060   3.725   4.156   0.345 -3.2631  0.5484  0.1271
  198MPD1     C 3061   0.828   2.909  15.113 -0.6099 -1.0128 -0.1388
  198MPD1    C1 3062   0.885   3.038  15.103  0.6985 -0.2349  0.0993
  198MPD1    C2 3063   0.958   3.083  15.208 -0.4341  0.4720  0.0928
  198MPD1    C3 3064   0.994   3.000  15.314 -0.4890  0.0067  0.7797
  198MPD1    C4 3065   0.936   2.876  15.320  0.0093 -0.2418 -0.0282
  198MPD1    C5 3066   0.855   2.830  15.220  0.0046 -0.0577 -0.0752
  198MPD1     H 3067   1.004   3.181  15.195  1.6509 -0.8475 -2.4328
  198MPD1    H1 3068   0.948   2.797  15.393 -0.4067  1.0451  1.4235
  198MPD1    H2 3069   0.757   2.877  15.038  0.1679 -0.1590 -1.2460
  198MPD1    H3 3070   0.813   2.731  15.227 -1.4697  0.5209 -0.6547
  198MPD1     N 3071   1.077   3.051  15.418 -0.9397 -0.3175  0.4401
  198MPD1    H5 3072   1.131   3.133  15.393 -1.4752 -0.4381 -1.0714
  198MPD1    N1 3073   0.856   3.115  14.988  0.0567 -0.0573  0.3557
  198MPD1    H6 3074   0.781   3.069  14.936 -0.0705  1.3784 -0.7367
  198MPD1    H7 3075   0.815   3.207  15.005  2.1151  0.4096  2.6737
  199MPD1     C 3076   1.897   3.035  10.510 -0.0463  0.2640 -0.0721
  199MPD1    C1 3077   1.764   3.035  10.553  0.3768 -0.4967  0.1321
  199MPD1    C2 3078   1.673   3.141  10.522  0.3886 -0.4392 -0.3722
  199MPD1    C3 3079   1.717   3.228  10.420 -0.6507  0.1492 -0.1030
  199MPD1    C4 3080   1.850   3.223  10.373  0.0997 -0.4805  0.1799
  199MPD1    C5 3081   1.939   3.127  10.421 -0.3837 -0.0749  0.5812
  199MPD1     H 3082   1.571   3.144  10.556 -0.6531 -3.3295 -3.2990
  199MPD1    H1 3083   1.873   3.287  10.289 -0.4688 -0.5352 -0.0137
  199MPD1    H2 3084   1.964   2.955  10.538  0.6890  1.2288  0.9166
  199MPD1    H3 3085   2.039   3.121  10.379  0.7604  1.5946  3.1131
  199MPD1     N 3086   1.628   3.337  10.382 -0.1306 -0.2345 -0.1343
  199MPD1    H5 3087   1.668   3.401  10.314 -0.7156 -0.6430 -0.8628
  199MPD1    N1 3088   1.742   2.943  10.655 -0.0225  0.3204  0.7416
  199MPD1    H6 3089   1.645   2.920  10.676 -0.3564  0.6407 -0.4691
  199MPD1    H7 3090   1.804   2.863  10.657 -1.1371 -0.5778 -0.3968
  200MPD1     C 3091   1.440   4.050  15.610  0.2549 -0.2980  0.2929
  200MPD1    C1 3092   1.353   4.048  15.505 -0.1000 -0.6914 -0.1363
  200MPD1    C2 3093   1.401   4.004  15.383 -0.7260 -0.7878  0.7747
  200MPD1    C3 3094   1.535   4.002  15.358 -0.1336 -0.1663 -0.1538
  200MPD1    C4 3095   1.627   4.028  15.459  0.1407  0.3707 -0.3197
  200MPD1    C5 3096   1.576   4.046  15.584  0.2228 -0.1007  0.3565
  200MPD1     H 3097   1.325   3.986  15.307  1.4251  0.3593 -1.6542
  200MPD1    H1 3098   1.732   4.004  15.446 -0.0256 -0.1031 -0.8211
  200MPD1    H2 3099   1.417   4.053  15.716 -0.9193  0.3572  0.0177
  200MPD1    H3 3100   1.638   4.048  15.674  1.3200 -0.7473 -0.3953
  200MPD1     N 3101   1.564   3.981  15.219  0.7036 -0.3059 -0.3145
  200MPD1    H5 3102   1.485   3.968  15.157 -0.5210  0.5254  1.0848
  200MPD1    N1 3103   1.218   4.049  15.542 -0.8262  0.1319 -0.2404
  200MPD1    H6 3104   1.191   4.114  15.616  0.5811  1.5259 -0.9323
  200MPD1    H7 3105   1.157   4.066  15.463 -0.8917 -0.7636 -0.3716
  201MPD1     C 3106   4.449   3.136  13.611  0.1601 -0.1093 -0.7160
  201MPD1    C1 3107   4.381   3.028  13.649 -0.7010 -0.5043  0.8581
  201MPD1    C2 3108   4.410   2.901  13.576 -0.5768 -0.3267 -0.0753
  201MPD1    C3 3109   4.495   2.893  13.469 -0.4424 -1.1133 -0.6436
  201MPD1    C4 3110   4.554   3.016  13.434  0.2301 -0.1257 -0.2694
  201MPD1    C5 3111   4.532   3.128  13.512  0.6805 -0.4388  0.4134
  201MPD1     H 3112   4.344   2.818  13.599  1.5165 -1.9604  0.0685
  201MPD1    H1 3113   4.624   3.030  13.353  2.1261  0.7959  1.5379
  201MPD1    H2 3114   4.442   3.233  13.659  0.1929 -1.1189  1.3616
  201MPD1    H3 3115   4.581   3.220  13.484 -0.3482  0.8786  2.9299
  201MPD1     N 3116   4.522   2.775  13.408 -0.2628  0.0352 -0.2224
  201MPD1    H5 3117   4.500   2.687  13.452 -1.9954 -0.4220 -2.0161
  201MPD1    N1 3118   4.300   3.023  13.765  0.0428 -0.2459  0.7687
  201MPD1    H6 3119   4.254   3.113  13.775 -0.0518 -0.2646  0.4963
  201MPD1    H7 3120   4.225   2.955  13.764  1.8287 -2.1340 -2.3258
  202MPD1     C 3121   3.573   2.822   9.034  0.3670  0.1035 -0.0134
  202MPD1    C1 3122   3.596   2.686   9.038 -0.3811  0.6915 -0.2189
  202MPD1    C2 3123   3.647   2.640   9.157 -0.0930  0.6956  0.2324
  202MPD1    C3 3124   3.649   2.699   9.280  0.0134  0.6677  0.6081
  202MPD1    C4 3125   3.630   2.832   9.272  0.1356 -0.3123  0.3838
  202MPD1    C5 3126   3.590   2.891   9.155 -0.2768 -0.3755 -0.0312
  202MPD1     H 3127   3.670   2.534   9.159  0.4124  0.8247  1.1652
  202MPD1    H1 3128   3.612   2.894   9.359  1.1695 -0.1101  0.4505
  202MPD1    H2 3129   3.546   2.870   8.941 -1.5817  0.7556  0.8857
  202MPD1    H3 3130   3.553   2.993   9.163  1.1764  0.1517 -0.1146
  202MPD1     N 3131   3.666   2.641   9.405  0.4716  0.5749  0.4413
  202MPD1    H5 3132   3.655   2.693   9.492 -0.0186  0.9275  0.1690
  202MPD1    N1 3133   3.622   2.603   8.920  0.0524 -0.4531  0.5783
  202MPD1    H6 3134   3.562   2.631   8.843  0.4315 -0.6405  0.2210
  202MPD1    H7 3135   3.599   2.506   8.942 -1.1882 -0.0296  1.2205
  203MPD1     C 3136   2.602   3.205  12.186  0.7231  0.1855 -0.3651
  203MPD1    C1 3137   2.611   3.067  12.171  0.9080  0.1845 -0.2518
  203MPD1    C2 3138   2.710   3.006  12.240 -0.1945  0.5332  0.2004
  203MPD1    C3 3139   2.775   3.055  12.349 -0.0785  0.2585  0.1941
  203MPD1    C4 3140   2.740   3.180  12.386 -0.1236  0.0569 -0.5325
  203MPD1    C5 3141   2.664   3.261  12.297 -0.7047 -0.3540  0.8630
  203MPD1     H 3142   2.743   2.910  12.202 -3.6557 -0.7310  0.3756
  203MPD1    H1 3143   2.792   3.225  12.471  0.5412 -0.1574 -0.8302
  203MPD1    H2 3144   2.545   3.265  12.117 -1.3685 -1.5897 -0.1802
  203MPD1    H3 3145   2.651   3.364  12.331 -0.0252  0.4433 -1.2991
  203MPD1     N 3146   2.881   2.976  12.410  0.2830 -0.6559 -0.0942
  203MPD1    H5 3147   2.907   2.895  12.353  1.6657 -0.2029 -0.1101
  203MPD1    N1 3148   2.554   3.016  12.058 -0.1891  0.3073  0.0290
  203MPD1    H6 3149   2.541   2.915  12.049  0.9680  0.0863  0.7991
  203MPD1    H7 3150   2.462   3.055  12.040 -0.2815  0.5829  1.1073
  204MPD1     C 3151   2.150   4.640   0.069 -0.9571 -0.2173 -0.8356
  204MPD1    C1 3152   2.232   4.682  17.699  0.2878  0.8339 -1.4426
  204MPD1    C2 3153   2.343   4.604  17.663  0.0240  0.2525 -0.1141
  204MPD1    C3 3154   2.375   4.488  17.731  0.3501 -0.1560 -0.2981
  204MPD1    C4 3155   2.272   4.441   0.087 -1.1958  0.2627  0.1010
  204MPD1    C5 3156   2.161   4.515   0.111 -0.1422  0.1127 -0.0983
  204MPD1     H 3157   2.400   4.626  17.574  0.8673  3.4833  1.1997
  204MPD1    H1 3158   2.275   4.345   0.137  0.1723  1.5430  2.5250
  204MPD1    H2 3159   2.064   4.701   0.093 -1.6217 -1.2423 -0.6182
  204MPD1    H3 3160   2.097   4.476   0.189 -1.5980 -0.6835 -1.6993
  204MPD1     N 3161   2.497   4.422  17.701  0.0914  0.5216  1.0008
  204MPD1    H5 3162   2.547   4.466  17.624  0.6417 -0.1563  0.9710
  204MPD1    N1 3163   2.214   0.076  17.653 -0.5408  0.0436  0.2554
  204MPD1    H6 3164   2.119   0.113  17.657 -0.2559  0.9373 -1.1064
  204MPD1    H7 3165   2.256   0.094  17.562  0.1395 -2.8254  0.0147
  205MPD1     C 3166   3.728   3.266  17.251  0.5892 -0.2579 -0.6068
  205MPD1    C1 3167   3.654   3.150  17.267  0.1012  0.2278  0.2414
  205MPD1    C2 3168   3.548   3.154  17.360 -0.3866 -0.0639 -0.2242
  205MPD1    C3 3169   3.515   3.267  17.434 -0.2902 -0.3180 -0.2078
  205MPD1    C4 3170   3.594   3.376  17.411  0.6404 -0.4071  0.5212
  205MPD1    C5 3171   3.694   3.378  17.316  0.6787 -0.7982  0.1966
  205MPD1     H 3172   3.486   3.065  17.364 -0.9788  0.4740  2.4531
  205MPD1    H1 3173   3.565   3.470  17.455  1.8070  0.0821  0.2343
  205MPD1    H2 3174   3.805   3.276  17.175  1.9984 -1.4511  0.6749
  205MPD1    H3 3175   3.751   3.467  17.291 -4.3590  2.0866 -0.9655
  205MPD1     N 3176   3.416   3.278  17.536  0.5241  0.1530  0.4665
  205MPD1    H5 3177   3.412   3.365  17.587 -1.1340 -0.5275  1.4625
  205MPD1    N1 3178   3.671   3.039  17.188 -1.2634 -0.2014  0.5228
  205MPD1    H6 3179   3.769   3.035  17.159 -1.5007 -1.2482 -0.1148
  205MPD1    H7 3180   3.644   2.950  17.228  1.1177  0.1801  2.9809
  206MPD1     C 3181   3.139   1.177  17.236 -0.2016  0.4107 -0.3019
  206MPD1    C1 3182   3.188   1.296  17.186 -0.2274 -0.2972  0.0763
  206MPD1    C2 3183   3.126   1.347  17.074  0.5561  0.0826  0.1960
  206MPD1    C3 3184   3.012   1.290  17.015  0.2887  0.1617  0.1280
  206MPD1    C4 3185   2.965   1.169  17.066  0.0266 -0.1538 -0.3064
  206MPD1    C5 3186   3.037   1.108  17.168  0.4919  0.0390 -0.2166
  206MPD1     H 3187   3.167   1.434  17.024  4.1785 -2.0236 -0.4529
  206MPD1    H1 3188   2.872   1.123  17.034 -1.8621  0.8505  3.7227
  206MPD1    H2 3189   3.172   1.130  17.328 -0.4339  0.7139 -0.0610
  206MPD1    H3 3190   3.003   1.013  17.206  2.5003  0.4314  2.6095
  206MPD1     N 3191   2.937   1.351  16.919 -0.2971 -0.9880  0.3940
  206MPD1    H5 3192   2.852   1.301  16.894 -2.1896  1.0771  2.6894
  206MPD1    N1 3193   3.286   1.364  17.262  0.0558 -0.0711  0.1191
  206MPD1    H6 3194   3.352   1.408  17.197  0.2605 -0.9861 -0.2841
  206MPD1    H7 3195   3.328   1.318  17.342 -2.0263 -0.9163  0.7238
  207MPD1     C 3196   0.147   3.198  10.013  0.3734  0.2233 -0.6249
  207MPD1    C1 3197   0.236   3.113  10.088  0.0606 -0.3009  0.0728
  207MPD1    C2 3198   0.305   3.172  10.191  0.6092  1.0269  0.6497
  207MPD1    C3 3199   0.310   3.312  10.212 -0.4320 -0.0621  0.0430
  207MPD1    C4 3200   0.224   3.391  10.137 -0.1015 -0.2487  0.1732
  207MPD1    C5 3201   0.139   3.334  10.045  0.5942 -0.5989  0.3630
  207MPD1     H 3202   0.360   3.107  10.258 -0.6552  1.7142  2.3736
  207MPD1    H1 3203   0.213   3.498  10.153 -2.2143 -0.0502 -2.6040
  207MPD1    H2 3204   0.085   3.163   9.931 -2.6191  2.7559  0.5472
  207MPD1    H3 3205   0.069   3.394   9.989 -1.8241 -3.7701  0.0018
  207MPD1     N 3206   0.385   3.370  10.317 -1.0252 -0.0385 -0.6603
  207MPD1    H5 3207   0.382   3.472  10.321  1.9008 -0.0779  2.3514
  207MPD1    N1 3208   0.228   2.975  10.068  0.6126  0.0327 -0.0165
  207MPD1    H6 3209   0.210   2.944   9.973  1.6846  0.6128 -0.4117
  207MPD1    H7 3210   0.322   2.942  10.091 -0.5336 -1.2556  2.8846
  208MPD1     C 3211   2.516   1.693   0.771 -0.2321 -0.4414  0.0202
  208MPD1    C1 3212   2.504   1.757   0.645 -0.3111  0.2323 -0.4926
  208MPD1    C2 3213   2.594   1.855   0.621  0.2786 -0.6022  0.3025
  208MPD1    C3 3214   2.700   1.889   0.704 -0.1878 -0.6806 -0.8260
  208MPD1    C4 3215   2.719   1.809   0.814 -0.3370 -0.0558 -0.1230
  208MPD1    C5 3216   2.624   1.716   0.857 -0.0025  0.5051  0.1850
  208MPD1     H 3217   2.578   1.916   0.533  1.1965 -1.7759 -0.6740
  208MPD1    H1 3218   2.799   1.826   0.885 -0.1044  0.4724 -0.5134
  208MPD1    H2 3219   2.448   1.612   0.795 -2.5011  1.0419 -1.3697
  208MPD1    H3 3220   2.638   1.662   0.950  1.3465  1.8841  0.7707
  208MPD1     N 3221   2.796   1.980   0.653  0.2619  0.4102  0.4667
  208MPD1    H5 3222   2.780   2.022   0.562  0.2615 -1.0240 -0.1882
  208MPD1    N1 3223   2.399   1.729   0.554 -0.1744  0.1120  0.0316
  208MPD1    H6 3224   2.363   1.634   0.562 -0.0999  0.0723 -0.1083
  208MPD1    H7 3225   2.424   1.746   0.457  2.0737 -1.9255  0.2467
  209MPD1     C 3226   0.834   3.656  12.237 -0.5336  0.5251  0.6479
  209MPD1    C1 3227   0.937   3.723  12.166  0.1233  0.6926  0.5296
  209MPD1    C2 3228   0.961   3.681  12.036  0.2599 -0.2539 -0.6544
  209MPD1    C3 3229   0.909   3.564  11.983 -0.5892 -0.5665  0.4821
  209MPD1    C4 3230   0.818   3.491  12.064  0.6039  0.0132 -0.1917
  209MPD1    C5 3231   0.783   3.540  12.188 -0.3099 -0.5589 -1.1309
  209MPD1     H 3232   1.027   3.741  11.976  1.4162  0.3042  1.1775
  209MPD1    H1 3233   0.768   3.402  12.027  0.7594 -0.6982  1.3226
  209MPD1    H2 3234   0.798   3.700  12.329 -3.1852  0.3618 -0.3295
  209MPD1    H3 3235   0.705   3.493  12.248  0.3946 -0.4067 -0.0965
  209MPD1     N 3236   0.941   3.527  11.850 -0.4175  0.3308 -0.4341
  209MPD1    H5 3237   1.002   3.591  11.801  2.1017 -1.0406  0.8933
  209MPD1    N1 3238   0.989   3.850  12.204 -0.5206  0.0101  0.0699
  209MPD1    H6 3239   1.072   3.886  12.157 -0.9999  1.5121  0.3698
  209MPD1    H7 3240   0.993   3.866  12.304 -0.9485 -2.4078  0.4748
  210MPD1     C 3241   1.730   3.605  11.263 -0.5756  0.1374 -0.9185
  210MPD1    C1 3242   1.718   3.576  11.400  0.4863  0.2607  0.6088
  210MPD1    C2 3243   1.592   3.535  11.450  0.7245 -0.3431  0.1656
  210MPD1    C3 3244   1.490   3.509  11.354 -0.5104  0.4939  0.0944
  210MPD1    C4 3245   1.518   3.508  11.217 -1.0945  0.0518 -0.4858
  210MPD1    C5 3246   1.638   3.549  11.175 -0.9862  0.2263  0.2095
  210MPD1     H 3247   1.576   3.515  11.555  0.6044  2.4119  0.6820
  210MPD1    H1 3248   1.445   3.473  11.145 -1.0104  0.2893 -0.6888
  210MPD1    H2 3249   1.827   3.644  11.234 -0.5571 -0.8337 -2.2026
  210MPD1    H3 3250   1.654   3.550  11.068  1.5362 -1.5156  0.5654
  210MPD1     N 3251   1.358   3.477  11.382  0.3977  0.0872 -0.1852
  210MPD1    H5 3252   1.299   3.458  11.302 -3.0187 -0.7824  2.5462
  210MPD1    N1 3253   1.818   3.617  11.492 -0.0672  0.0399  0.1092
  210MPD1    H6 3254   1.822   3.549  11.568  0.8055 -1.4717 -1.2866
  210MPD1    H7 3255   1.908   3.630  11.446  1.7951 -1.5348  3.3298
  211MPD1     C 3256   3.592   3.170  16.118  0.2520 -0.8086 -0.0627
  211MPD1    C1 3257   3.602   3.291  16.173  0.2023  0.4850 -0.0971
  211MPD1    C2 3258   3.492   3.373  16.168 -0.6455  0.9551 -0.1381
  211MPD1    C3 3259   3.391   3.352  16.073  0.2787  0.6116 -0.4747
  211MPD1    C4 3260   3.393   3.237  16.001 -0.4191 -0.4166  0.1373
  211MPD1    C5 3261   3.481   3.140  16.043 -0.7130 -0.4848 -0.1850
  211MPD1     H 3262   3.487   3.463  16.228  0.5491 -0.1894  1.6828
  211MPD1    H1 3263   3.311   3.211  15.935  0.7163 -0.2755 -1.3340
  211MPD1    H2 3264   3.665   3.095  16.146  0.2339 -0.9237 -0.3275
  211MPD1    H3 3265   3.485   3.038  16.006  1.5816 -0.6024  0.3804
  211MPD1     N 3266   3.292   3.455  16.064 -0.1069 -0.5332 -0.1472
  211MPD1    H5 3267   3.293   3.538  16.122  0.5606  0.0058 -0.9295
  211MPD1    N1 3268   3.716   3.325  16.250 -0.1083 -0.2733  0.1269
  211MPD1    H6 3269   3.804   3.275  16.238 -0.0008 -0.8886  3.5008
  211MPD1    H7 3270   3.725   3.425  16.237  0.3880 -0.3373 -0.0400
  212MPD1     C 3271   2.367   1.803  16.659  0.2671 -0.8440  0.5090
  212MPD1    C1 3272   2.403   1.810  16.795  0.9024  0.3249  0.0096
  212MPD1    C2 3273   2.360   1.708  16.878  0.2961 -0.4445  0.2942
  212MPD1    C3 3274   2.299   1.591  16.828  0.1812 -0.3123 -0.4126
  212MPD1    C4 3275   2.289   1.582  16.697 -0.5003  0.5002  0.0933
  212MPD1    C5 3276   2.316   1.686  16.615  0.2099 -0.3140 -0.3118
  212MPD1     H 3277   2.380   1.718  16.984 -1.5727 -0.4995  0.6602
  212MPD1    H1 3278   2.232   1.503  16.649 -2.7676  1.8879  0.5107
  212MPD1    H2 3279   2.357   1.887  16.591 -0.0766 -0.9333  0.4486
  212MPD1    H3 3280   2.277   1.672  16.515 -0.2973  1.2329 -0.3153
  212MPD1     N 3281   2.239   1.489  16.910  0.8889  0.2542  0.4466
  212MPD1    H5 3282   2.196   1.415  16.856 -0.8438  1.0496  0.7362
  212MPD1    N1 3283   2.425   1.936  16.861  0.7315  0.2513 -0.0956
  212MPD1    H6 3284   2.472   1.926  16.951 -0.1729  0.0465  0.3487
  212MPD1    H7 3285   2.486   1.997  16.808  2.5553 -0.9656  0.5835
  213MPD1     C 3286   1.622   2.461  15.629 -0.3823 -0.2266 -0.5407
  213MPD1    C1 3287   1.526   2.458  15.524  0.3240  0.3414 -0.0166
  213MPD1    C2 3288   1.389   2.428  15.560  0.0109  0.3789  0.1155
  213MPD1    C3 3289   1.352   2.430  15.695 -0.0613 -0.2337  0.1100
  213MPD1    C4 3290   1.448   2.448  15.794 -0.4946  0.7086  0.4884
  213MPD1    C5 3291   1.574   2.472  15.759  0.5034 -0.3674  0.1056
  213MPD1     H 3292   1.308   2.399  15.493  0.8823 -2.9222  0.4839
  213MPD1    H1 3293   1.428   2.445  15.901 -1.8301  0.4874  0.2299
  213MPD1    H2 3294   1.727   2.464  15.605 -0.1258 -1.8270  0.4385
  213MPD1    H3 3295   1.645   2.486  15.840  0.9313 -0.7619 -0.2004
  213MPD1     N 3296   1.211   2.415  15.717 -0.0921  0.2782  0.1308
  213MPD1    H5 3297   1.156   2.398  15.633 -1.4885  0.6303  0.9818
  213MPD1    N1 3298   1.571   2.416  15.403  0.0362  0.2974 -0.1558
  213MPD1    H6 3299   1.664   2.455  15.389 -0.2232  1.2540  0.7140
  213MPD1    H7 3300   1.508   2.437  15.326  0.5635 -1.9896 -1.1867
  214MPD1     C 3301   0.674   1.613  16.093  0.5860  0.2815  0.0396
  214MPD1    C1 3302   0.694   1.719  16.174 -1.2353 -0.5036  0.3626
  214MPD1    C2 3303   0.704   1.846  16.124 -0.1020 -0.4412  0.0361
  214MPD1    C3 3304   0.721   1.867  15.986  0.3781  0.3863  1.1302
  214MPD1    C4 3305   0.718   1.755  15.905  1.2723 -0.4179 -0.0655
  214MPD1    C5 3306   0.685   1.629  15.960 -0.9236 -0.1824  0.3316
  214MPD1     H 3307   0.714   1.926  16.196 -0.6696 -0.3141 -0.0289
  214MPD1    H1 3308   0.729   1.772  15.799  1.6096 -1.2757 -0.1642
  214MPD1    H2 3309   0.634   1.517  16.125  0.5450  1.4502  3.5200
  214MPD1    H3 3310   0.675   1.552  15.884  1.3094 -1.0489  0.9222
  214MPD1     N 3311   0.750   1.992  15.927 -0.5444 -0.3278 -0.2263
  214MPD1    H5 3312   0.735   1.986  15.827 -1.2365  1.1341 -0.2076
  214MPD1    N1 3313   0.669   1.712  16.312  0.2462 -0.4418 -0.2099
  214MPD1    H6 3314   0.726   1.777  16.366 -0.3691  0.6645 -0.9083
  214MPD1    H7 3315   0.698   1.617  16.338  0.3351 -0.0671  1.0665
  215MPD1     C 3316   0.527   2.305  10.671 -0.0676  0.2336 -0.2750
  215MPD1    C1 3317   0.527   2.357  10.798  0.7135  0.6540 -0.5495
  215MPD1    C2 3318   0.472   2.482  10.813  0.1330  0.5224 -0.5020
  215MPD1    C3 3319   0.430   2.557  10.701 -0.5605 -0.1230 -0.4732
  215MPD1    C4 3320   0.421   2.500  10.580  0.2124 -0.1378 -0.3336
  215MPD1    C5 3321   0.475   2.379  10.567  0.2662 -0.2157  0.5820
  215MPD1     H 3322   0.472   2.540  10.905  0.4218  1.2466 -0.9550
  215MPD1    H1 3323   0.370   2.541  10.493  0.1937 -0.1276 -0.3178
  215MPD1    H2 3324   0.562   2.203  10.657  2.5119  1.1577 -0.5865
  215MPD1    H3 3325   0.474   2.334  10.468  2.1707  2.3169 -0.6077
  215MPD1     N 3326   0.373   2.681  10.732 -0.5615 -0.6961  0.3747
  215MPD1    H5 3327   0.375   2.704  10.831 -2.2591  0.2577  0.1829
  215MPD1    N1 3328   0.541   2.272  10.912  0.0803  0.4616 -0.5040
  215MPD1    H6 3329   0.616   2.206  10.891  0.8507  0.9796  0.6468
  215MPD1    H7 3330   0.552   2.320  11.001  1.2209  0.7634 -0.8033
  216MPD1     C 3331   2.657   1.059   0.058 -0.2135 -0.2441 -0.2399
  216MPD1    C1 3332   2.727   0.971   0.147 -0.2187 -0.6377  0.7188
  216MPD1    C2 3333   2.699   0.840   0.122 -0.0554 -0.3171 -0.3278
  216MPD1    C3 3334   2.624   0.799   0.013  0.2434  1.0116 -0.6588
  216MPD1    C4 3335   2.574   0.890  17.648  0.6550  1.0431 -0.4712
  216MPD1    C5 3336   2.570   1.025  17.690  0.0175  0.1048 -0.3380
  216MPD1     H 3337   2.757   0.770   0.180 -3.2143 -3.3261 -0.8157
  216MPD1    H1 3338   2.535   0.862  17.551  1.7786 -0.0147 -0.6166
  216MPD1    H2 3339   2.658   1.167   0.073  0.8501 -0.5430  1.7885
  216MPD1    H3 3340   2.528   1.097  17.621  0.5537  1.1880  0.4592
  216MPD1     N 3341   2.613   0.660   0.006  0.1525  0.3052 -0.0213
  216MPD1    H5 3342   2.661   0.599   0.071 -0.8658 -1.8854 -1.2918
  216MPD1    N1 3343   2.784   1.019   0.267 -0.1847 -0.9986 -0.6480
  216MPD1    H6 3344   2.841   1.102   0.261 -0.2989 -0.8790 -0.0377
  216MPD1    H7 3345   2.833   0.937   0.302  0.6094  0.3837  1.4635
  217MPD1     C 3346   3.268   3.704   9.136  0.2858  0.7075 -0.1392
  217MPD1    C1 3347   3.277   3.636   9.260 -0.5901  0.0892 -0.6416
  217MPD1    C2 3348   3.254   3.501   9.257  0.2747  0.0121  0.1967
  217MPD1    C3 3349   3.240   3.433   9.132 -0.2334  0.4651  0.1283
  217MPD1    C4 3350   3.244   3.506   9.012  0.5273  0.2605 -0.6013
  217MPD1    C5 3351   3.263   3.641   9.016 -0.0578  0.0307 -0.4641
  217MPD1     H 3352   3.245   3.450   9.352  3.1745  0.3302  0.6441
  217MPD1    H1 3353   3.212   3.454   8.923 -0.0266 -0.6919  0.1549
  217MPD1    H2 3354   3.291   3.809   9.128  0.7978  0.5043 -1.4062
  217MPD1    H3 3355   3.279   3.700   8.926  0.9156  3.2557  1.8581
  217MPD1     N 3356   3.212   3.294   9.123  0.4712 -0.6060  0.6753
  217MPD1    H5 3357   3.182   3.256   9.033  0.2224 -0.0469  0.5190
  217MPD1    N1 3358   3.281   3.701   9.385 -0.4260  0.0417 -0.2076
  217MPD1    H6 3359   3.340   3.649   9.449  0.5186 -1.2403 -2.1374
  217MPD1    H7 3360   3.315   3.797   9.379 -0.1990  0.0214  0.8316
  218MPD1     C 3361   4.370   2.662  12.779  0.3126  0.1536  0.4536
  218MPD1    C1 3362   4.483   2.639  12.854 -0.8100 -1.2284 -0.4618
  218MPD1    C2 3363   4.522   2.747  12.934  0.2161 -0.7478 -0.1968
  218MPD1    C3 3364   4.465   2.873  12.917  0.1764 -0.2332 -0.1381
  218MPD1    C4 3365   4.347   2.887  12.838  0.2660 -0.0542  0.5224
  218MPD1    C5 3366   4.300   2.778  12.775  0.1388 -0.4230 -0.3333
  218MPD1     H 3367   4.614   2.741  12.991  0.9693 -0.1608 -1.3324
  218MPD1    H1 3368   4.297   2.983  12.831  3.6734  1.8465  2.4457
  218MPD1    H2 3369   4.330   2.581  12.719  0.4109 -0.9353  1.8295
  218MPD1    H3 3370   4.213   2.782  12.711 -0.1464  2.2950  0.2212
  218MPD1     N 3371   4.524   2.969  12.996 -0.1774 -0.1735 -0.5104
  218MPD1    H5 3372   4.612   2.945  13.040  0.8048 -3.6544 -4.3682
  218MPD1    N1 3373   4.533   2.508  12.872 -0.7626  0.0555 -0.0871
  218MPD1    H6 3374   4.512   2.436  12.803 -0.7288 -0.5058  0.4831
  218MPD1    H7 3375   4.628   2.506  12.909 -1.2584  1.0412  1.2288
  219MPD1     C 3376   4.610   4.038  13.281  0.2167  0.6887  1.0175
  219MPD1    C1 3377   4.484   3.965  13.284  0.2034 -0.3511 -0.3791
  219MPD1    C2 3378   4.490   3.830  13.249  0.1600  0.0784 -0.6388
  219MPD1    C3 3379   4.609   3.769  13.200 -0.0370  0.2265  0.8428
  219MPD1    C4 3380   4.723   3.850  13.184 -0.3193 -0.7787 -0.3430
  219MPD1    C5 3381   4.726   3.979  13.224 -0.2450  0.1067  0.0073
  219MPD1     H 3382   4.404   3.766  13.267 -0.0582  0.4914 -0.2067
  219MPD1    H1 3383   0.076   3.799  13.143 -0.4579 -0.1468 -1.4208
  219MPD1    H2 3384   4.613   4.143  13.308 -4.3953  0.5929  2.0171
  219MPD1    H3 3385   0.081   4.039  13.204  0.1388 -1.1897 -2.2290
  219MPD1     N 3386   4.636   3.633  13.166 -0.2562 -0.3546  0.7592
  219MPD1    H5 3387   0.001   3.614  13.150 -1.3255 -3.1554 -2.4597
  219MPD1    N1 3388   4.367   4.005  13.345 -0.0024 -0.8677  0.4861
  219MPD1    H6 3389   4.290   3.953  13.301  0.3103 -1.8730  1.1196
  219MPD1    H7 3390   4.345   4.104  13.341  2.0902 -0.4538 -0.7359
  220MPD1     C 3391   0.170   2.527   9.738 -0.6275 -0.1398  0.4887
  220MPD1    C1 3392   0.136   2.560   9.867  0.1662 -0.1291 -0.1530
  220MPD1    C2 3393   0.049   2.664   9.884  0.6065 -0.1780 -0.0896
  220MPD1    C3 3394   4.704   2.712   9.780  0.9153  0.3013 -1.1916
  220MPD1    C4 3395   4.729   2.669   9.655 -0.5097  0.1513  0.4237
  220MPD1    C5 3396   0.095   2.572   9.630 -0.7186  0.2040 -0.0440
  220MPD1     H 3397   0.024   2.693   9.985 -1.0762 -0.7415 -0.3490
  220MPD1    H1 3398   4.675   2.698   9.566  2.3592 -1.4405 -1.8193
  220MPD1    H2 3399   0.252   2.459   9.721  1.3041  2.4356 -0.5689
  220MPD1    H3 3400   0.113   2.538   9.529 -1.2239  2.8127 -0.9876
  220MPD1     N 3401   4.615   2.824   9.806 -0.1761  0.0306 -0.3734
  220MPD1    H5 3402   4.604   2.862   9.899 -1.5955 -2.0333  0.3126
  220MPD1    N1 3403   0.225   2.529   9.968  0.6497 -0.4998  0.4258
  220MPD1    H6 3404   0.207   2.573  10.058  1.6694  1.2570 -0.2273
  220MPD1    H7 3405   0.249   2.430   9.965 -1.5983 -1.0169 -0.2725
  221MPD1     C 3406   3.221   2.746  17.526 -0.6919 -1.4073  0.7375
  221MPD1    C1 3407   3.104   2.717  17.474 -0.0281 -0.3056 -0.0508
  221MPD1    C2 3408   3.105   2.647  17.352  0.2781  0.8242  0.6929
  221MPD1    C3 3409   3.224   2.613  17.293 -0.4053 -0.3509 -0.2649
  221MPD1    C4 3410   3.343   2.653  17.347  0.2358  0.3305  0.2640
  221MPD1    C5 3411   3.338   2.706  17.472 -0.0675 -0.2660 -0.0630
  221MPD1     H 3412   3.011   2.617  17.305  1.2346  0.8380 -1.2368
  221MPD1    H1 3413   3.436   2.634  17.295 -1.4922  0.0969 -2.7276
  221MPD1    H2 3414   3.226   2.795  17.623  0.6396 -0.4650  0.1953
  221MPD1    H3 3415   3.432   2.720  17.522 -0.5851  0.4322  0.7122
  221MPD1     N 3416   3.229   2.552  17.172  0.4376 -0.0463  0.2777
  221MPD1    H5 3417   3.319   2.513  17.147  0.1215 -0.4155 -0.2767
  221MPD1    N1 3418   2.982   2.722  17.549 -0.6629  0.5798 -0.1348
  221MPD1    H6 3419   2.978   2.807  17.605 -3.1981  0.3694  0.0198
  221MPD1    H7 3420   2.901   2.735  17.488 -1.6635 -0.5106  0.9488
  222MPD1     C 3421   1.751   2.123  16.865  0.3160 -0.1854  0.5260
  222MPD1    C1 3422   1.627   2.093  16.909  0.9450  0.0983 -0.2796
  222MPD1    C2 3423   1.614   2.080  17.044  0.3258 -0.2110  0.3337
  222MPD1    C3 3424   1.719   2.118  17.129 -0.1155 -0.0775 -0.1767
  222MPD1    C4 3425   1.838   2.158  17.079  0.3056 -0.3984  0.3498
  222MPD1    C5 3426   1.858   2.152  16.943 -0.5484 -0.4716 -0.6933
  222MPD1     H 3427   1.525   2.032  17.081  1.5870 -1.5196  1.6247
  222MPD1    H1 3428   1.914   2.193  17.148  0.0704  2.0020 -0.6040
  222MPD1    H2 3429   1.772   2.131  16.759  0.4658  1.6085  0.6949
  222MPD1    H3 3430   1.950   2.188  16.898 -0.1075 -1.1924 -0.3850
  222MPD1     N 3431   1.704   2.120  17.275  0.0263  0.2299 -0.5279
  222MPD1    H5 3432   1.793   2.114  17.324 -0.7910 -0.6654  0.8558
  222MPD1    N1 3433   1.538   2.024  16.829 -0.1412 -0.3476 -0.4005
  222MPD1    H6 3434   1.530   2.072  16.740  2.5538  1.5334  0.3974
  222MPD1    H7 3435   1.448   2.042  16.874 -0.2456 -0.6673 -0.4816
  223MPD1     C 3436   1.528   1.620   0.455 -0.1067  0.4132  0.2920
  223MPD1    C1 3437   1.655   1.680   0.442 -0.3376  0.3965  0.6329
  223MPD1    C2 3438   1.677   1.767   0.339 -0.5403  0.3965 -0.1291
  223MPD1    C3 3439   1.576   1.810   0.261 -0.2903 -0.3461 -0.0373
  223MPD1    C4 3440   1.453   1.761   0.288  0.1681  0.7995  0.4829
  223MPD1    C5 3441   1.424   1.675   0.392 -0.2438 -0.6712  0.0518
  223MPD1     H 3442   1.775   1.800   0.307 -0.6230  1.7232  0.9880
  223MPD1    H1 3443   1.370   1.807   0.236  0.3131 -0.1426 -0.5831
  223MPD1    H2 3444   1.513   1.547   0.534  1.7664 -0.4261 -0.1199
  223MPD1    H3 3445   1.323   1.651   0.424  0.7475 -2.6998  1.6514
  223MPD1     N 3446   1.602   1.895   0.151 -0.2023 -0.2291 -0.2858
  223MPD1    H5 3447   1.693   1.938   0.138  1.0186 -2.9011 -0.4198
  223MPD1    N1 3448   1.759   1.611   0.495 -0.2473 -0.4346 -0.2751
  223MPD1    H6 3449   1.739   1.569   0.586  1.3345 -1.4069 -0.3886
  223MPD1    H7 3450   1.843   1.667   0.512  0.2422 -0.0928 -3.8421
  224MPD1     C 3451   2.754   2.857   9.348 -0.0517 -0.1804  0.0662
  224MPD1    C1 3452   2.643   2.871   9.415 -0.1601  0.3010 -0.5983
  224MPD1    C2 3453   2.617   2.804   9.527  0.5549 -0.0406 -0.7662
  224MPD1    C3 3454   2.716   2.727   9.589  0.2557 -0.4965  0.4602
  224MPD1    C4 3455   2.831   2.707   9.507  0.7142 -0.4754 -0.3886
  224MPD1    C5 3456   2.855   2.774   9.389  0.0810  0.9378  0.5345
  224MPD1     H 3457   2.515   2.806   9.564 -0.1774 -0.4280 -2.7717
  224MPD1    H1 3458   2.914   2.645   9.540  1.0858  0.6793  0.8352
  224MPD1    H2 3459   2.775   2.900   9.251 -1.3782  1.7983  0.6684
  224MPD1    H3 3460   2.952   2.772   9.340  0.7855  1.3302  1.9181
  224MPD1     N 3461   2.702   2.665   9.715 -0.2317  0.2797 -0.1947
  224MPD1    H5 3462   2.781   2.617   9.757  0.1865  0.2570 -1.0112
  224MPD1    N1 3463   2.528   2.919   9.345 -0.5927 -0.1268  0.5575
  224MPD1    H6 3464   2.535   2.992   9.274 -0.7056  1.2550  1.9692
  224MPD1    H7 3465   2.466   2.961   9.414 -2.1524 -2.8620  0.8292
  225MPD1     C 3466   0.238   3.876  12.274 -0.7185 -0.3617 -0.6622
  225MPD1    C1 3467   0.159   3.858  12.164 -0.4847 -0.1726  0.3424
  225MPD1    C2 3468   0.022   3.857  12.179  0.1102 -0.5394  0.4644
  225MPD1    C3 3469   4.695   3.894  12.300 -0.3023 -0.4006 -0.1979
  225MPD1    C4 3470   0.044   3.915  12.408  1.2535  0.2220  0.6831
  225MPD1    C5 3471   0.181   3.904  12.392 -0.4896  0.6667  0.1204
  225MPD1     H 3472   4.696   3.820  12.097  1.9626  0.3299 -1.2553
  225MPD1    H1 3473   0.001   3.955  12.499  3.9617 -0.1667  2.1266
  225MPD1    H2 3474   0.346   3.873  12.288 -0.6832  2.4227 -0.1985
  225MPD1    H3 3475   0.240   3.940  12.475 -0.7638 -0.7751  0.9446
  225MPD1     N 3476   4.555   3.893  12.329  0.4356  0.4975 -0.4002
  225MPD1    H5 3477   4.523   3.915  12.422 -0.3310 -2.2246 -0.0374
  225MPD1    N1 3478   0.217   3.791  12.052  1.0021  0.6750 -0.4052
  225MPD1    H6 3479   0.306   3.834  12.028  0.9210  0.1550 -1.6497
  225MPD1    H7 3480   0.156   3.801  11.971 -0.0765 -0.7978  0.2156
  226MPD1     C 3481   2.323   3.954   9.469 -0.0399 -0.3642  0.9026
  226MPD1    C1 3482   2.349   3.841   9.540  0.4164 -0.7803 -0.1000
  226MPD1    C2 3483   2.244   3.777   9.600 -0.4075  0.2018 -0.4214
  226MPD1    C3 3484   2.118   3.810   9.571 -0.3414  0.5791 -0.1897
  226MPD1    C4 3485   2.093   3.924   9.496  0.4591  0.4275  0.7531
  226MPD1    C5 3486   2.196   3.995   9.445 -0.2000 -0.3488  0.2475
  226MPD1     H 3487   2.267   3.696   9.668 -1.3574  1.2395  1.1605
  226MPD1    H1 3488   1.994   3.960   9.468  0.7656 -0.0494 -0.9361
  226MPD1    H2 3489   2.401   4.019   9.429 -0.4282  0.6201  1.7384
  226MPD1    H3 3490   2.176   4.087   9.391  1.2101 -0.2684 -0.1261
  226MPD1     N 3491   2.010   3.741   9.632  0.2781 -0.3895  0.2060
  226MPD1    H5 3492   2.033   3.663   9.694  4.0441  0.2963 -0.3331
  226MPD1    N1 3493   2.479   3.812   9.576  0.1507  0.0605 -0.0192
  226MPD1    H6 3494   2.541   3.841   9.501  0.3203 -0.8613 -0.2345
  226MPD1    H7 3495   2.486   3.711   9.584 -0.9392  0.0237  0.5045
  227MPD1     C 3496   0.997   3.863   9.637  0.1129  0.2909 -0.1431
  227MPD1    C1 3497   1.106   3.935   9.600 -0.0143  0.7902  0.2849
  227MPD1    C2 3498   1.237   3.888   9.603  0.6366  0.1730 -0.4924
  227MPD1    C3 3499   1.258   3.773   9.679 -0.6307 -0.7895  0.0594
  227MPD1    C4 3500   1.154   3.713   9.744  0.4790  0.1229 -0.1627
  227MPD1    C5 3501   1.019   3.753   9.716 -0.1746  0.0447 -0.4169
  227MPD1     H 3502   1.316   3.953   9.566  2.8420 -1.3673  1.4903
  227MPD1    H1 3503   1.162   3.625   9.808 -0.0605 -0.9568 -1.5945
  227MPD1    H2 3504   0.897   3.896   9.615  0.5969  2.3637  0.7766
  227MPD1    H3 3505   0.940   3.696   9.764 -1.7925  2.1652 -0.5451
  227MPD1     N 3506   1.394   3.720   9.684  0.7147 -0.2051  0.3166
  227MPD1    H5 3507   1.460   3.757   9.616  0.8284 -2.1055 -0.6120
  227MPD1    N1 3508   1.093   4.042   9.510  0.8830  0.8874  0.0012
  227MPD1    H6 3509   1.013   4.102   9.528  1.0553  1.0730  0.1506
  227MPD1    H7 3510   1.177   4.098   9.497  2.5918 -2.2265 -2.6060
  228MPD1     C 3511   1.945   2.028  12.583  0.2962 -0.2360 -0.3780
  228MPD1    C1 3512   1.829   2.079  12.523 -0.1172  0.6312 -0.1621
  228MPD1    C2 3513   1.705   2.060  12.586 -0.2440 -0.1194 -0.9183
  228MPD1    C3 3514   1.698   1.978  12.695  0.5330 -0.5402 -0.8129
  228MPD1    C4 3515   1.813   1.930  12.748  0.4188  0.5194  0.3529
  228MPD1    C5 3516   1.936   1.947  12.687 -0.0788  0.4333 -0.3485
  228MPD1     H 3517   1.621   2.105  12.535 -0.8580 -1.3734 -1.0318
  228MPD1    H1 3518   1.805   1.876  12.842 -0.0597  0.6929  0.4138
  228MPD1    H2 3519   2.040   2.056  12.539  0.9354 -0.3162  0.9670
  228MPD1    H3 3520   2.025   1.902  12.729 -2.4636 -1.7090  2.4736
  228MPD1     N 3521   1.572   1.963  12.755 -1.3146  0.6808 -0.6055
  228MPD1    H5 3522   1.497   2.010  12.705 -0.6049  1.9305 -0.4986
  228MPD1    N1 3523   1.853   2.160  12.408 -0.5102  0.0488 -0.5044
  228MPD1    H6 3524   1.936   2.135  12.354 -0.8974 -1.3909 -0.4318
  228MPD1    H7 3525   1.774   2.168  12.344  0.0997 -2.5983 -1.5643
  229MPD1     C 3526   1.042   0.860  15.835  0.5509 -0.7551  0.0946
  229MPD1    C1 3527   0.980   0.812  15.715 -0.0310 -0.4149 -0.0379
  229MPD1    C2 3528   1.048   0.739  15.620 -0.0735  0.1286  0.5983
  229MPD1    C3 3529   1.175   0.693  15.650  0.0356 -0.3030 -0.6340
  229MPD1    C4 3530   1.230   0.723  15.773  0.2641 -0.3277  0.9114
  229MPD1    C5 3531   1.161   0.806  15.861  0.1647 -0.1831 -0.4683
  229MPD1     H 3532   0.997   0.734  15.525 -0.6646 -0.5773  0.9592
  229MPD1    H1 3533   1.333   0.693  15.789  0.3066 -0.4637  0.3850
  229MPD1    H2 3534   0.995   0.939  15.893 -0.5898 -0.6893 -0.8961
  229MPD1    H3 3535   1.205   0.832  15.957  0.8533 -0.3875 -0.7257
  229MPD1     N 3536   1.253   0.625  15.553 -0.0070 -0.3335  0.0369
  229MPD1    H5 3537   1.342   0.590  15.587 -0.1148  0.1813  0.8524
  229MPD1    N1 3538   0.861   0.874  15.675 -0.1710 -0.0918 -0.2316
  229MPD1    H6 3539   0.808   0.821  15.606  1.1865 -2.5693  0.6241
  229MPD1    H7 3540   0.795   0.905  15.746 -0.7953 -0.9615 -0.4316
  230MPD1     C 3541   2.034   0.077  15.545 -0.2125 -0.3604  0.0565
  230MPD1    C1 3542   2.003   0.060  15.412  0.0725  0.0555 -0.2250
  230MPD1    C2 3543   1.909   0.147  15.353 -0.0440  0.3676  0.3035
  230MPD1    C3 3544   1.835   0.238  15.424 -0.0501  0.2973  0.5053
  230MPD1    C4 3545   1.855   0.250  15.559 -0.0338  0.0997 -0.8772
  230MPD1    C5 3546   1.956   0.172  15.613  0.0011  0.5412 -0.4395
  230MPD1     H 3547   1.880   0.130  15.250 -1.6526 -1.0458  0.9751
  230MPD1    H1 3548   1.809   0.326  15.621 -0.4352 -1.3142  0.5782
  230MPD1    H2 3549   2.109   0.021  15.600 -1.4985 -1.8156  0.3409
  230MPD1    H3 3550   1.972   0.193  15.719 -0.1335 -0.8653 -0.1327
  230MPD1     N 3551   1.742   0.312  15.349 -0.1746  0.0317 -0.3919
  230MPD1    H5 3552   1.725   0.283  15.253  1.1647  2.1990 -1.2860
  230MPD1    N1 3553   2.091   4.720  15.338 -0.1876 -0.1104 -0.1138
  230MPD1    H6 3554   2.033   4.689  15.260 -2.3328  2.6623  0.3644
  230MPD1    H7 3555   2.134   4.639  15.381 -1.1157 -0.8784 -0.6538
  231MPD1     C 3556   4.560   2.762  15.851 -0.6354  0.5606  0.1564
  231MPD1    C1 3557   4.573   2.664  15.755  0.3415  1.0985 -0.6773
  231MPD1    C2 3558   4.641   2.701  15.634 -0.2660  0.3750 -0.0929
  231MPD1    C3 3559   4.702   2.833  15.620  0.2750 -0.0340  0.4248
  231MPD1    C4 3560   4.709   2.920  15.733  0.2289 -0.3877 -0.1967
  231MPD1    C5 3561   4.638   2.879  15.842 -0.0539 -0.0978  0.4594
  231MPD1     H 3562   4.645   2.634  15.549  1.1198  0.3056  0.0292
  231MPD1    H1 3563   0.022   3.018  15.729  0.2263 -0.3688  0.2189
  231MPD1    H2 3564   4.509   2.747  15.945  1.7644 -0.9106  1.2305
  231MPD1    H3 3565   4.629   2.937  15.933 -1.2016  3.0104 -1.6212
  231MPD1     N 3566   0.024   2.869  15.492 -0.5889  0.3817 -0.1962
  231MPD1    H5 3567   4.730   2.798  15.424 -1.5536 -1.8397  2.5104
  231MPD1    N1 3568   4.486   2.555  15.771  0.0166 -0.2932 -0.7442
  231MPD1    H6 3569   4.519   2.470  15.726  0.4782 -0.8945  0.7053
  231MPD1    H7 3570   4.455   2.533  15.866 -2.7015 -0.1895 -1.6020
  232MPD1     C 3571   1.235   0.913   0.869  0.2317  0.4208  0.3880
  232MPD1    C1 3572   1.144   0.961   0.781  0.5695  0.3230 -0.3911
  232MPD1    C2 3573   1.107   0.871   0.682  1.3950 -0.1500 -0.7052
  232MPD1    C3 3574   1.132   0.734   0.693 -0.1360 -0.4126 -1.2741
  232MPD1    C4 3575   1.202   0.691   0.804 -0.3600  0.0120  0.5848
  232MPD1    C5 3576   1.265   0.782   0.885  0.2357 -0.1082  0.6425
  232MPD1     H 3577   1.053   0.917   0.600 -0.7925  0.5281  1.1079
  232MPD1    H1 3578   1.232   0.589   0.825  1.4331  0.4176  0.0570
  232MPD1    H2 3579   1.279   0.982   0.940  0.5290  0.6703 -0.0372
  232MPD1    H3 3580   1.343   0.741   0.949  0.8546 -0.6557 -0.4751
  232MPD1     N 3581   1.082   0.650   0.585 -0.1915 -0.0533 -0.3717
  232MPD1    H5 3582   1.035   0.698   0.508 -0.3287  2.0119  1.0113
  232MPD1    N1 3583   1.129   1.102   0.763 -0.1791  0.5595 -0.4215
  232MPD1    H6 3584   1.044   1.109   0.708 -2.5811 -0.4081  3.1703
  232MPD1    H7 3585   1.122   1.156   0.849 -0.9175  0.3462 -0.3489
  233MPD1     C 3586   1.965   2.541   0.559 -0.1367  0.0668 -0.3306
  233MPD1    C1 3587   2.040   2.654   0.549 -0.6642 -0.0902 -0.7415
  233MPD1    C2 3588   2.154   2.666   0.621  0.3060  0.2797  0.4905
  233MPD1    C3 3589   2.193   2.574   0.720 -0.2771 -0.0677 -0.3966
  233MPD1    C4 3590   2.109   2.473   0.730  0.5606  0.6263  0.2545
  233MPD1    C5 3591   1.997   2.449   0.654  0.6202 -0.1313  0.6544
  233MPD1     H 3592   2.214   2.751   0.590 -2.2206  0.5423 -3.6237
  233MPD1    H1 3593   2.127   2.403   0.812  1.0852  1.1915  0.6179
  233MPD1    H2 3594   1.876   2.527   0.499 -1.2406  0.1058  1.2768
  233MPD1    H3 3595   1.947   2.355   0.674  1.2375 -0.0595  2.5786
  233MPD1     N 3596   2.305   2.580   0.802  0.1522  0.0806  0.1168
  233MPD1    H5 3597   2.319   2.514   0.878  0.1588 -0.3075 -0.2236
  233MPD1    N1 3598   2.015   2.734   0.430  0.2278  0.0872  0.4223
  233MPD1    H6 3599   2.028   2.834   0.442  0.1822  0.3341 -1.7184
  233MPD1    H7 3600   1.915   2.735   0.409  0.2523  1.8117  0.4066
  234MPD1     C 3601   4.129   1.804   9.403 -0.0107 -0.2045  0.2085
  234MPD1    C1 3602   4.006   1.787   9.341  0.7758 -0.5832  0.2276
  234MPD1    C2 3603   3.903   1.855   9.404  0.7923  0.5409 -0.2308
  234MPD1    C3 3604   3.918   1.940   9.516  0.5379  0.1064  0.8605
  234MPD1    C4 3605   4.043   1.961   9.570 -0.3404  0.1847 -0.2654
  234MPD1    C5 3606   4.150   1.896   9.502  0.4856 -0.4278 -0.5498
  234MPD1     H 3607   3.803   1.845   9.362  0.5484  0.7260  0.3050
  234MPD1    H1 3608   4.058   2.020   9.660 -1.9642  1.7994 -1.0684
  234MPD1    H2 3609   4.218   1.760   9.359  1.3523  2.6593  0.1172
  234MPD1    H3 3610   4.251   1.898   9.541  0.7329 -0.2925 -1.1981
  234MPD1     N 3611   3.802   1.998   9.578 -0.4454 -0.1991 -0.3555
  234MPD1    H5 3612   3.711   1.985   9.535 -0.2413  0.0326 -0.8676
  234MPD1    N1 3613   3.977   1.682   9.249  0.3957 -0.1691  0.4335
  234MPD1    H6 3614   4.059   1.657   9.194  0.1943  2.3105 -0.9809
  234MPD1    H7 3615   3.891   1.692   9.195  0.8098  0.4232 -0.1236
  235MPD1     C 3616   0.311   3.604  10.826  0.5643 -0.2925 -0.6625
  235MPD1    C1 3617   0.271   3.671  10.716  0.0397  0.2575  1.2824
  235MPD1    C2 3618   0.321   3.797  10.699 -0.4832  0.1267  0.1922
  235MPD1    C3 3619   0.395   3.863  10.797 -0.3194  0.4471 -0.6364
  235MPD1    C4 3620   0.452   3.780  10.901 -0.2207  0.5358 -0.7775
  235MPD1    C5 3621   0.409   3.648  10.917 -0.4870  0.4222 -0.3546
  235MPD1     H 3622   0.289   3.858  10.614 -0.7257 -0.7646 -0.3556
  235MPD1    H1 3623   0.530   3.809  10.971  0.5635 -2.7069 -0.3371
  235MPD1    H2 3624   0.276   3.502  10.833 -0.8435  0.1867 -0.6818
  235MPD1    H3 3625   0.454   3.586  10.993  0.0731 -0.4324 -1.3757
  235MPD1     N 3626   0.431   3.995  10.768 -0.0855 -0.0167  0.5980
  235MPD1    H5 3627   0.380   4.046  10.696 -1.2789 -0.2118  1.3098
  235MPD1    N1 3628   0.177   3.617  10.628 -0.5892 -0.2695 -0.2574
  235MPD1    H6 3629   0.177   3.515  10.620  0.6079 -0.0353 -3.2038
  235MPD1    H7 3630   0.198   3.661  10.539 -2.6584 -0.4451 -0.8159
  236MPD1     C 3631   4.032   0.374  10.056  0.5497 -0.4412  0.4656
  236MPD1    C1 3632   4.133   0.446   9.992 -0.4488  0.0858  0.0856
  236MPD1    C2 3633   4.264   0.437  10.041  0.3800 -0.3803 -0.4490
  236MPD1    C3 3634   4.289   0.377  10.161 -0.3766 -0.3772  0.4110
  236MPD1    C4 3635   4.182   0.322  10.234  0.1056  0.1230 -0.3301
  236MPD1    C5 3636   4.056   0.316  10.178  0.9001  0.5141 -0.2266
  236MPD1     H 3637   4.334   0.502   9.990 -0.8154 -0.7752 -2.5754
  236MPD1    H1 3638   4.198   0.283  10.333 -2.0315 -1.0022 -0.4129
  236MPD1    H2 3639   3.929   0.372  10.022  0.7275  1.2939 -0.1291
  236MPD1    H3 3640   3.981   0.263  10.236  2.9336 -0.9708  1.1091
  236MPD1     N 3641   4.417   0.389  10.226  0.2551  0.5463  1.1267
  236MPD1    H5 3642   4.430   0.358  10.321  1.8628 -0.4648  0.5751
  236MPD1    N1 3643   4.114   0.501   9.863 -0.2095 -0.3803  0.0569
  236MPD1    H6 3644   4.176   0.581   9.855 -0.2125 -0.3161  0.6585
  236MPD1    H7 3645   4.019   0.531   9.845  0.4814  2.3660  1.0581
  237MPD1     C 3646   0.286   4.529  15.177 -0.1969  0.4104 -0.1758
  237MPD1    C1 3647   0.344   4.412  15.224  0.6080 -0.0767 -0.1495
  237MPD1    C2 3648   0.272   4.286  15.228  0.5185  0.0570 -0.4251
  237MPD1    C3 3649   0.146   4.286  15.180  0.3747 -0.2330  0.4460
  237MPD1    C4 3650   0.087   4.411  15.147 -0.1553  0.3667 -0.8384
  237MPD1    C5 3651   0.154   4.526  15.160 -0.3674 -0.0331  0.1826
  237MPD1     H 3652   0.326   4.199  15.264 -0.4435 -0.6585 -0.7253
  237MPD1    H1 3653   4.720   4.401  15.107 -0.3999  1.5302 -0.5018
  237MPD1    H2 3654   0.338   4.621  15.155 -1.3708  1.2991  0.7468
  237MPD1    H3 3655   0.105   4.616  15.127  0.5342  0.1934 -0.5332
  237MPD1     N 3656   0.058   4.173  15.167 -0.2502  0.3463 -0.7411
  237MPD1    H5 3657   4.693   4.180  15.145 -0.3541  0.5129 -0.2081
  237MPD1    N1 3658   0.482   4.410  15.240 -0.2157 -0.6344 -0.5041
  237MPD1    H6 3659   0.515   4.503  15.265  0.0452 -1.2503  1.4216
  237MPD1    H7 3660   0.521   4.338  15.301  0.1787 -0.2507 -0.3058
  238MPD1     C 3661   2.238   2.466  15.018  0.1111 -0.4517 -0.5417
  238MPD1    C1 3662   2.202   2.364  15.105  0.7068 -0.0521 -0.2873
  238MPD1    C2 3663   2.066   2.316  15.109 -0.6546  0.7998  0.4514
  238MPD1    C3 3664   1.973   2.383  15.026  0.4374 -0.2392 -0.3984
  238MPD1    C4 3665   2.012   2.490  14.953  0.2609 -0.5303  0.7591
  238MPD1    C5 3666   2.141   2.537  14.953 -0.5843  0.2339 -0.7370
  238MPD1     H 3667   2.027   2.245  15.181  0.5720  0.0759  0.3978
  238MPD1    H1 3668   1.942   2.547  14.893  1.6718 -0.6507 -1.0061
  238MPD1    H2 3669   2.341   2.499  15.009 -0.1401  0.7250  0.8603
  238MPD1    H3 3670   2.150   2.636  14.909  0.1349 -0.0706 -1.2654
  238MPD1     N 3671   1.846   2.336  15.005  0.3567  0.8173  0.1806
  238MPD1    H5 3672   1.792   2.389  14.937 -0.3703  0.3741  0.4124
  238MPD1    N1 3673   2.301   2.294  15.187  0.6119 -0.5948  0.1179
  238MPD1    H6 3674   2.389   2.344  15.199  1.0765 -1.4374  0.2591
  238MPD1    H7 3675   2.325   2.210  15.134 -0.1334  0.8614 -2.5153
  239MPD1     C 3676   1.566   3.160  15.198 -0.7098 -0.1354  0.7096
  239MPD1    C1 3677   1.640   3.211  15.088  0.2504 -0.0198 -0.2043
  239MPD1    C2 3678   1.572   3.253  14.972  0.2532  0.8277 -0.3771
  239MPD1    C3 3679   1.432   3.247  14.974 -0.0067  0.4079  0.6914
  239MPD1    C4 3680   1.364   3.199  15.087 -0.0332 -1.0389 -0.3843
  239MPD1    C5 3681   1.430   3.156  15.200 -0.1925  0.5119  0.1674
  239MPD1     H 3682   1.626   3.287  14.885 -0.1660  1.4787 -0.3905
  239MPD1    H1 3683   1.258   3.176  15.089 -0.4727  1.0747  0.7455
  239MPD1    H2 3684   1.628   3.125  15.279  0.5732  3.3231  1.2483
  239MPD1    H3 3685   1.381   3.108  15.284 -1.1616 -1.3363 -1.4561
  239MPD1     N 3686   1.352   3.301  14.869  0.0845  0.3445 -0.2794
  239MPD1    H5 3687   1.252   3.302  14.887 -0.1928  0.7908 -1.8406
  239MPD1    N1 3688   1.779   3.217  15.089 -0.3820 -0.3077  0.0450
  239MPD1    H6 3689   1.809   3.195  15.183 -1.4376  0.6561  0.5989
  239MPD1    H7 3690   1.808   3.312  15.069  0.8165 -0.7985 -0.5550
  240MPD1     C 3691   1.505   2.900  13.969  0.4987  0.5163 -0.4186
  240MPD1    C1 3692   1.372   2.919  13.953  0.6841 -0.7756  0.5692
  240MPD1    C2 3693   1.290   2.894  14.065 -0.4278 -0.3362 -0.3930
  240MPD1    C3 3694   1.345   2.843  14.185  0.8756  0.5136 -0.4729
  240MPD1    C4 3695   1.480   2.836  14.196  0.5571 -0.8257  0.0620
  240MPD1    C5 3696   1.552   2.868  14.085  0.5878 -0.2706  0.1657
  240MPD1     H 3697   1.182   2.892  14.057 -0.4311 -0.8397 -0.2172
  240MPD1    H1 3698   1.530   2.789  14.280 -1.2957  0.2363  1.7425
  240MPD1    H2 3699   1.571   2.931  13.888 -1.8545  2.5341 -1.5379
  240MPD1    H3 3700   1.658   2.846  14.084  0.4089 -1.3172  2.9766
  240MPD1     N 3701   1.252   2.810  14.284 -0.1114 -0.4533 -0.0232
  240MPD1    H5 3702   1.156   2.819  14.254 -0.2670 -0.5705  0.4360
  240MPD1    N1 3703   1.332   2.956  13.824 -0.3538  0.5376  0.1318
  240MPD1    H6 3704   1.356   2.884  13.756  1.8797  1.1466  0.2772
  240MPD1    H7 3705   1.231   2.957  13.826 -0.3631 -2.1476  0.3916
  241MPD1     C 3706   1.328   2.594  15.246 -0.2562 -0.1882  0.3962
  241MPD1    C1 3707   1.202   2.563  15.201 -0.4301  1.0615 -0.3890
  241MPD1    C2 3708   1.188   2.522  15.074 -0.6654 -0.3360 -0.0053
  241MPD1    C3 3709   1.285   2.542  14.980  0.2407  0.1755 -0.2176
  241MPD1    C4 3710   1.413   2.588  15.021  0.2189  0.5680 -0.8578
  241MPD1    C5 3711   1.438   2.604  15.159 -0.5822  0.4865 -0.1735
  241MPD1     H 3712   1.090   2.491  15.040  0.6968 -2.9219 -1.6473
  241MPD1    H1 3713   1.500   2.610  14.961  2.9492 -0.3296  2.7527
  241MPD1    H2 3714   1.347   2.600  15.353 -1.9936 -0.1498  0.7155
  241MPD1    H3 3715   1.537   2.622  15.199 -0.5820 -0.1572  0.1158
  241MPD1     N 3716   1.267   2.517  14.837  0.2325 -0.0074 -0.0538
  241MPD1    H5 3717   1.338   2.552  14.774 -1.5453  2.7124 -0.5343
  241MPD1    N1 3718   1.102   2.530  15.293 -0.4810 -0.2650  0.0419
  241MPD1    H6 3719   1.112   2.572  15.385 -0.3877 -0.5955  0.1832
  241MPD1    H7 3720   1.011   2.547  15.250 -1.3023 -2.7342  0.7652
  242MPD1     C 3721   0.813   1.230  16.085 -0.2272 -0.0021 -0.7773
  242MPD1    C1 3722   0.717   1.227  15.985  0.6718 -0.2762 -0.0515
  242MPD1    C2 3723   0.760   1.212  15.850  0.1772 -0.4395  0.4884
  242MPD1    C3 3724   0.896   1.210  15.822 -0.8348 -0.4022 -0.3326
  242MPD1    C4 3725   0.991   1.217  15.926  0.2902 -0.5594 -0.4728
  242MPD1    C5 3726   0.946   1.232  16.056  0.5890 -0.3066 -0.2878
  242MPD1     H 3727   0.686   1.201  15.771 -0.6507  1.5563  1.0104
  242MPD1    H1 3728   1.096   1.201  15.905  0.7018 -0.6608  1.7256
  242MPD1    H2 3729   0.788   1.227  16.190  1.5806  0.2178 -0.3490
  242MPD1    H3 3730   1.022   1.238  16.133 -0.4939 -1.6142  0.8912
  242MPD1     N 3731   0.953   1.197  15.697 -0.1517  0.6922  0.0274
  242MPD1    H5 3732   1.053   1.206  15.687 -0.0226  1.5468  2.0803
  242MPD1    N1 3733   0.582   1.215  16.019  0.9357 -0.0286  0.0291
  242MPD1    H6 3734   0.512   1.264  15.965  2.3252  0.8949 -0.9326
  242MPD1    H7 3735   0.567   1.259  16.110 -3.4037  1.7896 -1.6080
  243MPD1     C 3736   1.616   4.655   0.030 -0.0123  0.1759  0.4186
  243MPD1    C1 3737   1.707   4.590   0.117 -0.2720  0.1985  0.1168
  243MPD1    C2 3738   1.819   4.538   0.048 -0.2293 -0.0861  0.1502
  243MPD1    C3 3739   1.825   4.524  17.644  0.6629 -0.1215  0.0879
  243MPD1    C4 3740   1.728   4.586  17.569  0.1017 -0.6455 -0.5578
  243MPD1    C5 3741   1.618   4.645  17.629 -0.0169  0.4589  0.4797
  243MPD1     H 3742   1.903   4.505   0.109  0.7952  1.0463 -0.6600
  243MPD1    H1 3743   1.723   4.589  17.461 -0.6542 -1.4044 -0.5364
  243MPD1    H2 3744   1.527   4.705   0.067 -0.9460 -3.4074  2.9244
  243MPD1    H3 3745   1.544   4.687  17.562 -0.1323 -0.9443 -0.2859
  243MPD1     N 3746   1.939   4.462  17.582 -0.7986  0.3621 -0.4716
  243MPD1    H5 3747   2.006   4.421  17.646 -1.2178  1.5835  0.7421
  243MPD1    N1 3748   1.701   4.603   0.257  0.0470  0.0579  0.3452
  243MPD1    H6 3749   1.751   4.531   0.310 -0.2628  1.1100  2.0667
  243MPD1    H7 3750   1.607   4.620   0.290  0.3938  0.1456  1.3031
  244MPD1     C 3751   2.622   3.744  17.681 -0.4763  0.1255 -0.0200
  244MPD1    C1 3752   2.656   3.785  17.554  0.3359 -0.2171  0.4398
  244MPD1    C2 3753   2.579   3.876  17.489  0.7685  0.4390 -0.2892
  244MPD1    C3 3754   2.487   3.947  17.561  0.0002  0.5971  0.1968
  244MPD1    C4 3755   2.471   3.919  17.694 -0.8224  0.5104 -0.0614
  244MPD1    C5 3756   2.533   3.818   0.025  0.2877 -0.4430 -0.7412
  244MPD1     H 3757   2.579   3.881  17.380  2.1235  1.6781 -0.2256
  244MPD1    H1 3758   2.411   3.981   0.027  0.6164 -0.0352  1.7682
  244MPD1    H2 3759   2.675   3.666   0.001 -0.9117  1.4479  2.4425
  244MPD1    H3 3760   2.522   3.803   0.131  2.1496 -1.0590 -0.6530
  244MPD1     N 3761   2.419   4.047  17.492 -0.5570 -0.4959 -0.1319
  244MPD1    H5 3762   2.434   4.049  17.391 -1.2376  0.2558 -0.2171
  244MPD1    N1 3763   2.749   3.704  17.477 -0.2953  0.2570 -0.5048
  244MPD1    H6 3764   2.771   3.750  17.389  0.7266  0.6604 -0.0360
  244MPD1    H7 3765   2.833   3.682  17.530  0.0291  0.5934 -0.8834
  245MPD1     C 3766   4.137   4.464  13.959 -0.2510  0.0332  0.5694
  245MPD1    C1 3767   4.141   4.554  13.849 -0.5612 -0.3778  0.8927
  245MPD1    C2 3768   4.190   4.680  13.879  0.4356  0.1642 -0.2019
  245MPD1    C3 3769   4.219   4.719  14.011 -0.2613  0.6594 -0.1149
  245MPD1    C4 3770   4.200   4.632  14.112 -0.0023 -0.9354 -0.2536
  245MPD1    C5 3771   4.158   4.506  14.084 -0.7424 -0.2949 -0.3359
  245MPD1     H 3772   4.226   0.007  13.796  0.3634 -2.0983 -1.8603
  245MPD1    H1 3773   4.224   4.648  14.217  0.1509 -0.1641 -0.4091
  245MPD1    H2 3774   4.111   4.359  13.947 -0.0158 -0.4683  4.2832
  245MPD1    H3 3775   4.131   4.434  14.160  0.1172 -1.0771 -0.7705
  245MPD1     N 3776   4.278   0.114  14.032  0.0567 -0.6903  0.0126
  245MPD1    H5 3777   4.294   0.171  13.949  0.4558 -0.7923  0.0163
  245MPD1    N1 3778   4.128   4.510  13.718 -0.3190 -0.2895 -0.1031
  245MPD1    H6 3779   4.106   4.588  13.656  0.6818  0.0298 -0.0483
  245MPD1    H7 3780   4.057   4.438  13.706 -0.0218 -0.8838  1.7097
  246MPD1     C 3781   1.080   2.667   9.703 -0.0561  0.2418 -0.1002
  246MPD1    C1 3782   0.968   2.618   9.635 -0.2903  0.1423  0.4472
  246MPD1    C2 3783   0.978   2.509   9.557  0.0053  0.9024  0.2720
  246MPD1    C3 3784   1.087   2.424   9.566 -0.0717 -0.8195  0.8571
  246MPD1    C4 3785   1.194   2.470   9.636  0.2964 -0.2390  0.8642
  246MPD1    C5 3786   1.192   2.588   9.711 -0.5443  0.1220  0.2893
  246MPD1     H 3787   0.890   2.486   9.499  0.1783  2.2027 -0.5300
  246MPD1    H1 3788   1.278   2.405   9.659  0.4871 -0.4595 -0.4413
  246MPD1    H2 3789   1.080   2.761   9.757  0.8838  1.9138 -3.0505
  246MPD1    H3 3790   1.280   2.625   9.762  0.3520 -0.1080 -1.1010
  246MPD1     N 3791   1.082   2.302   9.497  0.8906 -0.0482  0.9158
  246MPD1    H5 3792   0.993   2.280   9.454  2.7818 -2.6138 -1.6620
  246MPD1    N1 3793   0.860   2.700   9.622 -0.8626 -0.0554  0.6647
  246MPD1    H6 3794   0.775   2.652   9.596  0.4942 -1.6457 -0.8389
  246MPD1    H7 3795   0.836   2.739   9.713  0.6995  0.2772  0.9471
  247MPD1     C 3796   4.235   1.239  17.122  0.2554 -0.0901  0.6919
  247MPD1    C1 3797   4.309   1.174  17.027  0.0777 -0.8481  0.0226
  247MPD1    C2 3798   4.239   1.094  16.938 -0.1172 -0.4218 -0.3838
  247MPD1    C3 3799   4.103   1.083  16.941  0.4008 -0.6946  0.0634
  247MPD1    C4 3800   4.034   1.154  17.040  0.3458 -0.8745 -0.2632
  247MPD1    C5 3801   4.099   1.237  17.123  0.0688  0.0189  0.2805
  247MPD1     H 3802   4.295   1.037  16.865  0.5620  0.4313 -0.5372
  247MPD1    H1 3803   3.926   1.149  17.033  0.2310 -0.8451  1.5816
  247MPD1    H2 3804   4.276   1.295  17.205  1.4382 -0.6113  0.4508
  247MPD1    H3 3805   4.050   1.302  17.195  0.0231 -0.1836  0.4316
  247MPD1     N 3806   4.029   1.004  16.855 -0.1850 -0.9619 -0.6162
  247MPD1    H5 3807   3.928   0.998  16.871 -0.2956  0.0682 -0.8777
  247MPD1    N1 3808   4.446   1.162  17.030 -0.2066  0.3054 -0.0192
  247MPD1    H6 3809   4.489   1.152  16.938  0.9931 -0.5915  0.6402
  247MPD1    H7 3810   4.488   1.242  17.077 -0.7572  0.1910  0.6662
  248MPD1     C 3811   0.007   4.403   0.680  0.2201 -0.2981  1.0846
  248MPD1    C1 3812   4.615   4.451   0.646 -0.0335 -0.2082  0.1854
  248MPD1    C2 3813   4.563   4.550   0.729  0.0446 -0.0866 -0.1241
  248MPD1    C3 3814   4.612   4.568   0.858  0.0202 -0.2385 -1.4548
  248MPD1    C4 3815   4.726   4.507   0.899  0.6527  0.2296 -0.6570
  248MPD1    C5 3816   0.056   4.422   0.807  0.0799  0.8773  0.1291
  248MPD1     H 3817   4.470   4.598   0.701  0.6348  0.3142 -1.3389
  248MPD1    H1 3818   0.037   4.512   0.998  1.3082  1.2396 -0.9965
  248MPD1    H2 3819   0.057   4.341   0.608  1.0312  0.4201  1.0308
  248MPD1    H3 3820   0.139   4.364   0.845  0.2239  0.8270 -0.2632
  248MPD1     N 3821   4.552   4.644   0.952  0.0603 -0.5965 -0.6565
  248MPD1    H5 3822   4.470   4.694   0.919  0.1458  0.9701  1.4918
  248MPD1    N1 3823   4.573   4.438   0.514 -0.4596  0.0630 -0.0987
  248MPD1    H6 3824   4.595   4.351   0.465  0.5248 -0.9003  2.0576
  248MPD1    H7 3825   4.475   4.463   0.501 -0.3636  0.2847 -0.4142
  249MPD1     C 3826   1.013   3.396  10.595 -0.6443 -0.2819 -0.1661
  249MPD1    C1 3827   1.069   3.516  10.559  0.9163 -0.2455 -0.5458
  249MPD1    C2 3828   1.003   3.590  10.465  0.2948 -0.1749 -0.0043
  249MPD1    C3 3829   0.908   3.532  10.382  0.2652 -0.0961 -0.0211
  249MPD1    C4 3830   0.865   3.406  10.413  0.0869  0.1490 -0.2227
  249MPD1    C5 3831   0.924   3.341  10.514  0.2301 -0.5289  0.1260
  249MPD1     H 3832   1.023   3.694  10.443 -0.6310 -0.1009 -0.4960
  249MPD1    H1 3833   0.793   3.348  10.357  1.7487 -1.1954 -0.9467
  249MPD1    H2 3834   1.060   3.344  10.677  2.1583 -1.3951 -2.4740
  249MPD1    H3 3835   0.894   3.240  10.540  2.2401 -1.0719  0.3343
  249MPD1     N 3836   0.850   3.605  10.275  0.8391  0.3242  0.0039
  249MPD1    H5 3837   0.880   3.700  10.258  0.1873  0.2359 -1.7115
  249MPD1    N1 3838   1.160   3.581  10.640  0.1929  0.1925 -0.3230
  249MPD1    H6 3839   1.226   3.515  10.684  1.5639  0.2481 -2.3118
  249MPD1    H7 3840   1.211   3.658  10.598 -1.7130  0.8699 -1.3812
  250MPD2     C 3841   2.670   3.364  13.358  0.4283  0.3254  0.0483
  250MPD2    C1 3842   2.658   3.407  13.224  0.8820 -0.3414 -0.5009
  250MPD2    C2 3843   2.602   3.322  13.130  0.2500  0.2712  0.7303
  250MPD2    C3 3844   2.551   3.200  13.170 -0.6936 -0.5628 -0.1725
  250MPD2    C4 3845   2.578   3.156  13.301 -0.2701  0.1279 -0.4714
  250MPD2    C5 3846   2.639   3.234  13.389  0.5318 -0.0253 -0.2870
  250MPD2     H 3847   2.596   3.347  13.025 -2.7151 -0.8482  0.6307
  250MPD2    H1 3848   2.562   3.053  13.331 -0.1651  0.5680  1.1162
  250MPD2    H2 3849   2.729   3.431  13.420  0.6162 -1.2713  1.5874
  250MPD2    H3 3850   2.642   3.197  13.491 -2.0716  2.5811  0.7209
  250MPD2     N 3851   2.481   3.105  13.087  0.1783 -0.0707 -0.5146
  250MPD2    H5 3852   2.451   3.014  13.122  1.2286  0.3392  1.4736
  250MPD2    N1 3853   2.710   3.535  13.192  0.3449 -0.2399  0.1021
  250MPD2    H7 3854   2.735   3.597  13.269 -1.8928 -0.6775  1.1739
  251TMC3    C1 3855   2.743   3.717  13.043  0.3420 -0.1589 -0.8151
  251TMC3    C2 3856   2.638   3.794  13.081 -0.2619 -0.2364  0.2853
  251TMC3    C3 3857   2.638   3.922  13.029  0.0724 -1.1065 -0.0662
  251TMC3    C4 3858   2.842   3.762  12.960 -0.9570 -0.4454  0.8226
  251TMC3    C5 3859   2.832   3.888  12.910  0.2540 -0.4762  0.2509
  251TMC3    C6 3860   2.731   3.973  12.943 -0.0896 -0.1884 -0.0604
  251TMC3     C 3861   2.737   3.575  13.061  0.0650 -0.0596 -0.5984
  251TMC3     O 3862   2.741   3.509  12.955 -0.0015 -0.0119  0.4907
  251TMC3     H 3863   2.558   3.765  13.148  0.9759 -0.8111  1.5002
  251TMC3    H1 3864   2.917   3.697  12.917  0.3595  1.7027 -0.0968
  251TMC3    H2 3865   2.737   4.081  12.934  1.0626 -0.1609  1.0882
  251TMC3    C7 3866   2.946   3.953  12.857  0.0804 -0.7661  0.2926
  251TMC3    C8 3867   2.517   4.001  13.037  0.9334  0.7255 -0.1146
  251TMC3    O1 3868   3.055   3.920  12.897 -0.3744  0.4569  0.2184
  251TMC3    O2 3869   2.453   3.985  13.137  0.4294 -0.6967 -0.1779
  252TMC3    C1 3870   2.252   3.924   9.918  0.3307  0.2897 -0.0218
  252TMC3    C2 3871   2.345   4.025   9.950 -0.7790  0.4692 -0.1156
  252TMC3    C3 3872   2.309   4.152   9.904  0.1080 -0.3738 -0.2748
  252TMC3    C4 3873   2.129   3.950   9.872 -0.9310 -0.0622  0.3444
  252TMC3    C5 3874   2.094   4.080   9.845 -0.9470 -0.2514 -1.2425
  252TMC3    C6 3875   2.185   4.187   9.853  0.3129  0.0479  0.2920
  252TMC3     C 3876   2.299   3.785   9.944  0.3572  0.6014  0.0541
  252TMC3     O 3877   2.216   3.700   9.970 -0.3785  0.0340  0.2670
  252TMC3     H 3878   2.442   4.010   9.998 -0.2601  0.8536 -1.0562
  252TMC3    H1 3879   2.062   3.865   9.862 -0.3067 -0.7117  1.6745
  252TMC3    H2 3880   2.160   4.285   9.815  1.6849  0.3432  0.1519
  252TMC3    C7 3881   1.958   4.092   9.807 -0.2130  0.3246  0.0171
  252TMC3    C8 3882   2.402   4.256   9.942  0.3399 -0.5231 -0.6674
  252TMC3    O1 3883   1.930   4.201   9.754  0.0211  0.1695  0.1292
  252TMC3    O2 3884   2.488   4.225  10.025 -0.6051  0.8806 -0.1860
  253MPD2     C 3885   4.057   3.723  15.227  0.5673  0.1114 -0.4942
  253MPD2    C1 3886   3.926   3.677  15.235 -0.2839 -0.5699 -0.2168
  253MPD2    C2 3887   3.856   3.686  15.354  0.4675 -0.6061 -0.4894
  253MPD2    C3 3888   3.918   3.752  15.460  0.3156  0.6772 -0.2739
  253MPD2    C4 3889   4.048   3.798  15.451  0.4806  0.1456  0.0584
  253MPD2    C5 3890   4.107   3.791  15.330  0.1257 -0.4247 -0.3199
  253MPD2     H 3891   3.754   3.651  15.356  1.3438 -3.1931 -0.5703
  253MPD2    H1 3892   4.108   3.839  15.531 -0.7542 -1.6856  1.9083
  253MPD2    H2 3893   4.114   3.722  15.135  2.2306  0.2551  0.5313
  253MPD2    H3 3894   4.209   3.824  15.317 -0.1343  0.4295 -0.1446
  253MPD2     N 3895   3.856   3.763  15.591  0.1778  0.6591 -0.4124
  253MPD2    H5 3896   3.913   3.803  15.664  1.3511  0.2034 -1.0871
  253MPD2    N1 3897   3.857   3.622  15.119  0.1687  0.1978 -1.0269
  253MPD2    H7 3898   3.764   3.583  15.134  0.5321 -1.5609 -3.2915
  254TMC3    C1 3899   3.677   3.757  15.753  0.1043 -0.0624  0.0788
  254TMC3    C2 3900   3.542   3.774  15.777 -0.6297 -0.7119  0.2504
  254TMC3    C3 3901   3.496   3.741  15.902  0.2517  0.4481 -0.2027
  254TMC3    C4 3902   3.766   3.714  15.853 -0.0912 -0.1247  0.1555
  254TMC3    C5 3903   3.711   3.681  15.971  0.5978 -0.0258 -0.3540
  254TMC3    C6 3904   3.579   3.687  15.999 -0.5037  0.3033 -0.5617
  254TMC3     C 3905   3.718   3.765  15.610 -0.1747  0.5334 -0.2647
  254TMC3     O 3906   3.626   3.776  15.532 -0.5568 -0.1259 -0.0891
  254TMC3     H 3907   3.480   3.831  15.708  1.6164 -0.5225 -1.6156
  254TMC3    H1 3908   3.867   3.683  15.832  0.0703  0.2629  0.3537
  254TMC3    H2 3909   3.549   3.661  16.100 -0.7557  0.1272 -0.6811
  254TMC3    C7 3910   3.789   3.665  16.091 -0.0901 -0.3080  0.1113
  254TMC3    C8 3911   3.384   3.815  15.962 -0.0808 -0.0661 -0.2517
  254TMC3    O1 3912   3.748   3.603  16.188  0.0013  0.2648 -0.3985
  254TMC3    O2 3913   3.319   3.754  16.051 -0.1271  0.1578 -0.0479
  255MPD2     C 3914   2.104   1.556  10.211 -0.0778  0.1331 -0.1978
  255MPD2    C1 3915   2.161   1.600  10.096  0.6368 -0.2496  0.3861
  255MPD2    C2 3916   2.298   1.573  10.073 -0.2412 -0.0114 -0.2348
  255MPD2    C3 3917   2.372   1.498  10.163 -0.1083  0.2588 -0.4728
  255MPD2    C4 3918   2.302   1.437  10.266  0.2604  0.0505  0.3851
  255MPD2    C5 3919   2.171   1.471  10.290 -0.1986  0.4341 -0.4253
  255MPD2     H 3920   2.340   1.596   9.976 -0.5362  1.7689  0.0674
  255MPD2    H1 3921   2.347   1.377  10.344  1.0056 -1.3721 -1.1281
  255MPD2    H2 3922   2.001   1.587  10.228  0.7461  3.0545 -0.6738
  255MPD2    H3 3923   2.121   1.431  10.377 -0.3889 -0.1812 -0.8169
  255MPD2     N 3924   2.508   1.475  10.133 -0.1670  0.5604 -0.1042
  255MPD2    H5 3925   2.539   1.541  10.062  2.3833  0.5444  0.9731
  255MPD2    N1 3926   2.068   1.652   9.997  0.2668 -0.0824  0.4384
  255MPD2    H7 3927   1.969   1.654  10.022 -0.7037 -0.2768 -3.2827
  256TMC3    C1 3928   2.010   1.751   9.797  0.0026 -0.1276 -0.3522
  256TMC3    C2 3929   2.067   1.810   9.684  0.2001 -0.3121 -0.2433
  256TMC3    C3 3930   2.041   1.757   9.560 -0.5794  0.4661 -0.2630
  256TMC3    C4 3931   1.924   1.652   9.781  1.5404  0.1314 -0.0085
  256TMC3    C5 3932   1.915   1.600   9.655  0.3820 -0.8629 -0.2639
  256TMC3    C6 3933   1.982   1.641   9.547 -0.3810  0.1293 -0.3776
  256TMC3     C 3934   2.113   1.716   9.887 -0.2588  0.4163 -0.5458
  256TMC3     O 3935   2.226   1.761   9.864  0.4501  0.1399  0.2459
  256TMC3     H 3936   2.118   1.904   9.696 -0.1317 -0.1509 -0.0799
  256TMC3    H1 3937   1.871   1.605   9.863  2.5233  2.1761  1.8128
  256TMC3    H2 3938   1.975   1.587   9.454 -0.1184 -1.0691  0.2921
  256TMC3    C7 3939   1.862   1.468   9.658  0.3073 -0.9643  0.4332
  256TMC3    C8 3940   2.103   1.817   9.440  0.3963  0.0978  0.4950
  256TMC3    O1 3941   1.829   1.414   9.764  0.0015 -0.1167 -0.0971
  256TMC3    O2 3942   2.133   1.742   9.346  0.0800  0.7380  0.0720
  257MPD2     C 3943   1.017   3.139  12.925  0.1612 -0.3865 -0.5849
  257MPD2    C1 3944   1.041   3.210  13.043 -0.6309  0.0670 -0.5712
  257MPD2    C2 3945   1.127   3.154  13.138 -0.4420  0.1231  0.1479
  257MPD2    C3 3946   1.187   3.030  13.115 -0.1152  0.9764 -0.0441
  257MPD2    C4 3947   1.155   2.961  12.997  0.4752  0.6200 -0.4150
  257MPD2    C5 3948   1.063   3.013  12.907  0.7638 -0.0213 -0.4888
  257MPD2     H 3949   1.161   3.202  13.229 -0.7810  1.3560 -0.3728
  257MPD2    H1 3950   1.204   2.865  12.984  1.7298  1.1820  0.2284
  257MPD2    H2 3951   0.969   3.191  12.843 -2.6955 -0.0907  1.2611
  257MPD2    H3 3952   1.042   2.960  12.815  1.3555 -0.3634 -0.4287
  257MPD2     N 3953   1.280   2.989  13.214 -0.5830 -0.3663 -0.0860
  257MPD2    H5 3954   1.294   3.053  13.292 -1.9976  1.7629 -1.5894
  257MPD2    N1 3955   1.011   3.350  13.047 -0.3548 -0.0594 -0.0970
  257MPD2    H7 3956   0.965   3.385  12.963 -0.8152  0.2287  0.2739
  258TMC3    C1 3957   1.463   2.892  13.314 -0.0357  0.5961 -0.0343
  258TMC3    C2 3958   1.547   2.994  13.277 -0.4465  0.3847 -0.2943
  258TMC3    C3 3959   1.678   2.992  13.306 -0.2299  0.6025  0.3954
  258TMC3    C4 3960   1.508   2.783  13.374  0.6263  0.3435 -0.5367
  258TMC3    C5 3961   1.642   2.776  13.406 -0.4670  0.1731  0.5045
  258TMC3    C6 3962   1.727   2.881  13.376 -0.8312 -0.1966  0.8050
  258TMC3     C 3963   1.351   2.872  13.224  0.4394  0.1677  0.5420
  258TMC3     O 3964   1.325   2.763  13.177 -0.2149 -0.3678  0.1752
  258TMC3     H 3965   1.514   3.080  13.219  1.3638  0.2534 -1.5234
  258TMC3    H1 3966   1.436   2.708  13.405 -0.5369  1.4664 -0.5680
  258TMC3    H2 3967   1.834   2.869  13.386 -0.9598 -1.7293  0.4460
  258TMC3    C7 3968   1.678   2.691  13.513  0.1721 -0.0287 -0.2685
  258TMC3    C8 3969   1.769   3.082  13.228  0.0142 -0.5083 -0.2314
  258TMC3    O1 3970   1.595   2.608  13.545 -0.0964 -0.2921  0.0142
  258TMC3    O2 3971   1.725   3.136  13.127 -0.0497 -0.5824 -0.5609
  259MPD2     C 3972   0.553   0.743   1.064 -0.2694 -0.4335  0.3602
  259MPD2    C1 3973   0.545   0.605   1.037 -0.2990 -0.1059 -0.2298
  259MPD2    C2 3974   0.474   0.562   0.930  0.3924  0.2176 -0.3935
  259MPD2    C3 3975   0.409   0.646   0.849  0.3867  0.2293 -0.0303
  259MPD2    C4 3976   0.419   0.780   0.882 -0.1363 -0.1397 -0.6160
  259MPD2    C5 3977   0.490   0.830   0.986  0.4015 -0.0567  0.6969
  259MPD2     H 3978   0.466   0.454   0.917 -3.2696  0.3424  0.8609
  259MPD2    H1 3979   0.370   0.859   0.824 -1.5997  0.2798  1.1890
  259MPD2    H2 3980   0.610   0.781   1.148  0.7776 -0.5835 -0.2862
  259MPD2    H3 3981   0.498   0.938   0.999  0.4568 -0.1885  1.8188
  259MPD2     N 3982   0.344   0.592   0.738  0.4206  0.1132  0.0614
  259MPD2    H5 3983   0.356   0.491   0.731 -2.8781 -0.2388 -0.6841
  259MPD2    N1 3984   0.614   0.517   1.119 -0.0831  0.5388 -0.2882
  259MPD2    H7 3985   0.662   0.557   1.198  3.3532 -1.8027 -1.2119
  260TMC3    C1 3986   0.226   0.601   0.527  0.2810 -0.2158  0.3011
  260TMC3    C2 3987   0.184   0.679   0.426 -0.2154  0.1238  0.5967
  260TMC3    C3 3988   0.167   0.624   0.302 -0.0666 -0.6130 -0.2525
  260TMC3    C4 3989   0.255   0.472   0.511  0.2779  0.3282 -0.4317
  260TMC3    C5 3990   0.224   0.412   0.390 -0.1017  0.2926  0.1376
  260TMC3    C6 3991   0.185   0.488   0.280  0.7838 -0.4559  0.7115
  260TMC3     C 3992   0.282   0.669   0.647 -0.1077  0.9672  0.7431
  260TMC3     O 3993   0.255   0.789   0.644 -0.0526  0.1511 -0.1169
  260TMC3     H 3994   0.177   0.787   0.439  1.0396  0.2618  0.1200
  260TMC3    H1 3995   0.284   0.416   0.599 -0.2885  2.1562  0.9074
  260TMC3    H2 3996   0.168   0.444   0.182  2.0830 -1.7970  1.0739
  260TMC3    C7 3997   0.284   0.283   0.356 -0.3505  0.2331 -0.1819
  260TMC3    C8 3998   0.215   0.708   0.200 -0.0584  0.1316 -0.7741
  260TMC3    O1 3999   0.245   0.239   0.251 -0.1449  0.1943 -0.1080
  260TMC3    O2 4000   0.180   0.824   0.201 -0.2178  0.3116 -0.7008
  261MPD2     C 4001   1.781   3.145  12.777 -0.2709 -0.0877 -0.0714
  261MPD2    C1 4002   1.885   3.167  12.688 -0.6495 -0.2461  0.3315
  261MPD2    C2 4003   1.859   3.263  12.589  0.6924 -0.4686  0.0338
  261MPD2    C3 4004   1.737   3.319  12.568  0.6469  1.0382 -0.0553
  261MPD2    C4 4005   1.636   3.296  12.661 -0.2951 -1.2563  0.3797
  261MPD2    C5 4006   1.658   3.205  12.763 -0.5735  0.3828  0.4025
  261MPD2     H 4007   1.938   3.300  12.524 -0.3286  3.2536  0.9103
  261MPD2    H1 4008   1.536   3.337  12.647  1.0753  1.9799  0.0901
  261MPD2    H2 4009   1.793   3.086  12.867 -0.5954 -2.9416 -1.8968
  261MPD2    H3 4010   1.578   3.189  12.834 -0.9278  1.3171  0.2196
  261MPD2     N 4011   1.717   3.389  12.450  0.2668  1.0656  0.1410
  261MPD2    H5 4012   1.796   3.389  12.386  0.2880  1.0722  0.1675
  261MPD2    N1 4013   2.012   3.109  12.705 -0.0898 -0.0993 -0.5186
  261MPD2    H7 4014   2.086   3.165  12.664  0.0623  2.8149  3.7067
  262TMC3    C1 4015   1.632   3.533  12.293  0.1808 -0.5494 -0.0656
  262TMC3    C2 4016   1.594   3.666  12.273 -0.5585  0.0515 -0.5028
  262TMC3    C3 4017   1.611   3.717  12.146  0.1829 -0.5398 -0.2525
  262TMC3    C4 4018   1.674   3.452  12.195  1.1149  0.5592 -0.1690
  262TMC3    C5 4019   1.677   3.506  12.068  0.1547 -0.8416 -0.1379
  262TMC3    C6 4020   1.661   3.644  12.044 -0.3495 -0.0757 -0.2602
  262TMC3     C 4021   1.617   3.473  12.423  0.4159  0.3689  1.2409
  262TMC3     O 4022   1.516   3.505  12.487  0.3541  0.5093  0.4356
  262TMC3     H 4023   1.561   3.724  12.359 -1.3131  0.3964 -1.0286
  262TMC3    H1 4024   1.707   3.351  12.216 -0.4173 -0.0499 -0.7317
  262TMC3    H2 4025   1.658   3.686  11.944  1.0384 -0.4921 -0.4776
  262TMC3    C7 4026   1.755   3.431  11.972  0.3661 -0.8190  0.4687
  262TMC3    C8 4027   1.594   3.860  12.131 -0.7254  0.5245 -0.9467
  262TMC3    O1 4028   1.751   3.310  11.990 -0.6609  0.0997  0.4122
  262TMC3    O2 4029   1.643   3.913  12.029  0.3278  0.4971  0.1108
  263MPD2     C 4030   2.904   2.481  11.364  0.0165 -0.1973  0.2331
  263MPD2    C1 4031   2.984   2.593  11.344  0.5956  1.2476  0.9384
  263MPD2    C2 4032   2.960   2.675  11.246  0.2067  0.3494  0.2586
  263MPD2    C3 4033   2.860   2.647  11.156  0.1680  0.2416 -0.0696
  263MPD2    C4 4034   2.777   2.537  11.170  0.1731 -0.0683 -0.1562
  263MPD2    C5 4035   2.796   2.457  11.284 -0.0000  0.9059 -0.0871
  263MPD2     H 4036   3.020   2.764  11.227 -0.7004  0.0739 -3.9923
  263MPD2    H1 4037   2.692   2.513  11.107  0.7820  1.3260 -1.5027
  263MPD2    H2 4038   2.921   2.414  11.447  3.5967 -0.4526 -0.6980
  263MPD2    H3 4039   2.722   2.379  11.302  0.8268  0.5011  1.5048
  263MPD2     N 4040   2.830   2.753  11.067 -0.2320 -0.0797 -0.1897
  263MPD2    H5 4041   2.883   2.840  11.070  0.4267 -0.4863  0.1474
  263MPD2    N1 4042   3.090   2.609  11.440 -0.8572 -0.4298  0.0829
  263MPD2    H7 4043   3.093   2.539  11.513  2.2238  0.3592  0.7023
  264TMC3    C1 4044   2.704   2.865  10.900  0.0006  0.2926 -0.5882
  264TMC3    C2 4045   2.728   2.986  10.961 -0.1068  0.4888  0.5424
  264TMC3    C3 4046   2.701   3.101  10.883  0.3515  0.1932 -0.4037
  264TMC3    C4 4047   2.656   2.861  10.770 -0.5222  0.3688  0.5137
  264TMC3    C5 4048   2.643   2.972  10.697  0.9906  0.7404 -0.3174
  264TMC3    C6 4049   2.660   3.098  10.752 -0.0199  0.4690 -0.0531
  264TMC3     C 4050   2.751   2.739  10.958 -0.2946  0.0629  0.0762
  264TMC3     O 4051   2.708   2.637  10.906  0.3823  0.1426 -0.6273
  264TMC3     H 4052   2.758   3.001  11.064 -0.4171 -0.3384  0.7516
  264TMC3    H1 4053   2.649   2.763  10.724 -0.0183  0.3620  0.4510
  264TMC3    H2 4054   2.679   3.183  10.688  2.6766  0.4489  0.7021
  264TMC3    C7 4055   2.702   2.956  10.561 -0.7288 -0.5620  0.3760
  264TMC3    C8 4056   2.740   3.241  10.921  0.6239  0.5081  0.3002
  264TMC3    O1 4057   2.769   2.856  10.540 -0.5703  0.2864  0.1047
  264TMC3    O2 4058   2.740   3.331  10.834  0.3758  0.1415 -0.1835
  265MPD2     C 4059   0.068   3.407  15.960  0.2120 -0.3929  0.0691
  265MPD2    C1 4060   0.124   3.504  15.878 -0.0458  0.3585 -0.2904
  265MPD2    C2 4061   0.197   3.481  15.764  0.1639 -0.1970  0.6381
  265MPD2    C3 4062   0.206   3.354  15.720 -0.0696 -1.1947 -0.1259
  265MPD2    C4 4063   0.163   3.249  15.806  0.2722 -0.3449 -0.5527
  265MPD2    C5 4064   0.096   3.278  15.928  0.6774  0.4084 -0.1396
  265MPD2     H 4065   0.225   3.567  15.704  1.2469 -0.0533  1.3487
  265MPD2    H1 4066   0.186   3.145  15.785  1.0239 -0.8622  2.9583
  265MPD2    H2 4067   0.003   3.427  16.045  2.3179 -0.3927  1.6607
  265MPD2    H3 4068   0.048   3.202  15.988 -2.7701  1.2344 -1.8167
  265MPD2     N 4069   0.273   3.314  15.606  0.2707 -0.3493 -0.4656
  265MPD2    H5 4070   0.247   3.220  15.576  1.6519 -0.3499 -1.6422
  265MPD2    N1 4071   0.108   3.641  15.907  0.1930 -0.1066  0.6108
  265MPD2    H7 4072   0.143   3.707  15.839  0.9979  0.6349  1.7450
  266TMC3    C1 4073   0.074   3.841  16.020  0.0118  0.6282  0.4082
  266TMC3    C2 4074   0.134   3.902  16.124  0.4851  0.7369  0.5917
  266TMC3    C3 4075   0.126   4.041  16.126  0.3337  0.3845  0.1073
  266TMC3    C4 4076   4.727   3.906  15.933  0.5518 -0.6700  0.5824
  266TMC3    C5 4077   4.718   4.043  15.942 -0.2274 -0.1483 -0.3217
  266TMC3    C6 4078   0.056   4.115  16.038  0.4721 -0.6568  1.1574
  266TMC3     C 4079   0.075   3.692  16.027  0.1386 -0.3441 -0.1644
  266TMC3     O 4080   0.077   3.637  16.138 -0.0445 -0.1226  0.0492
  266TMC3     H 4081   0.171   3.849  16.211 -1.3534  0.4777  1.2074
  266TMC3    H1 4082   4.687   3.857  15.845  0.0826 -1.0377  1.0011
  266TMC3    H2 4083   0.057   4.223  16.049  1.8174 -1.1025  5.2630
  266TMC3    C7 4084   4.637   4.115  15.841 -1.0567 -0.1775  0.7529
  266TMC3    C8 4085   0.232   4.108  16.212 -1.0970 -0.0490 -0.0168
  266TMC3    O1 4086   4.555   4.050  15.777 -0.3313  0.3505 -0.2030
  266TMC3    O2 4087   0.327   4.040  16.240  0.0257 -0.1306 -0.0723
  267MPD2     C 4088   3.354   0.166  17.718  0.5673  0.4227  0.3804
  267MPD2    C1 4089   3.259   0.176   0.084 -0.5319  0.3120 -0.7878
  267MPD2    C2 4090   3.129   0.180   0.057 -0.2169 -0.3477  0.2807
  267MPD2    C3 4091   3.085   0.173  17.659  0.9505 -0.4115 -0.4220
  267MPD2    C4 4092   3.175   0.166  17.552  0.0160 -0.5298  0.1690
  267MPD2    C5 4093   3.309   0.166  17.589 -0.2540  0.1803  0.3210
  267MPD2     H 4094   3.054   0.181   0.135 -0.8865  1.1752 -0.3824
  267MPD2    H1 4095   3.147   0.179  17.448 -1.8243 -0.8808  0.6247
  267MPD2    H2 4096   3.458   0.163   0.015  0.9640  0.3784 -1.0701
  267MPD2    H3 4097   3.380   0.167  17.507 -0.5044 -2.5127  0.0766
  267MPD2     N 4098   2.945   0.198  17.623  0.6225  0.1795  0.4016
  267MPD2    H5 4099   2.912   0.177  17.529 -1.1235 -1.2424  1.3397
  267MPD2    N1 4100   3.305   0.187   0.219 -0.4866  0.4290  0.0579
  267MPD2    H7 4101   3.405   0.184   0.233 -0.5773 -0.5053  0.4969
  268TMC3    C1 4102   3.302   0.274   0.438  0.5018  0.6655  0.2369
  268TMC3    C2 4103   3.349   0.398   0.401 -0.6748 -0.4767  0.5234
  268TMC3    C3 4104   3.360   0.487   0.505  0.3707  0.1778 -0.7684
  268TMC3    C4 4105   3.272   0.238   0.564  0.3908 -0.1856  0.4103
  268TMC3    C5 4106   3.280   0.335   0.660 -0.4134  0.3919 -0.0267
  268TMC3    C6 4107   3.330   0.453   0.633 -0.3666  0.7757  0.1351
  268TMC3     C 4108   3.225   0.214   0.331  1.0498 -0.2883 -0.1534
  268TMC3     O 4109   3.102   0.219   0.339  0.0942  0.5427  0.2671
  268TMC3     H 4110   3.367   0.418   0.296  1.8471  1.2648  1.3007
  268TMC3    H1 4111   3.221   0.144   0.581  1.2270 -0.1846  2.9659
  268TMC3    H2 4112   3.335   0.530   0.709  0.8326  0.9668 -0.1352
  268TMC3    C7 4113   3.279   0.304   0.799  0.6121 -0.5618 -0.1795
  268TMC3    C8 4114   3.345   0.625   0.471 -0.1639 -0.2069  0.1872
  268TMC3    O1 4115   3.333   0.201   0.839 -0.4188  0.1872 -0.2417
  268TMC3    O2 4116   3.362   0.715   0.556  0.0766  0.5856 -0.0541
  269MPD2     C 4117   3.208   4.276  15.528 -1.1322  0.5249  0.2420
  269MPD2    C1 4118   3.092   4.268  15.601  0.3116 -0.0584  0.0236
  269MPD2    C2 4119   3.003   4.372  15.590  0.0507  0.0486 -0.5388
  269MPD2    C3 4120   3.035   4.489  15.527 -0.5125  0.6001 -0.5156
  269MPD2    C4 4121   3.159   4.501  15.469 -0.1358 -0.3466 -0.6723
  269MPD2    C5 4122   3.238   4.395  15.468 -0.3483 -0.7431 -0.6507
  269MPD2     H 4123   2.904   4.367  15.634  0.4679  1.3355  0.5286
  269MPD2    H1 4124   3.187   4.589  15.413 -0.3927  0.5481  0.6044
  269MPD2    H2 4125   3.281   4.195  15.525 -2.8218 -0.9722 -0.7260
  269MPD2    H3 4126   3.329   4.411  15.412  1.2913  0.7395  2.4644
  269MPD2     N 4127   2.932   4.587  15.530  0.1613 -0.5169  0.1477
  269MPD2    H5 4128   2.841   4.576  15.572  0.4268  0.5703  1.0193
  269MPD2    N1 4129   3.073   4.148  15.683  0.7091 -0.0743 -0.0401
  269MPD2    H7 4130   3.144   4.076  15.682  1.1544  0.3645  0.2101
  270TMC3    C1 4131   2.939   3.982  15.769 -0.3210 -0.0757 -0.6688
  270TMC3    C2 4132   2.813   3.927  15.771  0.0335 -0.4603  0.1598
  270TMC3    C3 4133   2.790   3.798  15.740  0.5169  0.4188 -0.3161
  270TMC3    C4 4134   3.046   3.901  15.737 -0.9347  0.2053 -0.7240
  270TMC3    C5 4135   3.020   3.769  15.714 -0.2213  0.5021 -0.0680
  270TMC3    C6 4136   2.894   3.722  15.692  0.6754  0.1272  0.0051
  270TMC3     C 4137   2.948   4.119  15.735 -0.0374 -1.6796 -0.5926
  270TMC3     O 4138   2.845   4.184  15.754  0.8529  0.0726  0.1663
  270TMC3     H 4139   2.727   3.991  15.787  1.0376  0.7612  0.6605
  270TMC3    H1 4140   3.147   3.939  15.752 -1.1744 -0.1275  1.7874
  270TMC3    H2 4141   2.873   3.615  15.693  0.1131  0.2567  1.7512
  270TMC3    C7 4142   3.137   3.715  15.648 -0.0336  0.3641  0.7350
  270TMC3    C8 4143   2.679   3.787  15.654 -0.1324 -0.1706 -0.5755
  270TMC3    O1 4144   3.248   3.755  15.678  0.0777  0.3041 -0.3743
  270TMC3    O2 4145   2.579   3.856  15.667  0.5678 -0.4719 -0.0358
  271MPD2     C 4146   2.207   3.772  13.786  0.3139  0.3736  0.0177
  271MPD2    C1 4147   2.141   3.745  13.901  0.2047 -0.6523  0.3771
  271MPD2    C2 4148   2.004   3.779  13.909  0.0710 -0.4386 -0.1605
  271MPD2    C3 4149   1.933   3.834  13.802  1.2679  0.2859 -0.3107
  271MPD2    C4 4150   2.007   3.849  13.689  0.6146 -0.2859  0.0768
  271MPD2    C5 4151   2.137   3.815  13.680  0.5675  0.3484 -0.7113
  271MPD2     H 4152   1.952   3.765  14.003 -1.3260 -0.9505 -1.0136
  271MPD2    H1 4153   1.971   3.890  13.595 -2.3211 -1.3862  0.7082
  271MPD2    H2 4154   2.313   3.757  13.770  0.4512  1.0951  0.2455
  271MPD2    H3 4155   2.194   3.833  13.589  0.9911  0.8119 -0.3490
  271MPD2     N 4156   1.800   3.887  13.811  0.2593 -0.7622  0.4016
  271MPD2    H5 4157   1.764   3.943  13.735  3.2938 -0.8339 -1.0666
  271MPD2    N1 4158   2.207   3.694  14.013 -0.7195  0.6529 -0.1143
  271MPD2    H7 4159   2.152   3.679  14.097  2.5965  0.8321  2.0619
  272TMC3    C1 4160   2.360   3.569  14.141  0.1374 -0.3235  0.0718
  272TMC3    C2 4161   2.492   3.529  14.150 -0.2426  0.0235 -0.4231
  272TMC3    C3 4162   2.549   3.512  14.273 -0.4402  0.0514  1.1090
  272TMC3    C4 4163   2.281   3.567  14.256  0.2363 -0.7779 -0.1080
  272TMC3    C5 4164   2.340   3.542  14.380 -0.6284 -0.4146  0.2443
  272TMC3    C6 4165   2.476   3.514  14.389 -0.0766  0.4174 -0.3696
  272TMC3     C 4166   2.323   3.625  14.018  0.5623 -0.3353  0.6011
  272TMC3     O 4167   2.406   3.615  13.931 -0.5853  0.0825 -0.0672
  272TMC3     H 4168   2.551   3.516  14.059  0.6044 -0.9385  0.2625
  272TMC3    H1 4169   2.176   3.594  14.248  0.4988 -0.0023 -1.0050
  272TMC3    H2 4170   2.524   3.518  14.486 -0.5459  0.9816 -0.1655
  272TMC3    C7 4171   2.261   3.599  14.488 -0.2904 -0.4166 -0.3351
  272TMC3    C8 4172   2.695   3.519  14.276  0.2331  0.6571  0.8519
  272TMC3    O1 4173   2.139   3.593  14.477  0.0309 -0.5074  0.1264
  272TMC3    O2 4174   2.747   3.565  14.178 -0.0525 -0.5090  0.2847
  273MPD2     C 4175   3.386   1.580  11.661  0.0530 -0.0443  1.1449
  273MPD2    C1 4176   3.503   1.646  11.675  0.1016 -0.2959 -0.1632
  273MPD2    C2 4177   3.565   1.703  11.564  0.4502 -0.3431  0.8428
  273MPD2    C3 4178   3.507   1.703  11.440 -0.0516 -0.9048  0.1552
  273MPD2    C4 4179   3.389   1.639  11.425  0.0730  0.4180 -0.0766
  273MPD2    C5 4180   3.332   1.577  11.532 -0.7441 -0.0106  0.3891
  273MPD2     H 4181   3.666   1.740  11.580  1.4614 -1.8752 -1.9359
  273MPD2    H1 4182   3.331   1.642  11.334 -2.3742 -0.9088  1.4428
  273MPD2    H2 4183   3.332   1.528  11.739 -0.9873  0.8126  0.9854
  273MPD2    H3 4184   3.240   1.522  11.518 -1.3842  0.8518  1.2413
  273MPD2     N 4185   3.563   1.765  11.325  0.7095 -0.1432  0.3977
  273MPD2    H5 4186   3.515   1.750  11.237  1.2494  0.3680  0.0136
  273MPD2    N1 4187   3.550   1.675  11.809  0.1764 -0.5108 -0.3383
  273MPD2    H7 4188   3.506   1.626  11.886  2.5385  0.8672  1.9195
  274TMC3    C1 4189   3.711   1.896  11.196  0.0933  0.2784  0.8103
  274TMC3    C2 4190   3.685   1.821  11.086 -0.0130  0.7534  0.5164
  274TMC3    C3 4191   3.746   1.856  10.963  0.0299  0.0131  0.1750
  274TMC3    C4 4192   3.792   2.003  11.193  0.5211  0.3254 -1.2732
  274TMC3    C5 4193   3.854   2.030  11.073  0.2275  0.3659  0.5069
  274TMC3    C6 4194   3.821   1.971  10.953 -0.3041  0.1867  0.9876
  274TMC3     C 4195   3.677   1.847  11.326  0.1093 -0.2607  0.4421
  274TMC3     O 4196   3.746   1.880  11.421  0.5099 -0.0187  0.3373
  274TMC3     H 4197   3.618   1.736  11.088  0.0753  0.6379 -1.3579
  274TMC3    H1 4198   3.838   2.043  11.282 -2.7175  0.6658  0.2598
  274TMC3    H2 4199   3.874   1.998  10.863  0.0682  2.1159  1.7720
  274TMC3    C7 4200   3.913   2.161  11.066 -0.7877  0.5339 -0.0456
  274TMC3    C8 4201   3.667   1.821  10.854 -0.7457 -0.1927  0.2387
  274TMC3    O1 4202   3.958   2.197  10.956  0.1253 -0.1165 -0.5189
  274TMC3    O2 4203   3.601   1.719  10.874  0.3190  0.3144  0.5538
  275MPD2     C 4204   3.214   0.331  14.814 -0.3858  0.2848  0.3009
  275MPD2    C1 4205   3.255   0.193  14.793 -0.1537 -0.1581 -0.1437
  275MPD2    C2 4206   3.163   0.116  14.731  0.1595 -0.4904  0.1862
  275MPD2    C3 4207   3.043   0.169  14.699  0.4407  0.0121 -0.3054
  275MPD2    C4 4208   3.004   0.290  14.749 -0.5130  0.4867  0.7247
  275MPD2    C5 4209   3.094   0.379  14.798 -0.6764 -0.1492 -0.1293
  275MPD2     H 4210   3.188   0.012  14.720 -0.0141 -0.4288 -0.8202
  275MPD2    H1 4211   2.905   0.327  14.725 -1.3011 -1.0011  1.7342
  275MPD2    H2 4212   3.282   0.410  14.845 -1.3314  1.3457 -0.3487
  275MPD2    H3 4213   3.081   0.485  14.818  2.2547 -0.1895  1.9940
  275MPD2     N 4214   2.948   0.099  14.621 -0.0436  0.1150 -0.4474
  275MPD2    H5 4215   2.855   0.134  14.601 -0.6908  0.7931  3.5870
  275MPD2    N1 4216   3.381   0.165  14.830 -0.1823  0.1020  0.9267
  275MPD2    H7 4217   3.436   0.241  14.869  1.5069 -0.1767 -0.8981
  276TMC3    C1 4218   3.571   0.035  14.880 -0.4653 -0.1739  0.3380
  276TMC3    C2 4219   3.609   4.639  14.926 -0.5121 -0.7621 -0.3641
  276TMC3    C3 4220   3.693   4.632  15.038 -0.4215  0.0383  0.1586
  276TMC3    C4 4221   3.623   0.144  14.946 -1.1607 -0.3854  0.0109
  276TMC3    C5 4222   3.705   0.129  15.057 -0.4930  0.1397  0.0928
  276TMC3    C6 4223   3.733   0.013  15.108  0.8127  0.3666  0.1311
  276TMC3     C 4224   3.442   0.045  14.807  0.2115  0.1860 -0.0673
  276TMC3     O 4225   3.394   4.677  14.761 -0.4040  0.1533  0.6602
  276TMC3     H 4226   3.588   4.549  14.871 -0.1800 -0.3094 -1.2233
  276TMC3    H1 4227   3.604   0.240  14.900 -0.5707 -0.2166  0.1283
  276TMC3    H2 4228   3.816   4.731  15.175  0.2437  0.6585  0.8996
  276TMC3    C7 4229   3.758   0.245  15.130  0.6849 -0.4551  0.2686
  276TMC3    C8 4230   3.799   4.529  15.035  0.4808 -0.4739  0.6208
  276TMC3    O1 4231   3.780   0.218  15.245  0.2067  0.5808  0.3483
  276TMC3    O2 4232   3.916   4.560  15.070  0.0602 -0.3369 -0.0731
  277MPD2     C 4233   0.808   4.013  13.240 -0.8272 -0.2040 -0.2341
  277MPD2    C1 4234   0.673   3.993  13.227 -1.0790 -0.3409  0.2637
  277MPD2    C2 4235   0.615   3.876  13.273  0.2939 -0.3357  0.6213
  277MPD2    C3 4236   0.686   3.787  13.347 -1.2408 -0.4372 -0.3070
  277MPD2    C4 4237   0.818   3.808  13.358  0.4602 -0.6319  0.5851
  277MPD2    C5 4238   0.881   3.920  13.306 -0.5371  0.2467  0.3365
  277MPD2     H 4239   0.514   3.853  13.239  0.3396  1.8913 -0.9769
  277MPD2    H1 4240   0.881   3.736  13.409 -0.4972 -0.9158  1.3817
  277MPD2    H2 4241   0.857   4.103  13.207  0.4550 -0.8989 -0.2203
  277MPD2    H3 4242   0.983   3.949  13.328 -0.8215  1.3820  0.1539
  277MPD2     N 4243   0.616   3.671  13.398  0.1650 -0.5723  0.2189
  277MPD2    H5 4244   0.515   3.675  13.406  0.0504  1.1481 -2.4154
  277MPD2    N1 4245   0.604   4.101  13.172 -0.1368 -0.0264  0.8700
  277MPD2    H7 4246   0.658   4.185  13.156 -0.0837 -0.2341 -0.0398
  278TMC3    C1 4247   0.588   3.464  13.493 -0.1212 -0.0248  0.0133
  278TMC3    C2 4248   0.631   3.330  13.493  0.3186 -0.3170 -0.6095
  278TMC3    C3 4249   0.544   3.227  13.467  0.5945  0.3285  0.3597
  278TMC3    C4 4250   0.456   3.485  13.487 -0.0243 -0.8495  0.9638
  278TMC3    C5 4251   0.366   3.375  13.473 -0.5010  0.3337  0.5096
  278TMC3    C6 4252   0.408   3.248  13.455  0.7946  0.2205 -0.2386
  278TMC3     C 4253   0.681   3.564  13.463  0.3158 -0.7623 -0.7349
  278TMC3     O 4254   0.799   3.552  13.496 -0.0997 -0.2531  0.5534
  278TMC3     H 4255   0.738   3.315  13.483  0.0764 -1.5991 -1.2798
  278TMC3    H1 4256   0.415   3.582  13.516 -1.5382 -1.4258  0.6976
  278TMC3    H2 4257   0.331   3.171  13.463  0.0924  0.9094 -0.3715
  278TMC3    C7 4258   0.255   3.373  13.557 -0.2844 -0.3004 -0.2077
  278TMC3    C8 4259   0.590   3.097  13.461  0.6902  0.2283 -0.3789
  278TMC3    O1 4260   0.243   3.289  13.644 -0.1145 -0.3423 -0.4036
  278TMC3    O2 4261   0.708   3.080  13.486 -0.0012 -0.1423  0.2636
  279MPD2     C 4262   0.151   4.176   0.407 -0.1850 -0.3533  0.7563
  279MPD2    C1 4263   0.043   4.099   0.377 -0.6466 -0.0940 -0.0254
  279MPD2    C2 4264   4.732   4.082   0.246  0.0200 -0.2583  0.6337
  279MPD2    C3 4265   0.068   4.145   0.149 -0.1314  0.5572 -0.0724
  279MPD2    C4 4266   0.185   4.217   0.177 -0.0066 -0.7136  0.1822
  279MPD2    C5 4267   0.223   4.239   0.311  0.2878 -0.0578 -0.0531
  279MPD2     H 4268   4.638   4.030   0.231  0.5693 -0.0729 -3.4340
  279MPD2    H1 4269   0.239   4.278   0.105 -2.0769  2.7672  1.5591
  279MPD2    H2 4270   0.186   4.196   0.508 -0.1392  0.5687  0.5627
  279MPD2    H3 4271   0.308   4.300   0.338  0.3191 -0.0747 -0.1138
  279MPD2     N 4272   0.029   4.142   0.015  0.1813  0.1966 -0.0967
  279MPD2    H5 4273   0.081   4.206  17.688 -0.8012 -2.2684 -3.6687
  279MPD2    N1 4274   4.695   4.062   0.494  0.0609  0.2967  0.0274
  279MPD2    H7 4275   0.004   4.078   0.585  1.5816 -0.4205 -0.5523
  280TMC3    C1 4276   4.533   3.973   0.638  0.5215  0.0033  0.6114
  280TMC3    C2 4277   4.445   3.872   0.653 -0.1669 -0.2676  0.1322
  280TMC3    C3 4278   4.341   3.874   0.747  0.1575 -0.8353  0.7922
  280TMC3    C4 4279   4.499   4.091   0.691  0.5590 -0.2916 -0.1866
  280TMC3    C5 4280   4.402   4.087   0.793  0.3308 -0.0134 -0.6473
  280TMC3    C6 4281   4.320   3.986   0.821  0.4757  0.1795  0.0437
  280TMC3     C 4282   4.583   3.989   0.498  0.5908 -0.0467  0.1440
  280TMC3     O 4283   4.524   3.929   0.409 -0.1454  0.3468 -0.1335
  280TMC3     H 4284   4.472   3.777   0.607  0.4004 -0.2178  0.3637
  280TMC3    H1 4285   4.556   4.183   0.682  0.1107 -0.1168 -1.1710
  280TMC3    H2 4286   4.252   4.005   0.903 -2.3146 -0.4950 -2.1038
  280TMC3    C7 4287   4.339   4.211   0.829 -0.1972  0.2833 -0.0590
  280TMC3    C8 4288   4.239   3.776   0.741 -0.5462  0.8441 -0.2164
  280TMC3    O1 4289   4.306   4.234   0.945 -0.4148  0.0782 -0.5553
  280TMC3    O2 4290   4.232   3.719   0.632 -0.2083  0.5041 -0.1363
  281TMC3    C1 4291   3.336   4.100  13.079 -0.4324 -0.1093  0.7091
  281TMC3    C2 4292   3.332   4.155  12.951  0.7099  0.3044  0.4056
  281TMC3    C3 4293   3.397   4.091  12.847 -0.5339  0.4308 -0.2018
  281TMC3    C4 4294   3.396   3.982  13.107 -0.0870  0.2517  0.2127
  281TMC3    C5 4295   3.439   3.910  12.998  0.0224  0.1224  0.6294
  281TMC3    C6 4296   3.453   3.976  12.874 -0.8180  0.2958  0.2709
  281TMC3     C 4297   3.241   4.152  13.177  0.6251 -0.3358 -0.5600
  281TMC3     O 4298   3.281   4.152  13.290  0.2446  0.2681 -0.2341
  281TMC3     H 4299   3.306   4.260  12.955  1.7981  0.5044  2.0290
  281TMC3    H1 4300   3.388   3.938  13.206 -0.2756 -0.1430  0.0252
  281TMC3    H2 4301   3.498   3.918  12.794 -2.5121  1.5013 -1.5664
  281TMC3    C7 4302   3.543   3.812  13.029 -0.5176 -1.3045 -0.2101
  281TMC3    C8 4303   3.432   4.157  12.719 -0.0062 -0.1174  0.1617
  281TMC3    O1 4304   3.659   3.847  13.010  0.6849  0.1380  0.3127
  281TMC3    O2 4305   3.549   4.130  12.683  0.0443  0.0269 -1.2041
  282MPD2     C 4306   0.324   0.553  15.298 -0.6012 -0.1296  0.9598
  282MPD2    C1 4307   0.222   0.640  15.308  0.3224  0.1867 -0.1944
  282MPD2    C2 4308   0.138   0.653  15.198  0.7334 -0.5835 -0.5169
  282MPD2    C3 4309   0.171   0.603  15.079  0.2915 -0.1254 -0.6447
  282MPD2    C4 4310   0.274   0.520  15.068  0.8478 -0.9175  0.2567
  282MPD2    C5 4311   0.348   0.490  15.183  0.1509 -0.1922  0.8494
  282MPD2     H 4312   0.050   0.712  15.220  0.0194 -1.4191 -1.0968
  282MPD2    H1 4313   0.296   0.469  14.975 -0.8144  0.6695 -1.0172
  282MPD2    H2 4314   0.397   0.532  15.375 -0.3527  1.5743  1.1835
  282MPD2    H3 4315   0.429   0.421  15.162  1.5122  2.0900 -1.4794
  282MPD2     N 4316   0.083   0.631  14.972 -0.0997 -1.0387  0.0705
  282MPD2    H5 4317   0.006   0.692  14.996  0.2718 -1.4250  2.1814
  282MPD2    N1 4318   0.182   0.704  15.429 -0.1678 -0.3475 -0.5701
  282MPD2    H7 4319   0.084   0.728  15.437  0.2557  0.2231  2.8788
  283TMC3    C1 4320   0.216   0.788  15.644 -0.3002 -0.0849  0.3863
  283TMC3    C2 4321   0.289   0.873  15.724 -0.5650 -0.1274  0.3063
  283TMC3    C3 4322   0.226   0.919  15.835  0.1612 -0.3501 -0.0182
  283TMC3    C4 4323   0.103   0.728  15.690  0.0961  0.0152 -0.5715
  283TMC3    C5 4324   0.054   0.757  15.809 -0.0898  0.2785  0.4156
  283TMC3    C6 4325   0.112   0.858  15.886  0.3718 -0.1700 -0.5903
  283TMC3     C 4326   0.274   0.728  15.528 -0.7064  0.5385 -0.7776
  283TMC3     O 4327   0.397   0.728  15.519  0.6110 -0.7646 -0.0194
  283TMC3     H 4328   0.366   0.928  15.672  0.7578  0.2788  2.7014
  283TMC3    H1 4329   0.061   0.649  15.629  0.2649  0.5760 -1.4224
  283TMC3    H2 4330   0.069   0.893  15.979  2.1881 -0.5991  0.4025
  283TMC3    C7 4331   4.703   0.658  15.880  0.0193  0.5732 -0.4014
  283TMC3    C8 4332   0.262   1.041  15.894 -0.6222  0.5196  0.1114
  283TMC3    O1 4333   4.678   0.691  15.997  0.1237 -0.8324 -0.3363
  283TMC3    O2 4334   0.228   1.061  16.011 -0.4112  0.6091  0.0291
  284MPD2     C 4335   3.286   4.019  12.017 -0.1117 -0.0870  0.4200
  284MPD2    C1 4336   3.174   4.070  11.955 -0.1733 -0.3637  0.2598
  284MPD2    C2 4337   3.050   4.012  11.966 -0.0944 -0.0555  0.5785
  284MPD2    C3 4338   3.041   3.889  12.024 -0.7930  0.3312 -0.1190
  284MPD2    C4 4339   3.145   3.838  12.088 -0.0552  0.4579  0.1571
  284MPD2    C5 4340   3.266   3.901  12.081  0.1966 -0.9599  0.8486
  284MPD2     H 4341   2.962   4.050  11.915  0.8922 -1.2112 -2.0018
  284MPD2    H1 4342   3.163   3.741  12.133 -1.1444 -0.2045 -0.8617
  284MPD2    H2 4343   3.379   4.074  12.026  0.3091 -0.8671  0.9063
  284MPD2    H3 4344   3.348   3.853  12.133  3.1726  2.3312 -0.7740
  284MPD2     N 4345   2.929   3.811  12.018 -0.1728  0.6584 -0.1967
  284MPD2    H5 4346   2.933   3.732  12.082  0.8823  0.1947 -0.8425
  284MPD2    N1 4347   3.179   4.185  11.880  0.2284 -0.0818  0.8539
  284MPD2    H7 4348   3.112   4.210  11.808 -0.5322 -1.3847  1.1132
  285TMC3    C1 4349   3.272   4.382  11.788  0.2304  0.2524 -0.0568
  285TMC3    C2 4350   3.217   4.347  11.659 -0.0806  0.2568  0.3238
  285TMC3    C3 4351   3.246   4.428  11.556  0.8720 -0.8360  0.2534
  285TMC3    C4 4352   3.349   4.494  11.805  0.6446  0.6514 -0.7059
  285TMC3    C5 4353   3.385   4.563  11.690 -0.7654  0.6667 -0.0996
  285TMC3    C6 4354   3.327   4.535  11.566 -0.5360  0.2708 -0.2589
  285TMC3     C 4355   3.281   4.276  11.884 -0.0852 -0.4432  0.4763
  285TMC3     O 4356   3.373   4.281  11.962 -0.1127 -0.0885  0.6584
  285TMC3     H 4357   3.174   4.248  11.645  0.1643  0.3493 -1.0502
  285TMC3    H1 4358   3.370   4.526  11.906  0.3337 -2.0984  0.2371
  285TMC3    H2 4359   3.321   4.610  11.489 -0.0242 -0.7971 -1.3289
  285TMC3    C7 4360   3.443   4.692  11.704 -0.4111  0.6948 -0.2060
  285TMC3    C8 4361   3.281   4.369  11.432 -0.4294 -0.4167 -0.9924
  285TMC3    O1 4362   3.417   0.032  11.607 -0.3775 -0.1835 -0.3484
  285TMC3    O2 4363   3.192   4.336  11.351 -0.9902  0.5742  0.3117
  286MPD2     C 4364   3.895   3.603   1.692 -0.4347  0.0271 -0.6341
  286MPD2    C1 4365   3.808   3.535   1.606 -0.5519  0.5173  0.4201
  286MPD2    C2 4366   3.853   3.414   1.553  0.1013 -0.5764  0.3831
  286MPD2    C3 4367   3.967   3.351   1.593  0.4910 -0.3243  0.2402
  286MPD2    C4 4368   4.051   3.416   1.680  0.6811 -0.0410  0.4676
  286MPD2    C5 4369   4.017   3.543   1.723  0.0802  0.2838 -0.2822
  286MPD2     H 4370   3.796   3.361   1.478  0.0141  0.4520 -0.2792
  286MPD2    H1 4371   4.137   3.361   1.714  1.2769  0.3313 -0.4218
  286MPD2    H2 4372   3.865   3.695   1.741  1.0502 -0.0658  0.4543
  286MPD2    H3 4373   4.078   3.587   1.801 -0.7496 -1.2745  1.2564
  286MPD2     N 4374   3.998   3.219   1.566 -0.0315 -0.4363  0.4152
  286MPD2    H5 4375   4.081   3.180   1.608  0.7200 -1.2085 -1.8149
  286MPD2    N1 4376   3.694   3.590   1.550 -0.2566 -0.4459 -0.8831
  286MPD2    H7 4377   3.635   3.539   1.485 -2.0135  0.8346 -0.2931
  287TMC3    C1 4378   4.018   3.017   1.442 -0.2961 -0.0433 -0.3624
  287TMC3    C2 4379   4.021   2.972   1.312 -0.0275  0.5743 -0.2272
  287TMC3    C3 4380   4.056   2.841   1.291  0.8988 -0.4708 -0.4254
  287TMC3    C4 4381   4.053   2.934   1.548  0.0283 -0.4509 -0.1154
  287TMC3    C5 4382   4.086   2.804   1.519  0.3447 -0.6319 -1.0901
  287TMC3    C6 4383   4.082   2.756   1.393 -0.3966 -0.5271 -0.2896
  287TMC3     C 4384   3.963   3.149   1.450 -0.2702  0.6178  0.1079
  287TMC3     O 4385   3.914   3.200   1.349 -0.2194 -0.8164 -0.3510
  287TMC3     H 4386   4.009   3.035   1.225 -1.5748 -0.5775 -0.8656
  287TMC3    H1 4387   4.062   2.975   1.648  0.6371 -1.5634  0.2977
  287TMC3    H2 4388   4.119   2.657   1.370 -0.2908 -0.3656 -0.8310
  287TMC3    C7 4389   4.177   2.734   1.611  0.0860 -0.1451 -0.3588
  287TMC3    C8 4390   4.043   2.778   1.158  0.7486  0.3996  0.0273
  287TMC3    O1 4391   4.237   2.641   1.561  0.3596 -0.5618 -0.7291
  287TMC3    O2 4392   4.018   2.660   1.159  0.2045  0.3425  0.2851
  288TMC3    C1 4393   0.989   3.176  14.477  1.0224 -0.8778 -0.1122
  288TMC3    C2 4394   0.910   3.242  14.567  0.3148 -0.1479  0.5190
  288TMC3    C3 4395   0.862   3.363  14.524 -0.3680 -0.7795  0.1958
  288TMC3    C4 4396   1.004   3.210  14.342  0.6395 -0.3003  0.9517
  288TMC3    C5 4397   0.949   3.332  14.308 -0.1138  0.5709 -0.0791
  288TMC3    C6 4398   0.881   3.406  14.399  0.3994  0.4012  0.5672
  288TMC3     C 4399   1.093   3.093  14.533  0.4153  0.4702  0.1451
  288TMC3     O 4400   1.196   3.104  14.475  0.3238 -0.9711  0.3608
  288TMC3     H 4401   0.908   3.221  14.673  0.6562  1.0465  0.7639
  288TMC3    H1 4402   1.073   3.155  14.279 -1.3562  0.5904 -2.0177
  288TMC3    H2 4403   0.832   3.494  14.360  0.6130  0.0164 -0.5752
  288TMC3    C7 4404   0.914   3.355  14.173  0.2365 -0.1575 -0.2472
  288TMC3    C8 4405   0.766   3.440  14.602  0.5703  0.1575  0.1496
  288TMC3    O1 4406   0.815   3.416  14.147  0.7213 -0.1649  0.6504
  288TMC3    O2 4407   0.741   3.557  14.566  0.6269  0.0681 -0.3471
  289MPD2     C 4408   0.925   2.079  14.262 -0.0913 -0.2250 -0.2048
  289MPD2    C1 4409   0.883   2.208  14.273  1.2819 -0.1938  0.3098
  289MPD2    C2 4410   0.783   2.246  14.189  0.5519 -0.0001  0.3030
  289MPD2    C3 4411   0.708   2.150  14.117  0.2201  0.5379  0.0305
  289MPD2    C4 4412   0.751   2.021  14.116 -0.9794 -0.5584 -0.6407
  289MPD2    C5 4413   0.863   1.984  14.183 -0.5569 -0.5831  0.1518
  289MPD2     H 4414   0.752   2.350  14.183  0.9827  0.2016  1.7035
  289MPD2    H1 4415   0.701   1.942  14.061 -1.1946 -1.0708  0.2854
  289MPD2    H2 4416   1.007   2.044  14.323  0.0228  0.3811 -0.0103
  289MPD2    H3 4417   0.891   1.879  14.181  1.8588  0.0837 -0.6688
  289MPD2     N 4418   0.598   2.175  14.030 -0.1899 -0.0166 -0.6584
  289MPD2    H5 4419   0.553   2.099  13.981 -3.6876  2.0498 -0.6483
  289MPD2    N1 4420   0.953   2.300  14.349  0.4665  0.2037 -0.5994
  289MPD2    H7 4421   1.034   2.267  14.399  1.1637 -0.0684 -1.9070
  290TMC3    C1 4422   0.425   2.290  13.925  0.6963 -0.7040 -0.0171
  290TMC3    C2 4423   0.404   2.392  13.832 -0.1616  0.6641  0.0265
  290TMC3    C3 4424   0.309   2.372  13.738 -0.3630 -0.0658  0.3062
  290TMC3    C4 4425   0.353   2.173  13.936  0.7080 -0.0917  0.1586
  290TMC3    C5 4426   0.243   2.171  13.855  0.3157  0.1811  0.0137
  290TMC3    C6 4427   0.225   2.267  13.754 -0.2346 -0.2525  1.1822
  290TMC3     C 4428   0.542   2.299  14.011 -0.3342  0.4708 -0.1111
  290TMC3     O 4429   0.561   2.409  14.058  0.2348  0.2307 -0.6281
  290TMC3     H 4430   0.455   2.487  13.843 -1.2292  1.4477 -1.8471
  290TMC3    H1 4431   0.356   2.112  14.025  0.8219  0.7746  0.7406
  290TMC3    H2 4432   0.133   2.266  13.697  2.7212 -3.2962 -3.5042
  290TMC3    C7 4433   0.124   2.115  13.915  0.0984 -0.4632 -0.5964
  290TMC3    C8 4434   0.266   2.474  13.648  0.2072  0.3228  0.1799
  290TMC3    O1 4435   0.025   2.180  13.905  0.2084 -0.5038  0.4462
  290TMC3    O2 4436   0.163   2.459  13.586 -0.6219 -0.0824 -0.4973
  291MPD2     C 4437   4.615   2.523   0.794 -0.3759 -0.3973 -0.7656
  291MPD2    C1 4438   4.705   2.474   0.702  0.8809 -0.1091  0.1129
  291MPD2    C2 4439   0.039   2.565   0.618 -0.2334 -0.3921 -0.2238
  291MPD2    C3 4440   0.005   2.704   0.612 -0.4514 -0.7963 -0.2694
  291MPD2    C4 4441   4.643   2.753   0.701  0.1844  0.0467  0.4413
  291MPD2    C5 4442   4.586   2.663   0.791  0.0144  0.0949  0.2769
  291MPD2     H 4443   0.107   2.537   0.539  0.5120 -0.4687  0.4473
  291MPD2    H1 4444   4.624   2.860   0.707  1.4836  0.4156 -1.8970
  291MPD2    H2 4445   4.554   2.452   0.850  0.0108  1.2486  1.7217
  291MPD2    H3 4446   4.513   2.694   0.864  1.3746 -1.6371  2.4111
  291MPD2     N 4447   0.074   2.800   0.539 -0.3890  0.1744 -0.1785
  291MPD2    H5 4448   0.054   2.897   0.559  0.5772  0.3401  0.0250
  291MPD2    N1 4449   0.007   2.332   0.704  0.2742  0.0381  0.7236
  291MPD2    H7 4450   4.682   2.273   0.763 -1.0880  0.8349  0.1843
  292TMC3    C1 4451   0.108   2.132   0.670  0.8036 -0.5052 -0.8740
  292TMC3    C2 4452   0.103   2.112   0.804  0.1671  0.7964 -0.5563
  292TMC3    C3 4453   0.073   1.986   0.853 -0.2539  0.8573  0.0138
  292TMC3    C4 4454   0.058   2.039   0.582  0.3189  0.6347  0.5496
  292TMC3    C5 4455   0.017   1.918   0.638 -0.9000  0.5333  0.2188
  292TMC3    C6 4456   0.027   1.889   0.768  0.4368  0.1267 -0.1243
  292TMC3     C 4457   0.098   2.271   0.624  0.1091  0.3499  0.4090
  292TMC3     O 4458   0.143   2.306   0.516 -0.1194  0.3189  0.6781
  292TMC3     H 4459   0.124   2.193   0.874  1.1925  1.1803 -1.3136
  292TMC3    H1 4460   0.044   2.059   0.476 -0.9229 -1.9538  0.2157
  292TMC3    H2 4461   0.004   1.788   0.798 -3.1182 -0.0474 -3.4601
  292TMC3    C7 4462   4.683   1.830   0.550  0.7777 -0.3594 -0.4590
  292TMC3    C8 4463   0.083   1.966   0.994 -0.1256 -0.0694  0.3831
  292TMC3    O1 4464   0.019   1.773   0.464 -0.1296  0.2640 -0.0956
  292TMC3    O2 4465   0.165   2.030   1.058  0.8070  0.0483  0.1539
  293MPD2     C 4466   1.761   3.589  12.835 -0.1742 -0.0133  0.1047
  293MPD2    C1 4467   1.641   3.577  12.903 -0.5794  0.3142  0.4848
  293MPD2    C2 4468   1.641   3.560  13.040  0.2653 -0.8528 -0.1422
  293MPD2    C3 4469   1.760   3.558  13.110  0.0254 -0.3593 -0.5254
  293MPD2    C4 4470   1.879   3.566  13.043 -0.3233  0.0801 -0.1771
  293MPD2    C5 4471   1.879   3.566  12.902 -0.2858 -0.6375 -0.2012
  293MPD2     H 4472   1.546   3.555  13.091  0.9278  0.1231  1.1728
  293MPD2    H1 4473   1.977   3.577  13.089  0.2471 -0.5135 -1.2255
  293MPD2    H2 4474   1.754   3.605  12.728 -1.8909  0.0671  0.2327
  293MPD2    H3 4475   1.971   3.578  12.845 -0.9215  0.5624 -0.9735
  293MPD2     N 4476   1.751   3.548  13.251  0.7909  0.2376  0.0966
  293MPD2    H5 4477   1.656   3.529  13.281  0.7678  1.6764  0.9138
  293MPD2    N1 4478   1.523   3.589  12.824 -0.3515 -0.2084  0.1323
  293MPD2    H7 4479   1.535   3.609  12.726 -0.1488 -1.9238 -0.1822
  294TMC3    C1 4480   1.299   3.576  12.749  0.3396  0.0330 -0.1908
  294TMC3    C2 4481   1.205   3.473  12.754  0.1131  0.2319 -0.4875
  294TMC3    C3 4482   1.115   3.452  12.650 -0.2678  0.7142  0.0989
  294TMC3    C4 4483   1.322   3.642  12.635 -0.9079 -0.0931  0.5051
  294TMC3    C5 4484   1.235   3.625  12.530 -0.0828 -0.2136  0.6689
  294TMC3    C6 4485   1.137   3.524  12.532 -0.0715  0.0969 -0.2277
  294TMC3     C 4486   1.395   3.569  12.859  0.0789 -0.5487 -0.3104
  294TMC3     O 4487   1.348   3.540  12.969 -0.1115 -0.4452  0.4148
  294TMC3     H 4488   1.186   3.410  12.840 -1.6003  1.8543  0.3269
  294TMC3    H1 4489   1.385   3.730  12.632  0.6620 -1.2587 -0.2601
  294TMC3    H2 4490   1.067   3.538  12.450 -0.7262 -1.1034  0.1328
  294TMC3    C7 4491   1.268   3.670  12.396 -0.0545  0.1653  0.1160
  294TMC3    C8 4492   0.980   3.397  12.682  0.3997 -0.6432  0.3169
  294TMC3    O1 4493   1.319   3.779  12.380  0.3991 -0.7665  0.0284
  294TMC3    O2 4494   0.927   3.420  12.790 -0.3080 -0.8018  0.5690
  295MPD2     C 4495   2.901   2.487   0.727 -0.0526 -0.6412 -0.3666
  295MPD2    C1 4496   2.781   2.420   0.705 -0.8105  0.1314  0.6035
  295MPD2    C2 4497   2.747   2.316   0.782 -0.2433  0.0305 -0.3347
  295MPD2    C3 4498   2.824   2.289   0.895 -0.9421  0.1829 -0.8702
  295MPD2    C4 4499   2.945   2.349   0.905 -0.3937  0.3397  0.1311
  295MPD2    C5 4500   2.983   2.444   0.824  0.1280 -1.0965 -0.2035
  295MPD2     H 4501   2.654   2.267   0.756 -0.1285 -0.9875  1.1325
  295MPD2    H1 4502   3.017   2.325   0.983  1.3725 -0.8758 -1.8553
  295MPD2    H2 4503   2.938   2.562   0.658  1.4344  0.5909  1.7649
  295MPD2    H3 4504   3.080   2.487   0.845  0.3349 -1.3494 -0.6408
  295MPD2     N 4505   2.793   2.196   1.000 -0.0456 -0.9155 -0.0144
  295MPD2    H5 4506   2.865   2.172   1.067  0.7865 -0.4101 -0.7244
  295MPD2    N1 4507   2.684   2.463   0.612 -0.2456 -0.2685 -0.8235
  295MPD2    H7 4508   2.599   2.410   0.598  1.4706 -2.9165 -1.2888
  296TMC3    C1 4509   2.648   2.045   1.108  0.0216 -0.0649 -0.0027
  296TMC3    C2 4510   2.529   2.052   1.181 -0.6309  0.1862 -0.1164
  296TMC3    C3 4511   2.505   1.943   1.265  0.3374 -0.0044 -0.9438
  296TMC3    C4 4512   2.743   1.948   1.126  0.0865  0.2462  0.6222
  296TMC3    C5 4513   2.712   1.842   1.208 -0.2808 -0.5194 -0.0602
  296TMC3    C6 4514   2.594   1.841   1.280 -0.4144 -0.2817 -0.4514
  296TMC3     C 4515   2.668   2.138   1.003 -0.3615  0.2543  0.1442
  296TMC3     O 4516   2.564   2.160   0.941 -0.1617  0.1690  0.0121
  296TMC3     H 4517   2.467   2.140   1.168 -0.5066  0.3413  0.3553
  296TMC3    H1 4518   2.839   1.964   1.078  0.0416  1.7411  1.0329
  296TMC3    H2 4519   2.581   1.768   1.359  2.6770 -1.0625 -0.6891
  296TMC3    C7 4520   2.800   1.737   1.205  0.0161  0.1351 -0.4796
  296TMC3    C8 4521   2.389   1.941   1.342  0.0752  0.0424 -0.4031
  296TMC3    O1 4522   2.914   1.768   1.169  0.2092  0.2949 -0.5361
  296TMC3    O2 4523   2.376   1.852   1.420  0.6565  0.1491 -0.1987
  297MPD2     C 4524   4.149   4.049  16.656 -0.1456 -0.0893 -0.6014
  297MPD2    C1 4525   4.113   4.125  16.542  0.3998  1.1574 -0.1700
  297MPD2    C2 4526   4.189   4.239  16.517 -0.2101 -0.1238  0.5830
  297MPD2    C3 4527   4.291   4.277  16.602  0.3375 -0.6915 -0.5615
  297MPD2    C4 4528   4.318   4.208  16.715 -0.0846 -0.2486 -0.2300
  297MPD2    C5 4529   4.251   4.089  16.738  0.0240 -0.6537  0.1961
  297MPD2     H 4530   4.160   4.290  16.426  0.1301 -1.4115 -0.2382
  297MPD2    H1 4531   4.395   4.240  16.785 -0.1308  0.4411 -0.4973
  297MPD2    H2 4532   4.103   3.952  16.670 -2.7690  1.6211  2.5298
  297MPD2    H3 4533   4.266   4.027  16.825  1.2818 -2.3197 -1.2069
  297MPD2     N 4534   4.361   4.400  16.563  0.3888  0.0212  0.4512
  297MPD2    H5 4535   4.326   4.449  16.481  0.3761 -1.9463 -0.7022
  297MPD2    N1 4536   4.004   4.102  16.460 -0.1695  0.5502  0.2655
  297MPD2    H7 4537   3.997   4.152  16.371  0.5029 -0.5492 -0.4095
  298TMC3    C1 4538   3.786   4.014  16.391 -0.0836 -0.8714  0.2701
  298TMC3    C2 4539   3.792   4.040  16.252 -0.1899 -0.6128 -0.7135
  298TMC3    C3 4540   3.690   4.108  16.192 -0.1007 -0.0541 -0.0451
  298TMC3    C4 4541   3.681   4.068  16.462  0.0475  0.1652  0.8255
  298TMC3    C5 4542   3.596   4.156  16.399 -0.1859 -0.3742 -0.3055
  298TMC3    C6 4543   3.595   4.173  16.265  0.8960  0.0963 -0.8307
  298TMC3     C 4544   3.905   4.009  16.478  0.1779 -0.3458  0.6372
  298TMC3     O 4545   3.888   3.942  16.578  0.0592 -0.2567 -0.4246
  298TMC3     H 4546   3.880   4.009  16.198 -0.1286 -2.0727  0.2363
  298TMC3    H1 4547   3.668   4.047  16.568  0.8351 -0.7778  0.7303
  298TMC3    H2 4548   3.506   4.213  16.218  1.1564  0.7549 -0.7600
  298TMC3    C7 4549   3.513   4.241  16.484 -0.3394 -0.9217 -0.4499
  298TMC3    C8 4550   3.687   4.118  16.052 -0.0274  0.0630  0.3102
  298TMC3    O1 4551   3.512   4.212  16.606 -0.5859  0.2616 -0.0605
  298TMC3    O2 4552   3.717   4.019  15.985 -0.2311  0.2737  0.4589
  299MPD2     C 4553   4.168   3.940  10.874 -0.0311  0.6138  0.2465
  299MPD2    C1 4554   4.267   4.003  10.803 -0.1294 -0.2110  0.3466
  299MPD2    C2 4555   4.252   4.005  10.668 -0.9526  0.0285 -0.1058
  299MPD2    C3 4556   4.138   3.958  10.609 -0.0557 -1.1679  0.5423
  299MPD2    C4 4557   4.035   3.904  10.684  0.5858  0.1563  0.3983
  299MPD2    C5 4558   4.055   3.890  10.812 -0.8716  0.0129 -0.4058
  299MPD2     H 4559   4.334   4.044  10.609  0.2524 -1.2720  0.7103
  299MPD2    H1 4560   3.947   3.857  10.641  0.5449  1.1727 -0.6116
  299MPD2    H2 4561   4.174   3.932  10.982  1.4458 -2.8749 -0.0857
  299MPD2    H3 4562   3.989   3.833  10.877 -0.0839  1.5656  1.7312
  299MPD2     N 4563   4.123   3.962  10.472  0.2745  0.3638 -0.2154
  299MPD2    H5 4564   4.030   3.942  10.436  0.0409  1.3685 -0.1616
  299MPD2    N1 4565   4.375   4.040  10.879 -0.2378  0.6124  0.3278
  299MPD2    H7 4566   4.401   4.009  10.972 -1.1539 -0.1718  0.3124
  300TMC3    C1 4567   4.169   3.992  10.237 -0.1738  0.3394  0.1915
  300TMC3    C2 4568   4.205   4.108  10.175  0.8656 -0.0801 -0.3695
  300TMC3    C3 4569   4.126   4.155  10.068  0.5541  0.5657  0.4174
  300TMC3    C4 4570   4.057   3.923  10.200 -0.4532 -0.3823  0.2788
  300TMC3    C5 4571   3.983   3.969  10.096  0.4966  0.3922 -0.3790
  300TMC3    C6 4572   4.012   4.090  10.038  0.2971  0.3544  0.2458
  300TMC3     C 4573   4.222   3.979  10.375  0.7467  0.0285  0.3570
  300TMC3     O 4574   4.338   4.016  10.391  0.0714 -0.5397 -0.0301
  300TMC3     H 4575   4.290   4.159  10.220 -0.3785  1.1312  0.5935
  300TMC3    H1 4576   4.030   3.832  10.252  1.6504 -1.0721  0.1532
  300TMC3    H2 4577   3.952   4.129   9.956  0.6686 -1.5587 -0.9282
  300TMC3    C7 4578   3.847   3.912  10.080  0.3195 -0.2538  0.2117
  300TMC3    C8 4579   4.114   4.297  10.093 -0.7295  0.1951 -0.0681
  300TMC3    O1 4580   3.802   3.923   9.969 -0.3608 -0.0999 -0.0471
  300TMC3    O2 4581   4.209   4.359  10.135  0.2214 -0.0371  0.8360
  301MPD2     C 4582   2.322   0.892   0.988  0.5230 -0.3452  0.1159
  301MPD2    C1 4583   2.213   0.863   1.066  0.4148  1.6819 -0.0699
  301MPD2    C2 4584   2.186   0.731   1.102 -0.4214 -0.9933  0.1065
  301MPD2    C3 4585   2.268   0.625   1.063 -0.3393 -0.4112  0.9335
  301MPD2    C4 4586   2.375   0.651   0.988  0.3842 -1.1489  0.0217
  301MPD2    C5 4587   2.397   0.783   0.951  0.0250  0.3406  0.2806
  301MPD2     H 4588   2.096   0.725   1.161  0.0171 -0.3813  0.8318
  301MPD2    H1 4589   2.435   0.570   0.951  1.6417 -0.3440  0.2968
  301MPD2    H2 4590   2.336   0.989   0.941  1.3004 -0.0854  0.8769
  301MPD2    H3 4591   2.470   0.796   0.872 -0.4838 -1.9224 -0.5531
  301MPD2     N 4592   2.234   0.490   1.086 -0.5406 -0.3373  0.5280
  301MPD2    H5 4593   2.303   0.418   1.068 -1.0684 -0.7854  0.2928
  301MPD2    N1 4594   2.109   0.953   1.104 -0.1252  0.0105 -0.3780
  301MPD2    H7 4595   2.039   0.911   1.163  1.7715 -1.9030  0.5172
  302TMC3    C1 4596   2.122   0.298   1.148  0.4246  0.0599  0.1547
  302TMC3    C2 4597   2.229   0.238   1.216  0.1369 -0.3809  0.5748
  302TMC3    C3 4598   2.204   0.113   1.259 -0.4038 -0.0984  0.0688
  302TMC3    C4 4599   1.998   0.239   1.140  0.5543  0.0851 -0.3144
  302TMC3    C5 4600   1.987   0.112   1.182 -0.0801 -0.2649  0.2828
  302TMC3    C6 4601   2.087   0.043   1.249 -0.2006 -0.1474  0.2835
  302TMC3     C 4602   2.112   0.442   1.125  0.4537  0.3650  0.0671
  302TMC3     O 4603   2.003   0.495   1.132 -0.0382  0.2077  0.1286
  302TMC3     H 4604   2.321   0.290   1.239 -0.6252  1.8866 -1.5404
  302TMC3    H1 4605   1.922   0.303   1.097 -0.3324 -1.4754 -1.0591
  302TMC3    H2 4606   2.075   4.671   1.272  2.2998 -0.2363  1.0758
  302TMC3    C7 4607   1.856   0.045   1.183  0.0717  0.0914  0.2944
  302TMC3    C8 4608   2.295   0.049   1.354 -0.0014 -0.5408 -0.8678
  302TMC3    O1 4609   1.856   4.655   1.190  0.0205 -0.1907 -0.1098
  302TMC3    O2 4610   2.308   4.662   1.351  0.1169 -0.3326  0.0121
  303MPD2     C 4611   1.648   2.602  10.347 -0.1859 -0.2060  0.0884
  303MPD2    C1 4612   1.625   2.565  10.216  0.6939 -0.7928 -0.1138
  303MPD2    C2 4613   1.490   2.561  10.178 -0.0349  0.1969 -0.0991
  303MPD2    C3 4614   1.392   2.592  10.266  0.0630 -0.1387  0.2980
  303MPD2    C4 4615   1.424   2.637  10.393 -0.0129  0.5519 -0.9297
  303MPD2    C5 4616   1.551   2.639  10.431 -0.2580  0.4885 -0.8637
  303MPD2     H 4617   1.468   2.527  10.077 -0.8812  3.4442 -0.9994
  303MPD2    H1 4618   1.343   2.651  10.464  1.9226  1.1604  1.1353
  303MPD2    H2 4619   1.748   2.595  10.389  0.2509  2.0186 -0.5671
  303MPD2    H3 4620   1.567   2.656  10.536 -1.4434 -2.4183 -0.1979
  303MPD2     N 4621   1.259   2.595  10.240 -0.0830 -0.2429  0.3098
  303MPD2    H5 4622   1.184   2.620  10.303  0.7231  2.3662  0.2321
  303MPD2    N1 4623   1.731   2.527  10.132 -0.2018  0.2986  0.1866
  303MPD2    H7 4624   1.823   2.528  10.175  0.6477 -1.5334 -1.6190
  304TMC3    C1 4625   1.853   2.417   9.968  0.2494  0.0323  0.1266
  304TMC3    C2 4626   1.930   2.367  10.066 -0.4021 -0.6360  0.2915
  304TMC3    C3 4627   2.010   2.268  10.030 -0.0436  0.3560  0.5427
  304TMC3    C4 4628   1.858   2.381   9.832 -0.4419 -0.3682 -0.2933
  304TMC3    C5 4629   1.953   2.295   9.802 -0.6862  0.3422 -0.2906
  304TMC3    C6 4630   2.029   2.231   9.901  0.3208  0.3437  0.3082
  304TMC3     C 4631   1.725   2.476  10.007  0.0254  0.0582  0.5516
  304TMC3     O 4632   1.630   2.454   9.933  0.4053 -0.3252  0.2355
  304TMC3     H 4633   1.916   2.377  10.174 -1.0074  1.3162  0.0357
  304TMC3    H1 4634   1.790   2.423   9.759 -1.2740 -0.8702  0.1877
  304TMC3    H2 4635   2.102   2.157   9.872  0.7815  0.6746  0.6251
  304TMC3    C7 4636   1.936   2.209   9.689 -0.8246  0.2991 -0.0354
  304TMC3    C8 4637   1.993   2.145  10.110 -0.3929  0.8254  0.1896
  304TMC3    O1 4638   1.951   2.092   9.713 -0.6755  0.0624  0.2700
  304TMC3    O2 4639   1.988   2.159  10.231  0.0042  0.5484  0.0086
  305MPD2     C 4640   0.191   0.556  14.111  0.3802  0.4384 -0.1018
  305MPD2    C1 4641   0.292   0.636  14.056  0.1836 -0.6638 -0.0359
  305MPD2    C2 4642   0.282   0.656  13.921 -0.4816  0.1380  0.3630
  305MPD2    C3 4643   0.182   0.606  13.834  0.0608  0.6991  0.3655
  305MPD2    C4 4644   0.098   0.516  13.894  0.2874  0.1504 -0.0116
  305MPD2    C5 4645   0.102   0.496  14.030  0.7134  0.3610  0.3863
  305MPD2     H 4646   0.349   0.732  13.881 -0.8450  0.7476  0.9018
  305MPD2    H1 4647   0.014   0.470  13.843 -0.3762  0.4042  0.8352
  305MPD2    H2 4648   0.201   0.521  14.213 -1.1943 -2.7173 -1.0493
  305MPD2    H3 4649   0.032   0.421  14.064 -2.9908  3.0264 -1.2811
  305MPD2     N 4650   0.169   0.626  13.696  0.0263  0.5101  0.4873
  305MPD2    H5 4651   0.089   0.582  13.652  0.8168  0.3070 -0.7505
  305MPD2    N1 4652   0.385   0.682  14.147  0.4188  0.6217  0.2998
  305MPD2    H7 4653   0.365   0.666  14.245  0.6028 -1.2739  0.0237
  306TMC3    C1 4654   0.579   0.781  14.231 -0.3964  0.3515 -0.3991
  306TMC3    C2 4655   0.705   0.726  14.233  0.8873 -0.3319 -0.1147
  306TMC3    C3 4656   0.791   0.758  14.332  0.1675 -0.2669 -0.6170
  306TMC3    C4 4657   0.530   0.850  14.338 -0.1812 -0.6762  0.0078
  306TMC3    C5 4658   0.621   0.893  14.431 -0.1075  0.0872  0.8401
  306TMC3    C6 4659   0.756   0.847  14.432 -0.4699  0.8965 -0.2246
  306TMC3     C 4660   0.506   0.735  14.112 -0.5601  0.0285  0.3033
  306TMC3     O 4661   0.572   0.712  14.012 -0.8270 -0.2592  0.0924
  306TMC3     H 4662   0.736   0.656  14.156  0.7453 -0.2981 -0.2030
  306TMC3    H1 4663   0.431   0.893  14.349 -0.4882 -0.7664 -2.6311
  306TMC3    H2 4664   0.828   0.889  14.501  0.2802 -0.3193 -0.2719
  306TMC3    C7 4665   0.566   0.977  14.538 -0.4134  0.2356 -0.7984
  306TMC3    C8 4666   0.929   0.719  14.318 -1.0216  0.0899  0.1153
  306TMC3    O1 4667   0.463   1.036  14.509  0.1116 -0.5141  0.3516
  306TMC3    O2 4668   0.955   0.667  14.208 -0.1967 -0.1726  0.4669
  307MPD2     C 4669   3.308   3.587   0.736 -0.1608  0.5724  0.8392
  307MPD2    C1 4670   3.268   3.704   0.676 -0.3927 -0.5530  0.1836
  307MPD2    C2 4671   3.199   3.792   0.751 -0.2049  0.0168 -0.0491
  307MPD2    C3 4672   3.172   3.776   0.885 -0.2418  1.0190  0.0507
  307MPD2    C4 4673   3.205   3.660   0.944  0.0083 -0.8950 -0.2807
  307MPD2    C5 4674   3.269   3.564   0.873  0.3214 -0.1509  0.2997
  307MPD2     H 4675   3.177   3.882   0.695  1.1799 -0.6430 -1.6539
  307MPD2    H1 4676   3.170   3.637   1.044  2.0385  0.1426  0.6683
  307MPD2    H2 4677   3.362   3.508   0.685 -2.8461 -1.3297  0.9056
  307MPD2    H3 4678   3.294   3.472   0.925 -1.7567 -0.2400  1.1090
  307MPD2     N 4679   3.103   3.876   0.942 -0.1152 -0.3978 -0.4966
  307MPD2    H5 4680   3.072   3.951   0.882  1.5764 -0.2253 -1.1517
  307MPD2    N1 4681   3.296   3.732   0.542 -0.1281 -0.7643 -0.1362
  307MPD2    H7 4682   3.255   3.819   0.509 -0.9965 -1.2942 -0.4577
  308TMC3    C1 4683   2.843   4.144   1.219  0.2675  0.1247 -0.4316
  308TMC3    C2 4684   2.867   4.255   1.140 -0.0253  0.5729  0.4555
  308TMC3    C3 4685   2.955   4.236   1.033  0.4813  0.2420  0.3742
  308TMC3    C4 4686   2.917   4.028   1.207 -0.2692  0.2480 -0.0977
  308TMC3    C5 4687   2.995   4.014   1.097  0.2629 -0.2908 -0.2767
  308TMC3    C6 4688   3.014   4.121   1.013 -0.0637 -0.5485 -0.6561
  308TMC3     C 4689   2.723   4.122   1.287 -0.2278 -0.0687 -0.6380
  308TMC3     O 4690   2.722   4.050   1.384  0.4554  0.4742 -0.2390
  308TMC3     H 4691   2.813   4.348   1.153 -0.5179  0.4746 -0.8849
  308TMC3    H1 4692   2.878   3.941   1.257 -1.2839 -0.4418 -2.0676
  308TMC3    H2 4693   3.082   4.107   0.929  1.8914  0.5527  0.7464
  308TMC3    C7 4694   3.063   3.891   1.075 -0.2415 -0.0205 -0.3335
  308TMC3    C8 4695   2.972   4.348   0.938  0.2716 -0.0442 -0.1694
  308TMC3    O1 4696   3.080   3.811   1.171 -0.1274  0.6863 -0.0491
  308TMC3    O2 4697   2.992   4.318   0.821 -0.1698  0.0597 -0.2141
  309MPD2     C 4698   2.140   3.939  17.225 -0.4426  0.3521 -0.0389
  309MPD2    C1 4699   2.053   4.008  17.145  0.4903 -0.5043  0.8198
  309MPD2    C2 4700   1.941   4.067  17.207 -0.1382  0.1558  0.0139
  309MPD2    C3 4701   1.919   4.054  17.342  0.4262  0.5269 -0.0655
  309MPD2    C4 4702   2.002   3.977  17.417  0.4978  0.3306 -0.3750
  309MPD2    C5 4703   2.118   3.930  17.359  0.4638  0.0382  0.5651
  309MPD2     H 4704   1.878   4.142  17.160 -1.2131 -0.1805  0.9266
  309MPD2    H1 4705   2.008   3.964  17.524 -0.8013  3.9792  0.1160
  309MPD2    H2 4706   2.219   3.873  17.190 -0.9095 -1.0055  1.4766
  309MPD2    H3 4707   2.196   3.875  17.411  2.6276 -1.1487 -3.8864
  309MPD2     N 4708   1.811   4.121  17.405 -0.3080  0.5264  0.1065
  309MPD2    H5 4709   1.729   4.143  17.349 -0.3454  3.4111  1.2916
  309MPD2    N1 4710   2.068   4.022  17.004 -0.1605 -0.0796  0.0595
  309MPD2    H7 4711   1.999   4.075  16.952 -0.0211 -1.1427 -1.2108
  310TMC3    C1 4712   2.201   4.027  16.799 -0.2178 -0.1204 -0.4048
  310TMC3    C2 4713   2.109   4.103  16.734  0.1892  0.0141  0.4519
  310TMC3    C3 4714   2.139   4.181  16.621  0.1289 -0.4386 -0.0388
  310TMC3    C4 4715   2.334   4.034  16.753  0.2809 -0.4824 -0.2219
  310TMC3    C5 4716   2.364   4.112  16.640 -0.3798 -0.4369  0.1161
  310TMC3    C6 4717   2.266   4.179  16.570 -0.8863  0.1609  0.1188
  310TMC3     C 4718   2.181   3.975  16.934  0.1250  0.0850 -0.5059
  310TMC3     O 4719   2.266   3.895  16.974  0.2940  0.5922 -0.2605
  310TMC3     H 4720   2.008   4.100  16.774 -0.0732  2.0734 -0.0882
  310TMC3    H1 4721   2.409   3.972  16.801 -0.4285 -1.8946 -0.9396
  310TMC3    H2 4722   2.288   4.246  16.488  0.5068 -1.9021 -1.2135
  310TMC3    C7 4723   2.489   4.079  16.578  0.3311 -0.6497 -0.0778
  310TMC3    C8 4724   2.040   4.257  16.547 -0.0145 -0.3441  0.7679
  310TMC3    O1 4725   2.480   4.068  16.456  0.0697  1.0016 -0.5492
  310TMC3    O2 4726   2.072   4.271  16.428 -0.0029  0.5755  0.2620
  311MPD2     C 4727   4.124   0.163  12.699  0.0051 -0.2392 -0.3538
  311MPD2    C1 4728   4.119   0.268  12.783 -0.0501 -1.1315  0.0474
  311MPD2    C2 4729   4.013   0.287  12.864 -0.7297  0.5362  1.0364
  311MPD2    C3 4730   3.906   0.201  12.855  0.4829  0.4100 -0.4348
  311MPD2    C4 4731   3.915   0.089  12.772  0.4439 -0.3144 -0.0259
  311MPD2    C5 4732   4.025   0.069  12.693  0.2742 -0.3027 -0.0343
  311MPD2     H 4733   4.007   0.373  12.930  0.2469  1.1631  0.2962
  311MPD2    H1 4734   3.833   0.017  12.768 -0.7869  1.0827 -0.1163
  311MPD2    H2 4735   4.209   0.135  12.638  0.2441  0.1762 -0.2082
  311MPD2    H3 4736   4.044   4.715  12.632  0.9720 -0.7155  0.7778
  311MPD2     N 4737   3.794   0.230  12.943 -0.2137 -0.4286  0.0740
  311MPD2    H5 4738   3.795   0.316  12.996  0.3548 -0.0060 -0.6250
  311MPD2    N1 4739   4.218   0.370  12.786 -0.6008  0.2152 -0.3032
  311MPD2    H7 4740   4.216   0.437  12.862 -1.0765 -1.0633  0.8031
  312TMC3    C1 4741   3.581   0.222  13.053  0.8535 -0.2630  0.5479
  312TMC3    C2 4742   3.450   0.182  13.043  0.9527  0.3474 -1.0669
  312TMC3    C3 4743   3.367   0.251  13.128 -0.7854  0.1814 -0.3657
  312TMC3    C4 4744   3.631   0.307  13.147 -0.2777  0.5156 -0.3064
  312TMC3    C5 4745   3.542   0.355  13.241 -0.0829  0.4015  0.5697
  312TMC3    C6 4746   3.406   0.331  13.232  0.0053  0.8179  0.9090
  312TMC3     C 4747   3.676   0.162  12.955 -0.4543 -1.1437  0.4726
  312TMC3     O 4748   3.639   0.055  12.912  0.3929  0.1030  0.3936
  312TMC3     H 4749   3.412   0.139  12.951 -0.5696 -0.2832 -0.1423
  312TMC3    H1 4750   3.737   0.322  13.163 -0.2551 -1.4652  1.4504
  312TMC3    H2 4751   3.345   0.371  13.313 -0.7029  0.6421  0.4622
  312TMC3    C7 4752   3.578   0.439  13.356  0.0764  0.0783  0.3989
  312TMC3    C8 4753   3.235   0.278  13.079 -0.0330 -0.4386 -0.2826
  312TMC3    O1 4754   3.513   0.421  13.465 -0.8703 -0.0655 -0.1669
  312TMC3    O2 4755   3.214   0.247  12.963 -0.3708 -0.2078  0.1965
  313MPD2     C 4756   3.472   4.536  10.772 -0.5357  0.3094  0.2738
  313MPD2    C1 4757   3.389   4.480  10.877  0.2734  0.0306 -0.0038
  313MPD2    C2 4758   3.300   4.385  10.841  0.5743 -0.4035  0.2181
  313MPD2    C3 4759   3.275   4.362  10.708  0.0335  0.1770 -0.8914
  313MPD2    C4 4760   3.358   4.416  10.608  0.4425  0.0733  0.0029
  313MPD2    C5 4761   3.463   4.501  10.645  0.2373 -0.5578  0.4103
  313MPD2     H 4762   3.246   4.341  10.925  1.4028  0.8921  1.4257
  313MPD2    H1 4763   3.346   4.401  10.502 -0.6108  2.5826 -0.2313
  313MPD2    H2 4764   3.553   4.604  10.797 -0.8465  1.3639 -1.5856
  313MPD2    H3 4765   3.530   4.550  10.575 -1.4165  2.0580  0.6627
  313MPD2     N 4766   3.178   4.264  10.674  0.5835  0.0539 -0.0367
  313MPD2    H5 4767   3.124   4.230  10.753 -0.0819  0.0235 -0.5050
  313MPD2    N1 4768   3.394   4.527  11.011  0.0529 -0.1002 -0.6803
  313MPD2    H7 4769   3.317   4.497  11.069 -0.2147  1.3832 -0.2696
  314TMC3    C1 4770   3.431   4.711  11.156  0.6853  0.4443  0.7282
  314TMC3    C2 4771   3.509   0.093  11.172  0.0061 -0.3389  0.3421
  314TMC3    C3 4772   3.442   0.199  11.232 -0.1550 -0.0693 -0.5551
  314TMC3    C4 4773   3.295   4.718  11.184 -0.2246  0.3009 -0.3258
  314TMC3    C5 4774   3.238   0.092  11.244 -0.2436  0.1416 -0.2379
  314TMC3    C6 4775   3.312   0.199  11.275  0.6361  0.3887 -0.7242
  314TMC3     C 4776   3.483   4.627  11.047  0.4061 -0.5860 -0.2760
  314TMC3     O 4777   3.595   4.652  11.003  0.0987  0.1492 -0.0645
  314TMC3     H 4778   3.616   0.108  11.164 -0.4446  3.9020  1.8140
  314TMC3    H1 4779   3.231   4.632  11.167  0.6408 -0.3175 -0.4975
  314TMC3    H2 4780   3.262   0.277  11.330 -1.3827  0.2076 -2.2830
  314TMC3    C7 4781   3.095   0.118  11.209  0.1251 -0.6647  0.1662
  314TMC3    C8 4782   3.512   0.303  11.298 -0.2541  0.3086  0.6611
  314TMC3    O1 4783   3.039   0.214  11.252  0.1422  0.0767  0.2501
  314TMC3    O2 4784   3.483   0.422  11.275 -0.2675  0.0684 -0.2270
  315MPD2     C 4785   3.321   4.374   0.732 -0.0683  0.3464  0.0909
  315MPD2    C1 4786   3.409   4.285   0.675  0.0117  0.3916 -0.6624
  315MPD2    C2 4787   3.481   4.330   0.567  0.8941 -1.0515 -0.2524
  315MPD2    C3 4788   3.475   4.462   0.518  0.2074 -0.3979  0.3866
  315MPD2    C4 4789   3.385   4.545   0.574 -0.2231 -0.4070 -0.0003
  315MPD2    C5 4790   3.309   4.503   0.682 -0.3295  0.0467  0.4318
  315MPD2     H 4791   3.537   4.251   0.518 -2.1011 -3.0296 -0.5247
  315MPD2    H1 4792   3.372   4.648   0.544  1.5739 -0.8154 -2.1805
  315MPD2    H2 4793   3.246   4.341   0.803 -0.9099  1.3248 -0.3413
  315MPD2    H3 4794   3.231   4.567   0.721  1.3283  1.3679  1.6215
  315MPD2     N 4795   3.563   4.496   0.414 -0.1337  0.4467  0.1572
  315MPD2    H5 4796   3.621   4.424   0.371 -0.4265 -1.1670  2.5000
  315MPD2    N1 4797   3.433   4.151   0.714  0.2040 -0.3756 -0.7539
  315MPD2    H7 4798   3.494   4.090   0.661  1.4346 -0.2741  0.5374
  316TMC3    C1 4799   3.691   4.614   0.266 -0.1777  0.2516  0.3065
  316TMC3    C2 4800   3.805   4.589   0.331 -0.3497 -0.7028 -0.3481
  316TMC3    C3 4801   3.905   4.676   0.301  0.5312 -0.4251  0.5702
  316TMC3    C4 4802   3.673   4.692   0.163  0.1580 -0.2013  0.2038
  316TMC3    C5 4803   3.778   0.045   0.136 -0.6305 -1.1080  0.1317
  316TMC3    C6 4804   3.896   0.041   0.209  0.6180 -0.3228  0.1399
  316TMC3     C 4805   3.580   4.613   0.355  0.2554 -0.3696  0.4624
  316TMC3     O 4806   3.513   4.714   0.369 -0.1418 -0.4095  0.0270
  316TMC3     H 4807   3.815   4.518   0.412  1.3879  0.1042  0.1521
  316TMC3    H1 4808   3.574   4.711   0.124  0.7837  6.2190  1.8562
  316TMC3    H2 4809   3.982   0.102   0.186 -0.1149 -0.0079 -1.7859
  316TMC3    C7 4810   3.797   0.083   0.000  0.0391  0.5514  0.1996
  316TMC3    C8 4811   4.008   4.690   0.398  0.1808  0.1018  0.1959
  316TMC3    O1 4812   3.897   0.146  17.709  0.1113 -0.2643 -0.0355
  316TMC3    O2 4813   4.033   0.074   0.429 -0.0322 -0.4651 -0.2909
  317MPD2     C 4814   0.484   2.498  12.816 -0.3942 -0.6426 -0.5005
  317MPD2    C1 4815   0.525   2.372  12.771 -0.2923  0.4724  0.2484
  317MPD2    C2 4816   0.600   2.292  12.867  0.3203 -0.0447 -0.3042
  317MPD2    C3 4817   0.631   2.336  12.990 -0.3923 -0.0768 -0.4618
  317MPD2    C4 4818   0.595   2.470  13.022 -0.2086  0.2229  0.1206
  317MPD2    C5 4819   0.514   2.538  12.941 -0.1747  0.3605  0.7968
  317MPD2     H 4820   0.627   2.190  12.841  1.1147  0.3423 -0.9915
  317MPD2    H1 4821   0.615   2.516  13.118 -0.7020  1.0491 -0.1775
  317MPD2    H2 4822   0.405   2.552  12.765  1.1700  2.4462  0.3443
  317MPD2    H3 4823   0.486   2.638  12.972 -3.3217  0.2326 -1.7113
  317MPD2     N 4824   0.712   2.253  13.077  0.2086  0.2688 -0.3179
  317MPD2    H5 4825   0.747   2.169  13.033  0.8100 -0.3731  1.3740
  317MPD2    N1 4826   0.499   2.323  12.639 -0.1648 -0.6493  0.2487
  317MPD2    H7 4827   0.530   2.229  12.618 -2.3083 -1.0262 -1.2340
  318TMC3    C1 4828   0.864   2.182  13.243 -0.2392  0.4235 -0.2202
  318TMC3    C2 4829   0.807   2.057  13.250  0.1943 -0.1520 -0.8201
  318TMC3    C3 4830   0.850   1.973  13.351 -0.1928 -0.3332  0.2358
  318TMC3    C4 4831   0.965   2.219  13.331 -0.7145 -0.8771 -0.6756
  318TMC3    C5 4832   1.012   2.136  13.424 -0.2480  0.2137 -0.6188
  318TMC3    C6 4833   0.948   2.011  13.438  0.0914 -0.5709 -0.1547
  318TMC3     C 4834   0.771   2.287  13.197 -0.4729  0.1512  0.2419
  318TMC3     O 4835   0.771   2.395  13.256 -0.2853  0.5203  0.1799
  318TMC3     H 4836   0.725   2.030  13.183 -0.0365 -0.3283 -0.4670
  318TMC3    H1 4837   0.992   2.324  13.335 -0.0695 -1.0562 -0.2001
  318TMC3    H2 4838   0.962   1.944  13.522  2.4664  1.2792  0.9296
  318TMC3    C7 4839   1.118   2.181  13.511 -0.2777  0.0960 -0.2970
  318TMC3    C8 4840   0.835   1.827  13.353  0.9159 -0.4634  0.2524
  318TMC3    O1 4841   1.148   2.298  13.508 -0.4055  0.0258  0.5435
  318TMC3    O2 4842   0.904   1.765  13.428 -0.2290 -0.7215  0.4031
  319MPD2     C 4843   1.679   3.862  16.505  0.0392  0.5301  0.1136
  319MPD2    C1 4844   1.599   3.802  16.601  0.1185 -0.4119  0.3860
  319MPD2    C2 4845   1.489   3.724  16.560  0.4802 -0.7470  0.2539
  319MPD2    C3 4846   1.451   3.718  16.428 -0.6500 -0.5786  0.0467
  319MPD2    C4 4847   1.540   3.765  16.334 -0.0804  0.0853  0.4942
  319MPD2    C5 4848   1.649   3.831  16.374 -0.4307  0.7714 -0.6591
  319MPD2     H 4849   1.423   3.676  16.631 -1.2396 -0.3274 -1.0500
  319MPD2    H1 4850   1.527   3.745  16.229 -0.9203  1.1631  0.3842
  319MPD2    H2 4851   1.757   3.934  16.527 -3.1489  3.7617  0.8295
  319MPD2    H3 4852   1.714   3.869  16.296  3.3167 -0.0511  2.0659
  319MPD2     N 4853   1.342   3.644  16.382  0.2224 -0.0862  0.6105
  319MPD2    H5 4854   1.324   3.635  16.282  0.4041 -0.2789  0.5945
  319MPD2    N1 4855   1.631   3.812  16.740 -0.7039 -0.2486 -0.1082
  319MPD2    H7 4856   1.562   3.770  16.803  0.0467 -1.1656  0.0986
  320TMC3    C1 4857   1.137   3.525  16.403 -0.7236 -0.2394  0.6051
  320TMC3    C2 4858   1.072   3.600  16.306 -0.0125  0.1266 -0.0593
  320TMC3    C3 4859   0.949   3.564  16.244 -0.4034  0.2069  1.0831
  320TMC3    C4 4860   1.058   3.426  16.459 -0.2367  0.0188  0.4617
  320TMC3    C5 4861   0.936   3.390  16.405  0.2714 -0.0367  0.2496
  320TMC3    C6 4862   0.882   3.450  16.290  0.1969  0.3725 -0.0040
  320TMC3     C 4863   1.263   3.560  16.456  0.2627 -0.7102  0.1609
  320TMC3     O 4864   1.293   3.504  16.561  0.3561  0.5150  0.4024
  320TMC3     H 4865   1.126   3.685  16.267 -1.2057  0.8742 -0.0973
  320TMC3    H1 4866   1.114   3.371  16.533  0.3166 -0.1574 -0.0936
  320TMC3    H2 4867   0.789   3.412  16.249  0.3301  0.1980 -0.1456
  320TMC3    C7 4868   0.894   3.252  16.418 -0.3046  0.3654 -0.0943
  320TMC3    C8 4869   0.876   3.663  16.168  0.2897 -0.1566 -0.8215
  320TMC3    O1 4870   0.843   3.207  16.315 -0.7536  0.4890  0.3115
  320TMC3    O2 4871   0.914   3.779  16.174 -0.2783 -0.3030  0.6026
  321TMC3    C1 4872   1.774   3.810  16.923 -0.0251  0.7653  0.5059
  321TMC3    C2 4873   1.879   3.723  16.943  0.6271 -0.9448 -0.4575
  321TMC3    C3 4874   1.860   3.617  17.026 -0.6152  0.3688  0.5872
  321TMC3    C4 4875   1.657   3.797  16.990 -0.1951  0.2745  0.0959
  321TMC3    C5 4876   1.641   3.691  17.070  0.0639  0.0299 -0.4077
  321TMC3    C6 4877   1.739   3.596  17.087  0.4098 -0.6758 -0.1558
  321TMC3     C 4878   1.763   3.844  16.788  0.5404  0.4906 -0.3453
  321TMC3     O 4879   1.849   3.908  16.735 -0.0924  0.3627 -0.3201
  321TMC3     H 4880   1.978   3.749  16.906  1.5639 -4.6777 -0.5515
  321TMC3    H1 4881   1.586   3.879  16.984 -1.1189 -0.3998  2.2086
  321TMC3    H2 4882   1.727   3.502  17.139 -0.2158 -0.8045 -0.5268
  321TMC3    C7 4883   1.584   3.727  17.200  0.0231 -0.4634 -0.7337
  321TMC3    C8 4884   1.963   3.597  17.128  0.2364 -0.6645 -0.0500
  321TMC3    O1 4885   1.496   3.809  17.202 -0.0247  0.0476 -0.0733
  321TMC3    O2 4886   1.913   3.565  17.235  0.3692  0.0332 -0.2074
  322MPD2     C 4887   0.415   0.382  13.690 -0.1192  0.4830 -0.4579
  322MPD2    C1 4888   0.412   0.272  13.770 -0.4114  0.5054 -0.5104
  322MPD2    C2 4889   0.412   0.143  13.718 -1.0260 -0.4734 -0.5614
  322MPD2    C3 4890   0.419   0.118  13.587  0.1958 -0.2589 -0.0036
  322MPD2    C4 4891   0.423   0.232  13.506 -0.0492  0.4853  0.3117
  322MPD2    C5 4892   0.410   0.356  13.553  0.2361 -0.1824 -0.6866
  322MPD2     H 4893   0.400   0.063  13.791  0.4992 -0.3157 -0.1348
  322MPD2    H1 4894   0.428   0.213  13.399 -0.0772  0.1382  0.3741
  322MPD2    H2 4895   0.434   0.484  13.722  2.5753  0.3275 -1.6315
  322MPD2    H3 4896   0.399   0.441  13.486 -1.0036  0.8218  0.7745
  322MPD2     N 4897   0.420   4.718  13.546 -0.5499  0.0547 -0.5702
  322MPD2    H5 4898   0.410   4.643  13.614  0.3328  0.1567 -0.3215
  322MPD2    N1 4899   0.414   0.307  13.906  0.1965  0.2108 -0.0398
  322MPD2    H7 4900   0.419   0.406  13.925 -1.8530  0.4102 -0.5490
  323TMC3    C1 4901   0.496   0.294  14.121 -0.1456 -0.0601 -0.1333
  323TMC3    C2 4902   0.567   0.398  14.071  0.1765 -0.6860  0.1607
  323TMC3    C3 4903   0.707   0.398  14.092 -0.7025  0.0880  0.8840
  323TMC3    C4 4904   0.551   0.205  14.207  0.1310 -0.4125  0.5485
  323TMC3    C5 4905   0.681   0.211  14.231  0.2315 -0.3492  0.3731
  323TMC3    C6 4906   0.761   0.304  14.172 -0.0093  0.5886 -0.1781
  323TMC3     C 4907   0.431   0.223  14.018  0.2808  0.6039 -0.2504
  323TMC3     O 4908   0.417   0.104  14.025  0.5264  0.0983 -0.1122
  323TMC3     H 4909   0.530   0.481  14.012 -0.7382 -2.3245 -1.5642
  323TMC3    H1 4910   0.488   0.123  14.240  0.4452  1.0099  4.7696
  323TMC3    H2 4911   0.869   0.297  14.179 -0.3149 -1.2409  2.6163
  323TMC3    C7 4912   0.752   0.097  14.297 -0.1600 -0.8176  0.6406
  323TMC3    C8 4913   0.795   0.430  13.984 -0.3504  0.0164  0.8804
  323TMC3    O1 4914   0.689   4.729  14.307 -0.4055  0.4184  0.5052
  323TMC3    O2 4915   0.889   0.361  13.959  0.6394  0.0784 -0.3112
  324MPD2     C 4916   2.098   0.834  14.463 -0.6015 -0.3221  0.0025
  324MPD2    C1 4917   2.096   0.969  14.494 -0.2073  0.0743 -0.6693
  324MPD2    C2 4918   1.973   1.033  14.504  0.2931 -0.0847 -0.1681
  324MPD2    C3 4919   1.855   0.958  14.473  0.4732  0.4766  0.5573
  324MPD2    C4 4920   1.863   0.827  14.443 -0.2933  0.5640 -0.2774
  324MPD2    C5 4921   1.983   0.765  14.426 -0.6999  0.3646  0.0166
  324MPD2     H 4922   1.973   1.141  14.516 -2.1531  0.0166 -0.8963
  324MPD2    H1 4923   1.778   0.764  14.422  1.1848 -1.0968 -1.3615
  324MPD2    H2 4924   2.189   0.777  14.451  1.0068  2.4925 -1.0383
  324MPD2    H3 4925   1.983   0.660  14.398  1.0778  0.9052 -1.9839
  324MPD2     N 4926   1.722   1.009  14.495  0.0508 -0.1114 -0.4130
  324MPD2    H5 4927   1.645   0.946  14.515  0.9351 -0.5057  1.7832
  324MPD2    N1 4928   2.208   1.053  14.509 -0.5960  0.3391 -1.0009
  324MPD2    H7 4929   2.193   1.153  14.501  0.7344  0.5346 -1.0282
  325TMC3    C1 4930   1.557   1.171  14.549  0.4250 -0.6555  0.1909
  325TMC3    C2 4931   1.450   1.094  14.525 -0.3363 -0.3017  0.3256
  325TMC3    C3 4932   1.329   1.138  14.568 -0.5480 -0.2290  0.6436
  325TMC3    C4 4933   1.556   1.298  14.600  0.0760  0.1390  0.0115
  325TMC3    C5 4934   1.432   1.339  14.641 -0.3963  0.4350  0.1169
  325TMC3    C6 4935   1.317   1.265  14.624  0.2064  0.3636 -0.3325
  325TMC3     C 4936   1.691   1.140  14.499 -0.2681  0.4728  0.7844
  325TMC3     O 4937   1.759   1.231  14.466  0.1038 -0.0060 -0.6828
  325TMC3     H 4938   1.455   0.998  14.476 -0.3306 -0.3057  0.3339
  325TMC3    H1 4939   1.643   1.363  14.608  0.0031  0.5631 -2.6008
  325TMC3    H2 4940   1.220   1.308  14.648 -1.0251 -0.7169 -3.2359
  325TMC3    C7 4941   1.430   1.473  14.699  0.2505  0.8202 -0.2873
  325TMC3    C8 4942   1.213   1.091  14.486  0.2110  0.7593 -0.6130
  325TMC3    O1 4943   1.538   1.513  14.742  0.2354 -0.3249 -0.4839
  325TMC3    O2 4944   1.248   1.026  14.389  0.2174  0.2858 -0.3247
  326MPD2     C 4945   2.957   2.073  11.259 -0.8292  0.2208  0.2764
  326MPD2    C1 4946   3.015   2.014  11.147  0.1184 -0.0254  0.5415
  326MPD2    C2 4947   3.144   2.048  11.117 -0.4312 -0.3076  0.4607
  326MPD2    C3 4948   3.220   2.135  11.199 -0.9504 -0.2199  0.2923
  326MPD2    C4 4949   3.159   2.189  11.311  0.0570 -0.6531  0.4997
  326MPD2    C5 4950   3.035   2.150  11.344  0.0928 -0.2817 -0.0764
  326MPD2     H 4951   3.198   2.015  11.029 -1.8145  0.9481 -0.8450
  326MPD2    H1 4952   3.212   2.257  11.377  0.5053  0.2187 -0.7680
  326MPD2    H2 4953   2.857   2.056  11.299  0.7386 -0.1809  4.0623
  326MPD2    H3 4954   3.004   2.169  11.446  1.5641 -1.5698  0.6137
  326MPD2     N 4955   3.353   2.169  11.168 -0.1468 -0.2733 -0.7987
  326MPD2    H5 4956   3.409   2.211  11.242  0.1788 -2.0922  0.0059
  326MPD2    N1 4957   2.940   1.915  11.069 -0.4850  0.6261 -0.4236
  326MPD2    H7 4958   2.844   1.897  11.096 -0.1653 -1.1887 -0.5143
  327TMC3    C1 4959   2.902   1.798  10.873 -1.0935  0.1627  0.4182
  327TMC3    C2 4960   2.809   1.890  10.838 -1.2004  0.3890 -0.2173
  327TMC3    C3 4961   2.782   1.900  10.707  0.2599 -0.5127  0.0323
  327TMC3    C4 4962   2.967   1.720  10.787  0.3891 -0.0522 -0.3601
  327TMC3    C5 4963   2.956   1.750  10.654 -0.1122 -0.4212 -0.4294
  327TMC3    C6 4964   2.854   1.835  10.614  0.1100  0.6373  0.3083
  327TMC3     C 4965   2.998   1.845  10.971 -0.3489  0.7267  0.6858
  327TMC3     O 4966   3.116   1.822  10.952  0.2301  0.0370 -0.0922
  327TMC3     H 4967   2.760   1.960  10.904  1.3106  0.5467  1.5096
  327TMC3    H1 4968   3.041   1.656  10.834  0.4764  0.2281 -0.1193
  327TMC3    H2 4969   2.843   1.848  10.507 -0.1653  1.8254  0.4822
  327TMC3    C7 4970   3.079   1.794  10.579  0.3379  0.4075  0.2518
  327TMC3    C8 4971   2.657   1.960  10.657 -0.4917 -0.0315 -0.3386
  327TMC3    O1 4972   3.061   1.847  10.470 -0.4716 -0.0978 -0.7717
  327TMC3    O2 4973   2.608   2.044  10.732  0.6627  0.2774  0.4870
  328MPD2     C 4974   1.080   2.545  17.491  0.1463 -0.1003  0.2280
  328MPD2    C1 4975   1.007   2.469  17.397  0.4718  0.7827 -0.1632
  328MPD2    C2 4976   0.977   2.527  17.272  0.0957  0.6068 -0.1017
  328MPD2    C3 4977   1.001   2.660  17.251  0.2111  0.4552 -0.0894
  328MPD2    C4 4978   1.066   2.728  17.345  0.2679 -0.0428  0.2235
  328MPD2    C5 4979   1.111   2.674  17.460 -0.7704  0.2555  0.3215
  328MPD2     H 4980   0.932   2.476  17.188 -0.6436 -0.6642  1.0611
  328MPD2    H1 4981   1.096   2.832  17.337  0.0882  0.0696  0.9701
  328MPD2    H2 4982   1.105   2.508  17.590 -1.3463  1.5677  1.2194
  328MPD2    H3 4983   1.159   2.739  17.532 -0.4170 -1.5615  1.7063
  328MPD2     N 4984   0.969   2.732  17.128  0.3839 -0.1804 -0.0425
  328MPD2    H5 4985   0.976   2.833  17.126  1.8952 -0.2715  0.4588
  328MPD2    N1 4986   0.954   2.337  17.428 -0.4228 -0.7782 -0.2224
  328MPD2    H7 4987   0.952   2.313  17.526  0.9315  1.8462  0.4260
  329TMC3    C1 4988   0.812   2.151  17.415  0.3126  0.2028  0.1160
  329TMC3    C2 4989   0.706   2.207  17.482  0.4558 -0.5192  0.2431
  329TMC3    C3 4990   0.579   2.175  17.443 -0.1153 -0.0230  0.5625
  329TMC3    C4 4991   0.789   2.054  17.323 -0.0883 -0.7926 -0.3447
  329TMC3    C5 4992   0.666   2.008  17.306  0.0066  0.2818 -0.2611
  329TMC3    C6 4993   0.556   2.070  17.362 -0.7799  0.1865 -0.2074
  329TMC3     C 4994   0.894   2.249  17.348 -0.2588 -0.8077  0.2752
  329TMC3     O 4995   0.905   2.246  17.227 -0.3001 -0.2731  0.2347
  329TMC3     H 4996   0.723   2.306  17.522 -0.6903  0.9004 -2.7442
  329TMC3    H1 4997   0.866   2.022  17.254  0.2552  1.0905 -0.8392
  329TMC3    H2 4998   0.457   2.031  17.339 -0.3957  0.1081 -1.7563
  329TMC3    C7 4999   0.648   1.929  17.188 -0.1615 -0.6685 -0.5631
  329TMC3    C8 5000   0.470   2.279  17.435  0.4398 -0.2845 -0.1910
  329TMC3    O1 5001   0.742   1.853  17.158 -0.0188 -0.1259  0.2690
  329TMC3    O2 5002   0.387   2.260  17.346  0.1712  0.0238 -0.1292
  330TMC3    C1 5003   4.398   0.828  10.067  0.2567  0.5476  0.2556
  330TMC3    C2 5004   4.325   0.745  10.149 -0.3063 -0.3949  0.3320
  330TMC3    C3 5005   4.379   0.718  10.276 -0.1890 -0.5281  0.1624
  330TMC3    C4 5006   4.518   0.877  10.096 -0.2553  0.5451  0.0586
  330TMC3    C5 5007   4.558   0.856  10.221  0.2025 -0.4017 -0.0294
  330TMC3    C6 5008   4.498   0.774  10.315  0.8278  0.3245  0.4994
  330TMC3     C 5009   4.341   0.848   9.932  0.3728  0.4183 -0.0000
  330TMC3     O 5010   4.282   0.759   9.874  0.6758  1.3175  0.6663
  330TMC3     H 5011   4.249   0.684  10.100 -2.3032  2.4342 -0.1009
  330TMC3    H1 5012   4.568   0.939  10.023  1.3525 -1.0442 -0.2123
  330TMC3    H2 5013   4.541   0.764  10.414  1.9009  0.7226  0.0842
  330TMC3    C7 5014   4.690   0.904  10.263 -0.5137  0.6323 -0.8862
  330TMC3    C8 5015   4.293   0.661  10.379 -1.1629  0.2437 -0.1232
  330TMC3    O1 5016   4.725   0.887  10.379  0.6327 -0.2918 -0.4243
  330TMC3    O2 5017   4.350   0.617  10.481  0.3942 -0.5679 -0.0375
  331MPD2     C 5018   1.772   1.024  12.728  0.2819 -0.2896 -0.0496
  331MPD2    C1 5019   1.686   0.993  12.633  0.1913  0.5586 -0.1963
  331MPD2    C2 5020   1.620   0.877  12.636 -0.0981  0.0293 -0.4548
  331MPD2    C3 5021   1.635   0.790  12.738 -0.3831  0.1683  0.2563
  331MPD2    C4 5022   1.708   0.836  12.850  0.2911  0.2927  0.0018
  331MPD2    C5 5023   1.777   0.951  12.844 -0.6305 -0.5563 -0.0375
  331MPD2     H 5024   1.558   0.846  12.553 -0.8753  3.2632 -1.0686
  331MPD2    H1 5025   1.730   0.766  12.930  0.8095 -1.7555 -1.9392
  331MPD2    H2 5026   1.837   1.111  12.726  0.2438 -0.2728 -0.4159
  331MPD2    H3 5027   1.850   0.982  12.918 -0.6160 -0.2329 -0.1884
  331MPD2     N 5028   1.573   0.657  12.736 -0.3013 -0.0747  1.1779
  331MPD2    H5 5029   1.509   0.639  12.659 -1.7170  1.1112  2.0725
  331MPD2    N1 5030   1.679   1.088  12.529  0.0664  0.3100 -0.9195
  331MPD2    H7 5031   1.748   1.161  12.540  0.8910 -0.6118  0.1219
  332TMC3    C1 5032   1.506   0.436  12.798  0.3928 -0.2294  0.5218
  332TMC3    C2 5033   1.400   0.434  12.714  0.6677 -0.7349  0.4646
  332TMC3    C3 5034   1.351   0.312  12.678 -0.2970 -0.4886  0.4112
  332TMC3    C4 5035   1.556   0.322  12.848 -0.0246 -0.0179  0.2383
  332TMC3    C5 5036   1.515   0.197  12.803  0.8810 -0.2784 -0.1681
  332TMC3    C6 5037   1.406   0.190  12.730  0.4777  0.1440  0.7120
  332TMC3     C 5038   1.581   0.560  12.834 -0.2457 -0.2404  0.3661
  332TMC3     O 5039   1.659   0.550  12.925 -0.2102  0.3192 -0.1682
  332TMC3     H 5040   1.363   0.530  12.681 -0.1088  0.0558  3.6102
  332TMC3    H1 5041   1.631   0.329  12.926 -2.1464 -0.4785  2.3091
  332TMC3    H2 5042   1.369   0.091  12.704 -0.0242  0.8176 -1.1576
  332TMC3    C7 5043   1.616   0.100  12.767  0.4940 -0.5065 -0.3231
  332TMC3    C8 5044   1.337   0.312  12.530 -0.1596  0.4322 -0.0280
  332TMC3    O1 5045   1.571   4.721  12.742  0.1116 -0.2096 -0.5009
  332TMC3    O2 5046   1.321   0.418  12.468  0.2296 -0.0653 -0.4505
  333MPD2     C 5047   1.628   0.689  11.079  0.1517 -0.3438  1.4684
  333MPD2    C1 5048   1.708   0.607  11.001  1.0918  0.5316  0.1338
  333MPD2    C2 5049   1.710   0.471  11.022  0.4784  0.4751 -0.2298
  333MPD2    C3 5050   1.637   0.418  11.123 -0.5085 -0.0528 -0.9120
  333MPD2    C4 5051   1.556   0.498  11.199  0.6644  0.5190 -0.4831
  333MPD2    C5 5052   1.545   0.635  11.176  0.0400 -0.5841  0.3978
  333MPD2     H 5053   1.782   0.409  10.971  0.0247 -1.1137  1.0794
  333MPD2    H1 5054   1.508   0.464  11.290  2.3309 -1.3264 -0.2895
  333MPD2    H2 5055   1.624   0.797  11.070 -0.9688 -0.4342  0.8627
  333MPD2    H3 5056   1.486   0.699  11.240 -0.6204 -0.2719 -0.5151
  333MPD2     N 5057   1.640   0.280  11.151 -0.4523 -0.2039 -0.0598
  333MPD2    H5 5058   1.711   0.230  11.099 -0.1446  1.8824 -1.6674
  333MPD2    N1 5059   1.794   0.666  10.902  0.1800  0.3034 -0.5866
  333MPD2    H7 5060   1.860   0.601  10.860 -0.7899 -1.3492  0.4570
  334TMC3    C1 5061   1.915   0.819  10.778 -0.0916  0.4044 -1.1070
  334TMC3    C2 5062   2.027   0.745  10.808 -0.0669  0.8672  0.0788
  334TMC3    C3 5063   2.146   0.788  10.759  0.4848 -0.0879  0.2023
  334TMC3    C4 5064   1.921   0.939  10.718 -0.1058 -0.2842 -0.5501
  334TMC3    C5 5065   2.038   0.986  10.672 -0.5196 -0.5936  0.3875
  334TMC3    C6 5066   2.150   0.907  10.685  0.3129  0.7919  0.0455
  334TMC3     C 5067   1.801   0.793  10.860 -0.0855  0.1103 -0.6673
  334TMC3     O 5068   1.736   0.891  10.896 -0.1202 -0.3642  0.4150
  334TMC3     H 5069   2.013   0.660  10.874 -1.3713  0.3206 -0.8999
  334TMC3    H1 5070   1.832   0.998  10.696 -0.0761 -1.0714 -2.8434
  334TMC3    H2 5071   2.241   0.960  10.661  0.1142 -0.8045 -4.1102
  334TMC3    C7 5072   2.055   1.128  10.653 -1.0264  0.3453 -0.1465
  334TMC3    C8 5073   2.252   0.768  10.849 -0.0539 -0.8768  1.0764
  334TMC3    O1 5074   2.175   1.158  10.638  0.0107 -0.1055 -0.5182
  334TMC3    O2 5075   2.222   0.741  10.967 -0.0667  0.3144 -0.4370
  335TMC3    C1 5076   1.421   2.423  17.505  0.5353  0.7763 -0.2662
  335TMC3    C2 5077   1.369   2.393  17.387 -0.0607 -0.3206 -0.5227
  335TMC3    C3 5078   1.437   2.417  17.271 -0.4127  0.3617  0.0226
  335TMC3    C4 5079   1.550   2.468  17.514 -0.3085  0.0950  0.2790
  335TMC3    C5 5080   1.625   2.474  17.394  0.2217  0.2068 -0.2359
  335TMC3    C6 5081   1.571   2.456  17.271  0.5460 -0.0537  0.0762
  335TMC3     C 5082   1.356   2.369  17.618 -0.3211  0.0252  0.1972
  335TMC3     O 5083   1.291   2.268  17.596  0.1308 -1.0846 -0.4334
  335TMC3     H 5084   1.265   2.363  17.391 -0.7762  2.5738  2.1563
  335TMC3    H1 5085   1.603   2.463  17.608  1.0810  3.9617 -0.3223
  335TMC3    H2 5086   1.631   2.463  17.180  0.3149 -0.3323 -0.0999
  335TMC3    C7 5087   1.768   2.501  17.399  0.3094 -0.8969  0.0554
  335TMC3    C8 5088   1.399   2.365  17.145 -0.1519  0.1901 -0.2236
  335TMC3    O1 5089   1.837   2.469  17.303 -0.2289 -0.0283 -0.2637
  335TMC3    O2 5090   1.456   2.400  17.043 -0.0607 -0.1127  0.1951
  336MPD2     C 5091   1.181   0.179  16.416  0.5602 -0.0722 -0.2459
  336MPD2    C1 5092   1.241   0.148  16.299  0.8680 -0.4998 -0.7266
  336MPD2    C2 5093   1.263   0.015  16.271 -0.0478  0.4178  0.4368
  336MPD2    C3 5094   1.224   4.647  16.352 -0.1374 -0.1118  0.0900
  336MPD2    C4 5095   1.168   4.680  16.474  0.0012  0.0271  0.1428
  336MPD2    C5 5096   1.159   0.078  16.509  0.1490 -0.4731  0.0389
  336MPD2     H 5097   1.298   4.729  16.170 -2.3380  1.2551 -0.5303
  336MPD2    H1 5098   1.135   4.606  16.547  2.0077 -0.9068  0.0923
  336MPD2    H2 5099   1.152   0.280  16.443 -1.8860 -0.7757 -0.1975
  336MPD2    H3 5100   1.122   0.114  16.604  0.2961  0.8742 -0.4144
  336MPD2     N 5101   1.237   4.510  16.326 -0.2486 -0.1465 -0.9477
  336MPD2    H5 5102   1.205   4.436  16.388  0.1225 -0.9157 -1.6749
  336MPD2    N1 5103   1.242   0.237  16.189 -0.8214  0.0254  0.3012
  336MPD2    H7 5104   1.250   0.183  16.103 -0.3989 -0.5899  0.7345
  337TMC3    C1 5105   1.158   0.420  16.058  0.0746  0.4598 -0.0843
  337TMC3    C2 5106   1.039   0.491  16.061 -0.3129 -0.2262  0.1246
  337TMC3    C3 5107   0.971   0.507  15.943  0.4136 -0.2096 -0.9632
  337TMC3    C4 5108   1.214   0.366  15.940  0.0470  0.2859 -0.0226
  337TMC3    C5 5109   1.136   0.381  15.826 -0.2629  0.5213  0.5206
  337TMC3    C6 5110   1.020   0.449  15.829 -0.4367 -0.3040 -0.0718
  337TMC3     C 5111   1.196   0.366  16.192  0.0882  0.2473  0.3174
  337TMC3     O 5112   1.181   0.441  16.289 -0.3355  0.0949 -0.6275
  337TMC3     H 5113   0.999   0.523  16.156 -0.8900  0.1140 -0.2342
  337TMC3    H1 5114   1.310   0.316  15.935 -0.6710 -1.0383 -0.4859
  337TMC3    H2 5115   0.973   0.473  15.734 -1.1210 -0.7423  0.1602
  337TMC3    C7 5116   1.152   0.318  15.698 -0.2185  0.7340 -0.0420
  337TMC3    C8 5117   0.828   0.537  15.955 -0.4585  0.3539 -0.4819
  337TMC3    O1 5118   1.052   0.312  15.625 -0.5375 -0.6076 -0.0302
  337TMC3    O2 5119   0.789   0.594  16.057  0.2986  0.5506  0.3943
  338MPD2     C 5120   1.427   4.338   1.355 -0.1972 -0.0092  0.1197
  338MPD2    C1 5121   1.420   4.329   1.218  0.4487  0.4170 -0.5163
  338MPD2    C2 5122   1.296   4.329   1.152  0.0613 -0.8069 -0.2833
  338MPD2    C3 5123   1.176   4.339   1.222 -0.3780 -1.1827  0.2279
  338MPD2    C4 5124   1.176   4.356   1.354 -0.4039 -0.4152 -0.1281
  338MPD2    C5 5125   1.304   4.353   1.422  0.2612  0.5230  0.0688
  338MPD2     H 5126   1.300   4.339   1.044  0.2709  2.0690 -0.0108
  338MPD2    H1 5127   1.096   4.386   1.420 -1.8423 -2.6587 -0.8883
  338MPD2    H2 5128   1.520   4.333   1.411 -0.2978  2.1615  0.4559
  338MPD2    H3 5129   1.304   4.350   1.530 -0.7715  0.9818  0.0856
  338MPD2     N 5130   1.059   4.329   1.144 -0.4579  0.2429 -0.0510
  338MPD2    H5 5131   1.064   4.320   1.043 -0.7426 -0.3535 -0.0118
  338MPD2    N1 5132   1.534   4.309   1.134  0.1827 -0.2254  0.6039
  338MPD2    H7 5133   1.515   4.284   1.037 -3.7520 -1.9751  1.8051
  339TMC3    C1 5134   0.836   4.279   1.099  0.7078  0.1336  0.3617
  339TMC3    C2 5135   0.830   4.150   1.064 -0.2287 -0.1330  0.4162
  339TMC3    C3 5136   0.814   4.112   0.936  0.2621 -0.4892 -0.0523
  339TMC3    C4 5137   0.835   4.372   1.000 -0.4872  0.1700 -0.2787
  339TMC3    C5 5138   0.828   4.333   0.866 -0.8629  0.3338  0.1807
  339TMC3    C6 5139   0.795   4.203   0.835 -0.5982 -0.2793 -0.1428
  339TMC3     C 5140   0.933   4.320   1.201  0.3666  0.4983 -0.4756
  339TMC3     O 5141   0.894   4.349   1.314 -0.0333  0.3371  0.1621
  339TMC3     H 5142   0.865   4.078   1.137 -1.2409 -0.3044  0.7375
  339TMC3    H1 5143   0.869   4.473   1.018 -0.0895 -0.3421  1.8850
  339TMC3    H2 5144   0.747   4.176   0.742 -0.8387  0.6270 -0.2826
  339TMC3    C7 5145   0.845   4.433   0.761  0.3857 -0.0823 -0.2590
  339TMC3    C8 5146   0.832   3.975   0.897  0.2756  0.0294  0.5200
  339TMC3    O1 5147   0.831   4.550   0.795  0.7913  0.5618 -0.0012
  339TMC3    O2 5148   0.871   3.963   0.783  0.4804 -0.5666 -0.0713
  340MPD2     C 5149   1.840   1.001   9.453 -0.0842  0.2088  0.2529
  340MPD2    C1 5150   1.842   1.040   9.587 -0.6763  0.2436 -0.7039
  340MPD2    C2 5151   1.842   1.172   9.618 -1.1836  0.2193  1.1667
  340MPD2    C3 5152   1.863   1.270   9.518 -0.2493  0.2436 -0.5769
  340MPD2    C4 5153   1.883   1.222   9.392 -0.0010 -0.0014 -0.5270
  340MPD2    C5 5154   1.869   1.093   9.358 -0.0355  0.6249 -0.1169
  340MPD2     H 5155   1.839   1.202   9.722 -2.0189 -0.6203  1.3888
  340MPD2    H1 5156   1.892   1.292   9.309 -0.9764  0.8925  0.1233
  340MPD2    H2 5157   1.836   0.894   9.434 -1.8866  0.0487  1.5858
  340MPD2    H3 5158   1.882   1.057   9.256 -1.0440  0.5454 -0.2148
  340MPD2     N 5159   1.873   1.410   9.540  0.1118 -0.5234  0.8098
  340MPD2    H5 5160   1.879   1.465   9.454  2.7075 -0.2745  1.1314
  340MPD2    N1 5161   1.832   0.936   9.681  0.3957 -0.3145 -0.2999
  340MPD2    H7 5162   1.825   0.845   9.638  0.0013 -1.0581  1.3740
  341TMC3    C1 5163   1.861   0.825   9.881 -0.1857 -0.0180  0.4916
  341TMC3    C2 5164   1.745   0.759   9.848 -0.4169  0.1295  0.2487
  341TMC3    C3 5165   1.711   0.653   9.924  0.1909 -0.0902 -0.4368
  341TMC3    C4 5166   1.935   0.812   9.999 -0.0580  0.4288  0.0565
  341TMC3    C5 5167   1.896   0.704  10.072  0.0635 -0.2407  0.3237
  341TMC3    C6 5168   1.785   0.631  10.042 -0.0597  0.6993 -0.0514
  341TMC3     C 5169   1.875   0.953   9.809 -0.4276 -0.5259  0.1933
  341TMC3     O 5170   1.937   1.045   9.863 -0.5317 -0.3272 -0.1088
  341TMC3     H 5171   1.677   0.792   9.771  1.7603 -0.5444 -1.9740
  341TMC3    H1 5172   2.024   0.873  10.008  0.7575 -0.4847 -1.8983
  341TMC3    H2 5173   1.743   0.558  10.110  0.3891 -1.4583 -2.0922
  341TMC3    C7 5174   1.984   0.664  10.182 -0.8304 -0.2888 -0.1479
  341TMC3    C8 5175   1.572   0.612   9.922  0.6030  0.4112  0.1984
  341TMC3    O1 5176   2.057   0.746  10.236  0.0625 -0.2026 -0.0843
  341TMC3    O2 5177   1.523   0.571  10.028 -0.8257  0.6277  0.6685
  342MPD2     C 5178   4.580   0.450   0.276  1.0898  0.2596 -0.2888
  342MPD2    C1 5179   4.589   0.487   0.148  0.0393  0.5363  0.3748
  342MPD2    C2 5180   4.572   0.620   0.124  0.0215  0.0628 -0.1810
  342MPD2    C3 5181   4.554   0.718   0.226 -0.2877  0.0966  0.4767
  342MPD2    C4 5182   4.553   0.673   0.359  0.6508 -0.0831  0.0843
  342MPD2    C5 5183   4.551   0.539   0.376 -0.2187 -0.2877 -0.3753
  342MPD2     H 5184   4.587   0.651   0.021  0.1502  1.5777  0.2860
  342MPD2    H1 5185   4.539   0.735   0.447  3.2658  0.3721  0.1766
  342MPD2    H2 5186   4.608   0.349   0.306  1.6465 -0.1377 -2.1286
  342MPD2    H3 5187   4.547   0.505   0.479 -1.3534 -4.3079 -1.7548
  342MPD2     N 5188   4.531   0.852   0.205 -0.0204  0.0209  0.3210
  342MPD2    H5 5189   4.526   0.914   0.285  1.3178  1.1936 -0.5025
  342MPD2    N1 5190   4.615   0.398   0.033 -0.1008  0.0309  0.1196
  342MPD2    H7 5191   4.636   0.429  17.671  2.4395 -1.0602  0.3446
  343TMC3    C1 5192   4.577   0.202  17.642 -0.1074 -0.6183  1.1291
  343TMC3    C2 5193   4.635   0.258  17.532 -0.1111  0.0744 -0.2236
  343TMC3    C3 5194   4.632   0.185  17.415  0.4299  0.7010 -0.2463
  343TMC3    C4 5195   4.537   0.072  17.637 -0.0697  0.3635  0.1183
  343TMC3    C5 5196   4.536   4.732  17.521 -0.1338  0.9172 -0.5968
  343TMC3    C6 5197   4.566   0.064  17.403 -0.3224 -0.0177 -0.6064
  343TMC3     C 5198   4.575   0.266   0.044  0.3560  0.0708 -0.1289
  343TMC3     O 5199   4.558   0.190   0.135 -0.2727 -0.5421  0.2102
  343TMC3     H 5200   4.676   0.359  17.532 -0.9650  0.4179  1.3965
  343TMC3    H1 5201   4.493   0.023  17.723  1.7697  1.0656  1.4463
  343TMC3    H2 5202   4.539   0.016  17.310 -0.6639 -1.6229  0.3138
  343TMC3    C7 5203   4.457   4.606  17.531 -0.0793  0.2558 -0.8517
  343TMC3    C8 5204   4.715   0.237  17.308 -0.5318 -0.1065 -0.0291
  343TMC3    O1 5205   4.419   4.570  17.422 -0.8119 -0.1436 -0.4523
  343TMC3    O2 5206   0.001   0.358  17.309  0.1127 -0.2467  0.0284
  344MPD2     C 5207   0.331   4.462  10.964 -0.5276  1.0634 -0.5306
  344MPD2    C1 5208   0.274   4.424  10.844  0.4801  0.6226 -1.2926
  344MPD2    C2 5209   0.306   4.502  10.729  0.7358  0.3456 -0.0026
  344MPD2    C3 5210   0.386   4.616  10.737  0.8022  0.1289  1.1095
  344MPD2    C4 5211   0.437   4.651  10.858  0.0058 -0.0388  0.0554
  344MPD2    C5 5212   0.408   4.575  10.972  0.1902  0.6280 -0.3146
  344MPD2     H 5213   0.264   4.484  10.631 -0.3393 -1.8242  0.8601
  344MPD2    H1 5214   0.506   0.001  10.865  0.5839 -0.4979 -0.1508
  344MPD2    H2 5215   0.324   4.417  11.063  2.4971 -0.3086 -0.9644
  344MPD2    H3 5216   0.448   4.599  11.069 -0.5760 -2.2236  0.7091
  344MPD2     N 5217   0.393   4.717  10.636 -0.0925 -0.0471 -0.1272
  344MPD2    H5 5218   0.449   0.066  10.657 -0.4956  0.3298 -0.5252
  344MPD2    N1 5219   0.196   4.308  10.828 -0.3523 -0.1974 -0.9330
  344MPD2    H7 5220   0.141   4.294  10.743 -0.5923 -0.0555 -0.8025
  345TMC3    C1 5221   0.338   0.112  10.457 -0.6060  0.3018 -0.1627
  345TMC3    C2 5222   0.397   0.221  10.513  0.8780 -0.3274 -0.6770
  345TMC3    C3 5223   0.433   0.329  10.436  0.2957  0.4824  0.4660
  345TMC3    C4 5224   0.320   0.111  10.315 -0.4938  0.4433 -0.3078
  345TMC3    C5 5225   0.353   0.225  10.240 -0.0989  0.7230  0.4291
  345TMC3    C6 5226   0.418   0.328  10.298  0.6634  0.4733  0.1672
  345TMC3     C 5227   0.323   4.716  10.521 -0.4034 -0.5229 -0.4654
  345TMC3     O 5228   0.265   4.628  10.462  0.2500 -0.5447  0.6032
  345TMC3     H 5229   0.440   0.217  10.612 -1.6115  0.5960  0.4495
  345TMC3    H1 5230   0.260   0.030  10.276 -0.2474  0.0389  0.1647
  345TMC3    H2 5231   0.446   0.414  10.239 -0.9494  0.5964 -0.4385
  345TMC3    C7 5232   0.315   0.219  10.105  0.2127 -0.2453 -0.7860
  345TMC3    C8 5233   0.517   0.432  10.499 -0.1669 -0.1511 -0.4120
  345TMC3    O1 5234   0.397   0.248  10.016 -0.2377 -0.1272  0.4397
  345TMC3    O2 5235   0.606   0.471  10.425  0.3367  0.3076  0.1293
  346MPD2     C 5236   0.336   1.351  14.024 -0.3862 -0.6713  0.4753
  346MPD2    C1 5237   0.473   1.373  14.032 -0.0175 -0.0627  0.6113
  346MPD2    C2 5238   0.539   1.456  14.128 -0.2045 -0.2325  0.0294
  346MPD2    C3 5239   0.458   1.527  14.221 -0.6977  0.2016 -0.5822
  346MPD2    C4 5240   0.322   1.503  14.212 -0.3274 -0.1447 -0.1386
  346MPD2    C5 5241   0.261   1.410  14.124  0.0038  0.5904 -0.3062
  346MPD2     H 5242   0.640   1.495  14.121 -0.0312 -0.1763  2.9314
  346MPD2    H1 5243   0.252   1.547  14.281  0.5417 -2.2554  2.0889
  346MPD2    H2 5244   0.287   1.295  13.945 -0.8062 -0.0226  0.2738
  346MPD2    H3 5245   0.154   1.392  14.121  0.0818  0.1305 -0.4149
  346MPD2     N 5246   0.522   1.630  14.300 -0.6283  0.4353 -0.3274
  346MPD2    H5 5247   0.624   1.630  14.299 -0.6170 -0.2276  1.8212
  346MPD2    N1 5248   0.558   1.326  13.931  0.4230 -0.5012  0.2247
  346MPD2    H7 5249   0.655   1.355  13.937  0.7894 -1.6712 -0.0604
  347TMC3    C1 5250   0.534   1.803  14.457 -0.6864  0.5698  0.1600
  347TMC3    C2 5251   0.665   1.788  14.453  0.0987  0.1515  0.6822
  347TMC3    C3 5252   0.739   1.837  14.558 -0.2148  0.6750 -0.8704
  347TMC3    C4 5253   0.470   1.862  14.555 -0.5819 -0.0195  0.1237
  347TMC3    C5 5254   0.543   1.906  14.664  0.0201  0.3598  0.3080
  347TMC3    C6 5255   0.680   1.894  14.665 -0.0186  0.1548  0.5672
  347TMC3     C 5256   0.454   1.729  14.367 -0.2047  0.7878 -0.9570
  347TMC3     O 5257   0.337   1.759  14.371 -0.5171  0.2088  0.8553
  347TMC3     H 5258   0.718   1.752  14.365  0.6603  0.5262  0.8659
  347TMC3    H1 5259   0.363   1.849  14.568 -0.4936 -1.9608 -1.1557
  347TMC3    H2 5260   0.741   1.920  14.751 -0.5902 -0.9517  1.3040
  347TMC3    C7 5261   0.474   1.945  14.784 -0.5826  0.3864  0.1241
  347TMC3    C8 5262   0.876   1.790  14.563 -0.2551  0.6889 -0.3556
  347TMC3    O1 5263   0.358   1.920  14.794  0.0768  0.2181  0.2242
  347TMC3    O2 5264   0.901   1.696  14.486  0.2246 -0.2486 -1.1346
  348MPD2     C 5265   3.740   0.916  12.092 -0.4595  0.2558 -0.7435
  348MPD2    C1 5266   3.842   0.996  12.044  0.6832  0.1996  0.5149
  348MPD2    C2 5267   3.806   1.091  11.953 -0.9242  0.2872 -0.6231
  348MPD2    C3 5268   3.682   1.112  11.903 -0.2702  0.0131  0.4252
  348MPD2    C4 5269   3.574   1.046  11.958  0.1713 -0.1059 -0.7756
  348MPD2    C5 5270   3.608   0.949  12.055  0.1924 -0.5119  0.2978
  348MPD2     H 5271   3.875   1.159  11.903 -2.7300  2.2148 -0.5294
  348MPD2    H1 5272   3.474   1.064  11.920  0.4199  0.9463 -0.9399
  348MPD2    H2 5273   3.755   0.843  12.170  3.5897  1.5304 -0.3407
  348MPD2    H3 5274   3.531   0.886  12.097 -0.6955  1.1732  1.1812
  348MPD2     N 5275   3.681   1.202  11.792 -0.3457  0.4417 -0.0523
  348MPD2    H5 5276   3.773   1.245  11.785 -0.0532 -0.1821  0.0175
  348MPD2    N1 5277   3.976   0.985  12.080  0.6008  0.3070  0.3523
  348MPD2    H7 5278   4.040   1.053  12.042  0.6294  0.4373  0.6290
  349TMC3    C1 5279   4.175   0.865  12.148  0.3976 -0.1030  0.1607
  349TMC3    C2 5280   4.220   0.750  12.213  0.8414  0.3624  0.8209
  349TMC3    C3 5281   4.299   0.667  12.144 -0.6297  0.7162  0.1963
  349TMC3    C4 5282   4.235   0.912  12.036 -0.7608  0.2550  0.2045
  349TMC3    C5 5283   4.311   0.819  11.968 -0.3411  0.7601  0.1761
  349TMC3    C6 5284   4.342   0.697  12.019  0.0124 -0.4664  0.5798
  349TMC3     C 5285   4.025   0.884  12.162 -0.7820  0.2016  0.5312
  349TMC3     O 5286   3.967   0.793  12.217 -0.3920 -0.0608 -0.1045
  349TMC3     H 5287   4.191   0.717  12.312 -1.1814  0.9527  0.4234
  349TMC3    H1 5288   4.211   1.014  12.010 -1.3683 -0.1201 -0.7110
  349TMC3    H2 5289   4.372   0.619  11.950 -0.0183 -1.0487  1.2211
  349TMC3    C7 5290   4.255   0.818  11.832 -1.1722 -0.3317  0.6141
  349TMC3    C8 5291   4.361   0.556  12.219 -0.1142  0.4771  0.1296
  349TMC3    O1 5292   4.250   0.713  11.766  0.2768 -0.0057  0.1116
  349TMC3    O2 5293   4.303   0.516  12.322  0.0006  0.9783  0.1762
  350MPD2     C 5294   2.376   3.879  10.300  0.2616 -0.2049  0.0514
  350MPD2    C1 5295   2.429   3.758  10.326  0.5970  0.5381 -0.0776
  350MPD2    C2 5296   2.567   3.751  10.314  0.2147  0.0789  0.1691
  350MPD2    C3 5297   2.651   3.860  10.288 -0.2647  1.2276  0.2289
  350MPD2    C4 5298   2.589   3.981  10.261 -0.8177 -0.4921  0.2537
  350MPD2    C5 5299   2.451   3.986  10.265 -0.2706  0.0881  0.2777
  350MPD2     H 5300   2.624   3.660  10.330  1.0567  0.5238 -0.2798
  350MPD2    H1 5301   2.637   4.072  10.227 -0.8969  0.2321  2.0987
  350MPD2    H2 5302   2.269   3.895  10.295  0.4148  1.1623  0.9510
  350MPD2    H3 5303   2.401   4.080  10.248 -2.3985 -1.2352 -0.7963
  350MPD2     N 5304   2.789   3.843  10.310 -0.3077 -0.0386 -1.1409
  350MPD2    H5 5305   2.813   3.759  10.363  0.0964 -0.2207 -1.6137
  350MPD2    N1 5306   2.358   3.640  10.357 -0.0287  0.6532 -0.6237
  350MPD2    H7 5307   2.405   3.558  10.395 -1.3971 -0.1127 -0.5741
  351TMC3    C1 5308   2.177   3.495  10.435  0.3744 -0.3314 -0.1988
  351TMC3    C2 5309   2.279   3.413  10.486  0.1618 -0.3085  0.3353
  351TMC3    C3 5310   2.238   3.309  10.570 -0.1991  0.2700 -0.4119
  351TMC3    C4 5311   2.052   3.505  10.490 -0.4417 -0.3238 -0.5851
  351TMC3    C5 5312   2.024   3.405  10.577  0.4884 -0.2963  0.0678
  351TMC3    C6 5313   2.112   3.314  10.626  0.1799 -0.2880 -0.2883
  351TMC3     C 5314   2.223   3.618  10.367  0.4264 -0.6162  0.5389
  351TMC3     O 5315   2.130   3.700  10.356  0.0632 -0.1060  0.2360
  351TMC3     H 5316   2.378   3.417  10.441 -0.5596  1.6685 -1.0390
  351TMC3    H1 5317   1.980   3.568  10.438  1.0746  1.0734 -1.0156
  351TMC3    H2 5318   2.081   3.232  10.689 -0.0872 -1.1757 -1.5672
  351TMC3    C7 5319   1.893   3.414  10.641  0.4528 -0.1525  0.0457
  351TMC3    C8 5320   2.323   3.192  10.565 -0.4967  0.1864 -0.0155
  351TMC3    O1 5321   1.858   3.318  10.715 -0.7111 -0.6027 -0.3719
  351TMC3    O2 5322   2.424   3.207  10.494 -0.1141 -0.1812  0.1184
  352MPD2     C 5323   1.713   1.863   0.834  0.1911  0.8238  0.1492
  352MPD2    C1 5324   1.634   1.809   0.934  0.0761  0.6211 -0.6626
  352MPD2    C2 5325   1.688   1.704   1.007  0.4819 -0.0893  0.2513
  352MPD2    C3 5326   1.805   1.646   0.969 -0.0955  1.0072  0.1530
  352MPD2    C4 5327   1.887   1.698   0.873 -0.0869  0.3036 -0.0910
  352MPD2    C5 5328   1.847   1.820   0.821  0.2481 -0.2595  0.1968
  352MPD2     H 5329   1.631   1.674   1.093 -0.0243 -0.5165 -0.2365
  352MPD2    H1 5330   1.982   1.659   0.838 -0.3820 -0.3865 -0.1200
  352MPD2    H2 5331   1.680   1.954   0.786 -0.4780  0.1541 -0.6483
  352MPD2    H3 5332   1.918   1.874   0.760  0.4733 -0.4345  0.3062
  352MPD2     N 5333   1.859   1.533   1.033  0.0851 -1.0015 -0.2923
  352MPD2    H5 5334   1.952   1.510   1.000 -0.3406 -2.5662 -0.3709
  352MPD2    N1 5335   1.503   1.864   0.961 -0.4507 -0.0224  0.0900
  352MPD2    H7 5336   1.499   1.939   0.893 -1.7882  0.2520  0.4707
  353TMC3    C1 5337   1.831   1.326   1.145  0.3462 -0.5557 -0.2246
  353TMC3    C2 5338   1.952   1.281   1.097  0.2862 -0.1175  0.2774
  353TMC3    C3 5339   1.966   1.141   1.105  0.9442 -0.0779  0.6883
  353TMC3    C4 5340   1.723   1.243   1.172  0.3914  0.2563 -0.0126
  353TMC3    C5 5341   1.747   1.109   1.186 -0.4091  0.5590 -0.3420
  353TMC3    C6 5342   1.860   1.055   1.142  0.1356 -0.7351 -0.1186
  353TMC3     C 5343   1.793   1.465   1.134  0.2661 -0.8447 -0.6376
  353TMC3     O 5344   1.708   1.513   1.212 -0.5833  0.1167 -0.3132
  353TMC3     H 5345   2.033   1.347   1.070  0.1178 -0.9736 -2.3161
  353TMC3    H1 5346   1.621   1.277   1.161  0.5851  1.2531  1.3382
  353TMC3    H2 5347   1.863   0.949   1.121 -0.4455 -0.8035  0.1410
  353TMC3    C7 5348   1.633   1.016   1.198 -0.6544 -0.3458  0.2438
  353TMC3    C8 5349   2.097   1.085   1.069  0.1569 -0.1853 -0.0248
  353TMC3    O1 5350   1.641   0.906   1.143  0.2936 -0.1307  0.4146
  353TMC3    O2 5351   2.174   1.157   1.015 -0.5453 -0.0694  0.3929
  354TMC3    C1 5352   3.347   2.201  13.598  0.3805  0.3438 -0.2181
  354TMC3    C2 5353   3.278   2.282  13.508 -0.1703  0.2903  0.3351
  354TMC3    C3 5354   3.329   2.301  13.381 -0.0596  0.6576  0.5485
  354TMC3    C4 5355   3.466   2.146  13.569 -0.3678 -0.6015  0.1774
  354TMC3    C5 5356   3.516   2.169  13.444  0.3134 -0.0596 -0.0856
  354TMC3    C6 5357   3.453   2.242  13.351 -0.2602 -0.2658  0.7109
  354TMC3     C 5358   3.293   2.175  13.732 -0.5039 -0.7530 -0.4175
  354TMC3     O 5359   3.367   2.132  13.818 -0.2042  0.3040 -0.1125
  354TMC3     H 5360   3.208   2.355  13.546 -3.2882 -1.7275 -1.5576
  354TMC3    H1 5361   3.525   2.095  13.644 -0.3139  0.0140  0.5536
  354TMC3    H2 5362   3.485   2.259  13.249 -1.5554 -0.2369  0.3113
  354TMC3    C7 5363   3.647   2.123  13.409  0.3183  0.5480 -0.0913
  354TMC3    C8 5364   3.281   2.401  13.287 -0.6097 -0.0482  0.6169
  354TMC3    O1 5365   3.685   2.035  13.478 -1.2378  0.2026  0.1169
  354TMC3    O2 5366   3.359   2.441  13.198 -0.0019 -0.0934 -0.1128
  355MPD2     C 5367   2.880   2.862  11.790 -0.1885  0.6146  0.0785
  355MPD2    C1 5368   2.951   2.885  11.674  0.1996 -0.5743  0.0082
  355MPD2    C2 5369   3.090   2.889  11.679  0.1114  0.7078  0.3835
  355MPD2    C3 5370   3.148   2.892  11.806 -0.3434  0.4689  0.4741
  355MPD2    C4 5371   3.076   2.870  11.921 -1.0331 -0.1277  0.0172
  355MPD2    C5 5372   2.942   2.858  11.912 -0.4031  0.2471  0.2158
  355MPD2     H 5373   3.148   2.899  11.588 -0.8926  2.7588 -0.0300
  355MPD2    H1 5374   3.119   2.865  12.020  0.8205  1.7233 -0.6971
  355MPD2    H2 5375   2.772   2.855  11.790 -0.0198 -2.0093 -2.3985
  355MPD2    H3 5376   2.879   2.847  11.999 -0.8714 -0.7054 -0.2489
  355MPD2     N 5377   3.280   2.941  11.827 -0.1803 -0.4543  0.1200
  355MPD2    H5 5378   3.323   2.938  11.919 -0.8715  1.3875  0.5107
  355MPD2    N1 5379   2.868   2.916  11.562 -0.5372 -0.5368  0.5308
  355MPD2    H7 5380   2.780   2.865  11.561 -1.2046  0.6488 -1.8576
  356TMC3    C1 5381   3.468   3.078  11.784 -0.5038  0.0988  0.3186
  356TMC3    C2 5382   3.547   3.137  11.681 -0.2916 -0.4303  0.7375
  356TMC3    C3 5383   3.660   3.197  11.727  0.7077 -0.1709 -0.3073
  356TMC3    C4 5384   3.488   3.094  11.918 -0.0607 -0.2505 -0.0529
  356TMC3    C5 5385   3.610   3.151  11.955  0.6210  0.0136  0.0468
  356TMC3    C6 5386   3.692   3.206  11.858 -0.0907  0.5426  0.6256
  356TMC3     C 5387   3.359   2.999  11.730 -0.3517 -0.5685  0.4341
  356TMC3     O 5388   3.342   2.997  11.609 -0.1825 -0.0317 -0.2172
  356TMC3     H 5389   3.520   3.116  11.579  0.0603  1.6116  0.2210
  356TMC3    H1 5390   3.419   3.079  12.000  0.8412 -0.0917  0.7501
  356TMC3    H2 5391   3.788   3.231  11.900  0.8125  0.2642 -1.2574
  356TMC3    C7 5392   3.610   3.196  12.091  0.0170  0.4870 -0.0495
  356TMC3    C8 5393   3.739   3.247  11.625  0.6218  0.3056 -0.1828
  356TMC3    O1 5394   3.530   3.160  12.176  0.2920  0.0923  0.6282
  356TMC3    O2 5395   3.722   3.192  11.520  0.0615  0.8404 -0.2921
  357MPD2     C 5396   3.187   3.022   0.663 -0.1338 -0.4485 -0.2839
  357MPD2    C1 5397   3.193   2.990   0.795 -0.1850  0.2168  0.3080
  357MPD2    C2 5398   3.084   2.925   0.852 -0.6525  0.3798 -0.4431
  357MPD2    C3 5399   2.972   2.895   0.781 -0.0107 -0.1401 -0.2746
  357MPD2    C4 5400   2.972   2.929   0.651  0.2385  1.2355  0.2238
  357MPD2    C5 5401   3.073   2.989   0.587 -0.0867  1.4037 -0.4244
  357MPD2     H 5402   3.103   2.890   0.953 -1.4500 -0.3309 -0.5465
  357MPD2    H1 5403   2.887   2.909   0.587  0.5532 -0.9902  0.4852
  357MPD2    H2 5404   3.271   3.052   0.601 -0.0972  2.8716  1.3775
  357MPD2    H3 5405   3.085   2.989   0.480  1.7162  2.2112 -0.2248
  357MPD2     N 5406   2.866   2.820   0.826 -0.3715  0.1615 -0.1923
  357MPD2    H5 5407   2.787   2.791   0.769  0.0562 -1.1966 -0.0906
  357MPD2    N1 5408   3.317   3.003   0.862  0.1208 -0.6163  0.4142
  357MPD2    H7 5409   3.401   3.030   0.813 -0.9908 -0.3611 -1.3427
  358TMC3    C1 5410   3.477   2.947   1.029 -0.0753  0.3092  0.1539
  358TMC3    C2 5411   3.547   2.867   0.934  0.4467 -0.0570 -0.6801
  358TMC3    C3 5412   3.648   2.791   0.981 -0.4338  0.8927  0.3334
  358TMC3    C4 5413   3.515   2.946   1.165  0.4498  0.0214  0.1069
  358TMC3    C5 5414   3.617   2.868   1.199  0.0154 -0.0014 -0.6287
  358TMC3    C6 5415   3.694   2.795   1.109 -0.6156  0.2519  0.5292
  358TMC3     C 5416   3.340   2.962   0.989  0.9456  0.0602 -0.3020
  358TMC3     O 5417   3.267   2.943   1.084  0.4086 -0.2043 -0.3126
  358TMC3     H 5418   3.522   2.871   0.828 -2.1625 -0.1392 -0.0608
  358TMC3    H1 5419   3.457   3.000   1.239  0.6325 -1.0264  1.0228
  358TMC3    H2 5420   3.770   2.724   1.141 -1.8197 -0.5118  1.7219
  358TMC3    C7 5421   3.662   2.861   1.337 -0.0341  0.6995 -0.9406
  358TMC3    C8 5422   3.623   2.657   0.929 -0.1717 -0.0795  0.3800
  358TMC3    O1 5423   3.713   2.756   1.371  0.0771  0.1816  0.1331
  358TMC3    O2 5424   3.593   2.653   0.811  0.3871  0.3193 -0.4174
  359MPD2     C 5425   3.284   2.087  12.403 -0.2739  0.1576 -0.4226
  359MPD2    C1 5426   3.389   2.013  12.456  0.1447 -0.4378 -0.4239
  359MPD2    C2 5427   3.388   1.960  12.580  0.2569  0.2806  0.8981
  359MPD2    C3 5428   3.278   1.983  12.660  0.2559  0.8341  1.1431
  359MPD2    C4 5429   3.164   2.052  12.608 -0.5180 -0.0888 -0.1786
  359MPD2    C5 5430   3.175   2.104  12.486 -0.2564  0.0732 -0.3288
  359MPD2     H 5431   3.472   1.900  12.615 -0.5461 -0.6922  1.1548
  359MPD2    H1 5432   3.075   2.073  12.665  0.2993  2.5312  0.1332
  359MPD2    H2 5433   3.286   2.136  12.306  1.0904 -0.6020 -0.7812
  359MPD2    H3 5434   3.103   2.179  12.453  0.3664  0.7984 -0.0410
  359MPD2     N 5435   3.266   1.904  12.772 -0.6113  0.2400 -0.7729
  359MPD2    H5 5436   3.180   1.918  12.824 -1.1142  0.8849 -1.7694
  359MPD2    N1 5437   3.496   1.979  12.368  0.2424 -0.1228 -0.3716
  359MPD2    H7 5438   3.563   1.913  12.406 -1.1207 -0.7719  0.8914
  360TMC3    C1 5439   3.607   1.911  12.165  0.3684  0.0410 -0.0056
  360TMC3    C2 5440   3.742   1.949  12.191  0.0579 -0.3665 -0.2447
  360TMC3    C3 5441   3.841   1.893  12.110  0.4513  0.8302 -0.0501
  360TMC3    C4 5442   3.581   1.823  12.058  0.3236  0.2410  0.8428
  360TMC3    C5 5443   3.683   1.781  11.976  0.2124 -0.0817 -0.3349
  360TMC3    C6 5444   3.810   1.818  12.006 -0.0370  0.6012 -0.3846
  360TMC3     C 5445   3.497   1.981  12.229  0.1182 -0.7846 -0.1256
  360TMC3     O 5446   3.405   2.021  12.156  0.9259  0.3798 -0.3871
  360TMC3     H 5447   3.773   2.009  12.277  1.0168 -0.5691 -0.4535
  360TMC3    H1 5448   3.479   1.808  12.025 -0.0104  0.8455  1.6064
  360TMC3    H2 5449   3.882   1.799  11.926  0.0035  1.9755 -0.6675
  360TMC3    C7 5450   3.662   1.760  11.835 -0.0640 -0.0214 -0.1816
  360TMC3    C8 5451   3.974   1.960  12.113 -0.5612  0.3019  0.1296
  360TMC3    O1 5452   3.729   1.836  11.766  0.4298  0.0694  0.1453
  360TMC3    O2 5453   3.976   2.076  12.151  0.5145  0.0497  0.2336
  361MPD2     C 5454   0.868   0.836  16.935 -0.0842  0.5310 -0.2297
  361MPD2    C1 5455   0.808   0.889  17.050  0.2494  0.1864  0.1930
  361MPD2    C2 5456   0.792   0.813  17.160  0.3266  0.3683 -0.1935
  361MPD2    C3 5457   0.832   0.683  17.156  0.5779 -0.4118  0.5606
  361MPD2    C4 5458   0.885   0.624  17.047  0.3251  0.3151 -0.1935
  361MPD2    C5 5459   0.898   0.701  16.933 -0.1065  0.6661 -0.3454
  361MPD2     H 5460   0.738   0.856  17.243  1.4994 -0.7649  1.1770
  361MPD2    H1 5461   0.923   0.523  17.051  0.7000  0.4262 -0.9229
  361MPD2    H2 5462   0.882   0.899  16.847 -1.0241  0.7166 -0.2517
  361MPD2    H3 5463   0.947   0.660  16.845 -0.4557 -0.1373 -0.1636
  361MPD2     N 5464   0.816   0.597  17.271 -0.4919  0.0203 -0.3165
  361MPD2    H5 5465   0.843   0.500  17.255  3.3308  1.2064 -0.9975
  361MPD2    N1 5466   0.756   1.024  17.049  0.0855  0.3529  0.4720
  361MPD2    H7 5467   0.721   1.064  17.135 -0.7548  0.8381 -0.0887
  362TMC3    C1 5468   0.647   1.200  16.958 -0.0569  0.0501  0.6740
  362TMC3    C2 5469   0.544   1.168  17.039 -0.1155  0.5270  0.4397
  362TMC3    C3 5470   0.420   1.219  17.017 -0.4073  0.2837  0.1554
  362TMC3    C4 5471   0.621   1.274  16.851 -0.3386 -0.4290 -1.1527
  362TMC3    C5 5472   0.495   1.326  16.822 -0.7264  0.0163  0.2614
  362TMC3    C6 5473   0.388   1.299  16.908 -0.3111  0.1987 -0.1818
  362TMC3     C 5474   0.759   1.107  16.941  0.2293 -0.7117 -0.1909
  362TMC3     O 5475   0.805   1.109  16.824 -0.0746  0.0457 -0.4199
  362TMC3     H 5476   0.575   1.145  17.140  0.8646 -0.7511 -0.1388
  362TMC3    H1 5477   0.702   1.303  16.784  0.1503  1.5393  0.3300
  362TMC3    H2 5478   0.286   1.332  16.893 -0.7521 -2.0216 -1.9780
  362TMC3    C7 5479   0.477   1.389  16.695 -0.0688 -0.1326  0.2345
  362TMC3    C8 5480   0.321   1.146  17.091  0.1490  0.4163  0.4759
  362TMC3    O1 5481   0.573   1.423  16.629 -0.4278  0.4389  0.5201
  362TMC3    O2 5482   0.337   1.027  17.091 -0.4225  0.1076  0.3005
  363TMC3    C1 5483   2.760   3.127   9.555 -0.4502 -0.4619  0.2075
  363TMC3    C2 5484   2.845   3.068   9.642 -0.3097  0.2181 -0.7338
  363TMC3    C3 5485   2.792   3.026   9.760  0.0262 -0.0355  0.3601
  363TMC3    C4 5486   2.634   3.156   9.589  0.5425  0.0312 -0.1150
  363TMC3    C5 5487   2.589   3.112   9.710 -0.0734 -0.0459  0.4316
  363TMC3    C6 5488   2.662   3.039   9.800 -0.1009  0.0867 -0.2565
  363TMC3     C 5489   2.831   3.206   9.448 -0.3003 -0.2124  0.1387
  363TMC3     O 5490   2.953   3.216   9.456  0.2350 -0.0206  0.0466
  363TMC3     H 5491   2.946   3.053   9.605 -0.2454 -2.0857  0.3892
  363TMC3    H1 5492   2.569   3.226   9.537 -3.0089 -3.0750  0.1260
  363TMC3    H2 5493   2.625   2.999   9.893 -1.3797  0.4274 -0.6187
  363TMC3    C7 5494   2.449   3.140   9.734  0.3272  0.0447 -0.3156
  363TMC3    C8 5495   2.879   2.940   9.851  0.5032 -0.1643 -1.0967
  363TMC3    O1 5496   2.398   3.223   9.661  0.7171 -0.0140  0.6502
  363TMC3    O2 5497   2.821   2.916   9.955 -0.3405 -0.0920 -0.4199
  364MPD2     C 5498   2.259   1.978  10.332 -0.2469 -0.2129  0.7388
  364MPD2    C1 5499   2.302   2.073  10.421 -0.0587  0.0664  0.0922
  364MPD2    C2 5500   2.421   2.051  10.485  0.3150 -0.1904  0.9350
  364MPD2    C3 5501   2.493   1.932  10.470 -0.0813 -0.2074 -0.8223
  364MPD2    C4 5502   2.449   1.839  10.382  0.7096  0.3716 -1.1898
  364MPD2    C5 5503   2.332   1.868  10.315 -0.2183  0.3935 -0.0242
  364MPD2     H 5504   2.452   2.121  10.561 -1.1706  1.8939 -0.3644
  364MPD2    H1 5505   2.497   1.742  10.369  0.6952  0.1210  0.6596
  364MPD2    H2 5506   2.167   1.988  10.276  0.2289 -0.2380 -0.0481
  364MPD2    H3 5507   2.299   1.796  10.241 -0.7946  1.0330 -0.3893
  364MPD2     N 5508   2.606   1.892  10.550 -0.8033 -0.1710 -0.1728
  364MPD2    H5 5509   2.655   1.805  10.528  0.4994  0.6860 -0.6548
  364MPD2    N1 5510   2.218   2.182  10.444  0.5981  0.2596  0.0751
  364MPD2    H7 5511   2.146   2.180  10.373 -0.8000  0.6038  1.4869
  365TMC3    C1 5512   2.155   2.403  10.518  0.1399 -0.3124 -0.0623
  365TMC3    C2 5513   2.157   2.467  10.401  0.3739 -0.4021  0.0812
  365TMC3    C3 5514   2.095   2.590  10.392 -0.0972 -0.0335 -0.4446
  365TMC3    C4 5515   2.119   2.463  10.636  0.1508  0.2802 -0.7899
  365TMC3    C5 5516   2.068   2.593  10.626  0.0781 -0.3521 -0.1065
  365TMC3    C6 5517   2.051   2.650  10.507  0.4721 -0.1741  0.2131
  365TMC3     C 5518   2.238   2.282  10.541 -1.0664  0.2369  0.6438
  365TMC3     O 5519   2.316   2.287  10.634 -0.4011  0.4372 -0.0634
  365TMC3     H 5520   2.196   2.411  10.316  0.7199  0.3007 -0.2248
  365TMC3    H1 5521   2.127   2.411  10.731 -0.0971 -0.5798 -1.2427
  365TMC3    H2 5522   1.984   2.735  10.499  0.4996 -0.1177  0.5695
  365TMC3    C7 5523   1.989   2.648  10.735 -0.1641  0.7332 -0.3017
  365TMC3    C8 5524   2.066   2.643  10.256  0.3791 -0.0088  0.1928
  365TMC3    O1 5525   1.895   2.723  10.711 -0.0947  0.2341  0.1873
  365TMC3    O2 5526   1.954   2.700  10.248 -0.2371  0.2364  0.1489
  366MPD2     C 5527   0.739   3.489  15.629 -0.2395  1.1609  0.3152
  366MPD2    C1 5528   0.820   3.608  15.644 -0.2413  0.1498 -0.0875
  366MPD2    C2 5529   0.954   3.600  15.610  0.5984 -0.5278  0.9311
  366MPD2    C3 5530   1.014   3.486  15.558  0.2028  0.4184 -0.5643
  366MPD2    C4 5531   0.938   3.374  15.537  0.0361 -0.0240  0.3470
  366MPD2    C5 5532   0.803   3.378  15.576 -0.5240 -1.1634 -0.1084
  366MPD2     H 5533   1.017   3.688  15.616  0.0669  0.0000 -1.0381
  366MPD2    H1 5534   0.972   3.280  15.496 -1.9492 -0.8553  0.6016
  366MPD2    H2 5535   0.637   3.494  15.665 -0.6690  0.4390 -0.7956
  366MPD2    H3 5536   0.738   3.292  15.567 -2.5086  0.2732  0.2356
  366MPD2     N 5537   1.151   3.493  15.516 -0.1617 -0.0381 -0.1762
  366MPD2    H5 5538   1.201   3.580  15.536 -0.0554 -0.0066 -0.5611
  366MPD2    N1 5539   0.775   3.737  15.680  0.3739 -0.5611  0.2300
  366MPD2    H7 5540   0.680   3.760  15.651  0.8125 -0.0631 -0.7992
  367TMC3    C1 5541   0.809   3.975  15.725 -0.2444  0.1956 -0.2970
  367TMC3    C2 5542   0.901   4.065  15.757  0.9906 -0.6403  0.4169
  367TMC3    C3 5543   0.914   4.170  15.676 -0.2041  0.0070 -0.1274
  367TMC3    C4 5544   0.708   4.013  15.643  0.3507  0.0544  0.0151
  367TMC3    C5 5545   0.723   4.123  15.565  0.2662  0.0982  0.3173
  367TMC3    C6 5546   0.821   4.205  15.584  0.3962  0.3133  1.0722
  367TMC3     C 5547   0.849   3.834  15.743  0.0015  0.0798 -0.3322
  367TMC3     O 5548   0.953   3.827  15.809 -0.1685  0.0063 -0.0912
  367TMC3     H 5549   0.974   4.060  15.837 -0.1167  0.4891  1.5123
  367TMC3    H1 5550   0.627   3.942  15.625 -0.0554 -0.0635  2.3167
  367TMC3    H2 5551   0.830   4.290  15.516  1.8717 -0.2013  0.6069
  367TMC3    C7 5552   0.600   4.187  15.528  0.4570  0.7574  0.3406
  367TMC3    C8 5553   1.028   4.257  15.699 -0.1108 -0.5676 -0.4555
  367TMC3    O1 5554   0.614   4.295  15.475 -0.6510  0.0228  0.1074
  367TMC3    O2 5555   1.137   4.216  15.747  0.7249 -0.2759 -0.3784
  368MPD2     C 5556   1.982   0.636  12.909 -0.7928 -0.0375  0.2346
  368MPD2    C1 5557   2.048   0.724  12.992  0.1941  0.3887  0.2597
  368MPD2    C2 5558   2.183   0.748  12.971  0.5432 -0.4382 -0.0403
  368MPD2    C3 5559   2.234   0.723  12.849  0.1117  0.0868 -0.4022
  368MPD2    C4 5560   2.164   0.643  12.761 -0.3350  0.1879  0.0668
  368MPD2    C5 5561   2.034   0.606  12.791 -0.6176  0.1508 -0.0879
  368MPD2     H 5562   2.241   0.806  13.043 -0.9253  1.1214 -0.1328
  368MPD2    H1 5563   2.202   0.619  12.663 -2.1207  2.7031 -1.2292
  368MPD2    H2 5564   1.881   0.598  12.921  0.3249 -2.2557  2.6615
  368MPD2    H3 5565   1.979   0.556  12.712  0.9304 -2.1473  0.3042
  368MPD2     N 5566   2.363   0.760  12.809  0.3845  0.0316 -0.0557
  368MPD2    H5 5567   2.400   0.728  12.720  0.7488  0.4492 -0.0534
  368MPD2    N1 5568   1.971   0.770  13.105  0.3564 -0.5566 -0.0045
  368MPD2    H7 5569   1.875   0.738  13.112  0.3931  0.0069  3.4899
  369TMC3    C1 5570   1.899   0.963  13.233  0.3427  0.0527 -0.2393
  369TMC3    C2 5571   1.922   1.098  13.214  0.2935 -0.3204  0.0900
  369TMC3    C3 5572   1.823   1.183  13.186 -0.0643  0.1559  0.8334
  369TMC3    C4 5573   1.769   0.914  13.224  0.1358 -0.0346  0.0839
  369TMC3    C5 5574   1.667   1.002  13.194 -0.0480 -0.9258 -0.5915
  369TMC3    C6 5575   1.695   1.135  13.167 -0.7619  0.2596  0.2236
  369TMC3     C 5576   2.009   0.880  13.180 -0.0387 -0.7634 -0.4132
  369TMC3     O 5577   2.120   0.927  13.202  0.1795 -0.6383 -0.3132
  369TMC3     H 5578   2.020   1.145  13.219  1.3716 -2.4501 -1.4036
  369TMC3    H1 5579   1.748   0.809  13.243  1.1582 -0.8528 -3.2311
  369TMC3    H2 5580   1.620   1.206  13.134 -1.7149  0.3764  2.6632
  369TMC3    C7 5581   1.531   0.976  13.242 -0.2916 -0.4619  0.1974
  369TMC3    C8 5582   1.859   1.275  13.083  0.1601 -0.1491  0.2266
  369TMC3    O1 5583   1.532   0.921  13.350  0.7590  0.3812  0.2420
  369TMC3    O2 5584   1.873   1.220  12.974  0.4298 -0.4417 -0.0066
  370TMC3    C1 5585   1.689   1.978  16.292 -0.3295  0.5634  0.3466
  370TMC3    C2 5586   1.593   1.905  16.354  0.0865  0.4594 -0.3820
  370TMC3    C3 5587   1.553   1.787  16.309 -0.0051 -0.4335 -0.6448
  370TMC3    C4 5588   1.757   1.928  16.187  0.0497  0.3307 -0.3840
  370TMC3    C5 5589   1.716   1.803  16.144  0.1594 -0.0008 -0.3522
  370TMC3    C6 5590   1.618   1.728  16.202  0.3040 -0.4447  0.1218
  370TMC3     C 5591   1.757   2.068  16.385 -0.3774  0.7616 -0.5726
  370TMC3     O 5592   1.751   2.030  16.505  0.0882 -0.2107 -0.3323
  370TMC3     H 5593   1.539   1.941  16.440 -2.0408 -1.4830 -0.9011
  370TMC3    H1 5594   1.841   1.983  16.145  0.2257  0.0428 -0.4109
  370TMC3    H2 5595   1.596   1.630  16.161 -1.9842 -0.0995  0.5248
  370TMC3    C7 5596   1.785   1.742  16.030 -0.5725  0.2656  0.2114
  370TMC3    C8 5597   1.514   1.698  16.425  0.0667  0.5263  0.1289
  370TMC3    O1 5598   1.829   1.825  15.950  0.0275  0.0037  0.2426
  370TMC3    O2 5599   1.531   1.579  16.397 -0.2348  0.0981 -0.4125
  371TMC3    C1 5600   2.844   0.068  15.512  0.2351 -0.3682 -0.6338
  371TMC3    C2 5601   2.770   0.044  15.623 -0.4681  0.1416 -0.2831
  371TMC3    C3 5602   2.737   0.156  15.699 -0.0443 -0.2606 -0.0293
  371TMC3    C4 5603   2.866   0.190  15.463  0.2588  0.5320 -0.3251
  371TMC3    C5 5604   2.814   0.295  15.533  0.2476  0.7544 -0.2973
  371TMC3    C6 5605   2.752   0.286  15.656  0.8093 -0.0776 -0.2965
  371TMC3     C 5606   2.953   4.712  15.476 -0.2235  0.0555 -0.1113
  371TMC3     O 5607   3.039   0.022  15.397  0.5766  0.2327  0.0017
  371TMC3     H 5608   2.760   4.679  15.670  1.4697  0.2659  0.3907
  371TMC3    H1 5609   2.914   0.209  15.368 -0.8061 -0.2992 -1.0373
  371TMC3    H2 5610   2.724   0.379  15.705  0.4652 -0.2917 -0.0837
  371TMC3    C7 5611   2.859   0.426  15.500  0.1924  0.6818 -0.3663
  371TMC3    C8 5612   2.644   0.138  15.810  0.6251 -0.0987 -0.0719
  371TMC3    O1 5613   2.876   0.507  15.591  0.1923  0.1943 -0.2626
  371TMC3    O2 5614   2.653   0.030  15.867  0.3705 -0.0804 -0.3632
  372MPD2     C 5615   2.028   1.075  13.540 -0.3945  0.5553  0.4345
  372MPD2    C1 5616   2.155   1.034  13.516 -0.5729 -0.3808  0.5992
  372MPD2    C2 5617   2.183   0.899  13.529  0.2917  0.4778 -0.0037
  372MPD2    C3 5618   2.080   0.811  13.558  0.2658  0.0742 -0.7923
  372MPD2    C4 5619   1.959   0.863  13.592 -0.1011  0.0479 -0.6590
  372MPD2    C5 5620   1.929   0.993  13.576  0.3174 -0.0032  0.3818
  372MPD2     H 5621   2.281   0.854  13.519 -0.3943 -1.4846  2.1670
  372MPD2    H1 5622   1.879   0.795  13.620  1.1272 -1.0094  0.2641
  372MPD2    H2 5623   2.009   1.182  13.533  4.6481  1.4021 -0.4280
  372MPD2    H3 5624   1.823   1.015  13.580  0.3256  0.5445 -2.6115
  372MPD2     N 5625   2.112   0.672  13.563 -0.4291 -0.1007 -0.2803
  372MPD2    H5 5626   2.211   0.649  13.557 -0.8587 -2.3029  1.2550
  372MPD2    N1 5627   2.259   1.119  13.467  0.3302  0.5305 -0.4632
  372MPD2    H7 5628   2.335   1.066  13.426 -0.4322 -1.4639  0.7400
  373TMC3    C1 5629   2.075   0.434  13.585  0.6532 -0.2595 -0.3349
  373TMC3    C2 5630   2.184   0.411  13.664 -0.1428  0.0801  0.4429
  373TMC3    C3 5631   2.202   0.288  13.724  0.0114 -0.1888  0.0868
  373TMC3    C4 5632   1.988   0.329  13.554  0.4596 -0.2624 -0.0912
  373TMC3    C5 5633   2.010   0.204  13.611  0.6245  0.1983 -0.5231
  373TMC3    C6 5634   2.106   0.189  13.705 -0.2467  0.6894 -0.1422
  373TMC3     C 5635   2.025   0.570  13.558  0.0564  0.1177  0.0625
  373TMC3     O 5636   1.908   0.583  13.532 -0.3052  0.0395  0.4131
  373TMC3     H 5637   2.260   0.487  13.674 -0.0564 -0.0248  0.6026
  373TMC3    H1 5638   1.901   0.340  13.490  0.5588  0.3569 -0.1212
  373TMC3    H2 5639   2.129   0.086  13.732 -0.7488 -0.2648 -3.3845
  373TMC3    C7 5640   2.002   0.090  13.518  0.2685  0.1189  0.1463
  373TMC3    C8 5641   2.331   0.241  13.774  0.1300 -0.0267  0.2503
  373TMC3    O1 5642   2.085   0.001  13.526 -0.1332  0.1783  0.0832
  373TMC3    O2 5643   2.353   0.118  13.779 -0.5755  0.1984  0.6567
  374TMC3    C1 5644   2.901   1.327   9.580 -0.4890  0.3566  0.6542
  374TMC3    C2 5645   3.036   1.303   9.580  0.2094 -0.6298 -0.6149
  374TMC3    C3 5646   3.116   1.372   9.494 -0.1529 -0.5804 -1.1931
  374TMC3    C4 5647   2.840   1.389   9.472  0.2580  0.4912 -0.3391
  374TMC3    C5 5648   2.921   1.435   9.371 -0.7058  0.6284  0.2607
  374TMC3    C6 5649   3.062   1.433   9.380 -0.1830  0.5001 -0.3638
  374TMC3     C 5650   2.822   1.250   9.679  0.3037 -0.2345  0.1827
  374TMC3     O 5651   2.705   1.286   9.686 -0.8912 -0.2056  0.0906
  374TMC3     H 5652   3.091   1.262   9.664  0.2057 -0.3888 -0.4966
  374TMC3    H1 5653   2.733   1.394   9.459  0.1723  3.4225  1.3468
  374TMC3    H2 5654   3.130   1.499   9.327 -0.1391  0.1645 -0.7282
  374TMC3    C7 5655   2.856   1.531   9.285 -0.6381  0.5222  0.6935
  374TMC3    C8 5656   3.249   1.402   9.530  0.7156 -0.1676 -0.2466
  374TMC3    O1 5657   2.738   1.559   9.309  0.2559 -0.1517 -0.1792
  374TMC3    O2 5658   3.322   1.436   9.440 -0.3503  0.1970  0.1058
  375MPD2     C 5659   3.095   2.287  17.409  0.5706 -0.2824  0.2064
  375MPD2    C1 5660   2.989   2.273  17.321 -0.6769 -0.7259 -0.5125
  375MPD2    C2 5661   2.994   2.175  17.221  0.1823 -0.7599  0.5936
  375MPD2    C3 5662   3.099   2.084  17.215  0.1129  0.6781 -0.0925
  375MPD2    C4 5663   3.200   2.093  17.312 -1.2816  0.1634 -0.3195
  375MPD2    C5 5664   3.201   2.196  17.405  0.1516 -0.5435  0.1944
  375MPD2     H 5665   2.917   2.168  17.146 -0.6757 -1.6020  1.5549
  375MPD2    H1 5666   3.287   2.029  17.300  0.0228  2.0034 -0.6710
  375MPD2    H2 5667   3.092   2.365  17.484  1.2619 -2.8363  2.8640
  375MPD2    H3 5668   3.277   2.206  17.481  1.1203  2.6055 -1.1534
  375MPD2     N 5669   3.114   1.987  17.111  0.4003 -0.1750 -0.8131
  375MPD2    H5 5670   3.192   1.922  17.117  1.8854  1.7999  1.2518
  375MPD2    N1 5671   2.884   2.367  17.320 -0.3016  0.3014 -0.0892
  375MPD2    H7 5672   2.819   2.368  17.242 -1.5718  0.3019  0.9711
  376TMC3    C1 5673   3.119   1.910  16.892 -0.8913 -0.3496 -0.5207
  376TMC3    C2 5674   3.220   1.827  16.923 -0.2080 -0.4210 -0.1407
  376TMC3    C3 5675   3.302   1.772  16.827 -0.0496  0.0076  0.1292
  376TMC3    C4 5676   3.082   1.941  16.760  0.3454  0.9734 -0.3793
  376TMC3    C5 5677   3.160   1.880  16.659 -0.1456 -0.8672 -0.7769
  376TMC3    C6 5678   3.265   1.792  16.695  0.5558  0.5982 -0.4422
  376TMC3     C 5679   3.041   1.987  16.989 -0.1156 -0.3017 -0.2863
  376TMC3     O 5680   2.954   2.064  16.955 -0.1172 -0.0530 -0.0576
  376TMC3     H 5681   3.241   1.798  17.026 -1.1811  1.0377  0.4577
  376TMC3    H1 5682   3.002   2.008  16.734 -0.2766  0.2487 -0.3332
  376TMC3    H2 5683   3.318   1.736  16.619  0.2635  0.3071 -0.4325
  376TMC3    C7 5684   3.100   1.857  16.527 -0.4418  0.2596 -0.9886
  376TMC3    C8 5685   3.428   1.717  16.849  0.9031 -0.2396  0.6827
  376TMC3    O1 5686   3.095   1.734  16.496  0.6287  0.3339  0.4143
  376TMC3    O2 5687   3.452   1.663  16.956  0.0584 -0.1084 -0.0755
  377MPD2     C 5688   1.582   1.495  12.699  0.2038  0.4395 -0.6302
  377MPD2    C1 5689   1.509   1.571  12.613 -0.5754 -0.6417 -0.5430
  377MPD2    C2 5690   1.372   1.559  12.627  0.0957  0.0353 -0.1209
  377MPD2    C3 5691   1.314   1.466  12.715  0.2319  0.2360 -0.4020
  377MPD2    C4 5692   1.390   1.406  12.811 -0.3501 -0.0687 -0.0293
  377MPD2    C5 5693   1.524   1.408  12.793 -1.0948 -0.6487  0.0983
  377MPD2     H 5694   1.315   1.629  12.566  0.6843  1.8478  1.4162
  377MPD2    H1 5695   1.355   1.337  12.887 -1.5715  0.5842 -0.0090
  377MPD2    H2 5696   1.690   1.490  12.691  0.1809  0.8610 -1.2086
  377MPD2    H3 5697   1.593   1.355  12.858  1.2395  2.6902  0.3168
  377MPD2     N 5698   1.172   1.455  12.724  0.1803 -0.0670 -1.0608
  377MPD2    H5 5699   1.151   1.402  12.808  2.0356  0.0993 -0.4930
  377MPD2    N1 5700   1.568   1.657  12.517  0.0136 -0.0331  0.2733
  377MPD2    H7 5701   1.669   1.648  12.514  0.0503  0.5886 -0.3771
  378TMC3    C1 5702   1.603   1.964  12.171  0.0283 -0.4050  0.6472
  378TMC3    C2 5703   1.549   1.922  12.290  0.3833 -0.5026  0.6170
  378TMC3    C3 5704   1.585   1.804  12.338 -0.0648 -0.6580 -0.0650
  378TMC3    C4 5705   1.690   1.888  12.100 -0.7577  0.3594  0.1479
  378TMC3    C5 5706   1.728   1.770  12.156  0.4523 -0.0224 -0.0432
  378TMC3    C6 5707   1.675   1.717  12.272  0.0196  0.0886 -0.0734
  378TMC3     C 5708   1.526   2.065  12.100  0.7312  0.0727  0.2683
  378TMC3     O 5709   1.428   2.101  12.161 -0.5481 -0.1692  0.4054
  378TMC3     H 5710   1.466   1.975  12.336  0.2295  0.7964 -1.1517
  378TMC3    H1 5711   1.728   1.930  12.007  3.5151 -0.2267  1.6429
  378TMC3    H2 5712   1.700   1.617  12.306  1.5813  0.8147  0.9398
  378TMC3    C7 5713   1.810   1.674  12.077  0.2345  0.7963 -0.3077
  378TMC3    C8 5714   1.503   1.761  12.447  0.4252  0.2366  0.8508
  378TMC3    O1 5715   1.856   1.582  12.138  0.5297  0.5649 -0.0818
  378TMC3    O2 5716   1.393   1.814  12.481  0.5020 -0.4619 -0.1781
  379MPD2     C 5717   1.581   4.474  16.467 -0.2524  0.1789 -0.7188
  379MPD2    C1 5718   1.694   4.470  16.381  0.1443 -0.7068 -0.2037
  379MPD2    C2 5719   1.806   4.402  16.427  0.8962 -0.3964  0.0184
  379MPD2    C3 5720   1.801   4.325  16.540 -0.4352 -0.4353 -0.2153
  379MPD2    C4 5721   1.689   4.327  16.617 -0.1416 -0.2013 -0.4786
  379MPD2    C5 5722   1.576   4.402  16.585 -0.2653 -1.1592 -0.3988
  379MPD2     H 5723   1.895   4.408  16.365  0.1189 -1.8679 -1.2593
  379MPD2    H1 5724   1.692   4.258  16.700  2.1338  0.2573 -0.1847
  379MPD2    H2 5725   1.492   4.526  16.433  0.3551  1.3812 -0.4646
  379MPD2    H3 5726   1.488   4.373  16.641 -1.6104  0.4116 -1.7118
  379MPD2     N 5727   1.912   4.257  16.600 -0.9244 -0.4351  0.5507
  379MPD2    H5 5728   1.904   4.230  16.697  0.8723  0.3145  0.8905
  379MPD2    N1 5729   1.693   4.547  16.264 -0.0222 -1.2015 -0.0958
  379MPD2    H7 5730   1.600   4.582  16.242  0.5136  0.7142  0.6845
  380TMC3    C1 5731   1.752   4.612  16.044 -0.2905 -0.7501  0.5082
  380TMC3    C2 5732   1.819   4.572  15.930  0.4863 -0.2218  0.4612
  380TMC3    C3 5733   1.767   4.612  15.808  0.1910 -0.4108  0.3071
  380TMC3    C4 5734   1.631   4.678  16.036  0.3842  0.2016 -0.3010
  380TMC3    C5 5735   1.573   4.691  15.915 -0.5511  0.2036 -0.4330
  380TMC3    C6 5736   1.637   4.660  15.798 -0.4351 -0.0085 -0.3191
  380TMC3     C 5737   1.790   4.544  16.164  0.3482 -0.3392  0.0349
  380TMC3     O 5738   1.896   4.484  16.160  0.0930 -0.5889  0.3723
  380TMC3     H 5739   1.921   4.542  15.947  0.4820 -0.3515  0.2472
  380TMC3    H1 5740   1.569   4.695  16.124 -1.9413 -0.4625 -1.8124
  380TMC3    H2 5741   1.586   4.698  15.710  0.6519  0.8328 -0.5818
  380TMC3    C7 5742   1.436   0.004  15.913  0.7508 -0.5550  0.0524
  380TMC3    C8 5743   1.834   4.571  15.682  0.3228  0.0382 -0.2882
  380TMC3    O1 5744   1.405   0.105  15.977  0.3236  0.1694 -0.0277
  380TMC3    O2 5745   1.778   4.571  15.578  0.3575 -0.3728 -0.6295
  381TMC3    C1 5746   1.512   1.004  16.199 -0.9113  0.0164 -0.2480
  381TMC3    C2 5747   1.589   1.109  16.176 -0.2904  0.1024  0.1782
  381TMC3    C3 5748   1.609   1.195  16.275  0.2872 -0.9976  0.6141
  381TMC3    C4 5749   1.444   0.985  16.313 -0.0948 -0.3455 -0.0082
  381TMC3    C5 5750   1.449   1.083  16.414  0.3653  0.6846  0.6041
  381TMC3    C6 5751   1.536   1.187  16.394  0.0934 -0.1894 -0.3668
  381TMC3     C 5752   1.547   0.892  16.116 -0.3820  0.3190 -0.1013
  381TMC3     O 5753   1.613   0.911  16.016 -0.7212 -0.1473  0.2924
  381TMC3     H 5754   1.644   1.129  16.085 -1.5102  1.7510 -0.1834
  381TMC3    H1 5755   1.381   0.897  16.322  0.7842 -0.8376  1.2423
  381TMC3    H2 5756   1.551   1.244  16.485  0.7179 -0.9804  0.0281
  381TMC3    C7 5757   1.419   1.036  16.544 -0.8144  0.2290 -0.2848
  381TMC3    C8 5758   1.741   1.251  16.289  0.5884 -0.5858  0.1462
  381TMC3    O1 5759   1.428   0.913  16.563  0.4351 -0.5552 -0.0599
  381TMC3    O2 5760   1.835   1.185  16.243  0.5799 -0.2762 -0.2977
  382MPD2     C 5761   0.773   3.554  17.601  0.1157  0.3546 -0.5788
  382MPD2    C1 5762   0.880   3.471  17.650 -0.2844 -0.1712 -0.0409
  382MPD2    C2 5763   0.891   3.343  17.607 -0.6114  0.3965 -0.0611
  382MPD2    C3 5764   0.778   3.291  17.542  0.4905 -0.5025  0.6740
  382MPD2    C4 5765   0.679   3.369  17.484  0.1237 -0.3504 -0.1925
  382MPD2    C5 5766   0.675   3.504  17.520 -0.3659  0.0390 -0.7471
  382MPD2     H 5767   0.975   3.285  17.644 -0.2802  0.1500 -1.2146
  382MPD2    H1 5768   0.604   3.320  17.423 -1.0948 -0.8246  1.6572
  382MPD2    H2 5769   0.758   3.658  17.628  3.1724  1.4737 -3.2235
  382MPD2    H3 5770   0.607   3.578  17.479  2.9558  1.8382 -3.0178
  382MPD2     N 5771   0.772   3.147  17.522 -0.1343  0.7214  0.0256
  382MPD2    H5 5772   0.697   3.103  17.470  1.0988 -2.0391  0.5459
  382MPD2    N1 5773   0.978   3.525   0.001  0.0727  0.3719 -0.1797
  382MPD2    H7 5774   1.065   3.474   0.011 -1.0296 -1.1272  1.9691
  383TMC3    C1 5775   0.823   2.927  17.540 -0.1739  0.2224 -0.8384
  383TMC3    C2 5776   0.765   2.902  17.416 -0.4493  0.1376 -0.0864
  383TMC3    C3 5777   0.727   2.776  17.386  0.2994  0.3131 -1.0360
  383TMC3    C4 5778   0.840   2.823  17.628  0.1068  0.0255 -0.0342
  383TMC3    C5 5779   0.790   2.702  17.605 -0.2550  0.4814  0.1683
  383TMC3    C6 5780   0.730   2.676  17.477  0.0651  0.4258  0.6521
  383TMC3     C 5781   0.865   3.058  17.569 -0.1247 -0.3713 -0.5570
  383TMC3     O 5782   0.942   3.072  17.663 -0.2499  0.2665  0.0082
  383TMC3     H 5783   0.758   2.978  17.339 -1.6109  0.7289  0.6037
  383TMC3    H1 5784   0.892   2.847  17.720  1.1336  4.0670 -1.6667
  383TMC3    H2 5785   0.679   2.582  17.458 -1.3372  1.3677 -0.3012
  383TMC3    C7 5786   0.777   2.610  17.717 -0.0522  0.3449 -0.5949
  383TMC3    C8 5787   0.644   2.756  17.275  0.1313 -0.1331  0.0569
  383TMC3    O1 5788   0.711   2.509  17.696 -0.1215 -0.3691  0.4475
  383TMC3    O2 5789   0.547   2.832  17.258 -0.0452 -0.3225  0.1177
  384MPD2     C 5790   1.974   3.921  12.124  0.3500  0.1315  0.8342
  384MPD2    C1 5791   1.934   3.838  12.225  0.2020 -0.2857  0.0034
  384MPD2    C2 5792   1.981   3.706  12.229  0.0921  0.2339  0.6018
  384MPD2    C3 5793   2.054   3.650  12.125  0.4987  0.7310 -0.2314
  384MPD2    C4 5794   2.083   3.728  12.007  0.5069 -0.3980 -0.0873
  384MPD2    C5 5795   2.040   3.862  12.013 -0.3610 -0.7422  0.1203
  384MPD2     H 5796   1.956   3.647  12.316  0.3297  1.3990  1.4511
  384MPD2    H1 5797   2.140   3.688  11.924 -1.6339  0.8225 -2.1412
  384MPD2    H2 5798   1.943   4.025  12.118  0.7698  0.0618 -2.5148
  384MPD2    H3 5799   2.077   3.917  11.928 -0.7568 -1.5841 -0.6075
  384MPD2     N 5800   2.111   3.520  12.130 -0.8167  0.2731 -0.1016
  384MPD2    H5 5801   2.194   3.514  12.071 -0.3788  1.3496  0.3990
  384MPD2    N1 5802   1.879   3.899  12.340  0.2657  0.2885 -0.6137
  384MPD2    H7 5803   1.880   4.001  12.343  0.7235  0.2477  0.5314
  385TMC3    C1 5804   2.212   3.356  12.268  0.4873 -0.0558 -0.3642
  385TMC3    C2 5805   2.192   3.232  12.323  0.1055  0.3009  0.0946
  385TMC3    C3 5806   2.283   3.192  12.419 -0.2578  0.0666 -0.1910
  385TMC3    C4 5807   2.316   3.434  12.302  0.8777 -0.0503  0.1725
  385TMC3    C5 5808   2.399   3.399  12.401  0.0954 -0.1869  0.0039
  385TMC3    C6 5809   2.378   3.272  12.460  0.3616  0.0918  0.6943
  385TMC3     C 5810   2.095   3.427  12.227  0.1366  0.1907  0.5470
  385TMC3     O 5811   1.986   3.404  12.286 -0.0022 -0.2654 -0.2754
  385TMC3     H 5812   2.099   3.178  12.305  0.0202  0.3831  0.2869
  385TMC3    H1 5813   2.312   3.532  12.255  0.2804 -0.3493 -0.4118
  385TMC3    H2 5814   2.448   3.235  12.534  0.1067 -0.6263  0.5751
  385TMC3    C7 5815   2.434   3.513  12.481  0.4949 -0.7401  0.8414
  385TMC3    C8 5816   2.325   3.054  12.428  0.0469 -0.5451 -0.2152
  385TMC3    O1 5817   2.413   3.623  12.425 -0.2418 -0.3528  0.2229
  385TMC3    O2 5818   2.359   3.005  12.538 -0.3171  0.0540  0.4284
  386TMC3    C1 5819   2.627   0.930  11.556 -0.0998 -0.9279  0.6032
  386TMC3    C2 5820   2.583   1.022  11.459 -0.0544  0.4881  0.3410
  386TMC3    C3 5821   2.544   1.147  11.500 -0.6094 -0.2691 -0.6673
  386TMC3    C4 5822   2.618   0.967  11.688 -0.0394 -0.0593 -0.9291
  386TMC3    C5 5823   2.579   1.095  11.718  0.1603 -0.3278 -0.0039
  386TMC3    C6 5824   2.533   1.179  11.628 -0.5271  0.5186  0.3081
  386TMC3     C 5825   2.663   0.799  11.509  0.4882  0.0980 -0.2449
  386TMC3     O 5826   2.603   0.754  11.411  0.1860  0.2129  0.5747
  386TMC3     H 5827   2.583   0.992  11.355 -0.3673  1.5087  0.0453
  386TMC3    H1 5828   2.650   0.892  11.759  1.8176  1.0178 -0.6142
  386TMC3    H2 5829   2.500   1.275  11.668 -0.0216  1.9045 -2.6096
  386TMC3    C7 5830   2.596   1.136  11.858 -0.3315  0.0798 -0.1558
  386TMC3    C8 5831   2.541   1.261  11.408  0.2486  0.3473  0.0516
  386TMC3    O1 5832   2.575   1.253  11.883 -0.2108  0.3575 -0.2096
  386TMC3    O2 5833   2.484   1.368  11.432  0.1461  0.2829 -0.7895
  387MPD2     C 5834   0.086   1.258   9.766  0.5389 -0.4561  1.1221
  387MPD2    C1 5835   0.202   1.246   9.689 -0.1073  0.1757  0.0334
  387MPD2    C2 5836   0.207   1.148   9.591  0.4542 -0.2449 -0.0961
  387MPD2    C3 5837   0.106   1.058   9.576  0.4683 -0.0111 -0.3446
  387MPD2    C4 5838   4.725   1.066   9.650  0.2003  0.3030  0.0888
  387MPD2    C5 5839   4.722   1.169   9.736 -0.4470 -0.0905  0.5546
  387MPD2     H 5840   0.294   1.135   9.527 -0.8622 -2.7501 -1.4049
  387MPD2    H1 5841   4.644   0.994   9.644  1.8749 -1.5745 -0.2353
  387MPD2    H2 5842   0.064   1.339   9.834  2.6368  1.3250 -0.3631
  387MPD2    H3 5843   4.632   1.168   9.796  0.5415 -2.5019  2.0094
  387MPD2     N 5844   0.130   0.948   9.493  0.3249 -0.1477  0.2023
  387MPD2    H5 5845   0.210   0.946   9.431 -1.0048  0.1069 -1.5101
  387MPD2    N1 5846   0.319   1.324   9.714 -0.4352 -0.7814  0.0202
  387MPD2    H7 5847   0.399   1.294   9.659  1.0013  0.0942  1.6403
  388TMC3    C1 5848   0.465   1.425   9.889  0.1632 -0.1297  0.1774
  388TMC3    C2 5849   0.465   1.433  10.025  0.3641 -0.0479 -0.3428
  388TMC3    C3 5850   0.578   1.398  10.085  0.0909 -0.3438  0.2887
  388TMC3    C4 5851   0.570   1.367   9.818 -0.1129 -0.2963 -1.0198
  388TMC3    C5 5852   0.684   1.341   9.888  0.3199 -0.4630 -0.6936
  388TMC3    C6 5853   0.691   1.362  10.018 -0.2049  0.6242 -0.0320
  388TMC3     C 5854   0.328   1.407   9.829 -0.1125 -1.0363  0.2305
  388TMC3     O 5855   0.246   1.459   9.902  0.1018  0.0340 -0.2038
  388TMC3     H 5856   0.374   1.454  10.081  0.9340 -0.2188  0.6426
  388TMC3    H1 5857   0.575   1.352   9.711  0.9451 -0.0542 -1.0034
  388TMC3    H2 5858   0.775   1.317  10.071 -1.3633 -1.4333  0.0683
  388TMC3    C7 5859   0.760   1.224   9.842  0.1887 -0.6513 -0.6061
  388TMC3    C8 5860   0.594   1.434  10.227  0.8378 -0.3002 -0.9336
  388TMC3    O1 5861   0.875   1.217   9.879  0.0377 -0.2237 -0.6142
  388TMC3    O2 5862   0.685   1.379  10.289 -0.0888  0.4098 -0.4830
  389MPD2     C 5863   4.148   4.455  11.468 -0.6817 -0.2925 -0.1225
  389MPD2    C1 5864   4.102   4.353  11.380  0.3358 -0.8071  0.2447
  389MPD2    C2 5865   4.021   4.255  11.435  0.1533  0.5011 -0.2208
  389MPD2    C3 5866   3.966   4.270  11.557  0.6570  0.3842 -0.0323
  389MPD2    C4 5867   4.007   4.367  11.641 -0.8038  0.4594 -0.1564
  389MPD2    C5 5868   4.099   4.463  11.595  0.9007  0.6193 -0.6312
  389MPD2     H 5869   3.997   4.172  11.370 -0.3267 -0.0893  0.7024
  389MPD2    H1 5870   3.979   4.365  11.745  0.3894 -0.8287  0.1400
  389MPD2    H2 5871   4.227   4.523  11.438 -0.0414 -0.6249  0.8086
  389MPD2    H3 5872   4.141   4.533  11.666 -0.0903  2.7511 -2.1782
  389MPD2     N 5873   3.870   4.185  11.610  0.2462 -0.1651 -0.3930
  389MPD2    H5 5874   3.829   4.225  11.693  2.2390  3.1117 -0.9853
  389MPD2    N1 5875   4.149   4.343  11.250  0.0315 -0.6036  0.7772
  389MPD2    H7 5876   4.207   4.424  11.229  2.6467 -2.8591 -0.7597
  390TMC3    C1 5877   3.742   4.017  11.646  0.1721  0.0348  1.0104
  390TMC3    C2 5878   3.757   3.905  11.722  0.1586  0.2353  0.9496
  390TMC3    C3 5879   3.663   3.872  11.820 -0.1792  0.0572 -0.1592
  390TMC3    C4 5880   3.640   4.105  11.660 -0.5130 -0.0863  0.0836
  390TMC3    C5 5881   3.543   4.063  11.747 -0.0635 -0.0100  0.3798
  390TMC3    C6 5882   3.566   3.962  11.836 -0.3005  0.3318  0.0457
  390TMC3     C 5883   3.855   4.059  11.568 -0.7487  0.1655  0.0532
  390TMC3     O 5884   3.923   3.988  11.499  0.2378  0.1805  0.4585
  390TMC3     H 5885   3.840   3.840  11.695 -0.4535 -0.7304  1.4144
  390TMC3    H1 5886   3.628   4.172  11.576 -1.0179  0.9780  1.0183
  390TMC3    H2 5887   3.496   3.949  11.918  0.5754  1.8607  1.0393
  390TMC3    C7 5888   3.433   4.033  11.659 -0.2464  0.5127  0.8757
  390TMC3    C8 5889   3.615   3.734  11.818 -0.0464  0.3102  0.4346
  390TMC3    O1 5890   3.419   4.098  11.557  0.1304 -0.3196 -0.0719
  390TMC3    O2 5891   3.663   3.654  11.740  0.4456 -0.7726  0.5295
  391MPD2     C 5892   3.248   1.374  11.108  0.0039  0.2194 -0.2785
  391MPD2    C1 5893   3.381   1.400  11.105 -0.1192 -0.8194  0.4535
  391MPD2    C2 5894   3.441   1.432  10.979 -0.0872  0.0266 -0.1042
  391MPD2    C3 5895   3.363   1.459  10.864  0.9121  0.0403 -0.2316
  391MPD2    C4 5896   3.222   1.443  10.878 -0.2167 -0.0037 -0.6325
  391MPD2    C5 5897   3.167   1.398  11.000 -0.1576  0.1900  0.4204
  391MPD2     H 5898   3.549   1.439  10.965 -0.1352  1.3504  0.1273
  391MPD2    H1 5899   3.150   1.475  10.803 -0.8116  1.7453  0.6723
  391MPD2    H2 5900   3.190   1.344  11.196  0.0046  1.2038  0.0564
  391MPD2    H3 5901   3.061   1.378  11.004 -0.2649  0.8433  0.9086
  391MPD2     N 5902   3.427   1.499  10.744  0.7874 -0.4370  0.9434
  391MPD2    H5 5903   3.527   1.516  10.740 -0.0676  4.2166 -0.3636
  391MPD2    N1 5904   3.455   1.383  11.223 -0.0258 -0.0762 -0.6063
  391MPD2    H7 5905   3.396   1.361  11.303  1.0201  0.0879  0.2136
  392TMC3    C1 5906   3.467   1.525  10.517 -0.1471  0.3089  0.1039
  392TMC3    C2 5907   3.423   1.504  10.392 -0.4608  0.6851  0.0814
  392TMC3    C3 5908   3.498   1.548  10.289  0.2352  0.3537 -0.4600
  392TMC3    C4 5909   3.594   1.583  10.544  0.0256 -0.2030  0.0175
  392TMC3    C5 5910   3.661   1.635  10.436 -0.9039  0.2085  0.1401
  392TMC3    C6 5911   3.618   1.618  10.306  0.4063 -0.0087 -0.9496
  392TMC3     C 5912   3.369   1.509  10.621  0.0426  0.2152  0.3397
  392TMC3     O 5913   3.256   1.486  10.587  0.0064 -0.0896  0.4911
  392TMC3     H 5914   3.321   1.472  10.374 -0.6971  1.9541 -0.8392
  392TMC3    H1 5915   3.628   1.614  10.642 -2.4212 -1.1973  1.1738
  392TMC3    H2 5916   3.676   1.661  10.226  1.1235  2.0697  0.6774
  392TMC3    C7 5917   3.789   1.704  10.469 -0.1024  0.7479 -0.0079
  392TMC3    C8 5918   3.445   1.534  10.150  0.1936 -0.2217 -0.3544
  392TMC3    O1 5919   3.835   1.680  10.576 -0.3551  0.0561  0.6265
  392TMC3    O2 5920   3.323   1.548  10.142 -0.0081  0.0161  0.5211
  393TMC3    C1 5921   2.050   4.122  10.454 -0.1192 -0.2528  0.0580
  393TMC3    C2 5922   1.918   4.135  10.481  0.3869 -0.0897  0.2001
  393TMC3    C3 5923   1.875   4.055  10.581 -0.5779  0.5673  0.2551
  393TMC3    C4 5924   2.138   4.034  10.511 -0.2310 -0.2969 -0.7779
  393TMC3    C5 5925   2.080   3.939  10.587  0.1413 -0.3291 -0.6474
  393TMC3    C6 5926   1.950   3.955  10.623 -0.4878 -0.3644  0.3465
  393TMC3     C 5927   2.101   4.208  10.343  0.0413 -0.0059  0.4935
  393TMC3     O 5928   2.221   4.235  10.350  0.1130 -0.2116 -0.3015
  393TMC3     H 5929   1.861   4.223  10.456 -0.2440 -1.0502 -1.6900
  393TMC3    H1 5930   2.240   4.043  10.475 -0.0480  1.2423  0.1174
  393TMC3    H2 5931   1.919   3.892  10.706  2.3214  0.3156  1.9266
  393TMC3    C7 5932   2.153   3.846  10.674  0.3119  0.7311  0.1076
  393TMC3    C8 5933   1.734   4.080  10.618 -0.6455 -0.4637  0.2199
  393TMC3    O1 5934   2.093   3.744  10.701  0.4006 -0.1903  0.4526
  393TMC3    O2 5935   1.658   4.132  10.536 -0.0979 -0.0737 -0.5019
  394TMC3    C1 5936   4.139   4.292  11.020 -0.7239  0.5706 -0.3963
  394TMC3    C2 5937   4.053   4.318  10.913 -0.0830  0.1005 -0.1612
  394TMC3    C3 5938   4.087   4.405  10.820 -0.3908  0.0666  0.5503
  394TMC3    C4 5939   4.263   4.350  11.015  0.2446  0.1028  0.1768
  394TMC3    C5 5940   4.298   4.428  10.906  0.0309  0.4914 -0.0291
  394TMC3    C6 5941   4.204   4.479  10.818 -0.9702 -0.1948 -0.1452
  394TMC3     C 5942   4.081   4.272  11.151  0.4699 -0.7140 -0.4839
  394TMC3     O 5943   3.981   4.204  11.152 -0.3011  0.1903 -0.4820
  394TMC3     H 5944   3.952   4.282  10.925 -0.9002  3.0070  1.6490
  394TMC3    H1 5945   4.333   4.335  11.097  0.7321 -2.0935 -0.6238
  394TMC3    H2 5946   4.214   4.557  10.744 -1.8946  1.4399  1.4521
  394TMC3    C7 5947   4.428   4.490  10.925  0.1989 -0.3435  0.0439
  394TMC3    C8 5948   3.987   4.433  10.716 -0.7890  0.9390 -0.2427
  394TMC3    O1 5949   4.511   4.434  10.998  0.1543  0.4507 -0.4448
  394TMC3    O2 5950   3.871   4.448  10.754 -0.1174 -0.3396  0.4862
  395TMC3    C1 5951   4.377   1.935  15.091 -0.0315  0.4623  0.3382
  395TMC3    C2 5952   4.334   1.904  14.962  0.8258  0.4574 -0.5356
  395TMC3    C3 5953   4.395   1.967  14.858 -0.2750 -0.7573  0.0420
  395TMC3    C4 5954   4.474   2.027  15.116  0.3656  0.3475  0.0786
  395TMC3    C5 5955   4.522   2.098  15.010  0.4283 -0.6056 -0.9631
  395TMC3    C6 5956   4.491   2.066  14.883 -0.2425 -0.6472  0.1472
  395TMC3     C 5957   4.294   1.885  15.203 -0.2304 -0.0958 -0.0773
  395TMC3     O 5958   4.287   1.949  15.307 -0.0765 -0.5000  0.8214
  395TMC3     H 5959   4.243   1.851  14.936 -0.9143  1.8940  2.5259
  395TMC3    H1 5960   4.491   2.072  15.212  0.6136  1.1803 -0.3551
  395TMC3    H2 5961   4.542   2.115  14.800 -2.9284 -0.2997 -1.2935
  395TMC3    C7 5962   4.608   2.211  15.042  0.0166  0.1805 -0.0073
  395TMC3    C8 5963   4.367   1.932  14.726  0.1538 -0.1190  1.0606
  395TMC3    O1 5964   4.572   2.285  15.132  0.5955 -0.7897  0.1785
  395TMC3    O2 5965   4.470   1.902  14.660  0.0640  0.2341 -0.3384
  396MPD2     C 5966   4.087   2.777  17.236  0.0414  0.4482  0.1785
  396MPD2    C1 5967   4.178   2.869  17.269  0.9097 -0.7093  0.2624
  396MPD2    C2 5968   4.178   2.994  17.204  0.4844 -0.0007  0.3980
  396MPD2    C3 5969   4.086   3.026  17.106 -0.2004  0.0094  0.6853
  396MPD2    C4 5970   3.985   2.934  17.076  0.1550 -0.3463 -1.0666
  396MPD2    C5 5971   3.984   2.810  17.145 -0.7288 -1.2152  0.7008
  396MPD2     H 5972   4.244   3.076  17.229 -0.2793  0.1808  1.7976
  396MPD2    H1 5973   3.907   2.942  17.002  1.2177 -0.8560 -2.2291
  396MPD2    H2 5974   4.085   2.680  17.284  0.2659 -1.5067 -3.6991
  396MPD2    H3 5975   3.907   2.734  17.134 -1.6267 -0.2679  0.3626
  396MPD2     N 5976   4.115   3.142  17.026  0.1504 -0.0355  0.0859
  396MPD2    H5 5977   4.197   3.199  17.044 -1.7763  2.0624  2.0971
  396MPD2    N1 5978   4.261   2.844  17.385 -0.0513 -0.5419  0.0792
  396MPD2    H7 5979   4.283   2.747  17.404 -0.2893 -1.1064 -2.4319
  397TMC3    C1 5980   4.427   2.890  17.541 -0.7938  0.0510  0.2411
  397TMC3    C2 5981   4.546   2.872  17.472 -0.5378  0.7460  1.3017
  397TMC3    C3 5982   4.602   2.744  17.465  0.0998 -0.3237 -0.5411
  397TMC3    C4 5983   4.385   2.791  17.630  0.5917  0.5536  0.3850
  397TMC3    C5 5984   4.456   2.675  17.644 -0.5121 -0.0941  0.0535
  397TMC3    C6 5985   4.557   2.644  17.556 -0.2042  0.7644  0.2551
  397TMC3     C 5986   4.319   2.937  17.462 -0.8060 -0.4142  0.3603
  397TMC3     O 5987   4.321   3.058  17.448 -0.1748 -0.6848 -0.2171
  397TMC3     H 5988   4.544   2.942  17.389 -0.7467 -1.3276 -0.4402
  397TMC3    H1 5989   4.300   2.811  17.695 -0.3374  1.1449 -1.0016
  397TMC3    H2 5990   4.612   2.551  17.556 -1.8745 -0.2150 -0.6460
  397TMC3    C7 5991   4.391   2.571  17.723  0.0664 -0.3539  0.1112
  397TMC3    C8 5992   4.578   2.699  17.330 -0.4899  0.2958  0.2502
  397TMC3    O1 5993   4.297   2.610   0.057  0.4710  0.0410  0.3450
  397TMC3    O2 5994   4.503   2.604  17.320 -0.0659  0.0532  0.3838
  398MPD2     C 5995   2.202   4.513   0.456  0.3393  0.5242 -0.1786
  398MPD2    C1 5996   2.305   4.428   0.434  0.1825 -0.7172 -0.0737
  398MPD2    C2 5997   2.424   4.483   0.387 -0.1325  0.0505  0.9588
  398MPD2    C3 5998   2.434   4.620   0.346 -0.6332  0.7298  0.1667
  398MPD2    C4 5999   2.327   4.706   0.372 -0.4163  0.0827 -0.2048
  398MPD2    C5 6000   2.218   4.650   0.427 -0.4342 -1.3996  0.4911
  398MPD2     H 6001   2.507   4.415   0.373  0.5338  1.4324 -1.9558
  398MPD2    H1 6002   2.329   0.075   0.335 -3.7213  1.1368  2.6306
  398MPD2    H2 6003   2.103   4.485   0.492  0.1492  1.6190  0.1276
  398MPD2    H3 6004   2.136   4.719   0.448  0.7207 -0.5142  2.1254
  398MPD2     N 6005   2.558   4.656   0.305 -0.7418  0.0325  0.3165
  398MPD2    H5 6006   2.629   4.584   0.305 -0.9208 -0.1348 -0.9747
  398MPD2    N1 6007   2.291   4.293   0.440  0.0963  0.5592  0.3451
  398MPD2    H7 6008   2.375   4.239   0.423  0.7171  2.5694 -2.7366
  399TMC3    C1 6009   2.185   4.080   0.463  0.0089 -0.1823 -0.2145
  399TMC3    C2 6010   2.313   4.022   0.455  1.0178 -0.4261 -0.5951
  399TMC3    C3 6011   2.322   3.894   0.488  0.6939  0.1096  0.3922
  399TMC3    C4 6012   2.077   4.023   0.527 -0.1728 -0.4685 -0.3677
  399TMC3    C5 6013   2.106   3.900   0.580 -0.8405 -0.1349 -0.0703
  399TMC3    C6 6014   2.224   3.827   0.555  0.0177  0.0980  0.1918
  399TMC3     C 6015   2.177   4.225   0.486 -0.1845  1.1259 -0.0415
  399TMC3     O 6016   2.085   4.273   0.551  0.1030  0.3178  0.3708
  399TMC3     H 6017   2.392   4.076   0.405 -0.2323 -0.7460 -2.8903
  399TMC3    H1 6018   1.988   4.082   0.546  0.2792  1.0396 -2.9113
  399TMC3    H2 6019   2.239   3.728   0.597 -1.2421  0.4627  1.5265
  399TMC3    C7 6020   2.004   3.821   0.650  0.3966 -0.1706 -0.2334
  399TMC3    C8 6021   2.437   3.828   0.431  0.0011 -0.0046 -0.2548
  399TMC3    O1 6022   2.049   3.728   0.712 -0.0917 -0.8582 -0.1229
  399TMC3    O2 6023   2.508   3.887   0.348  0.4871  0.1301 -0.4718
  400TMC3    C1 6024   0.852   2.768  16.926  0.1746  0.4147 -0.2744
  400TMC3    C2 6025   0.745   2.714  16.866 -0.0516  0.5913 -0.5827
  400TMC3    C3 6026   0.642   2.791  16.837  0.4892  0.1081  0.5033
  400TMC3    C4 6027   0.863   2.903  16.955  0.2216  0.1154 -0.2607
  400TMC3    C5 6028   0.750   2.980  16.937  0.3179 -0.1702 -0.0895
  400TMC3    C6 6029   0.640   2.926  16.871  0.3320  0.4352  0.3194
  400TMC3     C 6030   0.931   2.675  17.008 -0.8116  0.6618  0.2357
  400TMC3     O 6031   0.936   2.559  16.976  0.4189  0.8538 -0.4796
  400TMC3     H 6032   0.743   2.606  16.866 -2.0025  0.6059  1.7266
  400TMC3    H1 6033   0.946   2.951  17.004  1.0337 -0.1923 -1.3457
  400TMC3    H2 6034   0.550   2.983  16.851  1.8126  2.1980 -1.3033
  400TMC3    C7 6035   0.751   3.118  16.968  0.3344 -0.6718 -0.1085
  400TMC3    C8 6036   0.529   2.731  16.766 -0.7492  0.0759  0.6245
  400TMC3    O1 6037   0.856   3.179  16.943 -0.1083  0.0877 -0.5343
  400TMC3    O2 6038   0.442   2.815  16.747  0.6011  0.3637  0.1293
  401MPD2     C 6039   3.709   1.268   1.006 -0.8806 -0.2670 -0.4608
  401MPD2    C1 6040   3.762   1.198   1.112 -0.0417  0.1949  0.0274
  401MPD2    C2 6041   3.706   1.077   1.143 -0.3953  0.7629  0.0468
  401MPD2    C3 6042   3.604   1.020   1.066  0.3761 -0.2843 -0.8506
  401MPD2    C4 6043   3.540   1.101   0.973  0.8697  0.4700  0.1668
  401MPD2    C5 6044   3.593   1.223   0.946 -0.9876  0.1901 -0.5789
  401MPD2     H 6045   3.746   1.020   1.227  1.5947  1.7398 -0.2420
  401MPD2    H1 6046   3.463   1.061   0.907 -0.0441  0.9832  0.9243
  401MPD2    H2 6047   3.743   1.367   0.975 -0.0079 -0.1125  0.9964
  401MPD2    H3 6048   3.550   1.290   0.873 -2.1367  1.6645  1.4810
  401MPD2     N 6049   3.568   0.882   1.087 -0.0218 -0.0554 -0.0119
  401MPD2    H5 6050   3.623   0.828   1.154  0.2734 -2.0528 -1.8342
  401MPD2    N1 6051   3.867   1.248   1.191 -0.7117 -0.6888 -0.6261
  401MPD2    H7 6052   3.890   1.183   1.266 -2.7389  0.1852  0.7529
  402TMC3    C1 6053   3.479   0.677   1.065 -0.0979 -0.1328  0.3668
  402TMC3    C2 6054   3.505   0.647   1.197  0.1972  0.3340  0.2805
  402TMC3    C3 6055   3.521   0.513   1.224  0.1078 -0.5832  0.0996
  402TMC3    C4 6056   3.468   0.584   0.969  0.3003 -0.5604  0.8136
  402TMC3    C5 6057   3.511   0.455   1.003  0.5146  0.7613  0.4666
  402TMC3    C6 6058   3.529   0.419   1.129 -0.1757  0.4941  0.3444
  402TMC3     C 6059   3.485   0.814   1.019 -0.7603  0.2699 -0.1196
  402TMC3     O 6060   3.412   0.840   0.922 -0.1417 -0.0310 -0.1019
  402TMC3     H 6061   3.516   0.725   1.272 -1.3939  0.8137  0.0153
  402TMC3    H1 6062   3.443   0.617   0.869  0.9451 -0.3487  0.7207
  402TMC3    H2 6063   3.562   0.320   1.157  3.0434  1.3784 -0.3209
  402TMC3    C7 6064   3.606   0.402   0.911 -0.0136  0.9781  0.4641
  402TMC3    C8 6065   3.613   0.482   1.331  0.4651  0.2474  0.0437
  402TMC3    O1 6066   3.588   0.413   0.790  0.3171  0.2886 -0.4085
  402TMC3    O2 6067   3.716   0.424   1.299 -0.2339  0.1166 -0.3080
  403MPD2     C 6068   2.236   3.148  13.658  0.0834  0.3562  0.4318
  403MPD2    C1 6069   2.201   3.275  13.702 -0.0649  0.1005 -0.1058
  403MPD2    C2 6070   2.306   3.363  13.737  0.3660 -1.0660 -0.1713
  403MPD2    C3 6071   2.429   3.315  13.727 -0.2029  0.7229  0.5252
  403MPD2    C4 6072   2.462   3.182  13.698 -0.3475  0.6251 -0.2322
  403MPD2    C5 6073   2.364   3.105  13.659 -0.5648 -0.2296 -0.0566
  403MPD2     H 6074   2.283   3.463  13.771 -1.3278 -1.7269  0.5734
  403MPD2    H1 6075   2.564   3.147  13.691 -0.9142 -1.1947  0.5728
  403MPD2    H2 6076   2.156   3.085  13.621  0.5088 -0.8321  1.5328
  403MPD2    H3 6077   2.375   3.005  13.618  1.0395 -0.1103  0.1120
  403MPD2     N 6078   2.523   3.410  13.760 -0.1599  0.3774 -0.4532
  403MPD2    H5 6079   2.489   3.500  13.792 -2.2146 -0.7010  0.3955
  403MPD2    N1 6080   2.061   3.311  13.682  0.1807  0.0460  0.3830
  403MPD2    H7 6081   2.014   3.274  13.600  0.4591  2.9111 -1.0763
  404TMC3    C1 6082   1.884   3.464  13.688  0.4358 -0.1740  0.5151
  404TMC3    C2 6083   1.769   3.507  13.752  0.7028 -0.5251 -0.1607
  404TMC3    C3 6084   1.685   3.576  13.662 -0.3912 -0.5170 -0.3826
  404TMC3    C4 6085   1.916   3.490  13.560  0.3575  0.2070  0.1392
  404TMC3    C5 6086   1.826   3.552  13.477  0.4708 -0.1219 -0.5174
  404TMC3    C6 6087   1.707   3.600  13.529  0.2047  0.4814  0.0353
  404TMC3     C 6088   1.994   3.402  13.761 -0.0449  1.1111 -0.2060
  404TMC3     O 6089   2.006   3.424  13.881 -0.1061 -0.4603 -0.2851
  404TMC3     H 6090   1.759   3.487  13.858 -0.4643 -0.2263 -0.2124
  404TMC3    H1 6091   2.016   3.473  13.521  0.9445  0.0823  1.7035
  404TMC3    H2 6092   1.625   3.634  13.466  0.0039  1.2984  0.7450
  404TMC3    C7 6093   1.858   3.562  13.338  0.8670 -0.0477  0.2299
  404TMC3    C8 6094   1.557   3.627  13.707 -0.8013  0.6659  0.4772
  404TMC3    O1 6095   1.976   3.577  13.306  0.5697 -0.1720  0.2519
  404TMC3    O2 6096   1.491   3.685  13.621  0.7370  0.2459  0.0071
  405MPD2     C 6097   2.103   3.914  14.460  0.5150  0.3546 -0.0705
  405MPD2    C1 6098   2.089   3.991  14.569  0.0233 -0.9408 -0.5181
  405MPD2    C2 6099   2.140   4.119  14.570 -0.6103  0.4283 -0.1181
  405MPD2    C3 6100   2.204   4.169  14.462 -0.6752 -0.5761  0.0810
  405MPD2    C4 6101   2.217   4.097  14.345 -0.4619  0.2512  0.4440
  405MPD2    C5 6102   2.178   3.961  14.353  0.1352  0.4596 -0.1836
  405MPD2     H 6103   2.116   4.178  14.657 -0.2417  0.0357  0.2455
  405MPD2    H1 6104   2.253   4.142  14.253 -0.0861 -1.8969 -0.4530
  405MPD2    H2 6105   2.048   3.822  14.443 -0.8764  1.3116 -0.6810
  405MPD2    H3 6106   2.174   3.903  14.262 -1.4769  0.0525  0.1431
  405MPD2     N 6107   2.238   4.306  14.475  0.3509  0.5696 -0.4441
  405MPD2    H5 6108   2.197   4.354  14.554 -0.4777 -1.5118  0.3843
  405MPD2    N1 6109   1.996   3.951  14.667 -0.1075  0.1099  0.1545
  405MPD2    H7 6110   1.940   3.870  14.644  0.4077 -0.6732  1.7178
  406TMC3    C1 6111   2.199   4.719  14.254 -0.0724  0.8039 -0.6027
  406TMC3    C2 6112   2.067   4.719  14.280  0.2553 -0.2648  0.1533
  406TMC3    C3 6113   2.011   4.605  14.335  0.3784  0.2195  0.1029
  406TMC3    C4 6114   2.281   4.621  14.287  0.3829  0.2699  0.4353
  406TMC3    C5 6115   2.225   4.518  14.358 -0.5832  0.0093 -0.1393
  406TMC3    C6 6116   2.088   4.507  14.384 -0.1467  0.1748 -0.2772
  406TMC3     C 6117   2.272   0.104  14.212  0.2452  0.1748  0.0344
  406TMC3     O 6118   2.397   0.113  14.218 -0.4876 -0.7620 -0.5855
  406TMC3     H 6119   2.009   0.077  14.267  0.8740 -0.1038 -1.4455
  406TMC3    H1 6120   2.378   4.611  14.239  0.9097 -1.6209  1.9108
  406TMC3    H2 6121   2.038   4.421  14.429 -0.3526  0.5359  0.1783
  406TMC3    C7 6122   2.299   4.389  14.376  0.2362  0.2510 -0.8202
  406TMC3    C8 6123   1.881   4.617  14.393  0.4292  0.1689  0.0362
  406TMC3    O1 6124   2.383   4.358  14.291  0.0191 -0.4372 -0.1318
  406TMC3    O2 6125   1.856   4.732  14.435  0.1904  0.5220  0.1850
  407MPD2     C 6126   4.457   1.470   9.414 -0.0535  0.1552  0.1826
  407MPD2    C1 6127   4.565   1.467   9.504  0.1689 -0.4486  0.7270
  407MPD2    C2 6128   4.562   1.506   9.636 -0.0522 -0.1411  0.6624
  407MPD2    C3 6129   4.443   1.563   9.672 -0.4454 -0.2125  0.1546
  407MPD2    C4 6130   4.334   1.575   9.589  0.4402  0.1973 -0.2208
  407MPD2    C5 6131   4.342   1.534   9.456 -0.9458 -0.0537  0.1953
  407MPD2     H 6132   4.657   1.501   9.688  0.3672  3.3967  0.2399
  407MPD2    H1 6133   4.238   1.613   9.620 -0.4055 -0.3423 -2.1416
  407MPD2    H2 6134   4.469   1.431   9.313  2.0917 -0.3583  0.6347
  407MPD2    H3 6135   4.258   1.556   9.391 -3.0200 -0.5957  2.6766
  407MPD2     N 6136   4.423   1.619   9.798  0.3943 -0.2342 -0.0753
  407MPD2    H5 6137   4.336   1.671   9.808  0.8248  0.3967  0.4090
  407MPD2    N1 6138   4.693   1.436   9.457 -0.6977 -0.0135  0.4954
  407MPD2    H7 6139   0.032   1.486   9.507 -1.0439  0.7705  0.1985
  408TMC3    C1 6140   0.121   1.369   9.299  0.2948 -0.3609  0.0741
  408TMC3    C2 6141   0.175   1.247   9.263  0.0026  0.1269 -0.1707
  408TMC3    C3 6142   0.297   1.246   9.198 -0.0369  0.0205 -0.2618
  408TMC3    C4 6143   0.183   1.489   9.293  0.2608 -0.1976 -0.0212
  408TMC3    C5 6144   0.303   1.482   9.231  0.6400 -0.4122  0.4246
  408TMC3    C6 6145   0.371   1.368   9.178  0.5446  0.0636  0.2533
  408TMC3     C 6146   4.714   1.369   9.341  0.6345 -0.7912  0.5089
  408TMC3     O 6147   4.641   1.285   9.290  0.0193  0.3046  0.3845
  408TMC3     H 6148   0.123   1.157   9.297  2.4493 -1.2906 -0.2021
  408TMC3    H1 6149   0.131   1.581   9.317  1.3582  0.4634 -0.1484
  408TMC3    H2 6150   0.468   1.372   9.129 -0.2838  1.6501 -1.2677
  408TMC3    C7 6151   0.406   1.583   9.262  0.7888  0.0230 -0.6137
  408TMC3    C8 6152   0.379   1.131   9.230  0.0769  0.3938 -0.3916
  408TMC3    O1 6153   0.520   1.558   9.230  0.4944  0.3974 -0.1531
  408TMC3    O2 6154   0.326   1.042   9.300 -0.5989  0.0503  0.1890
  409MPD2     C 6155   4.133   2.088  17.268 -1.0551  0.2468 -0.2897
  409MPD2    C1 6156   4.272   2.057  17.270 -0.2319 -0.3867  1.0319
  409MPD2    C2 6157   4.359   2.139  17.214  0.1334 -0.5460 -0.4277
  409MPD2    C3 6158   4.319   2.265  17.154 -0.3988  0.2168  0.3079
  409MPD2    C4 6159   4.182   2.284  17.145  0.4657  0.0933  0.2216
  409MPD2    C5 6160   4.094   2.196  17.196  0.2286 -0.3522  0.0915
  409MPD2     H 6161   4.465   2.115  17.218  0.4398  0.9930  0.9369
  409MPD2    H1 6162   4.148   2.374  17.096 -1.8278 -2.3111 -2.5576
  409MPD2    H2 6163   4.057   2.022  17.308 -0.6784 -0.7056 -1.1551
  409MPD2    H3 6164   3.991   2.226  17.183 -0.2747 -3.1199 -2.3521
  409MPD2     N 6165   4.410   2.355  17.091 -1.0768 -0.3961 -0.1172
  409MPD2    H5 6166   4.370   2.427  17.031 -0.3029 -1.0182 -1.3771
  409MPD2    N1 6167   4.326   1.944  17.328 -0.2098  0.2434  0.1430
  409MPD2    H7 6168   4.427   1.934  17.334 -0.1858 -0.0010 -0.6282
  410TMC3    C1 6169   4.615   2.439  17.019 -0.0381  0.3440  0.5696
  410TMC3    C2 6170   4.729   2.498  17.067 -0.0473  0.4476  0.3177
  410TMC3    C3 6171   0.055   2.597  16.985 -0.2297  0.1652 -0.1275
  410TMC3    C4 6172   4.561   2.461  16.895  0.1259  0.4538  0.9795
  410TMC3    C5 6173   4.630   2.552  16.826 -0.3358 -0.1517  0.1941
  410TMC3    C6 6174   0.008   2.616  16.868  0.1328 -0.0081  0.5762
  410TMC3     C 6175   4.545   2.350  17.104 -0.5547  0.5258  0.2556
  410TMC3     O 6176   4.610   2.279  17.179 -0.0078 -0.7995  0.2864
  410TMC3     H 6177   0.024   2.471  17.168 -0.7064  1.9529  0.9003
  410TMC3    H1 6178   4.477   2.403  16.858  0.5636 -0.5435  1.5319
  410TMC3    H2 6179   0.053   2.693  16.805 -0.1652 -1.9056 -1.9518
  410TMC3    C7 6180   4.575   2.576  16.688 -0.8153 -0.2438 -0.2716
  410TMC3    C8 6181   0.191   2.620  17.016  0.2166  0.0376 -0.3452
  410TMC3    O1 6182   4.485   2.501  16.647 -0.1401 -0.4138 -0.5841
  410TMC3    O2 6183   0.219   2.731  17.057  0.6672  0.5054  0.2801
  411MPD2     C 6184   0.300   3.272  14.638 -0.5033 -0.5001  0.1927
  411MPD2    C1 6185   0.193   3.239  14.717 -0.0592 -0.1896  0.4367
  411MPD2    C2 6186   0.158   3.103  14.714  0.6451 -0.0621  0.4170
  411MPD2    C3 6187   0.233   3.003  14.646  1.2128  0.7724 -0.1780
  411MPD2    C4 6188   0.352   3.043  14.592  0.1394 -0.4931 -0.1746
  411MPD2    C5 6189   0.381   3.174  14.578 -0.1116 -0.4516  0.7180
  411MPD2     H 6190   0.066   3.077  14.765 -0.8696  2.7369 -0.9302
  411MPD2    H1 6191   0.415   2.972  14.540  1.2896 -0.2651  0.9105
  411MPD2    H2 6192   0.326   3.377  14.636  0.4851 -0.7176  1.2878
  411MPD2    H3 6193   0.478   3.201  14.537  1.0794 -1.2840  3.0255
  411MPD2     N 6194   0.198   2.868  14.650 -0.5836  0.4432 -0.3233
  411MPD2    H5 6195   0.268   2.810  14.604 -1.0696 -2.2124  2.3201
  411MPD2    N1 6196   0.119   3.340  14.777 -0.4132  0.3321  0.4088
  411MPD2    H7 6197   0.146   3.433  14.745  1.1267 -0.7760 -1.4847
  412TMC3    C1 6198   0.088   2.666  14.672 -0.6409 -0.3502  0.1898
  412TMC3    C2 6199   4.703   2.591  14.706  0.0018  0.0940 -0.1341
  412TMC3    C3 6200   4.708   2.455  14.701  0.1829 -0.2945 -0.7183
  412TMC3    C4 6201   0.203   2.596  14.637 -0.4206 -0.0690 -0.4028
  412TMC3    C5 6202   0.187   2.465  14.612 -0.2912  0.0108  0.5691
  412TMC3    C6 6203   0.081   2.390  14.640  0.1308 -0.2728 -0.3415
  412TMC3     C 6204   0.090   2.805  14.710  0.8003 -0.0537  0.1736
  412TMC3     O 6205   4.720   2.850  14.755  0.1917  0.7613  0.5870
  412TMC3     H 6206   4.608   2.642  14.720 -0.9629 -2.1141  1.2593
  412TMC3    H1 6207   0.291   2.645  14.598 -0.3639 -0.2968 -0.5624
  412TMC3    H2 6208   0.082   2.282  14.638  2.5366 -0.2628  1.1476
  412TMC3    C7 6209   0.219   2.444  14.471 -0.8117 -0.2104 -0.2865
  412TMC3    C8 6210   4.587   2.388  14.654  0.0919  0.2873 -0.0850
  412TMC3    O1 6211   0.329   2.476  14.432  0.1745  0.4137 -0.1577
  412TMC3    O2 6212   4.611   2.336  14.544  0.3971  0.3166 -0.0404
  413MPD2     C 6213   1.526   0.911  15.601 -0.3369  0.3245 -0.1834
  413MPD2    C1 6214   1.463   0.915  15.474 -0.5892 -0.5606 -0.1714
  413MPD2    C2 6215   1.525   0.862  15.362 -0.1482  0.4247  0.2023
  413MPD2    C3 6216   1.648   0.798  15.380 -0.5621  0.1780  0.8913
  413MPD2    C4 6217   1.712   0.802  15.499  0.7035  0.4603 -0.2681
  413MPD2    C5 6218   1.647   0.846  15.610  0.3457  0.2286  0.7080
  413MPD2     H 6219   1.493   0.864  15.259 -1.9778 -0.7685  0.7576
  413MPD2    H1 6220   1.806   0.750  15.513 -0.0928 -1.2807 -1.3358
  413MPD2    H2 6221   1.489   0.946  15.697 -0.3030 -0.8346  0.2588
  413MPD2    H3 6222   1.689   0.828  15.708  2.1222  1.0031  0.0906
  413MPD2     N 6223   1.704   0.756  15.267  0.6654  0.4066 -0.3262
  413MPD2    H5 6224   1.635   0.742  15.194  0.1876  1.1453 -0.0199
  413MPD2    N1 6225   1.338   0.981  15.464 -0.2096 -0.2030 -0.0135
  413MPD2    H7 6226   1.300   1.026  15.547 -0.9227 -1.3969  0.3038
  414TMC3    C1 6227   1.853   0.646  15.105  0.3106  1.0733  0.2423
  414TMC3    C2 6228   1.938   0.542  15.085  0.2930 -1.3701 -0.7390
  414TMC3    C3 6229   1.983   0.511  14.963  0.1150 -0.1643 -0.7084
  414TMC3    C4 6230   1.798   0.703  14.999 -1.1232 -0.4764 -0.2215
  414TMC3    C5 6231   1.839   0.666  14.874 -0.1074  0.4972 -0.2899
  414TMC3    C6 6232   1.931   0.565  14.848  0.0769 -0.1821  0.1740
  414TMC3     C 6233   1.830   0.695  15.244 -0.7832  0.4992 -0.0103
  414TMC3     O 6234   1.917   0.678  15.327  0.2389  0.8102  0.2378
  414TMC3     H 6235   1.961   0.483  15.172 -1.7788 -0.8131  0.2018
  414TMC3    H1 6236   1.728   0.784  15.017  1.6091  2.0684 -0.8338
  414TMC3    H2 6237   1.958   0.522  14.752 -1.2603 -0.4962 -0.0611
  414TMC3    C7 6238   1.745   0.706  14.772  0.2762  0.2306  0.8355
  414TMC3    C8 6239   2.037   0.380  14.954 -0.0098 -0.5408  0.3933
  414TMC3    O1 6240   1.695   0.608  14.719  0.5602 -0.3635  0.3006
  414TMC3    O2 6241   1.999   0.304  15.041  0.2412  0.2623 -0.8997
  415TMC3    C1 6242   1.066   2.535  10.113  0.8090  0.4324 -0.1903
  415TMC3    C2 6243   1.010   2.658  10.108  0.2729  0.3232  0.7028
  415TMC3    C3 6244   0.890   2.676  10.038 -0.2814 -0.5001  0.1257
  415TMC3    C4 6245   1.001   2.434  10.042  0.9440  0.3043  0.6711
  415TMC3    C5 6246   0.888   2.455   9.969 -0.0241  0.3315 -0.1443
  415TMC3    C6 6247   0.827   2.577   9.963  0.1187 -0.0603 -0.3180
  415TMC3     C 6248   1.207   2.516  10.140 -0.0721  0.2288 -0.1544
  415TMC3     O 6249   1.263   2.412  10.104 -0.1015  0.3190 -0.1533
  415TMC3     H 6250   1.067   2.742  10.147  0.0836  0.4253  0.7596
  415TMC3    H1 6251   1.043   2.334  10.040 -1.9295 -0.8633 -1.1769
  415TMC3    H2 6252   0.736   2.593   9.906 -0.3176 -1.0336  0.1077
  415TMC3    C7 6253   0.838   2.344   9.887 -0.0291  0.0983  0.2438
  415TMC3    C8 6254   0.874   2.811   9.992  0.5250  0.4032  0.7576
  415TMC3    O1 6255   0.738   2.366   9.820  0.1147  0.0480 -0.0279
  415TMC3    O2 6256   0.807   2.812   9.888  0.5728  0.3609  0.3460
  416MPD2     C 6257   3.829   2.645  11.194 -0.3744  0.5564  0.8684
  416MPD2    C1 6258   3.788   2.566  11.299 -0.5605  0.1594  0.7100
  416MPD2    C2 6259   3.817   2.439  11.288  0.7279 -0.2987 -0.2020
  416MPD2    C3 6260   3.882   2.388  11.176  0.2250 -0.5708 -0.1483
  416MPD2    C4 6261   3.937   2.467  11.080 -0.3985  0.3687 -0.2904
  416MPD2    C5 6262   3.913   2.601  11.098 -0.4586 -0.0954  0.2648
  416MPD2     H 6263   3.763   2.373  11.355  1.1588 -0.1216  0.3159
  416MPD2    H1 6264   4.005   2.432  11.003 -1.6782  2.4489 -2.3615
  416MPD2    H2 6265   3.804   2.750  11.183  1.7611  1.0374  0.6031
  416MPD2    H3 6266   3.956   2.673  11.029  0.7925 -1.3892 -0.3250
  416MPD2     N 6267   3.885   2.244  11.172 -0.1668  0.0581  0.1268
  416MPD2    H5 6268   3.859   2.203  11.262  2.4396 -1.0139  0.3695
  416MPD2    N1 6269   3.692   2.625  11.393 -0.0818  0.5343  0.7735
  416MPD2    H7 6270   3.671   2.723  11.379  0.9362  0.5623 -0.5673
  417TMC3    C1 6271   3.526   2.637  11.556  0.0313  0.2650  0.1638
  417TMC3    C2 6272   3.507   2.593  11.685 -0.0319 -0.5712  0.4512
  417TMC3    C3 6273   3.377   2.576  11.734  0.3173  0.0176  0.6933
  417TMC3    C4 6274   3.418   2.675  11.478 -0.4395  0.2973  0.5898
  417TMC3    C5 6275   3.294   2.657  11.523 -0.6222  0.3866 -0.3226
  417TMC3    C6 6276   3.272   2.619  11.655  0.7017 -0.1477  0.1860
  417TMC3     C 6277   3.624   2.555  11.489  0.6483  0.7236  0.2312
  417TMC3     O 6278   3.618   2.435  11.525 -0.0039 -0.3058  0.4861
  417TMC3     H 6279   3.594   2.551  11.733  0.2158 -1.6682 -0.9571
  417TMC3    H1 6280   3.426   2.706  11.374  0.3337  0.6077  0.7457
  417TMC3    H2 6281   3.170   2.636  11.688  0.9138  0.9938  0.2285
  417TMC3    C7 6282   3.188   2.697  11.435  0.5168 -0.2866  0.7028
  417TMC3    C8 6283   3.359   2.562  11.876  0.7018 -0.3128  0.3252
  417TMC3    O1 6284   3.208   2.788  11.356  0.5438 -0.9089  0.1032
  417TMC3    O2 6285   3.247   2.586  11.922  0.8545 -0.6856 -0.3902
  418TMC3    C1 6286   2.909   4.640   0.151 -0.0370  0.8102  0.0499
  418TMC3    C2 6287   2.786   4.701   0.147  0.0970 -0.9522 -0.2991
  418TMC3    C3 6288   2.748   0.041   0.249 -0.4906  0.1232 -0.0754
  418TMC3    C4 6289   2.984   4.644   0.262 -0.3731  0.4903  0.4517
  418TMC3    C5 6290   2.939   4.719   0.369 -0.4235 -0.0252  0.8253
  418TMC3    C6 6291   2.818   0.048   0.363  0.5460 -0.3556  0.3374
  418TMC3     C 6292   2.942   4.565   0.032  0.5029  0.1562 -0.2399
  418TMC3     O 6293   2.868   4.577  17.670  0.0741 -0.0071  0.1485
  418TMC3     H 6294   2.717   4.700   0.063  2.2471 -1.4836 -2.0582
  418TMC3    H1 6295   3.079   4.592   0.266 -0.3269  0.4813 -0.7667
  418TMC3    H2 6296   2.767   0.068   0.457  0.5036 -0.1452  0.2698
  418TMC3    C7 6297   2.987   4.683   0.499  0.1479 -0.8524  0.3804
  418TMC3    C8 6298   2.607   0.049   0.286  0.0330  0.3877 -0.3497
  418TMC3    O1 6299   3.032   4.570   0.510 -0.1633  0.0805  0.4565
  418TMC3    O2 6300   2.537   0.145   0.269 -0.5228 -0.7057  1.0011
  419MPD2     C 6301   0.818   2.421  12.452 -0.6103  0.1040  0.2282
  419MPD2    C1 6302   0.750   2.535  12.471  0.0217  0.1693 -0.4871
  419MPD2    C2 6303   0.763   2.596  12.594  0.0207  0.0338 -0.3787
  419MPD2    C3 6304   0.835   2.543  12.692 -0.1374 -0.4432 -0.3188
  419MPD2    C4 6305   0.887   2.414  12.681  0.1551 -0.2554 -0.3248
  419MPD2    C5 6306   0.885   2.362  12.556  0.6804  0.4484 -0.0897
  419MPD2     H 6307   0.721   2.694  12.612 -2.6410 -1.6595  2.6898
  419MPD2    H1 6308   0.940   2.357  12.755 -1.9451 -0.5548  0.9618
  419MPD2    H2 6309   0.818   2.366  12.358 -0.4650 -1.0135  0.8905
  419MPD2    H3 6310   0.938   2.268  12.546 -0.1847 -0.1579  0.9213
  419MPD2     N 6311   0.858   2.627  12.800  0.0018 -0.8378 -0.9258
  419MPD2    H5 6312   0.822   2.722  12.805 -2.5542 -1.7903 -1.5910
  419MPD2    N1 6313   0.677   2.607  12.373  1.1807  0.0063 -0.0063
  419MPD2    H7 6314   0.636   2.695  12.402 -1.1420 -1.2246  0.3923
  420TMC3    C1 6315   0.887   2.708  13.015 -0.2626 -0.2396  0.0185
  420TMC3    C2 6316   0.775   2.786  13.011 -0.2723  0.6703  0.4015
  420TMC3    C3 6317   0.768   2.895  13.092 -0.2267  0.1258 -0.2709
  420TMC3    C4 6318   0.961   2.712  13.128 -0.0404  0.2471 -0.5566
  420TMC3    C5 6319   0.941   2.809  13.223  0.4687 -0.1261 -0.5813
  420TMC3    C6 6320   0.854   2.911  13.201 -0.8346  0.4776  0.3140
  420TMC3     C 6321   0.928   2.610  12.911 -0.2579  0.3110  0.4808
  420TMC3     O 6322   1.024   2.536  12.941  0.1294  0.3998 -0.3719
  420TMC3     H 6323   0.699   2.790  12.935 -1.2874  0.3554  1.4071
  420TMC3    H1 6324   1.035   2.635  13.146 -0.4562 -0.0746 -0.2321
  420TMC3    H2 6325   0.835   2.987  13.276  0.6181  0.2445  0.9223
  420TMC3    C7 6326   0.997   2.775  13.352  0.0833  0.0429 -0.8942
  420TMC3    C8 6327   0.669   2.999  13.073  0.0192  0.6357  0.2840
  420TMC3    O1 6328   1.026   2.657  13.375  0.2608 -0.5935 -0.0284
  420TMC3    O2 6329   0.588   2.988  12.981  0.7240 -0.2673 -0.1721
  421TMC3    C1 6330   2.730   3.514  13.821  0.4424 -1.2642 -0.0857
  421TMC3    C2 6331   2.677   3.643  13.809 -0.0065 -0.2955  0.2793
  421TMC3    C3 6332   2.763   3.745  13.831  0.1129  0.4219  0.0647
  421TMC3    C4 6333   2.861   3.488  13.851 -0.5831 -0.7862 -0.2300
  421TMC3    C5 6334   2.940   3.599  13.865 -0.4681  0.1164 -0.5945
  421TMC3    C6 6335   2.902   3.727  13.849 -0.5091  0.2876  0.6749
  421TMC3     C 6336   2.658   3.398  13.757 -0.4218 -0.0021  0.1896
  421TMC3     O 6337   2.729   3.304  13.719 -0.4477  0.0533  0.4782
  421TMC3     H 6338   2.576   3.650  13.770  0.0482 -3.5668 -0.4971
  421TMC3    H1 6339   2.902   3.389  13.860 -0.5812 -0.5780  2.0466
  421TMC3    H2 6340   2.967   3.811  13.870  0.0078  0.4799 -1.6421
  421TMC3    C7 6341   3.079   3.588  13.914 -0.4432 -0.1705 -0.1782
  421TMC3    C8 6342   2.711   3.881  13.844  0.5131 -0.2552  0.8168
  421TMC3    O1 6343   3.154   3.676  13.870 -0.3725  0.8662 -0.3879
  421TMC3    O2 6344   2.787   3.970  13.808 -0.4010  0.0167 -0.0789
  422TMC3    C1 6345   4.636   0.549  12.646 -0.0966  0.5022 -0.6739
  422TMC3    C2 6346   4.603   0.676  12.683 -0.6064  0.3359 -0.1415
  422TMC3    C3 6347   4.495   0.700  12.761  0.0158 -0.8144 -0.7554
  422TMC3    C4 6348   4.553   0.441  12.664 -0.4428 -1.0885 -0.0904
  422TMC3    C5 6349   4.428   0.472  12.720 -0.6135  0.5795  0.6770
  422TMC3    C6 6350   4.407   0.595  12.780  0.0165 -0.4002 -0.2656
  422TMC3     C 6351   4.718   0.541  12.529  0.4183  0.0560  0.3557
  422TMC3     O 6352   0.014   0.649  12.472 -0.0437  0.0377 -0.5888
  422TMC3     H 6353   4.666   0.765  12.679 -1.2488  0.8839  2.0077
  422TMC3    H1 6354   4.559   0.352  12.603 -1.1963 -0.2866 -1.3465
  422TMC3    H2 6355   4.307   0.622  12.814  0.1867  0.6558 -0.6365
  422TMC3    C7 6356   4.330   0.365  12.705 -0.2961 -0.5398 -1.0094
  422TMC3    C8 6357   4.518   0.792  12.864 -0.1254  0.1978 -0.1699
  422TMC3    O1 6358   4.360   0.290  12.616  0.3667 -0.5076 -0.0351
  422TMC3    O2 6359   4.577   0.898  12.831  0.0903 -0.4455  0.6361
  423MPD2     C 6360   0.977   2.059   0.517  0.2495 -0.1980 -0.1338
  423MPD2    C1 6361   1.040   1.941   0.566 -0.3712 -0.4553 -0.2214
  423MPD2    C2 6362   1.076   1.839   0.479 -0.3922 -0.4085  0.4851
  423MPD2    C3 6363   1.047   1.844   0.343 -0.4604  0.1321  0.1610
  423MPD2    C4 6364   0.997   1.958   0.297 -0.1197 -0.0199  0.2049
  423MPD2    C5 6365   0.959   2.060   0.380 -0.3915  0.0161  1.0068
  423MPD2     H 6366   1.125   1.757   0.530 -0.7169 -1.1930 -0.4676
  423MPD2    H1 6367   0.963   1.960   0.194 -1.2742 -0.8624  0.5681
  423MPD2    H2 6368   0.952   2.148   0.573  0.6400 -0.2859  0.1781
  423MPD2    H3 6369   0.909   2.144   0.334  0.4474 -0.2170 -0.3416
  423MPD2     N 6370   1.079   1.744   0.251  0.4220 -0.8596  0.1614
  423MPD2    H5 6371   1.094   1.780   0.157  0.5241  1.2299  0.9812
  423MPD2    N1 6372   1.081   1.931   0.698 -0.0347  0.5170  0.5871
  423MPD2    H7 6373   1.156   1.867   0.717 -0.0672  0.7441  1.4826
  424TMC3    C1 6374   1.110   1.997   0.920  0.2949 -0.1946 -0.2597
  424TMC3    C2 6375   1.243   1.946   0.927 -0.0510  0.2745 -0.3855
  424TMC3    C3 6376   1.291   1.911   1.056 -0.1576 -1.0413  0.0393
  424TMC3    C4 6377   1.033   2.008   1.040 -0.1850  0.3168 -0.4219
  424TMC3    C5 6378   1.082   1.950   1.155  0.4369 -0.5647 -0.1415
  424TMC3    C6 6379   1.215   1.916   1.167 -0.2674  0.4849 -0.7982
  424TMC3     C 6380   1.048   2.026   0.796  0.3504 -0.1159  0.3165
  424TMC3     O 6381   0.952   2.100   0.801  0.5167  0.0847  0.3930
  424TMC3     H 6382   1.295   1.944   0.832 -2.3865  2.5345 -1.7116
  424TMC3    H1 6383   0.928   2.028   1.022 -0.3445  0.9590  1.2318
  424TMC3    H2 6384   1.262   1.872   1.254 -0.7004  1.8890  0.1473
  424TMC3    C7 6385   1.007   1.954   1.285  0.4478 -0.1262 -0.1948
  424TMC3    C8 6386   1.420   1.847   1.074 -0.2137  0.1379 -0.6816
  424TMC3    O1 6387   1.058   1.909   1.385  0.1152  0.3618  0.1587
  424TMC3    O2 6388   1.443   1.799   1.186  0.5021 -0.6295  0.7984
  425MPD2     C 6389   0.395   1.171  17.427  0.6453 -0.2343  0.6997
  425MPD2    C1 6390   0.347   1.055  17.487  0.0734  0.1110 -0.5293
  425MPD2    C2 6391   0.250   1.064  17.584 -0.3446  0.3672  0.2353
  425MPD2    C3 6392   0.197   1.180  17.631  0.6147 -0.5043  0.1075
  425MPD2    C4 6393   0.243   1.293  17.572  0.2320  0.0089  0.1330
  425MPD2    C5 6394   0.341   1.287  17.475  0.6174 -0.1841  0.5958
  425MPD2     H 6395   0.200   0.976  17.622  0.0715 -0.3569 -0.9008
  425MPD2    H1 6396   0.213   1.391  17.606 -0.3287  0.9373 -3.1052
  425MPD2    H2 6397   0.469   1.166  17.347  0.3573 -1.4226  0.5030
  425MPD2    H3 6398   0.370   1.381  17.430  1.0843 -2.1744 -3.2674
  425MPD2     N 6399   0.074   1.173  17.694  0.0917 -0.1846  0.4466
  425MPD2    H5 6400   0.036   1.080  17.703 -1.5605  0.5088  0.5322
  425MPD2    N1 6401   0.384   0.936  17.424  0.6370  0.2015 -0.0577
  425MPD2    H7 6402   0.467   0.932  17.366  0.1055 -1.0966 -0.7305
  426TMC3    C1 6403   0.392   0.700  17.372 -0.2697 -0.1005  0.1758
  426TMC3    C2 6404   0.447   0.732  17.247  0.0982  0.2333 -0.9301
  426TMC3    C3 6405   0.493   0.623  17.173  0.3692  0.2121  0.0882
  426TMC3    C4 6406   0.375   0.568  17.422 -0.0753 -0.0600  0.3766
  426TMC3    C5 6407   0.432   0.465  17.351  0.0678  0.5824  0.0153
  426TMC3    C6 6408   0.500   0.497  17.229  0.4831 -0.4711  0.2077
  426TMC3     C 6409   0.325   0.809  17.448  0.0717  0.1116 -0.1565
  426TMC3     O 6410   0.227   0.774  17.511 -0.2569  0.0001 -0.3743
  426TMC3     H 6411   0.427   0.829  17.204  0.5001  0.3221 -0.9172
  426TMC3    H1 6412   0.338   0.554  17.522  2.4996  1.6978  1.5737
  426TMC3    H2 6413   0.560   0.419  17.183 -0.0931  0.8900 -2.9150
  426TMC3    C7 6414   0.398   0.329  17.363  0.0748 -0.1341 -0.2381
  426TMC3    C8 6415   0.510   0.632  17.031 -0.1438 -0.4547  0.0662
  426TMC3    O1 6416   0.445   0.243  17.287  0.1683  0.1150  0.0596
  426TMC3    O2 6417   0.531   0.525  16.973 -0.1190 -0.6793 -0.5142
  427MPD2     C 6418   3.956   3.224  14.836 -0.3931  1.1368  0.8618
  427MPD2    C1 6419   3.892   3.126  14.910 -0.1225 -0.7571 -0.9019
  427MPD2    C2 6420   3.753   3.123  14.922 -0.3275 -0.2077 -0.0893
  427MPD2    C3 6421   3.675   3.216  14.846  0.2007 -0.1671  1.0459
  427MPD2    C4 6422   3.736   3.306  14.764 -0.3476  0.1722 -0.1087
  427MPD2    C5 6423   3.879   3.303  14.757 -0.0759  0.1974  0.0275
  427MPD2     H 6424   3.706   3.049  14.986 -0.0035 -0.5169 -0.2076
  427MPD2    H1 6425   3.672   3.379  14.716 -1.4167  0.1431  1.2819
  427MPD2    H2 6426   4.063   3.239  14.829  0.0348 -2.1017  0.6523
  427MPD2    H3 6427   3.934   3.374  14.696  0.7757 -1.8836 -1.6133
  427MPD2     N 6428   3.534   3.223  14.862 -0.7804  0.3243 -0.2276
  427MPD2    H5 6429   3.478   3.286  14.805 -0.3225 -0.6160 -1.6811
  427MPD2    N1 6430   3.958   3.049  15.008  0.0360  0.0717  0.3695
  427MPD2    H7 6431   3.895   3.008  15.076 -1.9714  0.8324 -1.0603
  428TMC3    C1 6432   4.116   2.956  15.158  0.1180 -0.1692  0.3006
  428TMC3    C2 6433   4.013   2.873  15.200 -0.5294  0.6410 -0.3294
  428TMC3    C3 6434   4.037   2.810  15.320  0.0568  0.3173 -0.5209
  428TMC3    C4 6435   4.235   2.975  15.227 -0.1263 -0.3634  0.4944
  428TMC3    C5 6436   4.259   2.900  15.336 -0.8018 -0.1047  0.5881
  428TMC3    C6 6437   4.167   2.816  15.382  0.2579  0.1338  0.6333
  428TMC3     C 6438   4.092   3.036  15.032 -0.6203 -0.2299  0.2561
  428TMC3     O 6439   4.190   3.096  14.985  0.1409  0.3823  0.6231
  428TMC3     H 6440   3.924   2.850  15.142 -2.0872  0.4385  2.1392
  428TMC3    H1 6441   4.304   3.054  15.198 -1.0977  0.8924  1.6329
  428TMC3    H2 6442   4.174   2.776  15.482  1.4164 -2.5247 -0.5187
  428TMC3    C7 6443   4.358   2.951  15.432 -0.3444 -0.0281 -0.3500
  428TMC3    C8 6444   3.935   2.723  15.379  0.2094  0.3244 -0.1908
  428TMC3    O1 6445   4.338   2.912  15.549 -0.3968  0.1102 -0.4769
  428TMC3    O2 6446   3.974   2.641  15.459 -0.1044  0.0960 -0.1714
  429MPD2     C 6447   4.556   2.844   0.251  0.3022  0.5414 -0.2385
  429MPD2    C1 6448   4.647   2.807   0.157  0.5961  0.1255 -0.0845
  429MPD2    C2 6449   4.685   2.897   0.064 -0.3891 -0.0952  0.1831
  429MPD2    C3 6450   4.626   3.023   0.049 -0.3735 -0.1233 -0.1048
  429MPD2    C4 6451   4.537   3.061   0.150 -0.6998  0.1773  0.3371
  429MPD2    C5 6452   4.508   2.977   0.252  0.6923 -0.1412 -0.8880
  429MPD2     H 6453   0.018   2.859  17.719 -0.8475 -1.2060  0.3289
  429MPD2    H1 6454   4.476   3.150   0.152 -0.5826  0.3188 -2.3996
  429MPD2    H2 6455   4.532   2.774   0.330  2.5109 -0.3793 -0.3704
  429MPD2    H3 6456   4.420   2.993   0.314  1.1493 -0.0981 -0.2463
  429MPD2     N 6457   4.675   3.118  17.689 -0.4284  0.2330 -0.7585
  429MPD2    H5 6458   0.019   3.093  17.629  0.3552 -2.3221  1.3226
  429MPD2    N1 6459   4.699   2.670   0.155  0.2333 -0.0353  0.3963
  429MPD2    H7 6460   0.027   2.649   0.077  0.9779  1.7554  0.4994
  430TMC3    C1 6461   4.688   3.302  17.535 -0.8278  0.4253 -0.3456
  430TMC3    C2 6462   4.619   3.370  17.448 -0.2466  0.3479  0.5277
  430TMC3    C3 6463   4.684   3.449  17.358 -0.2394  0.6249 -0.4881
  430TMC3    C4 6464   0.095   3.301  17.531 -0.2556  0.2020  0.3027
  430TMC3    C5 6465   0.164   3.378  17.440 -0.3356 -0.4288  0.1294
  430TMC3    C6 6466   0.088   3.451  17.351 -1.0854 -0.0327  0.0113
  430TMC3     C 6467   4.619   3.242  17.651 -0.1834 -0.0785 -0.1629
  430TMC3     O 6468   4.516   3.297  17.689  0.2585 -0.2817 -0.5308
  430TMC3     H 6469   4.511   3.367  17.448 -0.2019 -1.1013 -0.1270
  430TMC3    H1 6470   0.148   3.250  17.610 -0.2335 -1.8105 -1.0157
  430TMC3    H2 6471   0.130   3.516  17.275  0.5003  0.5388  1.3465
  430TMC3    C7 6472   0.282   3.325  17.381  0.0101 -0.0705 -0.2234
  430TMC3    C8 6473   4.616   3.475  17.236 -0.3225  0.7511  0.7220
  430TMC3    O1 6474   0.299   3.205  17.389 -0.2038 -0.2007  0.7697
  430TMC3    O2 6475   4.601   3.377  17.167 -0.2615  0.1320  0.0385
  431MPD2     C 6476   0.721   3.249  12.691  0.0027 -0.6053 -0.4511
  431MPD2    C1 6477   0.795   3.260  12.577  0.2183 -0.2586  0.1434
  431MPD2    C2 6478   0.747   3.204  12.460 -0.1729  0.1174 -0.1260
  431MPD2    C3 6479   0.632   3.132  12.460  0.7289  0.4907 -0.2063
  431MPD2    C4 6480   0.564   3.110  12.574 -0.7329  0.0936  0.8286
  431MPD2    C5 6481   0.605   3.173  12.688  0.1284  0.1004 -0.4127
  431MPD2     H 6482   0.807   3.212  12.370 -0.5514 -0.8569 -0.4661
  431MPD2    H1 6483   0.483   3.039  12.574  0.7119 -1.5588 -0.6710
  431MPD2    H2 6484   0.755   3.280  12.789 -0.0896 -0.0120 -0.6023
  431MPD2    H3 6485   0.554   3.162  12.783  1.2610  0.8397  0.2735
  431MPD2     N 6486   0.590   3.054  12.347 -0.6427  0.9592 -0.8016
  431MPD2    H5 6487   0.511   2.993  12.365  0.8597 -0.0078  2.4818
  431MPD2    N1 6488   0.922   3.328  12.576 -0.0007  0.6233 -0.2689
  431MPD2    H7 6489   0.974   3.320  12.489 -1.6806 -0.9326 -1.1024
  432TMC3    C1 6490   0.624   2.927  12.150  0.0236  0.1781 -0.6575
  432TMC3    C2 6491   0.675   2.934  12.023 -0.0514 -0.2084 -0.0758
  432TMC3    C3 6492   0.719   2.820  11.974 -0.0064 -0.4327  0.2370
  432TMC3    C4 6493   0.618   2.817  12.220  0.7241  0.6326  0.2275
  432TMC3    C5 6494   0.653   2.698  12.162 -0.0484  0.2879  0.5724
  432TMC3    C6 6495   0.708   2.703  12.037  0.0197 -0.0189 -0.6751
  432TMC3     C 6496   0.644   3.054  12.221  0.1912 -0.3261  0.0468
  432TMC3     O 6497   0.722   3.135  12.173 -0.5780  0.2813 -0.3150
  432TMC3     H 6498   0.687   3.028  11.970  0.7820 -0.7818 -0.8937
  432TMC3    H1 6499   0.563   2.823  12.314  1.3631  0.4804  0.6114
  432TMC3    H2 6500   0.745   2.618  11.980  1.8220 -0.0532  0.5310
  432TMC3    C7 6501   0.680   2.577  12.242  0.3167  0.0431  0.2172
  432TMC3    C8 6502   0.821   2.842  11.880 -0.1487 -0.4522 -0.0141
  432TMC3    O1 6503   0.705   2.471  12.184 -0.0310  0.2563  0.8750
  432TMC3    O2 6504   0.820   2.935  11.802  0.2861 -0.3541 -0.2811
  433MPD2     C 6505   4.377   1.541  10.794 -0.3030 -0.2714  0.2518
  433MPD2    C1 6506   4.444   1.434  10.835  0.0857  0.1780  0.4499
  433MPD2    C2 6507   4.497   1.432  10.968 -0.0194  0.5912  0.1804
  433MPD2    C3 6508   4.468   1.528  11.059 -0.5104  0.1673 -0.6105
  433MPD2    C4 6509   4.391   1.636  11.016  0.7265  0.6449  0.6488
  433MPD2    C5 6510   4.346   1.642  10.884  0.2050 -0.0198  0.3647
  433MPD2     H 6511   4.567   1.353  10.993 -0.4880 -0.1496 -0.8799
  433MPD2    H1 6512   4.374   1.721  11.081  2.0690  0.8882  0.6854
  433MPD2    H2 6513   4.326   1.533  10.699 -0.2292 -0.5081  0.2331
  433MPD2    H3 6514   4.266   1.709  10.858 -0.1295 -0.0054  1.4192
  433MPD2     N 6515   4.498   1.507  11.193  0.0939  0.5025  0.2874
  433MPD2    H5 6516   4.522   1.411  11.213 -0.5402  0.0054 -1.3231
  433MPD2    N1 6517   4.463   1.332  10.743  0.1352  0.0872 -0.7119
  433MPD2    H7 6518   4.424   1.339  10.649  0.3909  1.0564 -0.7393
  434TMC3    C1 6519   4.502   1.105  10.703 -0.0739  0.1390 -0.1900
  434TMC3    C2 6520   4.572   0.992  10.725  0.3861  0.3804 -0.6520
  434TMC3    C3 6521   4.505   0.870  10.726 -0.6064 -0.1619 -0.4325
  434TMC3    C4 6522   4.369   1.097  10.664 -0.7009  0.4770  0.8780
  434TMC3    C5 6523   4.302   0.979  10.670 -0.5277 -0.3414 -0.6814
  434TMC3    C6 6524   4.371   0.865  10.703  0.6652  0.1249  0.0531
  434TMC3     C 6525   4.540   1.220  10.771 -0.6570  0.1962  0.7150
  434TMC3     O 6526   4.617   1.192  10.861 -0.1558 -0.6080  0.0353
  434TMC3     H 6527   4.678   0.983  10.744  0.0934 -0.5289  0.6100
  434TMC3    H1 6528   4.314   1.184  10.630 -0.1075  0.9846  1.2275
  434TMC3    H2 6529   4.317   0.771  10.706  0.1429  0.3516 -2.6127
  434TMC3    C7 6530   4.163   0.962  10.632 -0.3429  0.0883  0.0553
  434TMC3    C8 6531   4.544   0.775  10.827 -0.2053  0.4749 -0.1407
  434TMC3    O1 6532   4.115   1.036  10.547 -0.4144  0.1873 -0.2346
  434TMC3    O2 6533   4.457   0.740  10.904  0.5855  0.2638  0.2022
  435MPD2     C 6534   2.235   2.001  15.453 -1.2563 -0.5475  0.3687
  435MPD2    C1 6535   2.153   1.929  15.541  0.5750 -0.5967 -0.7297
  435MPD2    C2 6536   2.218   1.830  15.610  0.0312  1.1907  0.1122
  435MPD2    C3 6537   2.355   1.815  15.601 -0.5333  0.0716 -0.0743
  435MPD2    C4 6538   2.438   1.890  15.521 -0.1897  0.1354  0.0887
  435MPD2    C5 6539   2.367   1.980  15.449 -0.4975  0.7025  0.7176
  435MPD2     H 6540   2.160   1.757  15.666  1.4352  0.9011  1.1770
  435MPD2    H1 6541   2.546   1.889  15.518 -0.0836  0.2022  3.4666
  435MPD2    H2 6542   2.187   2.084  15.403 -2.1405 -0.2989  1.6117
  435MPD2    H3 6543   2.414   2.044  15.375 -0.5886  1.3800  1.2418
  435MPD2     N 6544   2.403   1.727  15.698  0.7339  0.4060 -0.9299
  435MPD2    H5 6545   2.494   1.688  15.677  1.0058  1.1625 -1.1609
  435MPD2    N1 6546   2.013   1.957  15.555  0.7620  0.2393  0.2164
  435MPD2    H7 6547   1.971   2.041  15.515  0.3479  0.2418  0.6510
  436TMC3    C1 6548   1.701   2.077  15.793  0.7891 -0.1108  0.5186
  436TMC3    C2 6549   1.811   2.041  15.721 -0.7465  0.4363  0.0439
  436TMC3    C3 6550   1.796   1.925  15.645  0.2047  0.1561  1.1616
  436TMC3    C4 6551   1.579   2.012  15.783  0.1039 -0.1461  0.3777
  436TMC3    C5 6552   1.587   1.882  15.735 -0.2534 -0.0818 -0.7099
  436TMC3    C6 6553   1.693   1.837  15.650  0.4003 -0.7095 -0.1793
  436TMC3     C 6554   1.714   2.192  15.882 -0.3701  0.8094 -0.5393
  436TMC3     O 6555   1.802   2.273  15.858 -0.5966  0.2408 -0.4124
  436TMC3     H 6556   1.904   2.091  15.746 -1.4346  1.2669  0.9051
  436TMC3    H1 6557   1.488   2.046  15.831  0.1740 -1.1259  1.2078
  436TMC3    H2 6558   1.684   1.749  15.587 -0.3964 -2.3593  2.2628
  436TMC3    C7 6559   1.503   1.784  15.797 -0.0942 -0.1825 -0.1675
  436TMC3    C8 6560   1.924   1.863  15.608  0.4867  0.8740 -0.4414
  436TMC3    O1 6561   1.412   1.822  15.873  0.0967 -0.3100 -0.2013
  436TMC3    O2 6562   1.933   1.740  15.611  0.2317 -0.0267  0.1573
  437TMC3    C1 6563   0.301   4.213  12.490 -0.6335  0.4419 -0.6435
  437TMC3    C2 6564   0.233   4.275  12.395 -0.1439 -0.3815 -0.2676
  437TMC3    C3 6565   0.281   4.240  12.267  0.6920 -1.1442  0.4956
  437TMC3    C4 6566   0.419   4.149  12.475  0.7185  0.2139 -0.5896
  437TMC3    C5 6567   0.475   4.141  12.351  0.9393  0.1101  0.0001
  437TMC3    C6 6568   0.403   4.187  12.246  0.4815  0.4608  0.5603
  437TMC3     C 6569   0.248   4.198  12.619 -0.9248 -0.0917  0.0077
  437TMC3     O 6570   0.270   4.086  12.672  0.1483 -0.2796 -0.0637
  437TMC3     H 6571   0.133   4.313  12.412  0.0524  0.0621 -0.0839
  437TMC3    H1 6572   0.465   4.121  12.569 -0.3326  0.7507  0.0913
  437TMC3    H2 6573   0.454   4.189  12.150  0.5855  0.3831  0.6142
  437TMC3    C7 6574   0.608   4.099  12.330  0.6355 -0.0438 -0.8248
  437TMC3    C8 6575   0.181   4.252  12.159 -0.1565  0.1992  0.3389
  437TMC3    O1 6576   0.671   4.139  12.230 -0.0119  0.1650  0.0458
  437TMC3    O2 6577   0.076   4.299  12.199 -0.1683  0.0127 -0.3335
  438MPD2     C 6578   2.768   4.464  16.897  0.3297  0.3617 -0.1313
  438MPD2    C1 6579   2.851   4.364  16.950  0.5458 -0.1396 -0.8994
  438MPD2    C2 6580   2.845   4.335  17.088  0.0869 -1.0487 -0.2659
  438MPD2    C3 6581   2.765   4.398  17.176  0.1117 -0.6616  0.1243
  438MPD2    C4 6582   2.672   4.489  17.127 -0.3659 -0.0602 -0.2758
  438MPD2    C5 6583   2.681   4.524  16.991  0.2168  0.6893  0.6151
  438MPD2     H 6584   2.925   4.274  17.130  1.2402 -0.0172 -0.9745
  438MPD2    H1 6585   2.594   4.534  17.188  1.1658  0.0098  1.6442
  438MPD2    H2 6586   2.763   4.483  16.790 -1.1353 -1.6374 -0.4377
  438MPD2    H3 6587   2.612   4.601  16.957 -0.2527 -0.8321 -1.8996
  438MPD2     N 6588   2.764   4.366  17.317  0.2615 -0.5383  0.4716
  438MPD2    H5 6589   2.709   4.426  17.378  1.5545 -0.1667  1.2703
  438MPD2    N1 6590   2.928   4.269  16.880  0.3196  0.6752  0.3890
  438MPD2    H7 6591   2.971   4.195  16.934  2.5403 -0.2363 -2.6688
  439TMC3    C1 6592   3.055   4.193  16.704 -0.1473  0.3933  0.1944
  439TMC3    C2 6593   3.063   4.161  16.573 -0.2051 -0.0223 -0.1677
  439TMC3    C3 6594   3.163   4.074  16.536 -0.0567 -0.1620  0.1730
  439TMC3    C4 6595   3.154   4.155  16.791 -0.6406  0.1972  0.1334
  439TMC3    C5 6596   3.249   4.069  16.749  0.4809 -0.1427 -0.1940
  439TMC3    C6 6597   3.259   4.025  16.621 -0.4949 -0.4403  0.0655
  439TMC3     C 6598   2.952   4.282  16.746  0.7957  0.7081 -0.1036
  439TMC3     O 6599   2.891   4.339  16.657  0.7441  0.5132  0.2649
  439TMC3     H 6600   2.978   4.185  16.511  0.7730  0.8900 -1.1682
  439TMC3    H1 6601   3.142   4.176  16.896 -1.4655  1.7579 -0.2814
  439TMC3    H2 6602   3.338   3.958  16.590 -0.1205  0.2717 -0.5351
  439TMC3    C7 6603   3.357   4.029  16.840  1.1079  0.7514  0.0481
  439TMC3    C8 6604   3.176   4.023  16.397  0.1472  0.4686  0.0575
  439TMC3    O1 6605   3.368   4.107  16.930  0.1553 -0.0752  0.1730
  439TMC3    O2 6606   3.250   3.925  16.381  0.3174  0.1812  0.3291
  440MPD2     C 6607   1.223   4.710  15.026 -0.3291  1.1607  0.3113
  440MPD2    C1 6608   1.349   0.022  15.053 -0.2739 -0.4302  0.5724
  440MPD2    C2 6609   1.459   4.673  15.034  0.5765  0.4435  0.5555
  440MPD2    C3 6610   1.443   4.539  14.994 -0.0323  0.1043 -0.6349
  440MPD2    C4 6611   1.322   4.494  14.972 -0.3366  0.1664 -0.2048
  440MPD2    C5 6612   1.211   4.577  14.980  0.0968  0.3404  0.0234
  440MPD2     H 6613   1.559   4.704  15.064  0.9467 -0.5248  0.3039
  440MPD2    H1 6614   1.310   4.394  14.932  0.3405  0.1131 -0.2680
  440MPD2    H2 6615   1.130   0.032  15.017  0.4491  1.9763 -2.6728
  440MPD2    H3 6616   1.110   4.546  14.959 -0.1049  0.8779  0.2024
  440MPD2     N 6617   1.550   4.450  14.955 -0.8161 -0.2695  0.0409
  440MPD2    H5 6618   1.511   4.360  14.930  1.4957 -1.2186 -0.1653
  440MPD2    N1 6619   1.376   0.148  15.097 -0.1294  0.5479 -1.3144
  440MPD2    H7 6620   1.474   0.175  15.107  0.0828 -0.6638 -0.0343
  441TMC3    C1 6621   1.760   4.384  14.890  0.2786  0.2373  0.1080
  441TMC3    C2 6622   1.870   4.411  14.810  0.2441 -0.1020 -0.3805
  441TMC3    C3 6623   1.992   4.399  14.864  0.6166 -0.2801 -0.0347
  441TMC3    C4 6624   1.790   4.318  15.003 -0.3235 -0.2309 -0.1085
  441TMC3    C5 6625   1.908   4.318  15.061 -0.6720 -0.2064 -0.1018
  441TMC3    C6 6626   2.014   4.371  14.995 -0.3336  0.3637  0.6975
  441TMC3     C 6627   1.674   4.495  14.917 -0.0630 -0.3551 -0.1241
  441TMC3     O 6628   1.721   4.606  14.888 -0.1494  0.0715 -0.1594
  441TMC3     H 6629   1.866   4.461  14.714  0.9564 -3.1744 -2.0184
  441TMC3    H1 6630   1.708   4.275  15.059  0.6053 -1.6871  0.1189
  441TMC3    H2 6631   2.113   4.361  15.037 -0.9936 -2.9660  1.4281
  441TMC3    C7 6632   1.897   4.331  15.203  0.3378  0.0879 -0.0015
  441TMC3    C8 6633   2.092   4.474  14.795  0.5656  0.4827 -0.0532
  441TMC3    O1 6634   1.794   4.373  15.259  0.5604 -0.2717  0.2254
  441TMC3    O2 6635   2.121   4.440  14.683 -0.6542 -0.7907 -0.2878
  442MPD2     C 6636   0.050   0.640  16.800 -0.9537 -0.1901 -0.2783
  442MPD2    C1 6637   4.698   0.558  16.876 -0.1532 -0.0798 -0.0481
  442MPD2    C2 6638   4.662   0.429  16.828  0.2995 -0.7678 -0.1186
  442MPD2    C3 6639   4.709   0.397  16.699 -0.6939  0.4601  0.2358
  442MPD2    C4 6640   0.043   0.489  16.619 -0.1265  0.0596  0.7402
  442MPD2    C5 6641   0.089   0.602  16.674 -0.3574 -0.1485 -0.1571
  442MPD2     H 6642   4.615   0.357  16.893 -1.1049 -0.4252 -0.7484
  442MPD2    H1 6643   0.070   0.471  16.515 -0.1393 -0.2059  0.7828
  442MPD2    H2 6644   0.082   0.738  16.833 -2.4077  0.6522 -1.3485
  442MPD2    H3 6645   0.149   0.675  16.621 -0.3976 -0.1008 -0.1376
  442MPD2     N 6646   4.676   0.274  16.640  0.5661 -0.3500 -0.5273
  442MPD2    H5 6647   4.708   0.267  16.544 -0.5838 -0.6997 -0.8922
  442MPD2    N1 6648   4.660   0.596  17.007 -0.0415  0.5245  0.2255
  442MPD2    H7 6649   4.599   0.529  17.053  1.3814 -0.0207  1.3279
  443TMC3    C1 6650   4.594   0.762  17.165 -0.0720  0.8690  0.6420
  443TMC3    C2 6651   4.498   0.863  17.150  0.4411 -0.1323  1.4001
  443TMC3    C3 6652   4.409   0.879  17.251  0.5218  0.3132 -0.9591
  443TMC3    C4 6653   4.591   0.676  17.269  0.1058 -0.3316 -0.3465
  443TMC3    C5 6654   4.510   0.705  17.374 -1.0207  0.5298  0.3151
  443TMC3    C6 6655   4.424   0.813  17.372  0.3235  0.1875 -0.3387
  443TMC3     C 6656   4.668   0.725  17.049 -0.7753  0.2214 -0.2926
  443TMC3     O 6657   4.731   0.823  17.011  0.0397 -0.2862  0.2010
  443TMC3     H 6658   4.484   0.916  17.057 -0.5074 -3.0957 -0.1674
  443TMC3    H1 6659   4.650   0.585  17.268  3.2651  1.7329 -1.6750
  443TMC3    H2 6660   4.337   0.824  17.435 -1.3815 -1.8769 -2.3467
  443TMC3    C7 6661   4.445   0.588  17.424  0.0898 -0.7775 -0.1770
  443TMC3    C8 6662   4.271   0.864  17.204 -0.3262 -0.6340 -0.2839
  443TMC3    O1 6663   4.423   0.497  17.343  0.6726 -0.1485  0.4635
  443TMC3    O2 6664   4.185   0.888  17.291 -0.2186 -0.2305  0.6209
  444MPD2     C 6665   0.162   0.286  17.077  0.3434 -0.3576  0.2760
  444MPD2    C1 6666   0.106   0.165  17.108  0.4357  0.2865  0.2296
  444MPD2    C2 6667   0.128   0.058  17.025 -0.3533  0.0104 -0.1250
  444MPD2    C3 6668   0.201   0.065  16.907  0.4258 -0.2927  0.1313
  444MPD2    C4 6669   0.252   0.190  16.878 -0.1588  0.0787  0.1040
  444MPD2    C5 6670   0.236   0.292  16.962 -0.2024  0.1298  0.7141
  444MPD2     H 6671   0.078   4.696  17.037  0.5430 -0.2961  1.1643
  444MPD2    H1 6672   0.302   0.208  16.783 -2.3294 -0.9502 -1.2292
  444MPD2    H2 6673   0.160   0.377  17.136 -1.9079  0.5724 -1.2457
  444MPD2    H3 6674   0.281   0.388  16.936 -1.0847  0.2582 -0.3003
  444MPD2     N 6675   0.218   4.677  16.830 -0.5103 -0.2739 -0.1881
  444MPD2    H5 6676   0.159   4.596  16.846  0.5265 -1.4022 -2.0257
  444MPD2    N1 6677   0.022   0.142  17.222 -0.7099  0.0902  0.5280
  444MPD2    H7 6678   4.718   0.049  17.239  1.0757 -0.5329  0.9718
  445TMC3    C1 6679   0.326   4.530  16.677 -0.3028 -0.2472  0.3694
  445TMC3    C2 6680   0.212   4.453  16.677  0.0635  0.2350  0.1514
  445TMC3    C3 6681   0.220   4.325  16.633 -0.4206 -0.4432 -1.1919
  445TMC3    C4 6682   0.449   4.482  16.634  0.4533 -0.9698  0.3137
  445TMC3    C5 6683   0.452   4.354  16.598 -0.3304 -0.2241  0.0817
  445TMC3    C6 6684   0.340   4.278  16.590  0.0842 -0.0857  0.1859
  445TMC3     C 6685   0.331   4.659  16.742  0.3187  0.4387  0.8793
  445TMC3     O 6686   0.423   0.004  16.715 -0.1264 -0.0036 -0.4999
  445TMC3     H 6687   0.115   4.497  16.695 -0.8052 -1.9348  0.8219
  445TMC3    H1 6688   0.539   4.541  16.617 -1.0598  0.6371 -2.2406
  445TMC3    H2 6689   0.342   4.188  16.530 -0.8232 -0.1347  0.2398
  445TMC3    C7 6690   0.587   4.287  16.577 -0.4199  0.2812  0.0916
  445TMC3    C8 6691   0.097   4.277  16.574 -0.1429  0.5188 -0.6890
  445TMC3    O1 6692   0.689   4.359  16.581 -0.0298  0.1181  0.0603
  445TMC3    O2 6693   0.003   4.350  16.545  0.1612 -0.0795 -0.6138
  446MPD2     C 6694   4.581   0.857  11.342  0.8382 -0.3411 -0.9027
  446MPD2    C1 6695   4.521   0.930  11.243  0.2967 -0.0316 -0.2725
  446MPD2    C2 6696   4.597   0.975  11.130 -0.1880  0.3286  0.4707
  446MPD2    C3 6697   0.002   0.951  11.122 -0.2167  0.0853  0.7999
  446MPD2    C4 6698   0.060   0.891  11.230  0.2553 -0.7312  0.0714
  446MPD2    C5 6699   4.718   0.846  11.333  0.2830  0.2507  0.4521
  446MPD2     H 6700   4.549   1.031  11.051  1.0373 -1.1117 -1.2874
  446MPD2    H1 6701   0.166   0.874  11.243  0.4040 -1.4162 -2.0077
  446MPD2    H2 6702   4.536   0.812  11.430 -0.1284  2.1792 -0.0957
  446MPD2    H3 6703   0.039   0.794  11.411  0.2315  0.0077  0.3229
  446MPD2     N 6704   0.075   0.999  11.009  0.0240  0.3478 -0.1057
  446MPD2    H5 6705   0.022   1.061  10.949  1.0791  2.3071  0.9632
  446MPD2    N1 6706   4.380   0.954  11.237 -0.4891 -0.1154  0.6546
  446MPD2    H7 6707   4.337   0.998  11.156  2.0893  1.0071 -0.0854
  447TMC3    C1 6708   0.273   1.041  10.881 -0.0951  0.5203 -0.0329
  447TMC3    C2 6709   0.197   1.132  10.806 -0.2176 -0.2991 -0.1274
  447TMC3    C3 6710   0.269   1.197  10.712  0.1776  0.5620  0.8384
  447TMC3    C4 6711   0.410   1.037  10.877  0.2093 -0.6550 -0.0341
  447TMC3    C5 6712   0.475   1.117  10.792  0.5473 -0.3150 -0.0055
  447TMC3    C6 6713   0.406   1.186  10.701 -0.2174 -0.5512 -1.0346
  447TMC3     C 6714   0.210   0.977  10.996  0.7523  0.3239 -0.3274
  447TMC3     O 6715   0.294   0.924  11.071  0.0667 -0.1911 -0.2865
  447TMC3     H 6716   0.089   1.140  10.803 -0.3776 -1.8333  1.6405
  447TMC3    H1 6717   0.460   0.968  10.944  2.0786 -0.6551 -1.3945
  447TMC3    H2 6718   0.449   1.244  10.620  1.6293  1.6074  1.5273
  447TMC3    C7 6719   0.612   1.163  10.812 -0.3988 -0.8446 -0.1949
  447TMC3    C8 6720   0.213   1.301  10.630  0.6622  0.0517  0.5390
  447TMC3    O1 6721   0.690   1.216  10.733 -0.4660  0.1594 -0.6204
  447TMC3    O2 6722   0.250   1.326  10.515  0.3044 -0.6462 -0.2537
  448TMC3    C1 6723   2.772   0.925  17.356 -0.9853  0.2089  0.3660
  448TMC3    C2 6724   2.769   0.797  17.311  0.0575  0.1952 -0.5766
  448TMC3    C3 6725   2.841   0.715  17.389  0.7746 -0.5339  0.2932
  448TMC3    C4 6726   2.850   0.978  17.457 -0.6684  0.1734  0.6431
  448TMC3    C5 6727   2.936   0.886  17.520 -0.1122 -0.0880  0.6927
  448TMC3    C6 6728   2.923   0.752  17.493 -0.2818 -0.0202 -0.2019
  448TMC3     C 6729   2.698   1.025  17.277 -0.0309  0.1982 -0.0975
  448TMC3     O 6730   2.737   1.139  17.292 -0.6704 -0.0539  0.2277
  448TMC3     H 6731   2.715   0.760  17.225 -0.7405 -2.2446  0.9653
  448TMC3    H1 6732   2.833   1.078  17.495 -3.1190 -0.1522  0.4256
  448TMC3    H2 6733   2.982   0.678  17.545 -0.7546 -0.0669  0.2710
  448TMC3    C7 6734   3.009   0.944  17.633 -0.5868 -0.5152 -0.2444
  448TMC3    C8 6735   2.835   0.577  17.362 -0.5020 -0.3980  0.0134
  448TMC3    O1 6736   3.018   1.067  17.623  0.4686 -0.0935  0.0967
  448TMC3    O2 6737   2.926   0.506  17.407 -0.2718  0.2511 -0.3183
  449MPD2     C 6738   0.267   4.627  14.339  0.2631 -0.1384  0.6316
  449MPD2    C1 6739   0.195   4.525  14.280 -0.4727  0.0463  0.6853
  449MPD2    C2 6740   0.251   4.403  14.245  0.1974  0.3202  0.6511
  449MPD2    C3 6741   0.390   4.386  14.261  0.2698  0.3512 -0.0560
  449MPD2    C4 6742   0.465   4.488  14.324  0.0982 -0.3583 -0.2285
  449MPD2    C5 6743   0.402   4.604  14.360  0.1272 -0.8769 -0.0597
  449MPD2     H 6744   0.196   4.327  14.191 -2.0032  2.4865 -0.1372
  449MPD2    H1 6745   0.569   4.477  14.351  0.4460  2.3283 -0.3924
  449MPD2    H2 6746   0.222   4.709  14.393 -1.0580 -2.0251  2.3907
  449MPD2    H3 6747   0.465   4.667  14.422 -0.7919 -0.0061 -0.0040
  449MPD2     N 6748   0.436   4.265  14.212  0.2714 -0.2116  0.0876
  449MPD2    H5 6749   0.371   4.214  14.153 -1.2544  1.6608  0.1533
  449MPD2    N1 6750   0.062   4.539  14.233 -0.6672 -0.2250  0.3323
  449MPD2    H7 6751   0.007   4.455  14.214  2.4404 -2.3333  0.5776
  450TMC3    C1 6752   4.609   4.636  14.143  0.9238 -0.0734  1.0590
  450TMC3    C2 6753   4.603   4.712  14.025  0.9619  0.2935 -0.4384
  450TMC3    C3 6754   4.563   4.657  13.910 -0.0990  0.1973  0.8759
  450TMC3    C4 6755   4.571   4.507  14.138 -0.4356  0.0868 -0.3810
  450TMC3    C5 6756   4.534   4.454  14.020  0.0243 -0.6584 -0.2231
  450TMC3    C6 6757   4.540   4.523  13.902 -0.4947  0.1129 -0.3925
  450TMC3     C 6758   4.724   4.657  14.223 -0.1296  0.4091  0.6646
  450TMC3     O 6759   0.028   0.042  14.232  0.5612 -0.6215 -0.4187
  450TMC3     H 6760   4.639   0.081  14.027  0.9552  0.2673  1.1636
  450TMC3    H1 6761   4.538   4.453  14.226  1.1279  0.1885  0.2684
  450TMC3    H2 6762   4.520   4.468  13.812  0.7753 -0.1151 -0.5286
  450TMC3    C7 6763   4.581   4.310  14.022  0.8473  0.1275 -0.1874
  450TMC3    C8 6764   4.604   4.732  13.792  0.4185 -0.0797 -0.7022
  450TMC3    O1 6765   4.657   4.282  14.113 -0.2706  0.0442  0.3200
  450TMC3    O2 6766   4.577   0.117  13.797 -0.8100  0.1186 -0.3013
  451MPD2     C 6767   0.872   2.336   1.628 -0.1062  0.3687 -0.3156
  451MPD2    C1 6768   0.831   2.399   1.506  0.2649 -0.1730 -0.1742
  451MPD2    C2 6769   0.913   2.374   1.398 -0.2301  0.2802 -0.9107
  451MPD2    C3 6770   1.029   2.293   1.409  0.1873 -0.1628 -0.2890
  451MPD2    C4 6771   1.060   2.229   1.527 -0.4123 -0.8728  0.0765
  451MPD2    C5 6772   0.980   2.252   1.638 -0.1119  0.0992 -0.4498
  451MPD2     H 6773   0.900   2.433   1.308 -0.4786  2.4234  0.5355
  451MPD2    H1 6774   1.147   2.167   1.542  0.6053  0.6314  0.3172
  451MPD2    H2 6775   0.809   2.341   1.716 -0.7862  0.4018 -0.7992
  451MPD2    H3 6776   1.005   2.197   1.728 -1.7853  0.1950  0.0707
  451MPD2     N 6777   1.119   2.269   1.303 -0.0783 -0.8139 -0.2107
  451MPD2    H5 6778   1.204   2.221   1.333 -0.3696 -0.0093  1.9596
  451MPD2    N1 6779   0.708   2.478   1.501 -0.3887 -0.4217 -0.6388
  451MPD2    H7 6780   0.660   2.494   1.590 -1.2585  0.0594 -1.1992
  452TMC3    C1 6781   1.236   2.299   1.100  0.3544 -0.3427 -0.1769
  452TMC3    C2 6782   1.207   2.310   0.968 -0.0743 -0.2763 -0.0607
  452TMC3    C3 6783   1.290   2.373   0.882  0.7653  0.0286 -0.0533
  452TMC3    C4 6784   1.346   2.359   1.152 -0.7102 -0.1629  1.2022
  452TMC3    C5 6785   1.418   2.438   1.062  0.2821  0.0036 -0.7006
  452TMC3    C6 6786   1.402   2.435   0.923  1.0312 -0.5568 -0.9176
  452TMC3     C 6787   1.111   2.317   1.175 -0.0684 -0.4919 -0.4755
  452TMC3     O 6788   1.010   2.358   1.113 -0.0674  0.5940  0.3314
  452TMC3     H 6789   1.125   2.259   0.920 -0.4254  0.3886 -0.1638
  452TMC3    H1 6790   1.370   2.368   1.257 -1.6247 -0.5909  1.4481
  452TMC3    H2 6791   1.450   2.512   0.863  0.7407  0.1863 -0.1930
  452TMC3    C7 6792   1.510   2.541   1.118  0.2111  0.3480  0.1832
  452TMC3    C8 6793   1.233   2.408   0.753 -0.0548  0.0196 -0.5323
  452TMC3    O1 6794   1.486   2.598   1.226 -0.0499 -0.4205 -0.1333
  452TMC3    O2 6795   1.113   2.386   0.733 -0.6731  0.2780  0.2090
  453TMC3    C1 6796   1.830   0.046  12.040 -0.4378 -0.6628  0.1568
  453TMC3    C2 6797   1.791   4.686  12.135  0.0769  0.2017 -0.3373
  453TMC3    C3 6798   1.710   4.578  12.097  0.0381  0.6797  0.0001
  453TMC3    C4 6799   1.808   0.024  11.907  0.2468 -0.0757 -0.0202
  453TMC3    C5 6800   1.754   4.639  11.867  0.2711 -0.4991  0.0344
  453TMC3    C6 6801   1.701   4.551  11.961 -0.2214  0.5491  0.6454
  453TMC3     C 6802   1.941   0.134  12.077  0.1042  0.0161  0.0883
  453TMC3     O 6803   2.026   0.141  11.994 -0.0421 -0.1153 -0.3556
  453TMC3     H 6804   1.807   4.705  12.240 -1.8930  0.9391 -0.1567
  453TMC3    H1 6805   1.835   0.099  11.833 -0.8863  0.1099 -0.2580
  453TMC3    H2 6806   1.636   4.473  11.923 -0.8617  0.2008  2.4636
  453TMC3    C7 6807   1.756   4.611  11.728  0.2756 -0.2023  0.4519
  453TMC3    C8 6808   1.652   4.487  12.192 -0.3074  0.0597  0.6047
  453TMC3    O1 6809   1.794   4.702  11.666  0.0774 -0.6241  0.2834
  453TMC3    O2 6810   1.665   4.520  12.310  0.5295  0.0069  0.4241
  454MPD2     C 6811   0.837   4.631  16.131 -0.4948 -0.0813 -0.3585
  454MPD2    C1 6812   0.732   4.658  16.038 -0.0978  0.2102  0.0952
  454MPD2    C2 6813   0.680   0.055  16.048 -0.0468 -0.3778  0.5737
  454MPD2    C3 6814   0.704   0.137  16.153  0.7125  0.0504 -0.1277
  454MPD2    C4 6815   0.800   0.095  16.247 -0.2299 -0.7699  0.4376
  454MPD2    C5 6816   0.863   4.714  16.235 -0.7169 -0.8630  0.1998
  454MPD2     H 6817   0.617   0.082  15.964 -1.0767 -2.0641  0.7832
  454MPD2    H1 6818   0.828   0.149  16.337  0.8905 -1.0117  0.2330
  454MPD2    H2 6819   0.896   4.540  16.131 -1.5688 -0.7680  1.1568
  454MPD2    H3 6820   0.933   4.678  16.310 -0.9957 -1.9251 -0.0508
  454MPD2     N 6821   0.625   0.250  16.183 -0.2609 -0.2057  0.3619
  454MPD2    H5 6822   0.628   0.282  16.279 -2.8038  0.0326  0.3536
  454MPD2    N1 6823   0.683   4.573  15.939 -0.4087  0.1151  0.0546
  454MPD2    H7 6824   0.611   4.601  15.872 -0.9900  0.2125  0.7207
  455TMC3    C1 6825   0.406   0.293  16.219 -0.3701  0.1313  0.0214
  455TMC3    C2 6826   0.435   0.384  16.324 -0.5078 -0.1825 -0.1368
  455TMC3    C3 6827   0.374   0.346  16.440 -0.5495 -0.1328  0.2715
  455TMC3    C4 6828   0.334   0.182  16.234 -0.5118 -0.3377  1.4108
  455TMC3    C5 6829   0.274   0.150  16.355 -0.1782 -0.3322  0.5779
  455TMC3    C6 6830   0.306   0.232  16.461  0.3422 -0.2494 -0.4453
  455TMC3     C 6831   0.512   0.277  16.119  0.6822 -0.4929  0.6559
  455TMC3     O 6832   0.473   0.228  16.016 -0.4787 -0.4330 -0.1012
  455TMC3     H 6833   0.495   0.472  16.303  0.3567 -0.4521  1.2450
  455TMC3    H1 6834   0.322   0.117  16.148  0.2138  0.7015  0.5182
  455TMC3    H2 6835   0.281   0.190  16.559 -1.2773  1.9783  0.0888
  455TMC3    C7 6836   0.261   0.007  16.370 -0.0564  0.3018  0.1702
  455TMC3    C8 6837   0.390   0.436  16.554  0.3288  0.1152 -0.1840
  455TMC3    O1 6838   0.182   4.695  16.453 -0.2997 -0.0797  0.2017
  455TMC3    O2 6839   0.378   0.380  16.660  0.3367 -0.2149 -0.5452
  456MPD2     C 6840   3.315   4.542  16.406 -1.1794  0.0694  0.2340
  456MPD2    C1 6841   3.369   4.441  16.489 -0.0014  0.6351 -0.2907
  456MPD2    C2 6842   3.332   4.434  16.624 -0.3298 -0.5893 -0.1272
  456MPD2    C3 6843   3.249   4.536  16.680 -0.0273  0.3838  0.2646
  456MPD2    C4 6844   3.192   4.619  16.590  0.2702 -0.1555 -0.1000
  456MPD2    C5 6845   3.226   4.631  16.459 -0.0807 -0.2836  0.0398
  456MPD2     H 6846   3.376   4.368  16.698 -0.3903 -2.1905 -1.5217
  456MPD2    H1 6847   3.114   4.693  16.606 -0.7539 -1.8262  2.6233
  456MPD2    H2 6848   3.348   4.549  16.303  1.7382  1.5960  1.2968
  456MPD2    H3 6849   3.176   4.694  16.387  0.9413  0.1097 -0.3218
  456MPD2     N 6850   3.222   4.544  16.819  0.2519  0.2242  0.2513
  456MPD2    H5 6851   3.268   4.477  16.880  0.0903 -0.6903 -0.6434
  456MPD2    N1 6852   3.446   4.346  16.420  0.3774  0.1766  0.4973
  456MPD2    H7 6853   3.464   4.361  16.321  0.5986 -2.0243  0.1878
  457TMC3    C1 6854   3.118   4.623  17.011 -1.0372 -0.0971 -0.5791
  457TMC3    C2 6855   2.995   4.646  17.066 -0.6868 -0.7196 -0.3478
  457TMC3    C3 6856   2.989   4.672  17.199  0.3517 -0.6592 -0.0848
  457TMC3    C4 6857   3.231   4.617  17.092 -0.6307  0.4906 -0.0755
  457TMC3    C5 6858   3.212   4.618  17.227  0.5738  0.0392  0.1541
  457TMC3    C6 6859   3.092   4.649  17.281 -0.7609 -0.1303  0.1103
  457TMC3     C 6860   3.128   4.629  16.870  0.3155 -0.2718 -0.1277
  457TMC3     O 6861   3.069   4.721  16.817  0.0732 -0.0873 -0.4844
  457TMC3     H 6862   2.911   4.650  16.997 -1.5351  1.0715  0.7970
  457TMC3    H1 6863   3.328   4.598  17.049  0.0397  1.2420  1.1360
  457TMC3    H2 6864   3.097   4.684  17.384  0.0645 -0.1963  0.0928
  457TMC3    C7 6865   3.324   4.625  17.323  0.1266 -0.4887  0.3870
  457TMC3    C8 6866   2.892   0.034  17.243  0.1058 -0.0815  0.7174
  457TMC3    O1 6867   3.307   4.580  17.438  0.0253 -0.3643  0.0708
  457TMC3    O2 6868   2.901   0.076  17.357  0.2120 -0.0991  0.5178
  458MPD2     C 6869   1.045   3.966  12.551  0.5240  0.0486 -0.0557
  458MPD2    C1 6870   0.939   3.897  12.612  0.5628 -0.4200  0.4063
  458MPD2    C2 6871   0.816   3.922  12.570  0.3888  0.5937  0.5669
  458MPD2    C3 6872   0.787   4.008  12.473 -0.3225 -0.5812 -0.6927
  458MPD2    C4 6873   0.890   4.078  12.417 -0.2279  0.6130 -0.5941
  458MPD2    C5 6874   1.016   4.051  12.449  0.3059 -0.0724 -0.3324
  458MPD2     H 6875   0.731   3.876  12.620 -0.0074 -1.5019 -2.0339
  458MPD2    H1 6876   0.877   4.139  12.329  2.0361 -1.6696 -2.4992
  458MPD2    H2 6877   1.150   3.953  12.575  0.5980 -1.3968 -1.1600
  458MPD2    H3 6878   1.096   4.094  12.391  1.7153 -1.4710  0.5582
  458MPD2     N 6879   0.653   4.035  12.442 -0.5652  0.0456  0.1720
  458MPD2    H5 6880   0.578   3.991  12.494 -0.0040 -0.3764  0.6193
  458MPD2    N1 6881   0.970   3.821  12.725  0.1067  0.6180  0.6294
  458MPD2    H7 6882   1.068   3.829  12.750  0.3624 -3.1957  0.9206
  459TMC3    C1 6883   0.943   3.733  12.945 -0.4041 -0.6481 -0.2872
  459TMC3    C2 6884   1.027   3.829  12.993 -0.7725 -0.6447 -0.5608
  459TMC3    C3 6885   1.111   3.787  13.094 -0.0319  0.4897 -0.1087
  459TMC3    C4 6886   0.926   3.609  13.005  0.1055 -0.6636 -0.1328
  459TMC3    C5 6887   1.017   3.577  13.097 -0.8304  0.7970  0.4256
  459TMC3    C6 6888   1.107   3.662  13.149  0.2487 -0.0982  0.2256
  459TMC3     C 6889   0.892   3.748  12.811 -0.7790 -0.8506  0.0647
  459TMC3     O 6890   0.777   3.706  12.792  0.2163  0.1766  0.4933
  459TMC3     H 6891   1.060   3.910  12.928 -3.0577  0.4044 -0.4442
  459TMC3    H1 6892   0.836   3.549  12.994 -1.3433  1.6800 -0.9938
  459TMC3    H2 6893   1.185   3.627  13.215 -1.5074 -2.5957  0.9758
  459TMC3    C7 6894   1.037   3.443  13.142  0.5089  0.6797  0.8084
  459TMC3    C8 6895   1.239   3.859  13.096 -0.2609  0.2769 -0.1560
  459TMC3    O1 6896   1.060   3.435  13.263 -0.0676 -0.1168 -0.5953
  459TMC3    O2 6897   1.269   3.912  12.989  0.1068 -0.0571 -0.1072
  460MPD2     C 6898   0.018   1.565  10.781  0.4507 -0.3020 -0.6202
  460MPD2    C1 6899   0.060   1.492  10.677  0.4169 -0.1252 -0.1414
  460MPD2    C2 6900   0.035   1.537  10.545  0.4575 -0.2313  0.3968
  460MPD2    C3 6901   4.693   1.649  10.523  0.1777 -0.2979  0.2190
  460MPD2    C4 6902   4.666   1.729  10.632 -0.2680  0.3756  0.6771
  460MPD2    C5 6903   4.694   1.687  10.761 -0.0693 -0.0745 -0.1634
  460MPD2     H 6904   0.070   1.481  10.459  0.8527 -1.6639  1.5069
  460MPD2    H1 6905   4.596   1.811  10.626  1.8847  2.2188  0.6921
  460MPD2    H2 6906   0.037   1.544  10.886 -1.1312  1.9917  0.1285
  460MPD2    H3 6907   4.680   1.751  10.847  0.1444 -0.7654  0.3798
  460MPD2     N 6908   4.650   1.677  10.388 -0.1197 -0.1475  0.7285
  460MPD2    H5 6909   4.690   1.628  10.308  1.9400 -1.0124  2.2868
  460MPD2    N1 6910   0.116   1.369  10.705  0.2500  0.5914  0.3596
  460MPD2    H7 6911   0.111   1.348  10.804 -1.1972  0.1560  0.1867
  461TMC3    C1 6912   4.545   1.807  10.209 -0.8409 -0.4126  0.8210
  461TMC3    C2 6913   4.564   1.711  10.116  0.2395 -0.7210  0.0445
  461TMC3    C3 6914   4.505   1.739   9.993 -0.3468  0.0060 -0.5673
  461TMC3    C4 6915   4.499   1.933  10.181 -0.3329 -0.3545 -0.1368
  461TMC3    C5 6916   4.459   1.957  10.052  1.1546 -0.0373 -0.8610
  461TMC3    C6 6917   4.451   1.856   9.961  0.6798  0.0753 -0.1196
  461TMC3     C 6918   4.567   1.776  10.352  0.5159 -1.0719  0.0455
  461TMC3     O 6919   4.502   1.847  10.433 -0.1957  0.0879  0.1608
  461TMC3     H 6920   4.606   1.613  10.135  0.3952 -0.5096  0.8023
  461TMC3    H1 6921   4.488   2.008  10.259  0.6094 -0.8173  0.4358
  461TMC3    H2 6922   4.399   1.868   9.867  3.0536 -1.2348 -1.6046
  461TMC3    C7 6923   4.365   2.069  10.015  0.0074 -0.3242 -0.0589
  461TMC3    C8 6924   4.525   1.633   9.894  0.1944 -0.4632 -0.1590
  461TMC3    O1 6925   4.313   2.067   9.905  0.1749  0.0364  0.1494
  461TMC3    O2 6926   4.625   1.565   9.911 -0.5379  0.1561 -0.1298
  462TMC3    C1 6927   0.187   3.110   0.305 -0.5795 -1.0081 -0.1896
  462TMC3    C2 6928   0.236   3.085   0.176 -0.4504  0.3312  0.5822
  462TMC3    C3 6929   0.277   2.957   0.148 -0.2125  0.0258  0.0278
  462TMC3    C4 6930   0.181   3.010   0.400  0.1844 -0.2972  0.1678
  462TMC3    C5 6931   0.222   2.885   0.363 -0.4160  0.3221  0.2872
  462TMC3    C6 6932   0.281   2.856   0.242  0.8030  1.1467 -0.2502
  462TMC3     C 6933   0.171   3.248   0.346 -0.6259  0.3912 -0.3027
  462TMC3     O 6934   0.199   3.333   0.266  0.3777 -0.3108  0.2436
  462TMC3     H 6935   0.231   3.154   0.093 -1.4403  0.0408  0.4103
  462TMC3    H1 6936   0.156   3.032   0.503  0.0095  0.2046  0.0182
  462TMC3    H2 6937   0.281   2.753   0.207 -2.3553  1.7523 -1.9909
  462TMC3    C7 6938   0.162   2.771   0.434 -0.2997  0.0866 -0.2205
  462TMC3    C8 6939   0.292   2.925   0.008  0.4289 -0.0454  0.2249
  462TMC3    O1 6940   0.203   2.660   0.393 -0.2893  0.2287  0.1355
  462TMC3    O2 6941   0.247   2.993  17.651 -0.0423  0.7120 -0.1956
  463MPD2     C 6942   1.892   1.328   1.492  0.2510 -0.3814 -0.4275
  463MPD2    C1 6943   1.891   1.194   1.524  0.2900 -0.3503  0.0723
  463MPD2    C2 6944   2.008   1.121   1.495 -0.3734 -0.4854 -0.3238
  463MPD2    C3 6945   2.122   1.180   1.435 -0.3257  0.4142  0.2205
  463MPD2    C4 6946   2.120   1.320   1.412  0.1779 -0.5629 -0.5304
  463MPD2    C5 6947   2.006   1.386   1.442 -0.8328  0.3396 -0.2859
  463MPD2     H 6948   2.006   1.016   1.521 -1.3752 -0.2944  0.3484
  463MPD2    H1 6949   2.200   1.368   1.356  0.9183 -0.1114  0.9260
  463MPD2    H2 6950   1.806   1.393   1.505  0.0036 -0.5264 -1.3531
  463MPD2    H3 6951   2.012   1.491   1.413 -2.5165  0.3559 -0.5705
  463MPD2     N 6952   2.246   1.109   1.405  0.6093  0.5740 -0.0771
  463MPD2    H5 6953   2.324   1.169   1.383  1.8034 -1.8568 -2.3417
  463MPD2    N1 6954   1.781   1.118   1.579  0.1419  0.0162 -0.4434
  463MPD2    H7 6955   1.794   1.018   1.592  0.9936  0.3228  1.0232
  464TMC3    C1 6956   1.563   1.080   1.657  0.2330  0.0524  0.7298
  464TMC3    C2 6957   1.455   1.127   1.729  0.0247  0.4365 -0.3312
  464TMC3    C3 6958   1.346   1.048   1.745  0.1465 -0.7074 -0.5418
  464TMC3    C4 6959   1.570   0.953   1.614  0.2056 -0.1517 -0.6106
  464TMC3    C5 6960   1.454   0.876   1.632 -0.2361 -0.4312 -0.2373
  464TMC3    C6 6961   1.346   0.924   1.700 -0.2394 -0.1876  0.0746
  464TMC3     C 6962   1.669   1.179   1.627  0.5586  1.1923 -0.2318
  464TMC3     O 6963   1.649   1.296   1.647  0.0369  0.1523  0.2203
  464TMC3     H 6964   1.461   1.229   1.764  1.3420 -0.4671  2.1128
  464TMC3    H1 6965   1.654   0.916   1.556 -0.0216  2.9810 -2.9358
  464TMC3    H2 6966   1.258   0.863   1.721  0.1417 -0.7427  0.0500
  464TMC3    C7 6967   1.447   0.745   1.582 -0.1282  0.2111 -1.0988
  464TMC3    C8 6968   1.215   1.124   1.750  0.0353  0.1236  0.4542
  464TMC3    O1 6969   1.558   0.703   1.552  0.4213  0.3567  0.3636
  464TMC3    O2 6970   1.218   1.244   1.734 -0.1521  0.5792 -0.3434
  465MPD2     C 6971   2.337   4.461  16.841 -0.4414 -0.3886  0.4697
  465MPD2    C1 6972   2.218   4.450  16.902 -0.2810 -0.2348  0.0266
  465MPD2    C2 6973   2.106   4.507  16.831 -0.2428 -0.0007 -0.8324
  465MPD2    C3 6974   2.117   4.567  16.702 -0.6971  1.0384  0.7214
  465MPD2    C4 6975   2.244   4.572  16.649  0.7637 -0.3691 -0.4776
  465MPD2    C5 6976   2.352   4.528  16.718 -0.5825 -0.3580 -0.1632
  465MPD2     H 6977   2.006   4.517  16.871 -0.4121  3.2062 -2.0624
  465MPD2    H1 6978   2.256   4.605  16.547  0.4009  3.1509  0.6132
  465MPD2    H2 6979   2.429   4.432  16.890 -0.1897 -1.8793 -0.8964
  465MPD2    H3 6980   2.451   4.541  16.678  0.5592 -1.2665  2.3370
  465MPD2     N 6981   2.000   4.627  16.646 -0.0606  0.0903  0.0383
  465MPD2    H5 6982   1.911   4.624  16.693 -1.0208 -1.6052 -1.8942
  465MPD2    N1 6983   2.196   4.401  17.030 -0.0223  0.4132 -0.6654
  465MPD2    H7 6984   2.101   4.423  17.057  0.3244  0.1768  0.7140
  466TMC3    C1 6985   1.641   0.075  16.516  0.0695  0.3084  0.2009
  466TMC3    C2 6986   1.657   0.171  16.414 -1.0520 -0.1242 -0.2337
  466TMC3    C3 6987   1.773   0.201  16.367 -0.3319  0.0942  0.1501
  466TMC3    C4 6988   1.752   0.003  16.551 -0.1418  0.0013  0.0481
  466TMC3    C5 6989   1.873   0.029  16.488 -0.5547  0.5396  0.6112
  466TMC3    C6 6990   1.883   0.119  16.387 -0.8321 -0.2555 -0.0679
  466TMC3     C 6991   1.542   0.075  16.628 -0.1326 -0.5544 -0.4846
  466TMC3     O 6992   1.555   4.711  16.704  0.0901  0.2240  0.1504
  466TMC3     H 6993   1.573   0.235  16.389 -1.1926 -0.1576  0.1492
  466TMC3    H1 6994   1.749   4.659  16.627 -0.5641 -0.0331 -0.0047
  466TMC3    H2 6995   1.973   0.140  16.331 -0.1743  1.0733  1.4762
  466TMC3    C7 6996   2.001   4.701  16.528  0.5155 -0.0827 -0.6953
  466TMC3    C8 6997   1.799   0.339  16.323 -0.8217  0.1026 -0.2322
  466TMC3    O1 6998   2.091   4.727  16.451 -0.2711 -0.5641  0.4764
  466TMC3    O2 6999   1.877   0.334  16.231 -0.5296 -0.2576 -0.4351
  467TMC3    C1 7000   3.545   3.232  13.847  0.3389 -0.6085  0.1101
  467TMC3    C2 7001   3.543   3.325  13.750  0.0089  0.8592  0.8003
  467TMC3    C3 7002   3.427   3.346  13.682 -0.1085  0.1833 -0.0297
  467TMC3    C4 7003   3.435   3.163  13.885 -0.5927  0.5177  0.3996
  467TMC3    C5 7004   3.320   3.186  13.813 -0.7468  0.5947 -0.0548
  467TMC3    C6 7005   3.313   3.275  13.714 -0.0787 -0.0498  0.2638
  467TMC3     C 7006   3.670   3.203  13.909  0.2733  0.1745  0.1408
  467TMC3     O 7007   3.769   3.267  13.874  0.1932  0.4914 -0.3680
  467TMC3     H 7008   3.641   3.368  13.730  0.6957 -1.1986 -0.2671
  467TMC3    H1 7009   3.434   3.086  13.962 -2.1607 -0.8267 -0.9538
  467TMC3    H2 7010   3.218   3.290  13.664  0.5906  1.1978 -0.6200
  467TMC3    C7 7011   3.213   3.087  13.834  0.1981 -0.9587 -0.0181
  467TMC3    C8 7012   3.430   3.409  13.555  0.4163  0.1209  0.0925
  467TMC3    O1 7013   3.272   2.976  13.846  0.0869 -0.6574  0.2048
  467TMC3    O2 7014   3.324   3.421  13.498 -0.0438 -0.6145 -0.2638
  468MPD2     C 7015   1.933   1.622  10.546  0.6693  0.3758  0.1530
  468MPD2    C1 7016   2.046   1.570  10.609  0.9410  0.8639  0.5812
  468MPD2    C2 7017   2.050   1.431  10.639  0.3861 -0.2750 -0.3206
  468MPD2    C3 7018   1.944   1.345  10.598 -0.4272 -0.6873 -0.0573
  468MPD2    C4 7019   1.840   1.406  10.531  0.8842  0.5787 -0.3851
  468MPD2    C5 7020   1.840   1.538  10.498  0.1370  0.4098 -1.0304
  468MPD2     H 7021   2.127   1.398  10.708  0.4370 -1.8229 -1.0993
  468MPD2    H1 7022   1.754   1.351  10.495  0.5911 -0.9853  2.7020
  468MPD2    H2 7023   1.917   1.723  10.510 -0.4827 -0.0197 -0.4422
  468MPD2    H3 7024   1.756   1.585  10.449 -1.6786 -2.3247 -0.5481
  468MPD2     N 7025   1.942   1.204  10.628  0.3009  0.5736  0.3844
  468MPD2    H5 7026   1.855   1.158  10.605 -0.6535  3.0906 -1.0380
  468MPD2    N1 7027   2.150   1.651  10.646  0.1340  0.3056 -0.4205
  468MPD2    H7 7028   2.211   1.601  10.710  0.6625  1.1494 -0.2556
  469TMC3    C1 7029   2.280   1.825  10.706  0.0796  0.0688 -0.2910
  469TMC3    C2 7030   2.363   1.721  10.728 -0.4864 -0.4842 -0.4665
  469TMC3    C3 7031   2.441   1.730  10.840 -0.5118  0.0089  0.2471
  469TMC3    C4 7032   2.261   1.924  10.797 -0.0434  0.4778 -0.2365
  469TMC3    C5 7033   2.328   1.915  10.915 -0.3000  0.1946  0.2075
  469TMC3    C6 7034   2.428   1.825  10.936 -0.0050 -0.3522  0.4235
  469TMC3     C 7035   2.156   1.790  10.647  0.5775  0.2555 -0.1187
  469TMC3     O 7036   2.065   1.869  10.636  0.0600  0.4196  0.4197
  469TMC3     H 7037   2.388   1.645  10.655 -4.5608 -1.8773 -0.3657
  469TMC3    H1 7038   2.191   2.006  10.787 -0.9123 -0.6538 -3.4528
  469TMC3    H2 7039   2.494   1.828  11.022  1.2727  0.4480 -0.5756
  469TMC3    C7 7040   2.276   1.997  11.016 -0.2103  0.1305 -0.2799
  469TMC3    C8 7041   2.540   1.620  10.856  0.5464 -1.0271 -0.0746
  469TMC3    O1 7042   2.190   2.077  10.991 -0.1094  0.1183 -0.3085
  469TMC3    O2 7043   2.592   1.580  10.749 -0.7841 -0.0942  0.0240
  470TMC3    C1 7044   4.116   2.848   0.339 -0.1150  0.7374 -0.7635
  470TMC3    C2 7045   4.150   2.939   0.425  0.1951  0.4236  0.8461
  470TMC3    C3 7046   4.241   2.896   0.524 -0.2890  0.1603  0.5462
  470TMC3    C4 7047   4.164   2.715   0.339 -0.6165  0.4674 -0.2174
  470TMC3    C5 7048   4.254   2.678   0.428 -0.3004  0.6008  0.1383
  470TMC3    C6 7049   4.296   2.770   0.520 -0.5100  0.0651 -0.2804
  470TMC3     C 7050   4.021   2.874   0.236  0.7333 -0.1340  0.2052
  470TMC3     O 7051   3.930   2.950   0.279 -0.0326  0.3804  0.8885
  470TMC3     H 7052   4.103   3.037   0.422 -0.1947  0.2729  2.0216
  470TMC3    H1 7053   4.125   2.642   0.269 -0.3617  0.8111 -0.7165
  470TMC3    H2 7054   4.381   2.748   0.585 -1.0085 -2.0943 -0.3874
  470TMC3    C7 7055   4.238   2.545   0.475 -0.4916 -0.2594  0.3688
  470TMC3    C8 7056   4.275   2.985   0.635 -0.2738 -0.3315 -0.1817
  470TMC3    O1 7057   4.210   2.461   0.394 -0.4598 -0.2401 -0.1313
  470TMC3    O2 7058   4.334   2.936   0.729 -0.8009 -0.4998 -0.5790
  471MPD2     C 7059   4.485   3.762  16.847  0.2025 -1.1140  0.3512
  471MPD2    C1 7060   4.517   3.630  16.843  0.0383  0.5164  0.3989
  471MPD2    C2 7061   4.556   3.577  16.965  0.1594 -0.1124  0.1399
  471MPD2    C3 7062   4.562   3.657  17.080  0.4071  0.0973 -0.3116
  471MPD2    C4 7063   4.521   3.793  17.076  0.0403  0.5994  0.5356
  471MPD2    C5 7064   4.490   3.838  16.956  0.9411 -0.0908 -0.4065
  471MPD2     H 7065   4.606   3.481  16.966 -0.2772 -0.3301  0.5483
  471MPD2    H1 7066   4.530   3.856  17.164 -0.0806  1.9503 -0.4208
  471MPD2    H2 7067   4.441   3.810  16.761  0.7540  0.0235  0.7017
  471MPD2    H3 7068   4.454   3.938  16.938  1.4012  0.5050  2.0849
  471MPD2     N 7069   4.604   3.604  17.205  0.2439 -0.0915  0.2222
  471MPD2    H5 7070   4.626   3.669  17.279  1.5436 -1.2173  0.8297
  471MPD2    N1 7071   4.523   3.551  16.730  0.3524 -0.5499  0.2676
  471MPD2    H7 7072   4.551   3.453  16.736 -0.1616 -0.6161  1.6336
  472TMC3    C1 7073   4.518   3.505  16.494  0.0571 -0.2747 -0.1754
  472TMC3    C2 7074   4.457   3.525  16.375 -0.5420 -0.0055  0.1543
  472TMC3    C3 7075   4.489   3.437  16.273  0.6807 -0.1880 -0.0305
  472TMC3    C4 7076   4.615   3.409  16.510 -0.2615 -0.1490  0.3016
  472TMC3    C5 7077   4.647   3.327  16.405  0.0763  0.3580  0.3799
  472TMC3    C6 7078   4.576   3.336  16.289  0.7842 -0.2348 -0.3374
  472TMC3     C 7079   4.481   3.596  16.607 -0.8082 -0.2499  0.1958
  472TMC3     O 7080   4.390   3.674  16.584 -0.5374  0.6923  0.7271
  472TMC3     H 7081   4.374   3.594  16.361  0.2905  0.1313 -4.1245
  472TMC3    H1 7082   4.672   3.402  16.602  1.3824  1.4332 -0.5963
  472TMC3    H2 7083   4.597   3.273  16.203  1.0531  0.8898 -1.0908
  472TMC3    C7 7084   4.669   3.196  16.444  0.0518 -0.4423 -0.0022
  472TMC3    C8 7085   4.368   3.386  16.207  1.1027 -0.5788  0.2421
  472TMC3    O1 7086   4.706   3.176  16.559  0.5818 -0.0777 -0.0429
  472TMC3    O2 7087   4.342   3.427  16.092 -0.6049 -0.5464  0.5784
  473MPD2     C 7088   0.103   0.632  14.471 -0.1023 -0.5542  0.3531
  473MPD2    C1 7089   0.015   0.698  14.394 -0.8124 -0.0508  0.3568
  473MPD2    C2 7090   0.019   0.842  14.396 -0.0608 -0.7458 -0.8271
  473MPD2    C3 7091   0.119   0.909  14.472  0.4803 -0.8944  0.5544
  473MPD2    C4 7092   0.211   0.831  14.534 -0.1916 -0.2400 -0.4730
  473MPD2    C5 7093   0.206   0.693  14.537  0.2493  0.7810  0.4912
  473MPD2     H 7094   4.669   0.894  14.350 -1.3460  0.1228  2.5642
  473MPD2    H1 7095   0.278   0.882  14.602  1.0163  1.3869 -2.8783
  473MPD2    H2 7096   0.101   0.523  14.476 -0.2406 -0.4771  1.9150
  473MPD2    H3 7097   0.271   0.631  14.598 -2.0731 -0.9825  1.1879
  473MPD2     N 7098   0.147   1.047  14.478  0.2280  0.6145 -0.4634
  473MPD2    H5 7099   0.231   1.083  14.523  0.0787  0.3393  0.0362
  473MPD2    N1 7100   4.645   0.643  14.317  0.3487 -0.4359 -0.2319
  473MPD2    H7 7101   4.584   0.709  14.271 -1.1488 -2.2230 -0.8054
  474TMC3    C1 7102   0.100   1.285  14.500 -0.7369 -0.2224 -0.1562
  474TMC3    C2 7103   0.019   1.393  14.481 -0.0022 -0.4950 -0.2915
  474TMC3    C3 7104   0.067   1.515  14.510 -0.6372 -0.3799  0.5341
  474TMC3    C4 7105   0.227   1.300  14.547 -0.0916  0.2094 -0.5080
  474TMC3    C5 7106   0.271   1.428  14.568 -0.1189 -0.0298  1.0501
  474TMC3    C6 7107   0.196   1.536  14.542 -0.7387 -0.0399  0.1296
  474TMC3     C 7108   0.056   1.146  14.447  0.8057 -0.7093 -0.2002
  474TMC3     O 7109   4.672   1.123  14.419  0.3298 -0.2169  0.5353
  474TMC3     H 7110   4.649   1.385  14.447  0.0935 -0.1665 -0.6548
  474TMC3    H1 7111   0.302   1.223  14.559 -1.1816 -0.6132  1.1110
  474TMC3    H2 7112   0.227   1.638  14.561  0.6830 -0.1573 -1.5644
  474TMC3    C7 7113   0.415   1.439  14.592 -0.1885 -0.1339 -0.4709
  474TMC3    C8 7114   4.722   1.611  14.449  0.4007  0.4493 -0.1695
  474TMC3    O1 7115   0.478   1.355  14.531 -0.0583  0.1933  0.4847
  474TMC3    O2 7116   4.602   1.615  14.469 -0.0963  0.2031  0.0993
  475MPD2     C 7117   2.599   3.665  10.840 -0.5815 -0.2541 -0.5040
  475MPD2    C1 7118   2.622   3.782  10.766  0.1584  0.4979 -0.1932
  475MPD2    C2 7119   2.519   3.842  10.700  0.3971  0.4638 -0.4301
  475MPD2    C3 7120   2.392   3.790  10.720  0.4007  0.7169  0.7570
  475MPD2    C4 7121   2.364   3.681  10.799  0.3582 -0.0377 -0.3476
  475MPD2    C5 7122   2.473   3.622  10.858 -0.1575 -0.4169  0.1978
  475MPD2     H 7123   2.530   3.935  10.646  0.2490 -0.3003 -1.7758
  475MPD2    H1 7124   2.266   3.641  10.822  0.0993  0.0877 -1.2182
  475MPD2    H2 7125   2.678   3.606  10.885 -2.5769 -0.0117  3.3873
  475MPD2    H3 7126   2.461   3.534  10.921  2.3406 -2.9261 -2.8457
  475MPD2     N 7127   2.288   3.860  10.653 -0.6485 -0.3406 -0.0188
  475MPD2    H5 7128   2.324   3.942  10.605 -1.1466 -1.2424 -1.9525
  475MPD2    N1 7129   2.756   3.812  10.744  0.5316  0.0558 -0.6618
  475MPD2    H7 7130   2.826   3.740  10.757 -1.7209 -2.0223  0.1471
  476TMC3    C1 7131   2.930   3.937  10.645 -0.2947  0.8809  0.4469
  476TMC3    C2 7132   2.930   3.860  10.534 -0.2634 -0.4942  0.3786
  476TMC3    C3 7133   2.976   3.919  10.417  0.2165 -0.1953 -0.4020
  476TMC3    C4 7134   3.006   4.046  10.657 -0.7635  0.7107 -1.0589
  476TMC3    C5 7135   3.066   4.097  10.544  0.2249 -0.0969 -0.1410
  476TMC3    C6 7136   3.055   4.031  10.420  0.0429  0.1444 -0.2955
  476TMC3     C 7137   2.808   3.939  10.723  0.4765  0.6562 -0.8408
  476TMC3     O 7138   2.756   4.042  10.750  0.3041  0.3229  0.4261
  476TMC3     H 7139   2.867   3.772  10.536  0.3035 -1.0136 -3.5352
  476TMC3    H1 7140   3.003   4.106  10.748  2.1960 -0.5793 -0.0878
  476TMC3    H2 7141   3.102   4.079  10.335  0.0948  1.6623  0.5847
  476TMC3    C7 7142   3.143   4.219  10.546 -0.7281  0.6514  0.4372
  476TMC3    C8 7143   2.887   3.941  10.306 -0.6010  0.5458 -0.1286
  476TMC3    O1 7144   3.178   4.257  10.431 -0.1420  0.1090 -0.2556
  476TMC3    O2 7145   2.885   4.045  10.240 -0.1493 -0.0463  0.5373
  477MPD2     C 7146   0.427   0.340  11.505 -0.4260  0.8127  0.0806
  477MPD2    C1 7147   0.360   0.280  11.603  0.4885  0.2366 -0.0868
  477MPD2    C2 7148   0.428   0.241  11.719 -0.5094  0.1417 -0.3355
  477MPD2    C3 7149   0.565   0.239  11.726 -0.0735  0.1854 -0.7984
  477MPD2    C4 7150   0.632   0.281  11.608  0.2667  1.0430  0.3720
  477MPD2    C5 7151   0.558   0.334  11.501 -0.9908  0.5186 -0.3483
  477MPD2     H 7152   0.382   0.203  11.809  3.1432  1.5887  2.1221
  477MPD2    H1 7153   0.737   0.265  11.589  0.4886  0.9558  1.6156
  477MPD2    H2 7154   0.372   0.376  11.419 -1.3001  0.0954  0.3344
  477MPD2    H3 7155   0.604   0.366  11.409  3.5743 -0.0556  1.7647
  477MPD2     N 7156   0.634   0.184  11.831  0.0770 -0.1282  0.8348
  477MPD2    H5 7157   0.585   0.129  11.901 -1.1315  0.0908  0.1703
  477MPD2    N1 7158   0.218   0.274  11.592  0.5077  0.0978 -0.6242
  477MPD2    H7 7159   0.183   0.306  11.502 -1.2729  1.3867  0.5206
  478TMC3    C1 7160   4.723   0.273  11.645 -0.0403  0.7922 -0.0842
  478TMC3    C2 7161   4.657   0.365  11.715  0.1422  0.3952  0.1795
  478TMC3    C3 7162   4.613   0.479  11.648  0.4555  0.3452 -0.8509
  478TMC3    C4 7163   4.720   0.279  11.507  0.1375 -0.2439 -1.0144
  478TMC3    C5 7164   4.662   0.380  11.438 -0.4880 -0.3310  1.1388
  478TMC3    C6 7165   4.610   0.484  11.510 -0.3399  0.7345  0.3095
  478TMC3     C 7166   0.122   0.241  11.692  0.9699  1.1961  0.4707
  478TMC3     O 7167   0.142   0.224  11.813  0.4606  1.0066  0.0614
  478TMC3     H 7168   4.648   0.354  11.823  0.0420  1.3842  0.2732
  478TMC3    H1 7169   0.016   0.197  11.442  0.5802  0.6401 -1.9204
  478TMC3    H2 7170   4.589   0.574  11.454  1.9520  1.2849  0.3724
  478TMC3    C7 7171   0.018   0.412  11.329 -0.5678  0.4103 -0.8250
  478TMC3    C8 7172   4.603   0.589  11.740 -0.1710 -0.1571 -0.1819
  478TMC3    O1 7173   0.125   0.364  11.341  0.2590 -0.0172  0.4313
  478TMC3    O2 7174   4.589   0.567  11.856 -0.3630 -0.3973  0.0021
  479MPD2     C 7175   4.590   3.240  15.404  0.7822  0.6965 -0.4133
  479MPD2    C1 7176   4.516   3.140  15.463  0.3269 -0.6220 -0.0012
  479MPD2    C2 7177   4.507   3.149  15.604  0.1106  0.2572 -0.7750
  479MPD2    C3 7178   4.556   3.259  15.673 -0.0558  0.2064  1.2514
  479MPD2    C4 7179   4.624   3.355  15.608 -0.2964 -0.2226  0.4184
  479MPD2    C5 7180   4.643   3.341  15.476  0.4776  0.3639  0.2985
  479MPD2     H 7181   4.462   3.069  15.661 -1.0925  1.9857  0.6646
  479MPD2    H1 7182   4.656   3.444  15.661 -2.3593  0.3517  0.6993
  479MPD2    H2 7183   4.611   3.225  15.298 -1.5032  0.2126 -0.8013
  479MPD2    H3 7184   4.698   3.419  15.424 -2.4213 -0.0657 -3.4544
  479MPD2     N 7185   4.549   3.272  15.814 -0.2778  0.1767 -0.2939
  479MPD2    H5 7186   4.627   3.327  15.850 -0.8106  0.2917  0.6845
  479MPD2    N1 7187   4.441   3.049  15.381  0.0711 -0.5594 -0.0524
  479MPD2    H7 7188   4.445   3.067  15.281  0.1944 -1.7375 -0.2526
  480TMC3    C1 7189   4.201   2.962  15.903  0.1388 -0.2348  0.0177
  480TMC3    C2 7190   4.115   3.019  15.808 -0.2543 -0.0726 -0.1154
  480TMC3    C3 7191   4.167   3.128  15.741  0.3947  0.6172 -0.2041
  480TMC3    C4 7192   4.318   3.022  15.944 -0.5233 -0.4161 -0.0918
  480TMC3    C5 7193   4.352   3.141  15.883  0.0794 -0.5203 -0.1976
  480TMC3    C6 7194   4.275   3.196  15.778  0.0792 -0.3779  0.2434
  480TMC3     C 7195   4.155   2.845  15.986 -0.2029 -0.1323  0.2154
  480TMC3     O 7196   4.239   2.791  16.054 -0.1031 -0.2841  0.3778
  480TMC3     H 7197   4.026   2.967  15.776 -0.0668 -1.3496  1.4352
  480TMC3    H1 7198   4.373   2.976  16.025  1.1175  1.5312 -0.0741
  480TMC3    H2 7199   4.308   3.284  15.724  0.1728 -1.4580 -1.4280
  480TMC3    C7 7200   4.489   3.190  15.907  0.8188 -0.0909 -0.5353
  480TMC3    C8 7201   4.105   3.147  15.612  0.1247  0.3808 -0.5019
  480TMC3    O1 7202   4.521   3.160  16.022  0.0724 -0.4164  0.5770
  480TMC3    O2 7203   4.004   3.087  15.584 -0.1655  0.1586  0.1834
  481MPD2     C 7204   1.588   2.486  14.261 -0.0191 -0.6990  0.2266
  481MPD2    C1 7205   1.490   2.392  14.286 -0.2915  0.2665 -0.4685
  481MPD2    C2 7206   1.482   2.333  14.407 -0.9238 -0.9789 -0.1924
  481MPD2    C3 7207   1.569   2.373  14.509 -0.0833 -0.3040  0.3161
  481MPD2    C4 7208   1.680   2.446  14.480 -0.3009 -0.9533  0.3369
  481MPD2    C5 7209   1.687   2.507  14.356 -0.0489 -0.2593 -0.3772
  481MPD2     H 7210   1.405   2.260  14.430 -1.6301 -0.5165 -1.0929
  481MPD2    H1 7211   1.754   2.466  14.556  0.5656  1.2783 -1.1142
  481MPD2    H2 7212   1.606   2.546  14.173  0.1498 -0.5774  0.3445
  481MPD2    H3 7213   1.778   2.559  14.328 -0.3667 -0.2048 -1.3396
  481MPD2     N 7214   1.566   2.323  14.644 -0.1063 -0.0416  0.6266
  481MPD2    H5 7215   1.642   2.361  14.700  1.4526 -1.2489 -0.6454
  481MPD2    N1 7216   1.385   2.375  14.194 -0.1834  0.0735 -0.1654
  481MPD2    H7 7217   1.385   2.442  14.117  0.0008  1.1795  0.8044
  482TMC3    C1 7218   1.197   2.304  14.082  0.4296 -0.0961  0.0737
  482TMC3    C2 7219   1.138   2.203  14.006 -0.1376 -0.3600  1.1157
  482TMC3    C3 7220   1.034   2.242  13.923 -0.3864 -0.8175 -0.1502
  482TMC3    C4 7221   1.147   2.431  14.081  0.1128  0.3958 -0.7425
  482TMC3    C5 7222   1.038   2.468  14.004  0.4240  0.0316 -0.4520
  482TMC3    C6 7223   0.979   2.373  13.916 -1.3100 -0.8152 -0.4062
  482TMC3     C 7224   1.298   2.269  14.174 -0.2997  0.6452 -0.4126
  482TMC3     O 7225   1.297   2.159  14.226 -0.0326 -0.0203 -0.0422
  482TMC3     H 7226   1.187   2.108  13.993 -1.8621 -0.9305 -1.2895
  482TMC3    H1 7227   1.192   2.505  14.146 -0.8538  1.0051 -0.7659
  482TMC3    H2 7228   0.884   2.402  13.873 -1.2848 -0.6061 -0.3200
  482TMC3    C7 7229   1.027   2.604  13.973 -0.1504  0.0926  0.2516
  482TMC3    C8 7230   0.965   2.132  13.853  0.3223  0.0357 -0.4403
  482TMC3    O1 7231   1.070   2.680  14.058 -0.2775 -0.5831  0.4344
  482TMC3    O2 7232   1.011   2.018  13.850 -0.2338  0.1312 -0.0386
  483TMC3    C1 7233   4.053   1.387   1.249 -0.3599  0.6112 -0.3682
  483TMC3    C2 7234   4.114   1.506   1.239 -0.0760  0.3077  0.4094
  483TMC3    C3 7235   4.229   1.525   1.306 -0.0464  1.1629  0.5539
  483TMC3    C4 7236   4.112   1.276   1.311 -0.1775 -0.0686  0.3503
  483TMC3    C5 7237   4.230   1.301   1.367 -0.4390 -0.0471  0.0214
  483TMC3    C6 7238   4.292   1.416   1.369  0.3478 -0.0304 -0.0594
  483TMC3     C 7239   3.929   1.371   1.173  0.1333  0.3523  0.2055
  483TMC3     O 7240   3.895   1.462   1.099  0.3480  0.3929  0.3028
  483TMC3     H 7241   4.084   1.581   1.167 -1.0633 -1.1334 -0.6812
  483TMC3    H1 7242   4.071   1.177   1.296 -0.4497 -0.3185  2.8446
  483TMC3    H2 7243   4.390   1.419   1.415  0.3059  0.0328  0.0254
  483TMC3    C7 7244   4.303   1.180   1.428 -1.0225  0.3278 -0.4021
  483TMC3    C8 7245   4.324   1.617   1.244 -0.0658  0.1375 -0.3914
  483TMC3    O1 7246   4.422   1.195   1.443  0.2912  0.0422  0.1806
  483TMC3    O2 7247   4.310   1.647   1.125  0.1467  0.0945  0.2518
  484MPD2     C 7248   1.499   3.882  13.343  0.2968  0.6813  0.0765
  484MPD2    C1 7249   1.453   3.867  13.222 -0.0900 -0.4324 -0.0428
  484MPD2    C2 7250   1.538   3.879  13.114 -0.6408  0.0868  0.1699
  484MPD2    C3 7251   1.673   3.898  13.139 -0.4556  0.1484 -0.4779
  484MPD2    C4 7252   1.723   3.905  13.262  0.1714 -0.8555  0.2271
  484MPD2    C5 7253   1.634   3.895  13.366 -0.0084 -0.1463 -0.1787
  484MPD2     H 7254   1.496   3.853  13.017  2.0522  1.1012 -1.2674
  484MPD2    H1 7255   1.829   3.914  13.286  0.0844 -1.0405  0.6948
  484MPD2    H2 7256   1.428   3.890  13.425 -0.5787 -1.1763 -0.4941
  484MPD2    H3 7257   1.668   3.920  13.466  2.3965  0.2795 -1.1267
  484MPD2     N 7258   1.755   3.921  13.023 -0.1558  0.6798  0.1225
  484MPD2    H5 7259   1.855   3.911  13.039 -0.0199  5.6269  2.1026
  484MPD2    N1 7260   1.315   3.847  13.210  0.2565 -0.1945 -0.4422
  484MPD2    H7 7261   1.270   3.821  13.297  0.5740 -0.5575 -0.3886
  485TMC3    C1 7262   1.820   3.927  12.796 -0.2748 -0.3041  0.1419
  485TMC3    C2 7263   1.950   3.952  12.826  0.0032 -0.2146 -0.2921
  485TMC3    C3 7264   2.022   3.980  12.709  1.2791  0.1592 -0.1134
  485TMC3    C4 7265   1.771   3.905  12.677  0.0177  0.1683 -0.0172
  485TMC3    C5 7266   1.833   3.944  12.570 -0.3372  0.0675 -0.6786
  485TMC3    C6 7267   1.959   3.994  12.586  0.0831 -0.1211  0.3612
  485TMC3     C 7268   1.713   3.935  12.895 -0.2786  0.2080 -0.1060
  485TMC3     O 7269   1.604   3.979  12.857  1.0421  0.0956  0.5962
  485TMC3     H 7270   1.997   3.972  12.922  0.8665  0.4557 -0.8614
  485TMC3    H1 7271   1.682   3.844  12.676 -0.6539  1.1520 -0.5242
  485TMC3    H2 7272   2.012   4.025  12.497 -0.7417 -1.0976 -0.4746
  485TMC3    C7 7273   1.836   3.847  12.460  0.2462 -0.8830 -0.1481
  485TMC3    C8 7274   2.150   3.906  12.690  0.2834 -0.2748 -0.0398
  485TMC3    O1 7275   1.813   3.729  12.489  0.3440  0.3120 -0.7326
  485TMC3    O2 7276   2.201   3.899  12.580  0.2444 -0.7609  0.0878
  486MPD2     C 7277   4.052   3.294  12.951 -0.3198 -0.2102 -0.2977
  486MPD2    C1 7278   3.971   3.185  12.939 -0.4798 -0.0287  0.4446
  486MPD2    C2 7279   3.837   3.212  12.907  0.7450 -0.3102 -0.2076
  486MPD2    C3 7280   3.789   3.337  12.886  0.2629 -0.1371  0.3853
  486MPD2    C4 7281   3.875   3.446  12.893 -0.4823  0.8559 -0.2982
  486MPD2    C5 7282   4.005   3.426  12.931 -0.1427 -0.7753  0.3588
  486MPD2     H 7283   3.776   3.125  12.887 -1.1218  1.2177 -1.1506
  486MPD2    H1 7284   3.839   3.547  12.880 -1.7931  0.2187 -1.5876
  486MPD2    H2 7285   4.145   3.279  13.005 -1.0901  0.1420  1.1212
  486MPD2    H3 7286   4.076   3.508  12.933 -1.2147  0.1328  0.8433
  486MPD2     N 7287   3.649   3.354  12.871  0.0485  0.0721  0.6365
  486MPD2    H5 7288   3.596   3.270  12.892 -2.2324  1.2151 -0.5203
  486MPD2    N1 7289   4.021   3.054  12.960  0.2511  0.0764 -0.0881
  486MPD2    H7 7290   4.115   3.049  12.997  0.0971  0.3274  0.3318
  487TMC3    C1 7291   4.030   2.822  13.002 -0.4283 -0.8662 -0.3584
  487TMC3    C2 7292   4.004   2.700  12.948  0.3840 -0.1500 -0.4972
  487TMC3    C3 7293   4.082   2.599  13.000 -0.7838 -0.4030 -0.0154
  487TMC3    C4 7294   4.111   2.843  13.115 -0.2483 -0.1518 -0.1415
  487TMC3    C5 7295   4.163   2.732  13.171 -0.9159  0.1017  0.5261
  487TMC3    C6 7296   4.174   2.620  13.099 -0.0274 -0.0941 -0.6317
  487TMC3     C 7297   3.953   2.931  12.948  0.0095 -0.3778  0.3631
  487TMC3     O 7298   3.843   2.910  12.894 -0.3889 -0.0986  0.2706
  487TMC3     H 7299   3.926   2.678  12.876  2.5905 -3.9047 -1.7589
  487TMC3    H1 7300   4.099   2.940  13.162  2.6264  0.2497 -0.2601
  487TMC3    H2 7301   4.224   2.532  13.139 -0.9615 -0.1497  0.4024
  487TMC3    C7 7302   4.174   2.709  13.315 -0.6939 -0.0920  0.1523
  487TMC3    C8 7303   4.024   2.462  12.989 -0.1271 -0.0361 -0.0420
  487TMC3    O1 7304   4.232   2.613  13.356  0.0175 -0.5608 -0.2427
  487TMC3    O2 7305   3.912   2.455  12.939  0.0735 -0.9443 -0.3265
  488MPD2     C 7306   4.059   4.582  16.656 -0.1789  0.2612 -0.1502
  488MPD2    C1 7307   4.105   4.698  16.716 -0.0226 -0.4009  0.2111
  488MPD2    C2 7308   4.103   4.706  16.850  0.4367  0.0406  0.5140
  488MPD2    C3 7309   4.059   4.603  16.931  0.4535 -0.9936 -0.4995
  488MPD2    C4 7310   4.018   4.488  16.872  0.5009  0.1370  0.3471
  488MPD2    C5 7311   4.019   4.480  16.735  0.0209  0.5525  0.4651
  488MPD2     H 7312   4.134   0.069  16.889 -0.3103  0.0792  1.0135
  488MPD2    H1 7313   3.991   4.395  16.920 -1.2219  1.1379  1.2854
  488MPD2    H2 7314   4.062   4.572  16.548  1.2408 -0.3179 -0.0575
  488MPD2    H3 7315   3.989   4.387  16.687 -0.3642  1.2994 -0.7296
  488MPD2     N 7316   4.073   4.608  17.067  0.6029 -0.0586 -0.0068
  488MPD2    H5 7317   4.130   4.688  17.091 -0.3301  0.4207  0.5862
  488MPD2    N1 7318   4.162   0.069  16.655  0.6043 -0.1436  0.3551
  488MPD2    H7 7319   4.197   0.145  16.712  0.4073 -0.0575  0.3609
  489TMC3    C1 7320   4.043   4.569  17.296 -0.3713 -0.0284 -0.4580
  489TMC3    C2 7321   4.127   4.676  17.322  0.6096  0.1434 -0.1807
  489TMC3    C3 7322   4.142   4.713  17.450  0.0625 -0.4978  0.0979
  489TMC3    C4 7323   3.966   4.515  17.390  0.0655 -0.1428  0.1049
  489TMC3    C5 7324   3.980   4.565  17.517  0.4287  0.8720 -0.0973
  489TMC3    C6 7325   4.064   4.660  17.546  0.5705  1.1095 -0.7625
  489TMC3     C 7326   4.006   4.531  17.160 -0.0532  0.5334 -0.3142
  489TMC3     O 7327   3.921   4.448  17.145 -0.2180 -0.1198  0.2576
  489TMC3     H 7328   4.192   4.724  17.250 -0.9001  1.7909 -0.4714
  489TMC3    H1 7329   3.910   4.425  17.367 -1.0504 -0.1514  2.9836
  489TMC3    H2 7330   4.070   4.683  17.651 -0.1067 -0.9994 -0.2598
  489TMC3    C7 7331   3.934   4.487  17.629 -0.4710 -0.0310 -0.1018
  489TMC3    C8 7332   4.180   0.123  17.468  0.2686 -0.1796 -0.4040
  489TMC3    O1 7333   3.988   4.499   0.005 -0.3895 -0.9510 -0.5012
  489TMC3    O2 7334   4.233   0.182  17.371  0.1531  0.5153  0.0958
  490MPD2     C 7335   0.248   4.381  17.096  0.5826  0.3348 -0.2924
  490MPD2    C1 7336   0.236   4.407  17.233 -0.5285  0.6046 -0.9001
  490MPD2    C2 7337   0.343   4.471  17.292  0.5449  0.5103  0.2764
  490MPD2    C3 7338   0.453   4.518  17.224 -0.4189  0.4838  0.4623
  490MPD2    C4 7339   0.455   4.499  17.088 -0.2459 -0.3178  0.1515
  490MPD2    C5 7340   0.355   4.426  17.029  0.1732 -0.2818 -0.0678
  490MPD2     H 7341   0.350   4.470  17.400  0.7664 -0.6042  0.2560
  490MPD2    H1 7342   0.534   4.550  17.034 -1.1068  1.8743  1.0036
  490MPD2    H2 7343   0.179   4.322  17.037 -0.0930  0.3680  0.4604
  490MPD2    H3 7344   0.357   4.404  16.923  1.3689 -0.9233  0.0907
  490MPD2     N 7345   0.552   4.597  17.286 -0.3370  0.5663 -0.1775
  490MPD2    H5 7346   0.633   4.623  17.232  0.8253 -1.5738  0.5206
  490MPD2    N1 7347   0.129   4.349  17.313  0.2497 -0.5051 -0.7366
  490MPD2    H7 7348   0.144   4.356  17.413 -0.5810 -0.4159 -0.6182
  491TMC3    C1 7349   4.664   4.222  17.360 -0.2802 -0.0525 -0.9093
  491TMC3    C2 7350   4.717   4.170  17.479 -0.1168 -0.1165 -0.1876
  491TMC3    C3 7351   4.637   4.080  17.552 -0.1408 -0.1280 -0.3150
  491TMC3    C4 7352   4.542   4.185  17.312 -1.0476 -1.0029  0.1431
  491TMC3    C5 7353   4.472   4.089  17.379  0.1238 -0.9854  0.4288
  491TMC3    C6 7354   4.515   4.034  17.496 -0.3702  0.1612  0.2859
  491TMC3     C 7355   0.015   4.289  17.260 -0.2727  0.3594 -0.0526
  491TMC3     O 7356   4.708   4.293  17.143 -0.1784  0.8311 -0.0686
  491TMC3     H 7357   0.084   4.197  17.512 -0.5727  0.8325  0.3827
  491TMC3    H1 7358   4.502   4.222  17.218  0.3867  1.1048  0.3637
  491TMC3    H2 7359   4.457   3.951  17.536  0.1502  0.2550  1.2390
  491TMC3    C7 7360   4.369   4.017  17.315  0.1766  0.2228 -0.7654
  491TMC3    C8 7361   4.670   4.055  17.692 -0.3285  0.0832 -0.3633
  491TMC3    O1 7362   4.345   3.902  17.349 -0.1062 -0.0111 -0.2261
  491TMC3    O2 7363   4.613   3.962   0.013  0.3303 -0.2400 -0.9158
  492MPD2     C 7364   0.303   3.694  11.260  0.5838 -0.0646  0.1952
  492MPD2    C1 7365   0.168   3.695  11.223 -0.8701  0.3086  0.2035
  492MPD2    C2 7366   0.074   3.628  11.307  0.0384  0.2004  0.1993
  492MPD2    C3 7367   0.120   3.570  11.420  0.1103  0.0029  0.0158
  492MPD2    C4 7368   0.251   3.579  11.459 -0.2730 -0.7913 -0.2412
  492MPD2    C5 7369   0.342   3.645  11.385 -0.6919  0.1444 -0.1488
  492MPD2     H 7370   4.702   3.630  11.281  0.3395 -1.8864 -1.2265
  492MPD2    H1 7371   0.276   3.551  11.561  1.6343  0.7108 -0.2951
  492MPD2    H2 7372   0.380   3.745  11.203  0.6700 -1.1012 -0.6245
  492MPD2    H3 7373   0.446   3.658  11.415 -0.6809 -0.9429  0.2622
  492MPD2     N 7374   0.035   3.508  11.517  0.4426  0.0157  0.2090
  492MPD2    H5 7375   0.078   3.474  11.602 -2.2637 -3.6504  0.1590
  492MPD2    N1 7376   0.134   3.763  11.102  0.3423  0.2925  0.3252
  492MPD2    H7 7377   0.211   3.820  11.069  1.0868 -0.2913  1.0324
  493TMC3    C1 7378   0.003   3.910  10.970 -1.4290  0.3774  0.3821
  493TMC3    C2 7379   0.123   3.985  10.946  0.0441 -0.7835  0.4152
  493TMC3    C3 7380   0.107   4.105  10.887 -0.7405  0.4288 -0.5201
  493TMC3    C4 7381   4.616   3.950  10.937 -0.5476 -0.1009 -0.2430
  493TMC3    C5 7382   4.604   4.074  10.880  0.0807 -0.1829  0.3907
  493TMC3    C6 7383   4.712   4.153  10.855  0.5533  0.5954 -1.1399
  493TMC3     C 7384   0.005   3.793  11.058 -0.4243  0.4509  0.2366
  493TMC3     O 7385   4.640   3.736  11.103  0.3148 -0.2888 -0.2669
  493TMC3     H 7386   0.220   3.948  10.976  0.5859 -0.2252 -0.6079
  493TMC3    H1 7387   4.533   3.881  10.926 -1.5592  1.1413 -0.3854
  493TMC3    H2 7388   4.689   4.256  10.833  4.1771  1.0807 -2.5733
  493TMC3    C7 7389   4.479   4.106  10.816 -0.1331 -0.2325  0.2016
  493TMC3    C8 7390   0.200   4.209  10.920 -0.2604 -0.2606  0.1068
  493TMC3    O1 7391   4.478   4.163  10.709  0.0276 -0.0616 -0.1274
  493TMC3    O2 7392   0.263   4.182  11.021  0.3276  0.4140 -0.1593
  494TMC3    C1 7393   0.824   1.493   0.640  0.0536  0.4844 -0.0239
  494TMC3    C2 7394   0.808   1.363   0.670 -1.1029  0.3345  0.0765
  494TMC3    C3 7395   0.753   1.275   0.579 -0.2834 -0.2923  0.2815
  494TMC3    C4 7396   0.786   1.543   0.519 -0.2609 -0.6756 -0.0984
  494TMC3    C5 7397   0.734   1.455   0.426  0.2221 -0.3978  0.7321
  494TMC3    C6 7398   0.721   1.319   0.451 -0.5357  0.5656  0.2605
  494TMC3     C 7399   0.849   1.586   0.757  0.0450  0.1538 -0.1107
  494TMC3     O 7400   0.760   1.659   0.795 -0.3628 -0.3549 -0.8502
  494TMC3     H 7401   0.826   1.328   0.771  0.1575 -0.0316 -0.2689
  494TMC3    H1 7402   0.820   1.644   0.497 -0.5841  0.0508  2.8027
  494TMC3    H2 7403   0.711   1.252   0.367 -2.0849  1.6384 -0.4012
  494TMC3    C7 7404   0.741   1.500   0.287 -0.7969 -0.0417  0.3088
  494TMC3    C8 7405   0.776   1.137   0.602  0.0707 -0.5801  0.1096
  494TMC3    O1 7406   0.754   1.419   0.194 -0.2114 -0.0046 -0.7928
  494TMC3    O2 7407   0.844   1.111   0.703  0.3869  0.1242 -0.4400
  495TMC3    C1 7408   4.674   3.445  14.883  0.2880 -0.2093 -0.0942
  495TMC3    C2 7409   4.602   3.447  14.772  0.0317  0.2848  1.4129
  495TMC3    C3 7410   4.467   3.491  14.769 -0.6585  0.1768  0.5385
  495TMC3    C4 7411   4.609   3.473  15.001 -0.0080 -0.6259 -0.0136
  495TMC3    C5 7412   4.483   3.527  14.999  0.1207  0.3542 -0.0650
  495TMC3    C6 7413   4.411   3.544  14.883  0.2935 -0.3644 -0.0116
  495TMC3     C 7414   0.027   3.325  14.878  0.2491 -0.3389 -1.1303
  495TMC3     O 7415   4.706   3.224  14.921  0.2776 -0.9558 -0.2245
  495TMC3     H 7416   4.653   3.433  14.678  1.3666 -0.4102  2.2513
  495TMC3    H1 7417   4.658   3.444  15.093  1.2262  1.6299  0.0213
  495TMC3    H2 7418   4.307   3.575  14.878 -0.1207 -1.8362 -0.4762
  495TMC3    C7 7419   4.412   3.486  15.119  0.1165  0.3051 -0.8989
  495TMC3    C8 7420   4.380   3.409  14.697  0.2320  0.4831 -0.2983
  495TMC3    O1 7421   4.477   3.492  15.224  0.3845  0.2288  0.5677
  495TMC3    O2 7422   4.261   3.417  14.722 -0.0429  0.3430  0.2055
  496MPD2     C 7423   1.999   3.367  15.685 -0.3658 -0.8836 -0.5484
  496MPD2    C1 7424   1.956   3.286  15.579 -0.6346 -0.7552  0.2586
  496MPD2    C2 7425   1.823   3.236  15.571  0.3918  0.1837 -1.0397
  496MPD2    C3 7426   1.743   3.268  15.679  0.2032  0.1039  0.0671
  496MPD2    C4 7427   1.791   3.341  15.790 -0.1602 -0.6567  0.0559
  496MPD2    C5 7428   1.918   3.393  15.790 -0.1892  0.2268  0.2379
  496MPD2     H 7429   1.779   3.174  15.493  1.9855 -1.7191 -0.4214
  496MPD2    H1 7430   1.735   3.366  15.880  1.7905  0.3796  0.9771
  496MPD2    H2 7431   2.091   3.425  15.683 -0.5066 -0.6537 -0.2993
  496MPD2    H3 7432   1.962   3.437  15.879 -0.2944  1.5962 -0.3910
  496MPD2     N 7433   1.611   3.222  15.703  0.6211  0.1471  0.4206
  496MPD2    H5 7434   1.560   3.261  15.782 -0.1119  1.5767 -0.7539
  496MPD2    N1 7435   2.054   3.255  15.478 -0.2996 -0.2536  0.3320
  496MPD2    H7 7436   2.147   3.292  15.495 -0.1143 -0.8761  0.6595
  497TMC3    C1 7437   1.396   3.129  15.676 -0.2238 -0.2122  0.0222
  497TMC3    C2 7438   1.291   3.098  15.589  0.5103 -0.7417  0.1009
  497TMC3    C3 7439   1.170   3.072  15.643  0.2875  0.3265  0.2964
  497TMC3    C4 7440   1.377   3.142  15.809  0.0519  0.4022 -0.3501
  497TMC3    C5 7441   1.254   3.115  15.854 -0.0979  0.4454  0.2825
  497TMC3    C6 7442   1.148   3.074  15.776  0.2039  0.5443  0.1933
  497TMC3     C 7443   1.533   3.141  15.624 -0.3102  0.1184 -0.9662
  497TMC3     O 7444   1.555   3.093  15.515 -0.0587  0.1220  0.1026
  497TMC3     H 7445   1.312   3.078  15.484  0.7549 -1.1125  0.2187
  497TMC3    H1 7446   1.456   3.167  15.878  0.4701 -2.6099  0.2779
  497TMC3    H2 7447   1.054   3.035  15.816 -0.6484  1.3105 -1.0674
  497TMC3    C7 7448   1.231   3.119  16.000  0.0986  0.2712  0.9828
  497TMC3    C8 7449   1.081   3.003  15.553 -0.2163 -0.3982  0.4518
  497TMC3    O1 7450   1.130   3.068  16.042  0.2483  0.6403 -0.2203
  497TMC3    O2 7451   1.007   2.914  15.598  0.0542  0.0184 -0.3406
  498MPD2     C 7452   0.994   3.316   9.935 -0.6721  0.0461 -0.0456
  498MPD2    C1 7453   1.059   3.263  10.044  0.3413  0.5435  0.1146
  498MPD2    C2 7454   1.039   3.131  10.081 -0.5120 -0.0560 -0.3741
  498MPD2    C3 7455   0.962   3.048  10.009  0.1240 -0.1538  0.1226
  498MPD2    C4 7456   0.906   3.099   9.892  0.5559  0.5979  0.2341
  498MPD2    C5 7457   0.931   3.226   9.851 -0.2820 -0.0404  0.0810
  498MPD2     H 7458   1.079   3.093  10.175 -0.3819 -0.0138 -0.4119
  498MPD2    H1 7459   0.837   3.047   9.826  0.2711  1.3196 -0.0365
  498MPD2    H2 7460   1.016   3.414   9.893  0.8068  0.4410  1.6472
  498MPD2    H3 7461   0.893   3.255   9.753 -0.0492  1.3958  0.4326
  498MPD2     N 7462   0.937   2.918  10.057 -0.2660 -0.3872  0.0227
  498MPD2    H5 7463   0.961   2.885  10.150 -0.0811 -0.8985 -0.2066
  498MPD2    N1 7464   1.149   3.338  10.113  0.1224 -0.4521  0.3278
  498MPD2    H7 7465   1.205   3.286  10.180 -2.4381 -2.8156  0.6154
  499TMC3    C1 7466   1.252   3.515  10.203  0.0475  0.0483  0.5587
  499TMC3    C2 7467   1.303   3.441  10.306  0.3374  0.1689  1.1146
  499TMC3    C3 7468   1.422   3.464  10.361  0.1740  0.6051  0.0038
  499TMC3    C4 7469   1.321   3.618  10.157 -0.1321  0.2348 -0.2536
  499TMC3    C5 7470   1.445   3.639  10.211 -0.3465 -0.3202  0.3493
  499TMC3    C6 7471   1.503   3.558  10.308  0.1301  0.7303  0.7446
  499TMC3     C 7472   1.150   3.469  10.119 -0.0287 -0.1519  0.0957
  499TMC3     O 7473   1.084   3.552  10.057  0.1067 -0.0275 -0.3022
  499TMC3     H 7474   1.259   3.345  10.329  3.3477 -1.5416 -0.2195
  499TMC3    H1 7475   1.291   3.671  10.068  2.2556  3.0244  0.5948
  499TMC3    H2 7476   1.600   3.589  10.344  0.6781 -1.4098  1.1039
  499TMC3    C7 7477   1.527   3.737  10.141 -0.3426 -0.2410 -0.5866
  499TMC3    C8 7478   1.492   3.343  10.415  0.0994 -0.0730  0.3297
  499TMC3    O1 7479   1.645   3.706  10.155 -0.2768  0.1304 -0.6081
  499TMC3    O2 7480   1.420   3.266  10.476 -0.1370 -0.1146  0.2113
  500MPD2     C 7481   3.627   0.135  10.469  0.4344 -0.6492 -0.2601
  500MPD2    C1 7482   3.542   0.099  10.571 -0.0589  0.7607  0.5405
  500MPD2    C2 7483   3.407   0.062  10.542  0.1766  0.4702  0.1992
  500MPD2    C3 7484   3.364   0.056  10.409 -0.3486 -0.3097 -0.1687
  500MPD2    C4 7485   3.458   0.076  10.308 -0.5025  0.2118 -0.3305
  500MPD2    C5 7486   3.582   0.122  10.338  0.2654  0.1907  0.0323
  500MPD2     H 7487   3.338   0.062  10.625  0.5299  0.1085  0.4863
  500MPD2    H1 7488   3.428   0.060  10.205 -3.5620  0.0204  0.6023
  500MPD2    H2 7489   3.733   0.154  10.482  0.1914  1.7401 -1.7133
  500MPD2    H3 7490   3.644   0.125  10.249 -1.2986  0.6357 -1.0537
  500MPD2     N 7491   3.232   0.005  10.381 -0.0674 -0.0687 -0.0177
  500MPD2    H5 7492   3.207   4.725  10.284  1.2997 -0.9259 -0.2517
  500MPD2    N1 7493   3.571   0.128  10.708 -0.1221 -0.0455  0.8190
  500MPD2    H7 7494   3.495   0.143  10.774  0.3577  2.7848  0.7525
  501TMC3    C1 7495   3.706   0.189  10.888 -0.2831  0.5261  0.1744
  501TMC3    C2 7496   3.670   0.320  10.908 -0.4061 -0.9965 -0.0515
  501TMC3    C3 7497   3.739   0.392  11.005 -0.4414  0.2957  0.0984
  501TMC3    C4 7498   3.804   0.130  10.967 -0.8707 -0.5130  0.2523
  501TMC3    C5 7499   3.866   0.201  11.062 -0.2055 -0.4314 -0.0910
  501TMC3    C6 7500   3.833   0.330  11.088 -0.5609  0.0030 -0.1077
  501TMC3     C 7501   3.701   0.145  10.750  0.4034 -0.4090 -0.9834
  501TMC3     O 7502   3.806   0.142  10.694 -0.3917  0.6375  0.3551
  501TMC3     H 7503   3.614   0.373  10.832  2.2877  0.0037 -1.3375
  501TMC3    H1 7504   3.837   0.030  10.943  0.5378 -0.1680  0.7693
  501TMC3    H2 7505   3.894   0.389  11.155  2.3885 -0.1393 -2.6450
  501TMC3    C7 7506   4.011   0.176  11.066 -0.3223  0.8587 -0.0575
  501TMC3    C8 7507   3.797   0.507  10.949 -0.1552  0.0786  0.0351
  501TMC3    O1 7508   4.057   0.062  11.076 -0.3661  0.1527 -0.1120
  501TMC3    O2 7509   3.919   0.518  10.975  0.2669 -0.0375  0.1719
  502TMC3    C1 7510   3.791   3.608  14.903 -0.0284  0.1253  0.8565
  502TMC3    C2 7511   3.779   3.718  14.820 -0.2895 -1.7962  0.6269
  502TMC3    C3 7512   3.659   3.776  14.811 -0.0875  0.1418  0.4887
  502TMC3    C4 7513   3.684   3.553  14.964  0.1180  0.0596 -0.9371
  502TMC3    C5 7514   3.561   3.612  14.950 -0.4118 -0.5410 -0.0371
  502TMC3    C6 7515   3.545   3.723  14.868  0.1879 -0.0804 -0.1290
  502TMC3     C 7516   3.909   3.615  14.988  0.1018  0.1268 -0.6996
  502TMC3     O 7517   4.016   3.648  14.931  0.1465 -0.5290 -0.0154
  502TMC3     H 7518   3.867   3.758  14.772 -1.4380 -0.2629 -0.1842
  502TMC3    H1 7519   3.702   3.461  15.018  0.5393  0.0287 -1.1328
  502TMC3    H2 7520   3.452   3.779  14.865 -0.0383 -0.6001 -2.7784
  502TMC3    C7 7521   3.493   3.618  15.081  0.3334 -0.0823 -0.7306
  502TMC3    C8 7522   3.667   3.915  14.843 -0.8723  0.2260  0.2408
  502TMC3    O1 7523   3.570   3.597  15.179 -0.5750 -0.4548  0.2614
  502TMC3    O2 7524   3.565   3.981  14.844 -0.4993  0.0740 -0.4083
  503MPD2     C 7525   1.066   4.731  17.226  0.9894  0.1874  0.2411
  503MPD2    C1 7526   1.093   0.020  17.354 -0.2386  0.0918 -0.0410
  503MPD2    C2 7527   1.167   4.663  17.428 -0.0293  0.0713  0.3806
  503MPD2    C3 7528   1.222   4.555  17.374  0.2130  0.7140 -0.4454
  503MPD2    C4 7529   1.201   4.534  17.237  0.0630  0.1877  0.2471
  503MPD2    C5 7530   1.111   4.616  17.172 -0.1384  0.4474  0.4842
  503MPD2     H 7531   1.201   4.691  17.527 -0.8146 -1.0588  0.9594
  503MPD2    H1 7532   1.233   4.442  17.189 -0.2713  0.1591  0.0807
  503MPD2    H2 7533   0.994   0.052  17.166  0.5318  2.9583  3.2852
  503MPD2    H3 7534   1.073   4.580  17.077  1.2077  2.7572 -0.9191
  503MPD2     N 7535   1.313   4.476  17.445 -0.0570  0.1801  0.0577
  503MPD2    H5 7536   1.295   4.481  17.544  0.4333  0.0790  0.1541
  503MPD2    N1 7537   1.054   0.139  17.420  0.4625 -0.0408  0.4110
  503MPD2    H7 7538   1.104   0.152  17.507  1.7338  0.5730 -0.4121
  504TMC3    C1 7539   1.479   4.325  17.505  0.0715 -1.0034 -0.6363
  504TMC3    C2 7540   1.428   4.307  17.628 -0.0046  0.0384  0.8354
  504TMC3    C3 7541   1.499   4.257  17.724 -0.2886 -0.1047 -0.7668
  504TMC3    C4 7542   1.609   4.270  17.469 -0.0748 -0.1830 -0.1604
  504TMC3    C5 7543   1.672   4.210  17.567  0.0693 -0.4321  1.3406
  504TMC3    C6 7544   1.620   4.200  17.695 -0.2479  0.0900  0.2257
  504TMC3     C 7545   1.397   4.384  17.395 -0.3383 -0.9197 -0.2069
  504TMC3     O 7546   1.434   4.357  17.278  0.4467 -0.0389 -0.0994
  504TMC3     H 7547   1.327   4.339  17.651 -0.3291  0.4623 -1.2180
  504TMC3    H1 7548   1.653   4.303  17.375 -1.5427  0.6859 -0.5275
  504TMC3    H2 7549   1.675   4.142   0.036 -0.9376  0.4184  1.0054
  504TMC3    C7 7550   1.794   4.145  17.539  0.4433  0.8704  0.0410
  504TMC3    C8 7551   1.424   4.235   0.117  0.9670  0.8526 -0.3647
  504TMC3    O1 7552   1.861   4.114  17.634  0.2173  0.1019  0.3602
  504TMC3    O2 7553   1.303   4.251   0.121 -0.4003  0.3795 -0.3490
  505MPD2     C 7554   1.637   1.768  10.118 -0.4819  0.3098 -0.4315
  505MPD2    C1 7555   1.663   1.805   9.991  0.2724 -0.4028  0.6642
  505MPD2    C2 7556   1.761   1.893   9.973 -0.5456 -1.2555 -0.2426
  505MPD2    C3 7557   1.830   1.958  10.074  0.3597  0.8160 -0.4479
  505MPD2    C4 7558   1.804   1.915  10.197 -0.1327 -0.0116  0.5219
  505MPD2    C5 7559   1.702   1.824  10.224 -0.1359 -0.3978 -0.4329
  505MPD2     H 7560   1.775   1.923   9.869 -0.3119  0.5769  0.3251
  505MPD2    H1 7561   1.865   1.956  10.276  0.7578  1.0422 -0.7135
  505MPD2    H2 7562   1.562   1.695  10.146 -3.4066  2.8968 -1.6642
  505MPD2    H3 7563   1.679   1.794  10.325 -1.4240  1.8177 -0.0722
  505MPD2     N 7564   1.929   2.049  10.033 -0.0279 -0.6842 -0.0842
  505MPD2    H5 7565   1.935   2.071   9.934  0.5194 -0.3465  0.0200
  505MPD2    N1 7566   1.580   1.750   9.887 -0.5288  0.3189  0.0796
  505MPD2    H7 7567   1.511   1.682   9.916 -0.4177  0.7222  1.2952
  506TMC3    C1 7568   1.505   1.720   9.666 -0.0478  0.2692  0.7448
  506TMC3    C2 7569   1.367   1.736   9.686 -0.2361 -0.0879  0.3545
  506TMC3    C3 7570   1.289   1.718   9.569 -0.7521  0.9095  0.3992
  506TMC3    C4 7571   1.557   1.702   9.537 -0.1243 -0.4062  0.6981
  506TMC3    C5 7572   1.481   1.728   9.427  0.4675  0.9641 -0.5743
  506TMC3    C6 7573   1.344   1.723   9.446  0.0935 -0.6002 -0.2843
  506TMC3     C 7574   1.595   1.784   9.757  0.3765  0.0969  0.4889
  506TMC3     O 7575   1.663   1.866   9.702 -0.3565 -0.3986  0.1659
  506TMC3     H 7576   1.332   1.732   9.788  0.5928 -1.3011  0.5953
  506TMC3    H1 7577   1.664   1.692   9.527 -0.0867  2.0935 -1.6534
  506TMC3    H2 7578   1.284   1.739   9.357 -0.0641 -0.7513 -0.2052
  506TMC3    C7 7579   1.526   1.841   9.349 -0.2330 -0.5056 -0.0986
  506TMC3    C8 7580   1.150   1.760   9.567 -0.0297  0.6489  0.3011
  506TMC3    O1 7581   1.487   1.861   9.237 -0.1447 -0.5926  0.5213
  506TMC3    O2 7582   1.073   1.726   9.479 -0.1767 -0.2323 -0.1323
  507TMC3    C1 7583   1.705   3.979  15.018  0.1563 -0.1745  0.5181
  507TMC3    C2 7584   1.595   4.000  14.940  0.0715 -0.0750  0.8658
  507TMC3    C3 7585   1.611   4.014  14.805  0.1987  0.2329  0.4831
  507TMC3    C4 7586   1.830   3.958  14.966  0.2034 -0.6712  0.3744
  507TMC3    C5 7587   1.840   3.968  14.833 -0.6075 -0.0310 -0.8424
  507TMC3    C6 7588   1.737   4.002  14.748  0.1269 -0.6175 -0.1213
  507TMC3     C 7589   1.692   3.976  15.167  0.4052 -0.5844  0.9115
  507TMC3     O 7590   1.794   3.972  15.233  0.2366 -0.3952  0.3677
  507TMC3     H 7591   1.496   4.008  14.983 -0.0217 -0.9475  0.8306
  507TMC3    H1 7592   1.905   3.912  15.028  1.5000  1.6279  0.5260
  507TMC3    H2 7593   1.739   3.999  14.640 -2.5320 -1.7133 -0.1539
  507TMC3    C7 7594   1.973   4.012  14.788  0.1002  0.4987 -0.7022
  507TMC3    C8 7595   1.528   4.131  14.757  0.2131 -0.0962  0.3865
  507TMC3    O1 7596   2.050   4.084  14.858 -0.4069  0.1377  0.1971
  507TMC3    O2 7597   1.474   4.190  14.853 -0.1899  0.4267  0.7103
  508MPD2     C 7598   2.939   1.873  16.289 -0.3334 -0.7956  0.0884
  508MPD2    C1 7599   2.989   1.986  16.346 -0.3204 -0.3245  0.1483
  508MPD2    C2 7600   2.970   2.112  16.291 -0.1252 -0.0126  0.2132
  508MPD2    C3 7601   2.912   2.113  16.168  0.3759 -0.2613  0.2254
  508MPD2    C4 7602   2.870   2.005  16.101  0.1599  0.4861 -0.4623
  508MPD2    C5 7603   2.880   1.883  16.164  0.2838  0.3544  0.2438
  508MPD2     H 7604   3.008   2.200  16.342 -0.4233  0.6512 -0.7093
  508MPD2    H1 7605   2.842   2.012  15.996  5.3685 -0.6257 -1.9246
  508MPD2    H2 7606   2.964   1.772  16.320  0.7765 -0.3461  0.6411
  508MPD2    H3 7607   2.843   1.802  16.102 -0.6097  0.4494  0.6521
  508MPD2     N 7608   2.924   2.240  16.106 -0.3670  0.3188  0.2003
  508MPD2    H5 7609   2.978   2.315  16.148 -0.5955 -0.8264  2.5450
  508MPD2    N1 7610   3.056   1.975  16.472  0.1795 -0.4441  0.5169
  508MPD2    H7 7611   3.077   2.054  16.532 -0.3165  1.9672 -2.5024
  509TMC3    C1 7612   2.915   2.505  15.719 -0.8761 -0.4811 -0.6247
  509TMC3    C2 7613   3.048   2.535  15.722 -0.6745  0.1001 -0.6324
  509TMC3    C3 7614   3.108   2.493  15.843 -0.2159 -0.3423  0.5327
  509TMC3    C4 7615   2.845   2.425  15.811  0.3972  0.6082 -0.3995
  509TMC3    C5 7616   2.915   2.381  15.921 -0.0534  0.3093 -0.5613
  509TMC3    C6 7617   3.047   2.415  15.942  0.2590 -0.0906  0.1784
  509TMC3     C 7618   2.827   2.568  15.622 -0.4626  0.4447  0.0154
  509TMC3     O 7619   2.710   2.573  15.653  0.0831  1.3932 -0.2966
  509TMC3     H 7620   3.087   2.598  15.643 -0.6156  1.0594  0.1510
  509TMC3    H1 7621   2.751   2.375  15.789  1.1913 -1.0495 -0.0099
  509TMC3    H2 7622   3.104   2.370  16.023  1.6050  0.7262 -0.3251
  509TMC3    C7 7623   2.847   2.275  16.001  0.2539 -0.5055  0.3120
  509TMC3    C8 7624   3.256   2.506  15.853 -0.0704 -0.1752  0.4530
  509TMC3    O1 7625   2.750   2.227  15.952  0.1350 -0.5100  0.4710
  509TMC3    O2 7626   3.315   2.413  15.910 -0.8288  0.2207  0.0851
  510MPD2     C 7627   0.684   3.769  15.043  1.1243 -0.1540  0.1470
  510MPD2    C1 7628   0.726   3.636  15.056 -0.0218  0.3545  1.0237
  510MPD2    C2 7629   0.819   3.588  14.970 -0.2772  0.2686 -0.8321
  510MPD2    C3 7630   0.874   3.660  14.864 -0.3520 -0.5246  0.4496
  510MPD2    C4 7631   0.828   3.787  14.850  0.1351 -1.0014 -0.5197
  510MPD2    C5 7632   0.739   3.836  14.937 -0.4474  0.1042  0.4769
  510MPD2     H 7633   0.855   3.487  14.984  1.0465  1.0042  0.9668
  510MPD2    H1 7634   0.869   3.858  14.779  0.5300 -1.4451 -0.7372
  510MPD2    H2 7635   0.609   3.817  15.104  0.2332 -2.0521  0.5355
  510MPD2    H3 7636   0.706   3.939  14.927 -1.1674 -0.0989  0.7446
  510MPD2     N 7637   0.981   3.603  14.797  0.3871  0.1085 -0.0826
  510MPD2    H5 7638   1.006   3.513  14.838  1.8328  0.1816 -0.7713
  510MPD2    N1 7639   0.650   3.552  15.143 -0.5310  0.0661 -0.5909
  510MPD2    H7 7640   0.563   3.586  15.182 -0.8896 -2.2290  0.5846
  511TMC3    C1 7641   0.600   3.350  15.259  0.1526 -0.2944 -0.2615
  511TMC3    C2 7642   0.500   3.405  15.337  0.0292  0.4733 -0.0126
  511TMC3    C3 7643   0.438   3.322  15.423  0.2502  0.4388 -0.4076
  511TMC3    C4 7644   0.615   3.217  15.254  0.1644 -0.0491  0.5783
  511TMC3    C5 7645   0.551   3.137  15.348  0.0906 -0.3288  0.1401
  511TMC3    C6 7646   0.455   3.185  15.434  0.6201  0.2842 -0.1459
  511TMC3     C 7647   0.688   3.420  15.174 -0.1159 -0.4595 -0.3115
  511TMC3     O 7648   0.786   3.357  15.138 -0.3103  0.4042 -0.4536
  511TMC3     H 7649   0.481   3.512  15.341 -0.4397  0.4385 -1.3302
  511TMC3    H1 7650   0.684   3.166  15.186  0.7335  0.2877  0.9102
  511TMC3    H2 7651   0.400   3.119  15.501  0.0713  0.6751 -0.2063
  511TMC3    C7 7652   0.519   3.000  15.316  0.6223  0.0434 -0.2641
  511TMC3    C8 7653   0.368   3.386  15.533 -0.0406  0.2372  0.0179
  511TMC3    O1 7654   0.486   2.984  15.200  0.4905  0.4600 -0.0348
  511TMC3    O2 7655   0.394   3.504  15.548  0.4517  0.2684 -0.0096
  512TMC3    C1 7656   4.613   2.625  13.251  1.0533  0.5239 -0.0147
  512TMC3    C2 7657   0.006   2.600  13.200 -0.3292  0.5295 -0.5701
  512TMC3    C3 7658   0.078   2.487  13.238  0.0398 -0.2146 -0.4748
  512TMC3    C4 7659   4.549   2.533  13.322 -0.2324  0.4032 -0.1005
  512TMC3    C5 7660   4.623   2.418  13.352  0.4642 -0.0749  0.1526
  512TMC3    C6 7661   0.015   2.389  13.310  0.2160  0.3351 -0.4675
  512TMC3     C 7662   4.596   2.762  13.288  0.0706 -0.2613  0.4187
  512TMC3     O 7663   4.661   2.845  13.223 -0.3504  0.2599 -0.4535
  512TMC3     H 7664   0.056   2.667  13.130  0.5455  0.2165 -0.2327
  512TMC3    H1 7665   4.448   2.543  13.359 -0.4570  0.8390 -0.8398
  512TMC3    H2 7666   0.075   2.310  13.354  0.7311 -0.6060 -2.8768
  512TMC3    C7 7667   4.547   2.312  13.401 -0.1980  0.7099  0.0264
  512TMC3    C8 7668   0.220   2.505  13.262  0.4209  0.1155 -0.0320
  512TMC3    O1 7669   4.437   2.340  13.446  0.1568 -0.1779 -0.4880
  512TMC3    O2 7670   0.281   2.409  13.305 -0.0307  0.1249 -0.3968
  513MPD2     C 7671   1.908   2.748  13.085 -0.0618 -0.0469 -0.2479
  513MPD2    C1 7672   1.862   2.639  13.159 -0.3895  0.2456  0.3087
  513MPD2    C2 7673   1.937   2.606  13.267 -0.3555  0.5627  0.0177
  513MPD2    C3 7674   2.067   2.658  13.290  0.3582 -0.8424  0.6758
  513MPD2    C4 7675   2.110   2.765  13.213  0.3438 -0.1159 -0.8284
  513MPD2    C5 7676   2.026   2.807  13.114  0.2640 -0.9327 -0.1868
  513MPD2     H 7677   1.900   2.528  13.333 -2.1665  0.1985 -1.4459
  513MPD2    H1 7678   2.210   2.806  13.220  0.7198 -0.9261 -1.4839
  513MPD2    H2 7679   1.856   2.796  13.002 -1.0417 -0.4387  0.1462
  513MPD2    H3 7680   2.063   2.882  13.045  1.9608 -1.5273  0.0877
  513MPD2     N 7681   2.138   2.602  13.397 -0.3564 -0.2782  0.6249
  513MPD2    H5 7682   2.080   2.553  13.465 -2.1220  0.9864  0.0208
  513MPD2    N1 7683   1.737   2.580  13.135 -0.4895 -0.2249  1.0324
  513MPD2    H7 7684   1.679   2.625  13.065  0.4132  0.7419  0.8883
  514TMC3    C1 7685   1.540   2.444  13.173 -0.4370 -0.1853 -1.2481
  514TMC3    C2 7686   1.519   2.405  13.046  0.5625  0.1576  0.4798
  514TMC3    C3 7687   1.475   2.280  13.033 -0.3264  0.4851  0.5495
  514TMC3    C4 7688   1.490   2.379  13.282 -0.6213 -0.1668  0.1280
  514TMC3    C5 7689   1.454   2.250  13.273 -0.2419 -0.5129  0.4316
  514TMC3    C6 7690   1.440   2.206  13.147 -0.2320 -0.0176  0.1467
  514TMC3     C 7691   1.678   2.471  13.197  0.9927  0.2530  0.4173
  514TMC3     O 7692   1.720   2.406  13.288  0.5724  0.0527  0.2969
  514TMC3     H 7693   1.534   2.464  12.957  1.0341 -0.0212  0.4416
  514TMC3    H1 7694   1.512   2.430  13.375  0.8828  1.0561 -0.8818
  514TMC3    H2 7695   1.417   2.103  13.126  0.1739  0.1661 -1.1878
  514TMC3    C7 7696   1.490   2.151  13.379  0.1107  0.3907  0.2399
  514TMC3    C8 7697   1.418   2.235  12.915 -0.3790 -0.5406  0.1032
  514TMC3    O1 7698   1.455   2.034  13.357  0.2042 -0.2187  0.0617
  514TMC3    O2 7699   1.323   2.160  12.929  0.5893 -0.6375  0.4392
  515MPD2     C 7700   4.150   0.299  15.182  0.2053  0.1920  0.2414
  515MPD2    C1 7701   4.207   0.176  15.164  0.0222  0.1097 -0.3542
  515MPD2    C2 7702   4.323   0.139  15.239  0.6508 -0.1632  0.4924
  515MPD2    C3 7703   4.390   0.231  15.319  0.0243 -0.2489  0.0397
  515MPD2    C4 7704   4.336   0.360  15.312 -0.2507 -0.3211  0.0534
  515MPD2    C5 7705   4.216   0.393  15.254  0.6392  0.4630  0.0537
  515MPD2     H 7706   4.355   0.036  15.230 -0.0824 -0.3944  0.5272
  515MPD2    H1 7707   4.384   0.442  15.364  3.1740 -0.9058 -2.1842
  515MPD2    H2 7708   4.062   0.328  15.125  0.2818 -0.0579 -0.0031
  515MPD2    H3 7709   4.178   0.494  15.255 -0.5103  0.0289 -0.1279
  515MPD2     N 7710   4.521   0.211  15.370  0.1836  0.1111  0.0750
  515MPD2    H5 7711   4.570   0.300  15.375  0.5991 -0.0921 -0.4011
  515MPD2    N1 7712   4.163   0.091  15.055 -0.3423 -0.4373  0.3032
  515MPD2    H7 7713   4.198   4.729  15.060  1.9689  0.4242  0.1219
  516TMC3    C1 7714   4.065   0.024  14.861  0.5452 -0.5718 -0.9811
  516TMC3    C2 7715   3.965   0.045  14.773  0.4836  0.0079  0.0877
  516TMC3    C3 7716   3.937   4.680  14.682  0.9983 -0.2426 -0.1002
  516TMC3    C4 7717   4.149   4.645  14.868  0.7708 -0.4260  0.0469
  516TMC3    C5 7718   4.117   4.552  14.775 -0.0130 -0.4411 -0.2039
  516TMC3    C6 7719   4.015   4.569  14.683  1.0673  0.1129 -0.1277
  516TMC3     C 7720   4.089   0.133  14.947  0.4162  0.1779  0.2174
  516TMC3     O 7721   4.054   0.242  14.906  0.3841  0.0913  0.4468
  516TMC3     H 7722   3.898   0.130  14.784  2.2691  1.1779  1.7799
  516TMC3    H1 7723   4.248   4.642  14.913  1.6544  4.1891 -1.5075
  516TMC3    H2 7724   3.994   4.490  14.611  0.8653 -1.4182  1.5998
  516TMC3    C7 7725   4.196   4.432  14.786 -0.2047  0.6536  0.4684
  516TMC3    C8 7726   3.848   4.691  14.570 -0.4459 -0.1736 -0.2825
  516TMC3    O1 7727   4.291   4.436  14.864  0.2397  0.4347  0.4532
  516TMC3    O2 7728   3.852   4.596  14.492 -0.4362  0.4560  0.2616
  517MPD2     C 7729   4.293   1.502   0.502  0.5283 -0.1048 -0.1296
  517MPD2    C1 7730   4.416   1.505   0.442 -0.2166  0.0681 -0.0775
  517MPD2    C2 7731   4.502   1.611   0.464 -0.9539 -0.3200 -0.0221
  517MPD2    C3 7732   4.466   1.716   0.546  0.0111 -0.0744 -0.0701
  517MPD2    C4 7733   4.348   1.718   0.608 -0.1125  0.0985 -0.0255
  517MPD2    C5 7734   4.261   1.615   0.582  0.2890  0.1269  0.1950
  517MPD2     H 7735   4.598   1.602   0.415  0.1538  0.1305  2.0401
  517MPD2    H1 7736   4.327   1.799   0.677  3.2094  2.2936 -1.5960
  517MPD2    H2 7737   4.210   1.434   0.485  0.6327 -0.4922  0.9245
  517MPD2    H3 7738   4.167   1.610   0.635 -0.0868  0.6204 -0.4237
  517MPD2     N 7739   4.552   1.816   0.593  0.2991  0.0030 -0.4550
  517MPD2    H5 7740   4.506   1.876   0.660 -1.4481 -0.4767 -1.2291
  517MPD2    N1 7741   4.450   1.410   0.344 -0.6964 -0.0526  0.1935
  517MPD2    H7 7742   4.543   1.428   0.305 -0.4578 -0.3896  0.6062
  518TMC3    C1 7743   4.449   1.230   0.202 -0.2509 -0.6817  0.4984
  518TMC3    C2 7744   4.417   1.098   0.180  0.0521 -0.4525  0.2143
  518TMC3    C3 7745   4.482   1.038   0.080  0.0923  0.0608 -1.5840
  518TMC3    C4 7746   4.534   1.302   0.124  0.6263  0.2743 -0.1378
  518TMC3    C5 7747   4.595   1.225   0.020  0.4116 -0.2996 -0.5480
  518TMC3    C6 7748   4.573   1.098  17.731 -0.3349 -0.7565 -0.0849
  518TMC3     C 7749   4.384   1.296   0.310  0.5264 -0.1832  0.5536
  518TMC3     O 7750   4.292   1.232   0.361 -0.3320 -0.1368  0.7230
  518TMC3     H 7751   4.349   1.043   0.244  0.1284 -1.2385 -0.3916
  518TMC3    H1 7752   4.551   1.408   0.130 -0.0102  0.2528  2.2988
  518TMC3    H2 7753   4.609   1.042  17.646  2.5510  1.4904 -0.3347
  518TMC3    C7 7754   4.720   1.276  17.720  0.5977 -0.3898  0.6203
  518TMC3    C8 7755   4.481   0.894   0.084 -0.4873  0.6160 -0.6371
  518TMC3    O1 7756   0.008   1.389   0.031  0.0761 -0.1646  0.3380
  518TMC3    O2 7757   4.472   0.838  17.706  0.1575 -0.1741 -0.1422
  519MPD2     C 7758   1.273   4.650  14.244  0.0523  0.5622  1.0268
  519MPD2    C1 7759   1.183   4.594  14.162 -0.1620  0.0672  0.1024
  519MPD2    C2 7760   1.189   4.457  14.135 -0.5426  0.6956  0.0352
  519MPD2    C3 7761   1.296   4.383  14.171  0.5157  0.0314 -0.2456
  519MPD2    C4 7762   1.391   4.441  14.252  0.1191  0.1062  0.3725
  519MPD2    C5 7763   1.373   4.569  14.298  0.6344 -0.2218 -0.2431
  519MPD2     H 7764   1.114   4.408  14.074  1.1134 -2.2437  0.3399
  519MPD2    H1 7765   1.484   4.397  14.283  1.1482  1.0067 -1.4250
  519MPD2    H2 7766   1.249   0.012  14.288 -3.5052  0.4741 -0.7203
  519MPD2    H3 7767   1.435   4.608  14.378 -2.4689  3.0687  0.5307
  519MPD2     N 7768   1.313   4.253  14.122  0.1508  0.2307 -0.1596
  519MPD2    H5 7769   1.235   4.232  14.061  0.0796 -4.3548  1.5294
  519MPD2    N1 7770   1.086   4.682  14.112  0.4110 -0.1176  0.1318
  519MPD2    H7 7771   1.090   0.048  14.135 -1.3133 -0.0951  0.3631
  520TMC3    C1 7772   1.441   4.090  14.008 -0.4801  0.7217  0.0099
  520TMC3    C2 7773   1.397   4.137  13.889 -0.3593  0.4141  0.9736
  520TMC3    C3 7774   1.445   4.075  13.776 -0.0715 -0.0790 -0.9953
  520TMC3    C4 7775   1.539   3.999  14.017  0.2890 -0.0037 -0.0621
  520TMC3    C5 7776   1.601   3.953  13.900  0.6294  0.2393 -0.2754
  520TMC3    C6 7777   1.553   3.990  13.776  1.4216  0.5169  0.0233
  520TMC3     C 7778   1.428   4.174  14.132  0.3036 -0.0804 -0.4323
  520TMC3     O 7779   1.514   4.164  14.221 -0.1474 -0.2974  0.7445
  520TMC3     H 7780   1.321   4.214  13.879  0.1582  1.1418  2.5445
  520TMC3    H1 7781   1.577   3.955  14.108  0.4765 -1.9621 -1.0861
  520TMC3    H2 7782   1.590   3.936  13.690  0.2279  0.4876 -0.4692
  520TMC3    C7 7783   1.723   3.878  13.920  0.3749  0.0755  0.1127
  520TMC3    C8 7784   1.413   4.140  13.657  0.3569  0.8935 -0.2694
  520TMC3    O1 7785   1.733   3.804  14.018  0.1756  0.2721  0.2610
  520TMC3    O2 7786   1.512   4.130  13.577 -0.0803  1.2289  0.0284
  521MPD2     C 7787   1.922   2.692  17.670 -0.2558 -0.0802  0.6574
  521MPD2    C1 7788   1.923   2.615  17.561 -0.2986 -0.2266  0.3855
  521MPD2    C2 7789   2.038   2.575  17.503  0.5516 -0.4280  0.1176
  521MPD2    C3 7790   2.160   2.631  17.540  0.2461  0.1747  0.9257
  521MPD2    C4 7791   2.163   2.705  17.656 -0.5855 -1.2939 -0.4400
  521MPD2    C5 7792   2.040   2.723  17.723  0.1345  0.0324 -0.3569
  521MPD2     H 7793   2.033   2.510  17.416 -2.2311 -0.1500  0.0765
  521MPD2    H1 7794   2.253   2.744  17.703 -0.9249 -0.1319 -0.7396
  521MPD2    H2 7795   1.827   2.723  17.714 -0.8357  0.3112 -0.8913
  521MPD2    H3 7796   2.039   2.791   0.076  0.5152 -1.3673  0.7636
  521MPD2     N 7797   2.273   2.602  17.470  0.0723  0.3391 -0.3138
  521MPD2    H5 7798   2.259   2.541  17.389  2.1023  0.5170 -0.8096
  521MPD2    N1 7799   1.800   2.572  17.514  0.0797 -0.3243  0.3256
  521MPD2    H7 7800   1.719   2.599  17.569 -0.7107 -0.9584 -0.5165
  522TMC3    C1 7801   2.510   2.578  17.421  0.0262  0.0683  1.0898
  522TMC3    C2 7802   2.635   2.560  17.475 -0.9202 -0.4536 -0.3328
  522TMC3    C3 7803   2.733   2.528  17.387  0.0679  0.6438  0.0559
  522TMC3    C4 7804   2.482   2.575  17.292 -0.1385  0.4775 -0.4839
  522TMC3    C5 7805   2.585   2.559  17.209 -0.2400  0.2621 -0.2138
  522TMC3    C6 7806   2.709   2.532  17.252 -0.2230  0.1051 -0.4524
  522TMC3     C 7807   2.406   2.620  17.517  0.1017 -0.1942  0.2574
  522TMC3     O 7808   2.446   2.670  17.616  0.3572 -0.1172 -0.0369
  522TMC3     H 7809   2.639   2.544  17.583  0.6909  1.0974 -0.1712
  522TMC3    H1 7810   2.383   2.594  17.252 -0.3396  0.5078  0.0351
  522TMC3    H2 7811   2.789   2.533  17.178 -0.1064 -1.2485 -0.3432
  522TMC3    C7 7812   2.566   2.570  17.063 -0.3346  0.4710 -0.5509
  522TMC3    C8 7813   2.848   2.444  17.426 -0.8296 -0.2777  0.5966
  522TMC3    O1 7814   2.660   2.538  16.996 -0.4006  0.1114 -0.1897
  522TMC3    O2 7815   2.875   2.431  17.542  0.2810 -0.3228  0.2444
  523MPD2     C 7816   4.259   2.344  10.242  0.0414  0.2590  0.0151
  523MPD2    C1 7817   4.275   2.274  10.119 -0.6977 -0.5754 -0.1279
  523MPD2    C2 7818   4.187   2.304  10.011  0.6470  0.6767  0.6092
  523MPD2    C3 7819   4.090   2.406  10.029  0.1302 -0.4292  0.7676
  523MPD2    C4 7820   4.093   2.479  10.147 -0.0593 -0.1732 -0.4560
  523MPD2    C5 7821   4.171   2.451  10.248 -0.2814  0.9061 -0.1526
  523MPD2     H 7822   4.184   2.251   9.916 -0.4315  1.3838  0.2615
  523MPD2    H1 7823   4.018   2.556  10.159  0.2186 -0.0186  0.2390
  523MPD2    H2 7824   4.304   2.309  10.334  1.9010  2.2525 -0.1447
  523MPD2    H3 7825   4.170   2.501  10.344  3.0033 -0.2705  0.5240
  523MPD2     N 7826   3.983   2.441   9.941  0.2729 -0.4328 -0.0687
  523MPD2    H5 7827   3.925   2.519   9.969  2.3692  0.8022  0.7815
  523MPD2    N1 7828   4.351   2.157  10.119  0.0515  0.3180  0.4410
  523MPD2    H7 7829   4.403   2.141  10.205 -0.0550  0.0674  0.4584
  524TMC3    C1 7830   3.850   2.445   9.749  0.6298 -0.0770  0.7313
  524TMC3    C2 7831   3.838   2.436   9.610 -0.3598  0.2408  0.1253
  524TMC3    C3 7832   3.723   2.485   9.556 -0.2667 -0.7086  0.2448
  524TMC3    C4 7833   3.736   2.464   9.827 -0.0607  0.8936  0.0172
  524TMC3    C5 7834   3.619   2.508   9.767  0.2499  0.4087  0.3550
  524TMC3    C6 7835   3.613   2.521   9.628 -0.0347  0.2553  0.6803
  524TMC3     C 7836   3.968   2.393   9.813 -0.6028  0.3825 -0.9874
  524TMC3     O 7837   4.044   2.325   9.746 -0.0335  0.2830  0.0640
  524TMC3     H 7838   3.922   2.433   9.541 -0.7453  0.9917 -0.3691
  524TMC3    H1 7839   3.739   2.462   9.935  3.7318  1.1315 -0.0571
  524TMC3    H2 7840   3.520   2.554   9.583  0.9813  2.2030  0.0215
  524TMC3    C7 7841   3.503   2.534   9.858 -0.5417 -1.0203 -0.2252
  524TMC3    C8 7842   3.725   2.517   9.418  0.1678 -0.0200  0.4172
  524TMC3    O1 7843   3.525   2.508   9.975  0.0027  0.2209 -0.2491
  524TMC3    O2 7844   3.785   2.446   9.341 -0.0628  0.8442 -0.1062
  525MPD2     C 7845   2.597   3.851  14.390  0.3893 -0.2809 -0.4578
  525MPD2    C1 7846   2.714   3.900  14.443  0.1206  0.3398 -0.3419
  525MPD2    C2 7847   2.749   4.034  14.419  0.7116 -1.1873  0.8326
  525MPD2    C3 7848   2.667   4.109  14.336 -0.1363 -0.4333 -0.8104
  525MPD2    C4 7849   2.556   4.055  14.274  0.0642  0.6967 -0.7681
  525MPD2    C5 7850   2.524   3.924  14.305  0.0621  0.1160 -0.3659
  525MPD2     H 7851   2.834   4.079  14.469  1.0547 -1.6532  0.6724
  525MPD2    H1 7852   2.485   4.106  14.210 -0.4691 -0.8209 -1.3834
  525MPD2    H2 7853   2.561   3.755  14.424 -0.2184  0.7374  1.8384
  525MPD2    H3 7854   2.439   3.872  14.262  1.7195 -3.3911  0.5852
  525MPD2     N 7855   2.676   4.253  14.313 -0.0960  0.4249 -0.2067
  525MPD2    H5 7856   2.587   4.289  14.282  1.4804  2.9832 -1.7819
  525MPD2    N1 7857   2.790   3.828  14.535  0.1013 -0.3376  0.0126
  525MPD2    H7 7858   2.887   3.853  14.553 -0.6974  2.3608  0.4226
  526TMC3    C1 7859   2.836   3.665  14.714 -0.0929  0.1542  0.0070
  526TMC3    C2 7860   2.790   3.614  14.830 -0.2614 -0.8026 -0.0104
  526TMC3    C3 7861   2.875   3.552  14.918  0.5845 -0.0774 -0.6429
  526TMC3    C4 7862   2.965   3.659  14.685 -0.1458  0.4621 -0.0826
  526TMC3    C5 7863   3.054   3.614  14.778  0.5423 -0.4216 -0.3906
  526TMC3    C6 7864   3.010   3.546  14.890 -0.8183 -0.5265  0.2795
  526TMC3     C 7865   2.740   3.719  14.612  0.4488  0.3426  0.4990
  526TMC3     O 7866   2.625   3.679  14.619 -0.5509 -0.0880  0.3601
  526TMC3     H 7867   2.684   3.628  14.851 -0.3598 -0.8755 -0.4524
  526TMC3    H1 7868   2.995   3.682  14.583 -0.8065  1.7361  0.0182
  526TMC3    H2 7869   3.078   3.488  14.951 -1.4680 -2.6771 -1.0215
  526TMC3    C7 7870   3.202   3.618  14.758 -1.2168  0.6392 -0.1916
  526TMC3    C8 7871   2.833   3.516  15.057  0.0992 -0.6665  0.7248
  526TMC3    O1 7872   3.272   3.547  14.827 -0.5028  0.3536  0.2906
  526TMC3    O2 7873   2.926   3.515  15.136 -0.8013  0.1150 -0.4905
  527MPD2     C 7874   0.578   2.100   1.538  0.4195 -0.1278 -0.7880
  527MPD2    C1 7875   0.565   2.123   1.402 -0.2477  0.1790 -0.2102
  527MPD2    C2 7876   0.669   2.099   1.319  0.5837  0.4470 -0.3774
  527MPD2    C3 7877   0.783   2.038   1.361 -0.8592 -0.1918  0.5365
  527MPD2    C4 7878   0.799   2.011   1.494 -0.3653  0.2393 -0.4105
  527MPD2    C5 7879   0.695   2.051   1.578  0.7053  0.7041 -0.0503
  527MPD2     H 7880   0.658   2.122   1.213  1.0894 -2.3795 -1.0561
  527MPD2    H1 7881   0.891   1.984   1.544 -0.8891 -3.1336 -1.2354
  527MPD2    H2 7882   0.505   2.135   1.611  0.1692 -1.1071 -0.5690
  527MPD2    H3 7883   0.713   2.045   1.685 -1.7544  1.4112  0.3910
  527MPD2     N 7884   0.886   2.012   1.263 -0.3477  0.5578  0.3304
  527MPD2    H5 7885   0.869   2.052   1.172  1.8162 -0.4323 -0.5058
  527MPD2    N1 7886   0.451   2.183   1.342 -0.5218  0.3109 -0.2691
  527MPD2    H7 7887   0.453   2.178   1.241 -1.4116 -2.6406 -0.1438
  528TMC3    C1 7888   0.229   2.281   1.322  0.1031 -0.6176  0.2420
  528TMC3    C2 7889   0.278   2.351   1.208  0.1538 -0.8922  0.4271
  528TMC3    C3 7890   0.183   2.396   1.122  0.0480  0.3314 -0.5556
  528TMC3    C4 7891   0.101   2.239   1.333  0.4284 -0.1775 -0.3941
  528TMC3    C5 7892   0.011   2.281   1.233  0.4783 -0.2284 -0.0873
  528TMC3    C6 7893   0.050   2.363   1.126  0.1177 -0.3441  0.1121
  528TMC3     C 7894   0.333   2.222   1.401 -0.3398 -0.2403  0.7458
  528TMC3     O 7895   0.314   2.217   1.521  0.0189 -0.3086 -0.5034
  528TMC3     H 7896   0.382   2.382   1.204 -0.2883  0.5605  0.3962
  528TMC3    H1 7897   0.075   2.167   1.410  2.2904  0.3363  0.7040
  528TMC3    H2 7898   4.708   2.398   1.057 -1.7896 -0.2241  2.2632
  528TMC3    C7 7899   4.618   2.217   1.219 -0.7307 -0.0140 -0.4046
  528TMC3    C8 7900   0.225   2.496   1.024 -0.9107  0.3016  0.2999
  528TMC3    O1 7901   4.554   2.239   1.115 -0.0633  0.0117  0.5993
  528TMC3    O2 7902   0.323   2.476   0.954  0.2524 -0.0938  0.5543
  529MPD2     C 7903   3.100   0.434   1.281  0.8754  0.5281 -0.0067
  529MPD2    C1 7904   3.184   0.336   1.237  0.6781  0.1986 -0.4461
  529MPD2    C2 7905   3.216   0.311   1.098  0.0438  0.5923 -0.9568
  529MPD2    C3 7906   3.178   0.398   1.000 -0.1036 -0.8352 -1.0241
  529MPD2    C4 7907   3.103   0.507   1.047  0.1594 -0.1448 -0.6628
  529MPD2    C5 7908   3.062   0.515   1.183  0.0237  0.3949  0.0154
  529MPD2     H 7909   3.278   0.226   1.073 -1.9175 -1.1291 -0.0816
  529MPD2    H1 7910   3.078   0.590   0.983 -0.9139 -0.8600 -1.1805
  529MPD2    H2 7911   3.069   0.466   1.379 -1.3395 -1.8463  0.0762
  529MPD2    H3 7912   3.013   0.610   1.198 -1.8016 -0.3783 -1.1350
  529MPD2     N 7913   3.210   0.397   0.861 -0.0142  0.3996  0.5977
  529MPD2    H5 7914   3.161   0.465   0.805  0.7576  1.3905  1.1153
  529MPD2    N1 7915   3.254   0.261   1.335 -0.8073 -0.0731  0.1730
  529MPD2    H7 7916   3.302   0.176   1.305 -0.4644  0.3543 -0.4759
  530TMC3    C1 7917   3.371   0.206   1.532 -0.0611 -0.0030 -0.2509
  530TMC3    C2 7918   3.454   0.277   1.618  0.7763 -0.2201  0.5970
  530TMC3    C3 7919   3.567   0.222   1.661 -0.3935  0.3918  0.6132
  530TMC3    C4 7920   3.403   0.079   1.484 -0.6382  0.0987  1.1522
  530TMC3    C5 7921   3.525   0.026   1.531  0.2169  1.1413 -0.7324
  530TMC3    C6 7922   3.600   0.088   1.628  0.0839  0.0265 -0.2417
  530TMC3     C 7923   3.269   0.286   1.467  0.1310 -0.1875 -0.0492
  530TMC3     O 7924   3.241   0.391   1.526  0.6698 -0.1422  0.0571
  530TMC3     H 7925   3.432   0.378   1.652 -0.8257 -0.1785 -0.5481
  530TMC3    H1 7926   3.342   0.016   1.421  1.9828  0.1176 -1.4298
  530TMC3    H2 7927   3.689   0.036   1.661  0.7132  0.5972 -1.0318
  530TMC3    C7 7928   3.525   4.618   1.534  0.1101 -0.2240 -0.1959
  530TMC3    C8 7929   3.634   0.280   1.777 -0.4361 -0.2142  0.6641
  530TMC3    O1 7930   3.631   4.556   1.537 -0.6652 -0.0797 -0.2909
  530TMC3    O2 7931   3.562   0.352   1.846  0.2623 -0.6690 -0.6744
  531MPD2     C 7932   1.868   2.047  13.714 -0.1352 -0.7327  0.9779
  531MPD2    C1 7933   1.893   2.168  13.652  0.3847 -0.2302 -0.0729
  531MPD2    C2 7934   1.793   2.219  13.571 -0.8182 -0.4925 -0.5050
  531MPD2    C3 7935   1.686   2.143  13.533 -0.4151 -0.3212 -0.3145
  531MPD2    C4 7936   1.663   2.017  13.589  0.0608  0.3448 -0.2465
  531MPD2    C5 7937   1.755   1.975  13.686 -0.8295  0.0588 -0.0950
  531MPD2     H 7938   1.792   2.316  13.522  0.2852 -0.8049 -1.1245
  531MPD2    H1 7939   1.577   1.954  13.570  1.0198  0.0907 -3.6959
  531MPD2    H2 7940   1.931   2.015  13.796 -0.9811 -0.3445  1.7805
  531MPD2    H3 7941   1.743   1.889  13.750 -0.0549 -0.0601 -0.1148
  531MPD2     N 7942   1.596   2.207  13.443 -0.1099 -0.1875 -0.6298
  531MPD2    H5 7943   1.617   2.304  13.424 -0.6335  0.1293  0.4267
  531MPD2    N1 7944   2.014   2.228  13.683  0.6643  0.2051  0.5664
  531MPD2    H7 7945   2.079   2.180  13.744 -0.4373 -0.2121  1.4249
  532TMC3    C1 7946   2.183   2.383  13.667 -0.8788 -0.3826  0.6141
  532TMC3    C2 7947   2.202   2.515  13.620 -0.3486 -0.3528 -0.3737
  532TMC3    C3 7948   2.312   2.548  13.547 -0.8467 -0.6306  0.0690
  532TMC3    C4 7949   2.277   2.283  13.637  0.1713  0.9731  0.3612
  532TMC3    C5 7950   2.388   2.332  13.573  0.0888 -0.1753  0.4072
  532TMC3    C6 7951   2.407   2.450  13.516  0.5017 -0.7628  0.1573
  532TMC3     C 7952   2.050   2.351  13.641  0.9290 -1.0752 -0.4197
  532TMC3     O 7953   1.987   2.428  13.567 -0.3997  0.1936  0.1245
  532TMC3     H 7954   2.135   2.598  13.641  1.2559  1.0471 -0.8758
  532TMC3    H1 7955   2.262   2.185  13.680  0.3010  0.2419 -1.2469
  532TMC3    H2 7956   2.497   2.469  13.459 -1.4746 -0.3944 -2.8189
  532TMC3    C7 7957   2.509   2.259  13.580  0.3635 -0.1392 -0.2500
  532TMC3    C8 7958   2.270   2.617  13.429 -0.4362 -0.5253 -0.3126
  532TMC3    O1 7959   2.611   2.328  13.563  0.1703  0.2962 -0.2405
  532TMC3    O2 7960   2.359   2.653  13.351 -0.4608  0.6069 -0.1081
  533TMC3    C1 7961   2.743   4.465  14.400 -0.4765  0.3874 -0.4392
  533TMC3    C2 7962   2.852   4.557  14.416  0.6307  0.2853 -0.4109
  533TMC3    C3 7963   2.843   4.652  14.515 -0.2942 -0.4665 -0.0146
  533TMC3    C4 7964   2.632   4.469  14.485 -0.0580 -0.5456  0.2167
  533TMC3    C5 7965   2.634   4.562  14.584  0.2748 -0.6491  0.6103
  533TMC3    C6 7966   2.735   4.653  14.605  0.1734  0.5840 -0.4691
  533TMC3     C 7967   2.780   4.328  14.356 -0.0771 -0.0098 -0.1455
  533TMC3     O 7968   2.896   4.285  14.367  0.3582  0.3984  0.4463
  533TMC3     H 7969   2.947   4.533  14.368  0.5174  0.1926 -0.5895
  533TMC3    H1 7970   2.549   4.398  14.482  0.2610 -0.8448 -1.3084
  533TMC3    H2 7971   2.745   4.703  14.701 -0.6189 -0.0671 -0.0486
  533TMC3    C7 7972   2.578   4.503  14.709  0.1291 -0.1596 -0.9733
  533TMC3    C8 7973   2.963   4.707  14.570 -0.4246 -0.0768  0.4356
  533TMC3    O1 7974   2.565   4.381  14.717  0.1610  0.4055 -0.4759
  533TMC3    O2 7975   3.060   4.639  14.555 -0.9971 -0.3000 -0.0411
  534MPD2     C 7976   1.393   0.478   1.455 -0.4672 -0.8397 -0.7016
  534MPD2    C1 7977   1.295   0.571   1.486 -0.0724 -0.2787  0.6541
  534MPD2    C2 7978   1.162   0.533   1.467 -0.8468  0.7905 -0.3874
  534MPD2    C3 7979   1.122   0.403   1.439 -0.3163 -0.0314  0.3324
  534MPD2    C4 7980   1.223   0.316   1.404 -0.3555 -0.5675  0.0326
  534MPD2    C5 7981   1.355   0.353   1.414 -0.2185  0.6014  0.3339
  534MPD2     H 7982   1.085   0.609   1.473  0.1241  1.7550 -0.0717
  534MPD2    H1 7983   1.202   0.215   1.371 -2.9161  0.0310 -0.1782
  534MPD2    H2 7984   1.499   0.496   1.465 -0.1359 -3.2830  0.1791
  534MPD2    H3 7985   1.433   0.281   1.391 -0.0806  1.2369 -1.1719
  534MPD2     N 7986   0.990   0.362   1.431  0.6924 -0.0329 -0.4064
  534MPD2    H5 7987   0.962   0.275   1.388  0.6109 -0.8023  1.1790
  534MPD2    N1 7988   1.322   0.699   1.550 -0.3182 -0.3406  0.5863
  534MPD2    H7 7989   1.239   0.753   1.569 -0.9495 -0.7487 -0.9938
  535TMC3    C1 7990   0.758   0.382   1.438 -0.0415 -0.4779  0.3136
  535TMC3    C2 7991   0.655   0.328   1.513  0.1816  0.7613 -0.3069
  535TMC3    C3 7992   0.543   0.275   1.452 -0.3218  0.8258 -0.5101
  535TMC3    C4 7993   0.748   0.384   1.300 -0.3645 -0.0397 -0.2711
  535TMC3    C5 7994   0.651   0.314   1.238  0.0633  0.2591 -0.1186
  535TMC3    C6 7995   0.548   0.271   1.314 -0.3058 -0.3997 -0.0964
  535TMC3     C 7996   0.884   0.425   1.495 -0.3009  0.2357 -0.2990
  535TMC3     O 7997   0.882   0.500   1.587  0.7731  0.2322 -0.3398
  535TMC3     H 7998   0.673   0.308   1.619  0.0082 -1.1431 -0.6286
  535TMC3    H1 7999   0.834   0.420   1.245 -1.0920 -0.5325 -1.7370
  535TMC3    H2 8000   0.463   0.242   1.254  0.5082 -0.7093 -1.0942
  535TMC3    C7 8001   0.604   0.376   1.114 -0.6560 -0.5867 -0.6527
  535TMC3    C8 8002   0.410   0.298   1.505  0.1994  0.3367 -0.0133
  535TMC3    O1 8003   0.546   0.297   1.041  0.7525  0.6814 -0.5636
  535TMC3    O2 8004   0.312   0.289   1.432 -0.0545  0.1775  0.3588
  536MPD2     C 8005   4.208   3.782  16.356  0.3332  0.7651 -0.5030
  536MPD2    C1 8006   4.114   3.689  16.380 -0.2533  0.9220  0.2923
  536MPD2    C2 8007   4.006   3.673  16.297 -0.1667 -0.5484 -0.1081
  536MPD2    C3 8008   3.998   3.749  16.181  0.2358 -0.1865 -0.2492
  536MPD2    C4 8009   4.090   3.849  16.154 -0.1081  0.4653  0.0249
  536MPD2    C5 8010   4.198   3.853  16.236 -0.0710  0.6256  0.1127
  536MPD2     H 8011   3.936   3.595  16.326  1.5627 -1.5865  1.2260
  536MPD2    H1 8012   4.091   3.910  16.064 -0.8583  0.1771 -0.1764
  536MPD2    H2 8013   4.295   3.795  16.420  0.5032 -0.5724 -0.4630
  536MPD2    H3 8014   4.274   3.924  16.204  0.0456  1.1801  1.5954
  536MPD2     N 8015   3.900   3.730  16.080  0.2340  0.0091  0.0728
  536MPD2    H5 8016   3.921   3.784  15.996 -0.7855 -0.9192 -0.7778
  536MPD2    N1 8017   4.128   3.617  16.507  0.1083 -0.0825  0.0623
  536MPD2    H7 8018   4.215   3.641  16.554  1.3124 -1.1270 -1.6260
  537TMC3    C1 8019   4.106   3.465  16.681  0.0173 -0.7389  0.2754
  537TMC3    C2 8020   4.135   3.562  16.779  0.2019  0.0591  0.1724
  537TMC3    C3 8021   4.143   3.525  16.911  0.1869 -0.7364  0.1955
  537TMC3    C4 8022   4.083   3.338  16.718  0.7806 -0.1750 -0.5253
  537TMC3    C5 8023   4.104   3.303  16.851  0.3063  0.1896  0.2158
  537TMC3    C6 8024   4.126   3.398  16.948  0.3193  0.6760  0.1612
  537TMC3     C 8025   4.049   3.517  16.558  0.1217  0.5639 -0.0675
  537TMC3     O 8026   3.955   3.453  16.515 -0.0265  0.1883  0.3983
  537TMC3     H 8027   4.156   3.663  16.747 -0.5894  0.1444 -0.0512
  537TMC3    H1 8028   4.052   3.264  16.645  1.0144 -1.9756  1.2060
  537TMC3    H2 8029   4.106   3.378  17.053 -0.8402  1.5766  0.1077
  537TMC3    C7 8030   4.053   3.178  16.907  1.3636  0.0978  0.1377
  537TMC3    C8 8031   4.149   3.629  17.011  0.2479 -0.2924  0.1457
  537TMC3    O1 8032   3.969   3.120  16.847 -0.1755 -0.3797  0.4157
  537TMC3    O2 8033   4.164   3.602  17.128  0.8916  0.0896  0.7251
  538TMC3    C1 8034   0.620   1.583  11.340  0.3996 -0.7726 -0.1881
  538TMC3    C2 8035   0.713   1.520  11.260  0.5222  0.4908 -0.1574
  538TMC3    C3 8036   0.714   1.546  11.125  0.3975 -0.6065  0.0081
  538TMC3    C4 8037   0.537   1.684  11.300 -0.2691  0.4214  0.1428
  538TMC3    C5 8038   0.545   1.711  11.164 -1.2238  0.1177 -0.9043
  538TMC3    C6 8039   0.636   1.651  11.074  0.1580 -0.3518  0.6830
  538TMC3     C 8040   0.639   1.570  11.476 -0.2381  0.0500 -0.2712
  538TMC3     O 8041   0.656   1.460  11.524  0.0003 -0.1326  0.5383
  538TMC3     H 8042   0.779   1.441  11.294 -0.3882 -0.8097 -1.4267
  538TMC3    H1 8043   0.456   1.721  11.363  0.2665  1.2916  0.3089
  538TMC3    H2 8044   0.635   1.677  10.968  2.4378 -1.0993  0.4841
  538TMC3    C7 8045   0.426   1.771  11.118  0.4258 -0.2788  0.3892
  538TMC3    C8 8046   0.842   1.515  11.059 -0.4006  0.3567 -0.0409
  538TMC3    O1 8047   0.326   1.747  11.179 -0.1473 -0.2499  0.0745
  538TMC3    O2 8048   0.938   1.486  11.124  0.3243 -0.2484 -0.9411
  539MPD2     C 8049   4.661   0.832  11.882  0.3007 -0.2452 -0.2628
  539MPD2    C1 8050   4.602   0.835  11.754 -0.0251  0.1664  0.3037
  539MPD2    C2 8051   4.561   0.955  11.696 -0.0083 -0.5104  0.8064
  539MPD2    C3 8052   4.583   1.066  11.770 -0.3605 -0.2202  0.9143
  539MPD2    C4 8053   4.628   1.061  11.897  0.1514  0.1682 -0.1420
  539MPD2    C5 8054   4.677   0.948  11.947 -0.1309  0.2393 -0.1397
  539MPD2     H 8055   4.497   0.951  11.609  1.2298  0.9969 -0.1675
  539MPD2    H1 8056   4.642   1.156  11.947  3.0520  0.4189 -1.4459
  539MPD2    H2 8057   4.702   0.748  11.936 -0.2631 -0.2573  0.1412
  539MPD2    H3 8058   4.714   0.943  12.049  3.6712  0.3227 -1.5122
  539MPD2     N 8059   4.547   1.198  11.726  0.0864 -0.3152 -0.4733
  539MPD2    H5 8060   4.551   1.277  11.790  2.4666 -2.5819  2.1738
  539MPD2    N1 8061   4.579   0.714  11.686  0.3346 -0.8120 -0.3911
  539MPD2    H7 8062   4.550   0.716  11.589 -2.6626 -0.9317  0.4969
  540TMC3    C1 8063   4.506   1.365  11.569 -0.4431  0.4174  0.5522
  540TMC3    C2 8064   4.506   1.420  11.441 -0.3806  0.0297  1.0666
  540TMC3    C3 8065   4.486   1.555  11.429 -0.9906  0.2210 -0.3104
  540TMC3    C4 8066   4.484   1.445  11.677 -0.4263 -0.1321 -0.0400
  540TMC3    C5 8067   4.479   1.578  11.656 -0.5097 -0.0729 -0.4921
  540TMC3    C6 8068   4.475   1.639  11.538 -0.5254  0.3152  0.1426
  540TMC3     C 8069   4.506   1.225  11.596  0.0995  0.0632 -0.0696
  540TMC3     O 8070   4.483   1.158  11.493 -0.1632 -0.1564  0.1660
  540TMC3     H 8071   4.504   1.352  11.356  0.3714  1.3571 -0.0043
  540TMC3    H1 8072   4.470   1.407  11.778 -0.2616 -3.2298 -1.1663
  540TMC3    H2 8073   4.469   1.748  11.535  1.1327  0.4594  1.7656
  540TMC3    C7 8074   4.427   1.645  11.773 -0.3479  0.4224 -0.4255
  540TMC3    C8 8075   4.491   1.607  11.290  0.2163 -0.1434 -0.7258
  540TMC3    O1 8076   4.345   1.580  11.832 -0.0407 -0.6244  0.5999
  540TMC3    O2 8077   4.486   1.727  11.272 -0.3762  0.0675 -0.2049
  541MPD2     C 8078   2.973   2.596  13.311  0.2770  0.3125  0.4717
  541MPD2    C1 8079   3.089   2.548  13.253 -0.0209 -1.3184 -0.7069
  541MPD2    C2 8080   3.125   2.604  13.130  0.6426 -0.5168 -0.3214
  541MPD2    C3 8081   3.041   2.698  13.069 -0.4418  0.0967 -0.2618
  541MPD2    C4 8082   2.929   2.735  13.130  0.0295  0.1164 -0.0173
  541MPD2    C5 8083   2.898   2.693  13.254 -0.0985 -0.6127 -0.2974
  541MPD2     H 8084   3.201   2.566  13.063 -0.4531 -0.4409 -1.6123
  541MPD2    H1 8085   2.858   2.801  13.080  0.5902  0.2386 -0.6404
  541MPD2    H2 8086   2.935   2.565  13.408 -0.1346  0.6160  0.4087
  541MPD2    H3 8087   2.803   2.719  13.300 -0.0637 -1.1706  0.0990
  541MPD2     N 8088   3.067   2.759  12.941 -0.2693 -0.5917 -0.3139
  541MPD2    H5 8089   2.983   2.804  12.907 -0.3765 -0.4295  0.1559
  541MPD2    N1 8090   3.158   2.440  13.317  0.4777 -0.1357  0.1262
  541MPD2    H7 8091   3.121   2.404  13.404 -1.6691  0.1458 -0.6646
  542TMC3    C1 8092   3.170   2.783  12.720 -0.3309  0.0588 -0.4579
  542TMC3    C2 8093   3.237   2.711  12.622 -0.2545 -0.4274  0.0258
  542TMC3    C3 8094   3.201   2.726  12.494  0.0868 -0.8968  0.2390
  542TMC3    C4 8095   3.074   2.882  12.701 -1.0125  0.3364  0.2164
  542TMC3    C5 8096   3.048   2.898  12.564  0.1337 -0.1826 -0.4688
  542TMC3    C6 8097   3.109   2.827  12.465 -0.0216  0.2153  0.0992
  542TMC3     C 8098   3.181   2.731  12.862 -0.4469 -0.2038 -0.0740
  542TMC3     O 8099   3.280   2.662  12.885 -0.0720  0.0719  0.3855
  542TMC3     H 8100   3.313   2.636  12.638 -1.2632 -1.3321  0.5743
  542TMC3    H1 8101   3.026   2.942  12.778  0.3963  1.0505  0.5399
  542TMC3    H2 8102   3.079   2.839  12.361  1.5241 -0.1056 -0.3855
  542TMC3    C7 8103   2.938   2.992  12.536  0.6974 -0.2709 -0.9498
  542TMC3    C8 8104   3.274   2.669  12.385 -0.3047  0.0733  0.8522
  542TMC3    O1 8105   2.898   3.062  12.629 -0.2842 -0.4175 -0.0563
  542TMC3    O2 8106   3.236   2.712  12.277  0.1402  0.6171  0.4668
  543TMC3    C1 8107   2.787   4.220  17.508  0.2066 -0.2219 -0.4499
  543TMC3    C2 8108   2.861   4.115  17.566  0.0366 -0.8131 -0.4079
  543TMC3    C3 8109   2.824   4.091  17.697  0.0822 -0.1434  0.0551
  543TMC3    C4 8110   2.681   4.275  17.571 -0.0236  0.3155 -0.5607
  543TMC3    C5 8111   2.656   4.247  17.699 -0.7805  0.2233 -0.3341
  543TMC3    C6 8112   2.728   4.156   0.043 -0.0214 -0.6604  0.0129
  543TMC3     C 8113   2.799   4.244  17.366  0.0547  0.1414 -0.0384
  543TMC3     O 8114   2.852   4.147  17.308  0.0829 -0.6486  0.0661
  543TMC3     H 8115   2.939   4.061  17.513 -0.3590 -1.4629 -0.3342
  543TMC3    H1 8116   2.607   4.322  17.508 -0.6865 -1.1518 -0.8843
  543TMC3    H2 8117   2.704   4.133   0.147 -0.2651  0.6543  0.2487
  543TMC3    C7 8118   2.540   4.310   0.034 -0.2036 -0.5752 -0.1512
  543TMC3    C8 8119   2.910   3.992   0.027  0.6756 -0.0212 -0.2681
  543TMC3    O1 8120   2.509   4.264   0.143 -0.2080 -0.4705  1.3016
  543TMC3    O2 8121   2.985   3.927  17.689 -0.2348  0.3306  0.1050
  544MPD2     C 8122   3.002   3.666   0.420  0.2836  0.6403  0.6177
  544MPD2    C1 8123   3.024   3.658   0.280  0.3025 -0.3526  0.2011
  544MPD2    C2 8124   2.981   3.754   0.197 -0.0010  0.1432  0.1883
  544MPD2    C3 8125   2.929   3.872   0.242 -0.4628 -0.2850 -0.5814
  544MPD2    C4 8126   2.908   3.882   0.378 -0.4362  0.2267 -0.4354
  544MPD2    C5 8127   2.955   3.790   0.467 -0.0399 -0.5227  0.4027
  544MPD2     H 8128   2.972   3.732   0.091 -0.8104 -1.6380  0.6231
  544MPD2    H1 8129   2.856   3.972   0.409  0.8640 -0.0051  2.4166
  544MPD2    H2 8130   3.007   3.585   0.492  2.0281  2.7650  2.9341
  544MPD2    H3 8131   2.957   3.813   0.573 -1.4101 -1.2280  0.5872
  544MPD2     N 8132   2.878   3.973   0.156  0.0205  0.0860 -0.1971
  544MPD2    H5 8133   2.838   4.058   0.195  1.1177  1.4852 -2.0905
  544MPD2    N1 8134   3.069   3.533   0.234  0.5494 -0.6324 -0.1734
  544MPD2    H7 8135   3.077   3.460   0.305 -0.3743 -0.5918 -0.0314
  545TMC3    C1 8136   3.126   3.371   0.074 -0.1060  0.3752  0.7179
  545TMC3    C2 8137   3.223   3.342  17.709 -0.2037  0.2670 -0.3761
  545TMC3    C3 8138   3.240   3.213  17.674 -0.5031  0.0005 -0.2272
  545TMC3    C4 8139   3.060   3.274   0.134 -0.5438 -0.6176 -0.2347
  545TMC3    C5 8140   3.098   3.148   0.112 -0.2440 -0.4362  0.4537
  545TMC3    C6 8141   3.186   3.111   0.008  0.7605  0.1160  0.6100
  545TMC3     C 8142   3.107   3.515   0.105  0.6876  0.2915  0.0191
  545TMC3     O 8143   3.140   3.600   0.022  0.6195  0.2150  0.0219
  545TMC3     H 8144   3.270   3.426  17.658  1.6095 -0.3708  0.2500
  545TMC3    H1 8145   2.982   3.289   0.208 -0.8221  2.5996 -1.1549
  545TMC3    H2 8146   3.204   3.005  17.725  0.4578 -0.0379  1.3701
  545TMC3    C7 8147   2.994   3.045   0.143 -0.0319 -0.1276  0.5535
  545TMC3    C8 8148   3.335   3.173  17.575  0.0094 -0.5881 -0.6760
  545TMC3    O1 8149   2.886   3.095   0.156 -0.0132  0.2601  0.0026
  545TMC3    O2 8150   3.354   3.053  17.568 -0.5310  0.6518  0.3362
  546MPD2     C 8151   4.338   4.170   0.048  0.1561  0.7376  0.2409
  546MPD2    C1 8152   4.273   4.228  17.682  0.4821  0.4618 -0.3365
  546MPD2    C2 8153   4.310   4.357  17.634  0.3131  0.2801 -0.0326
  546MPD2    C3 8154   4.418   4.416  17.696  0.0299 -0.3926  0.2777
  546MPD2    C4 8155   4.479   4.351   0.069  0.3640 -0.3998 -0.2641
  546MPD2    C5 8156   4.435   4.234   0.116 -0.4897  0.2217 -0.2900
  546MPD2     H 8157   4.265   4.410  17.551  3.6385  0.9146 -1.4493
  546MPD2    H1 8158   4.566   4.398   0.113 -0.1790  0.4216 -0.0637
  546MPD2    H2 8159   4.308   4.073   0.085 -0.4781  0.7789 -0.1599
  546MPD2    H3 8160   4.500   4.191   0.191 -0.5114  0.5951 -0.0561
  546MPD2     N 8161   4.480   4.535  17.652  0.0106 -0.3648  0.6308
  546MPD2    H5 8162   4.556   4.572  17.708  0.1617 -2.2375  1.6525
  546MPD2    N1 8163   4.163   4.164  17.623 -0.4554 -0.1336 -0.7400
  546MPD2    H7 8164   4.136   4.077  17.668 -2.2421 -0.1947 -1.9224
  547TMC3    C1 8165   3.976   4.106  17.489  0.1182  0.1400 -0.0587
  547TMC3    C2 8166   3.931   4.070  17.366 -0.1318  0.1059  0.4757
  547TMC3    C3 8167   3.843   3.966  17.345 -0.7673 -0.1652  0.1770
  547TMC3    C4 8168   3.930   4.033  17.599  0.3416  0.2522  0.3820
  547TMC3    C5 8169   3.839   3.931  17.577 -0.2894  0.0693  0.5945
  547TMC3    C6 8170   3.798   3.893  17.456 -0.4044  0.3584 -0.3731
  547TMC3     C 8171   4.091   4.193  17.506 -0.4258  0.5220  0.3377
  547TMC3     O 8172   4.121   4.259  17.405 -0.1635 -0.5203 -0.3109
  547TMC3     H 8173   3.974   4.106  17.273 -0.8100  3.2603  1.3588
  547TMC3    H1 8174   3.953   4.051  17.704 -1.6775 -0.9351  1.0221
  547TMC3    H2 8175   3.723   3.817  17.443  0.1442  0.1450 -2.3100
  547TMC3    C7 8176   3.847   3.814  17.667  0.6422  0.3890  0.7309
  547TMC3    C8 8177   3.764   3.969  17.217 -0.8249  0.3312 -0.3539
  547TMC3    O1 8178   3.825   3.702  17.620  0.0729 -0.1651  0.1944
  547TMC3    O2 8179   3.715   4.076  17.178  0.2526  0.1138  0.4365
  548MPD2     C 8180   3.732   4.462  12.466 -0.0044 -0.8859 -0.1078
  548MPD2    C1 8181   3.682   4.350  12.414  0.3291 -0.0685  0.6124
  548MPD2    C2 8182   3.763   4.239  12.397  1.0586 -0.0186 -0.2672
  548MPD2    C3 8183   3.895   4.233  12.447 -0.0216 -0.3889 -0.5332
  548MPD2    C4 8184   3.931   4.347  12.520 -0.4432 -0.0441 -0.5365
  548MPD2    C5 8185   3.858   4.462  12.520 -1.0070 -0.3240 -0.0566
  548MPD2     H 8186   3.726   4.149  12.349 -0.6635 -0.0139  1.0537
  548MPD2    H1 8187   4.028   4.358  12.569 -0.5099 -0.5526 -0.2839
  548MPD2    H2 8188   3.676   4.553  12.484  0.0053 -0.7642 -0.6706
  548MPD2    H3 8189   3.889   4.552  12.571 -1.8140 -0.0734 -0.0181
  548MPD2     N 8190   3.979   4.113  12.437  0.1029  0.3117  0.1821
  548MPD2    H5 8191   3.957   4.037  12.374 -0.9603  0.7701 -0.0097
  548MPD2    N1 8192   3.547   4.362  12.374  0.8602 -0.6148 -0.2989
  548MPD2    H7 8193   3.490   4.443  12.395  0.8253 -1.3742  2.6160
  549TMC3    C1 8194   3.332   4.295  12.317 -0.4107 -0.2064 -0.0251
  549TMC3    C2 8195   3.295   4.426  12.304  0.8103 -0.0911  0.5795
  549TMC3    C3 8196   3.163   4.457  12.290  0.0809  0.1643  0.3228
  549TMC3    C4 8197   3.237   4.191  12.330  0.1415  0.1053  0.2235
  549TMC3    C5 8198   3.108   4.231  12.317  0.1383  0.8153  0.1259
  549TMC3    C6 8199   3.066   4.360  12.297 -0.1652  0.7440  0.0818
  549TMC3     C 8200   3.470   4.256  12.322  0.5105  0.3506 -0.3547
  549TMC3     O 8201   3.500   4.146  12.279  0.3214 -0.3098 -0.2354
  549TMC3     H 8202   3.365   4.505  12.280  0.1466 -0.4645 -2.5741
  549TMC3    H1 8203   3.274   4.090  12.334 -0.7320 -0.1455  1.8565
  549TMC3    H2 8204   2.961   4.385  12.291 -0.7273 -1.2039  2.2547
  549TMC3    C7 8205   3.000   4.131  12.320 -0.0764  0.2172 -0.2531
  549TMC3    C8 8206   3.115   4.600  12.290  1.0103 -0.2853  0.2622
  549TMC3    O1 8207   2.894   4.157  12.270  0.1953  0.2693  0.0581
  549TMC3    O2 8208   3.003   4.613  12.242  1.0802 -0.4503  0.2493
  550TMC3    C1 8209   2.742   1.994  12.414  0.1404 -0.5555 -0.5555
  550TMC3    C2 8210   2.775   2.040  12.537  0.0702  0.0132 -0.1953
  550TMC3    C3 8211   2.698   2.141  12.588 -0.4534 -0.4228 -0.6916
  550TMC3    C4 8212   2.643   2.038  12.339  0.3654  0.4986 -0.0581
  550TMC3    C5 8213   2.582   2.155  12.380  0.4748  0.2382  0.1695
  550TMC3    C6 8214   2.604   2.205  12.507  0.0127 -0.3369 -0.2755
  550TMC3     C 8215   2.782   1.857  12.388  0.8845  0.2198  0.1433
  550TMC3     O 8216   2.811   1.785  12.480  0.4931 -0.4357 -0.4587
  550TMC3     H 8217   2.847   1.991  12.602  1.2581  1.0910 -0.6982
  550TMC3    H1 8218   2.604   1.989  12.251  1.9062 -1.0544  0.1323
  550TMC3    H2 8219   2.572   2.307  12.521 -1.3048 -0.7973  0.0263
  550TMC3    C7 8220   2.464   2.212  12.314  0.3304 -0.3698  0.3173
  550TMC3    C8 8221   2.700   2.161  12.730 -0.5442  0.4152 -1.0463
  550TMC3    O1 8222   2.388   2.286  12.371 -0.4197 -0.6763  0.0901
  550TMC3    O2 8223   2.798   2.126  12.795 -0.4747  0.0953 -0.4433
  551TMC3    C1 8224   0.151   0.581  13.272 -0.0509  0.5273  0.0044
  551TMC3    C2 8225   0.245   0.646  13.200 -0.3972 -0.4473  0.1987
  551TMC3    C3 8226   0.334   0.730  13.257  0.8336  0.0385  0.0089
  551TMC3    C4 8227   0.144   0.602  13.410 -0.1181 -0.3678 -0.3780
  551TMC3    C5 8228   0.234   0.679  13.473 -0.3281  0.1420  1.0315
  551TMC3    C6 8229   0.329   0.747  13.391  0.1444 -0.1394  0.7926
  551TMC3     C 8230   0.063   0.493  13.206 -0.9123  0.1713  0.8497
  551TMC3     O 8231   0.074   0.482  13.084  0.0044  0.1303  0.0694
  551TMC3     H 8232   0.262   0.630  13.094 -1.0409 -1.6445  0.2712
  551TMC3    H1 8233   0.070   0.553  13.472  1.7586 -0.5942  1.6995
  551TMC3    H2 8234   0.412   0.802  13.434  1.6760 -1.3512 -0.6193
  551TMC3    C7 8235   0.259   0.693  13.616 -0.6431  0.0252 -0.2670
  551TMC3    C8 8236   0.466   0.721  13.200 -0.0849 -0.1392  0.1293
  551TMC3    O1 8237   0.342   0.773  13.652 -0.1824 -0.6013  0.1626
  551TMC3    O2 8238   0.503   0.606  13.174  0.4831  0.6109  0.3838
  552MPD2     C 8239   2.731   2.503  14.237  0.0195 -0.4887  0.4626
  552MPD2    C1 8240   2.620   2.483  14.320 -0.0853 -0.3416  0.1175
  552MPD2    C2 8241   2.636   2.511  14.454  0.1222  0.8250 -0.8019
  552MPD2    C3 8242   2.744   2.573  14.510 -0.3301  0.4891 -0.1073
  552MPD2    C4 8243   2.851   2.595  14.426  0.5522  0.0381 -0.1590
  552MPD2    C5 8244   2.846   2.559  14.294  0.3451 -0.4106 -0.5956
  552MPD2     H 8245   2.553   2.481  14.517  1.1611 -1.4758 -0.5003
  552MPD2    H1 8246   2.935   2.656  14.457  1.2548  0.2111 -2.3727
  552MPD2    H2 8247   2.726   2.476  14.132  1.5753 -1.9789  0.7861
  552MPD2    H3 8248   2.928   2.577  14.226  0.2932 -1.4004 -0.9197
  552MPD2     N 8249   2.768   2.582  14.657 -0.1362 -0.2560  0.1268
  552MPD2    H5 8250   2.860   2.613  14.687  0.2792 -0.1489 -1.2434
  552MPD2    N1 8251   2.502   2.413  14.284 -0.6020  0.2208  0.2097
  552MPD2    H7 8252   2.431   2.407  14.356 -2.0737 -0.1735 -1.2931
  553TMC3    C1 8253   2.369   2.253  14.186 -0.0286 -0.5338 -0.2283
  553TMC3    C2 8254   2.314   2.192  14.070 -0.2409 -0.3239  0.3530
  553TMC3    C3 8255   2.233   2.081  14.092  0.3977  0.5325  0.6700
  553TMC3    C4 8256   2.327   2.221  14.315  0.2996  0.5804 -0.1174
  553TMC3    C5 8257   2.261   2.106  14.324  1.0161  0.0973 -0.2470
  553TMC3    C6 8258   2.215   2.028  14.215 -0.0176  0.3167  0.9711
  553TMC3     C 8259   2.481   2.343  14.166  1.3135  0.0583  0.2444
  553TMC3     O 8260   2.536   2.355  14.054 -0.2963 -0.1884  0.6212
  553TMC3     H 8261   2.361   2.213  13.975 -1.5439 -3.1706 -0.9059
  553TMC3    H1 8262   2.352   2.271  14.408  0.3024  1.9277 -0.8454
  553TMC3    H2 8263   2.151   1.942  14.227  1.4812 -1.2365 -2.1781
  553TMC3    C7 8264   2.287   2.032  14.441 -0.0531 -0.2320 -0.0558
  553TMC3    C8 8265   2.202   1.998  13.982  0.3820 -0.6723  0.3351
  553TMC3    O1 8266   2.196   1.991  14.507  0.5629  0.8312  0.1695
  553TMC3    O2 8267   2.285   1.990  13.890 -0.2119 -0.2346 -0.5568
  554TMC3    C1 8268   3.632   1.321  11.600  0.9303 -0.7886  0.6224
  554TMC3    C2 8269   3.571   1.330  11.478 -0.0361 -0.2506  0.7770
  554TMC3    C3 8270   3.633   1.401  11.379 -0.1463  0.0560  0.6015
  554TMC3    C4 8271   3.747   1.394  11.628 -0.2183 -0.8298 -0.3883
  554TMC3    C5 8272   3.798   1.473  11.529  0.4411  0.7264 -0.1187
  554TMC3    C6 8273   3.737   1.484  11.407 -0.0170  0.0695  0.1082
  554TMC3     C 8274   3.580   1.244  11.712 -0.6588 -0.1905 -0.1000
  554TMC3     O 8275   3.461   1.216  11.711 -0.3964 -0.1232 -0.4331
  554TMC3     H 8276   3.481   1.272  11.463  0.0157 -0.1715  0.1449
  554TMC3    H1 8277   3.784   1.415  11.727 -0.3498  0.0619 -0.5283
  554TMC3    H2 8278   3.774   1.563  11.342 -1.6995  1.0028  0.2797
  554TMC3    C7 8279   3.909   1.568  11.566 -0.2954  0.3933 -0.2077
  554TMC3    C8 8280   3.593   1.401  11.239  0.0397 -0.0116 -0.5007
  554TMC3    O1 8281   3.943   1.565  11.684  0.5225  0.2703 -0.2352
  554TMC3    O2 8282   3.669   1.459  11.161 -0.0073 -0.8864 -0.2891
  555TMC3    C1 8283   2.846   1.330  15.448 -0.9280 -0.1488 -0.4762
  555TMC3    C2 8284   2.839   1.367  15.579  0.6673 -0.1342  0.4020
  555TMC3    C3 8285   2.839   1.269  15.671  0.5908  0.7207 -0.1715
  555TMC3    C4 8286   2.841   1.197  15.411 -0.0122 -0.4826  0.5244
  555TMC3    C5 8287   2.850   1.103  15.512 -0.3782  0.2711  0.4438
  555TMC3    C6 8288   2.863   1.137  15.645  0.4296  0.1832 -0.0643
  555TMC3     C 8289   2.839   1.426  15.349  0.0921  0.1742 -0.6320
  555TMC3     O 8290   2.861   1.541  15.382 -0.1901 -0.2051 -0.2858
  555TMC3     H 8291   2.790   1.462  15.596  0.2291 -0.4698  1.0171
  555TMC3    H1 8292   2.852   1.164  15.309 -2.1230 -0.9983  0.4575
  555TMC3    H2 8293   2.857   1.070  15.730 -0.1788 -0.5851 -0.7055
  555TMC3    C7 8294   2.847   0.961  15.480  0.5306  0.0044  0.2872
  555TMC3    C8 8295   2.826   1.325  15.805 -0.4361  0.3910 -0.0664
  555TMC3    O1 8296   2.838   0.887  15.574  0.2185  0.2534 -0.0225
  555TMC3    O2 8297   2.773   1.437  15.811 -0.0812 -0.2163  0.3510
  556MPD2     C 8298   0.727   2.652  10.539  1.0061 -0.4028  0.5007
  556MPD2    C1 8299   0.783   2.560  10.622 -0.2317 -0.8489  0.0599
  556MPD2    C2 8300   0.827   2.442  10.573 -0.2827  0.2288  0.7888
  556MPD2    C3 8301   0.808   2.407  10.439  0.1408 -0.5652 -0.7512
  556MPD2    C4 8302   0.749   2.499  10.349 -0.4475  0.4652 -0.2836
  556MPD2    C5 8303   0.711   2.623  10.405 -0.4453 -0.0482  0.6428
  556MPD2     H 8304   0.880   2.381  10.644 -0.3760  0.9340  1.4667
  556MPD2    H1 8305   0.735   2.498  10.242  0.4776  0.1952 -0.4026
  556MPD2    H2 8306   0.709   2.755  10.567  0.3015 -0.8081  1.5653
  556MPD2    H3 8307   0.675   2.703  10.342 -1.8887 -0.8814  0.4131
  556MPD2     N 8308   0.855   2.285  10.400 -0.0349 -0.0583 -0.0044
  556MPD2    H5 8309   0.911   2.233  10.466  0.9272 -0.8027 -1.4176
  556MPD2    N1 8310   0.791   2.577  10.760 -0.4241 -0.7830  1.0322
  556MPD2    H7 8311   0.822   2.497  10.813 -1.7035 -2.1314 -0.2120
  557TMC3    C1 8312   0.884   2.098  10.252  0.1051  0.1215 -0.4555
  557TMC3    C2 8313   0.817   2.019  10.165  0.4934  0.1339  1.1000
  557TMC3    C3 8314   0.850   1.884  10.160  0.4870 -0.4160  0.6499
  557TMC3    C4 8315   0.983   2.047  10.333 -1.4027 -0.0746 -0.0200
  557TMC3    C5 8316   1.003   1.914  10.340 -0.1499  0.1263  0.4969
  557TMC3    C6 8317   0.934   1.828  10.258 -0.2790 -0.0589  0.5249
  557TMC3     C 8318   0.819   2.229  10.280 -0.3113  0.4693  0.0415
  557TMC3     O 8319   0.745   2.271  10.193  0.1553 -0.1768  0.1650
  557TMC3     H 8320   0.745   2.058  10.093 -0.2850 -1.2611  1.1345
  557TMC3    H1 8321   1.054   2.100  10.396 -1.2418 -0.3907  0.0689
  557TMC3    H2 8322   0.956   1.723  10.269 -1.1412 -0.3149 -0.1939
  557TMC3    C7 8323   1.062   1.862  10.461  0.5684 -0.2960  0.4824
  557TMC3    C8 8324   0.800   1.812  10.039  0.1731 -0.1089  0.4318
  557TMC3    O1 8325   1.167   1.911  10.501 -0.1296 -0.8520 -0.4468
  557TMC3    O2 8326   0.683   1.833  10.019 -0.4600  0.6123 -0.2106
  558TMC3    C1 8327   3.023   4.634  10.402 -0.1507  0.0295  0.4820
  558TMC3    C2 8328   2.956   4.539  10.474  0.0211  0.1838 -0.2813
  558TMC3    C3 8329   2.822   4.552  10.465  0.7490  0.5410 -0.1705
  558TMC3    C4 8330   2.971   4.710  10.305  0.1970  0.8169 -0.3946
  558TMC3    C5 8331   2.835   4.708  10.290 -0.0257  0.0089 -0.0187
  558TMC3    C6 8332   2.758   4.628  10.368  0.3661  0.5966  0.3768
  558TMC3     C 8333   3.144   4.683  10.472 -0.1199 -0.4240 -0.2562
  558TMC3     O 8334   3.156   4.668  10.595  0.8422  0.1381 -0.2879
  558TMC3     H 8335   3.003   4.485  10.555  1.2876  0.7443 -0.6257
  558TMC3    H1 8336   3.038   0.034  10.242 -0.9806  0.8850 -1.5749
  558TMC3    H2 8337   2.650   4.636  10.374  0.2236 -2.1164  1.0503
  558TMC3    C7 8338   2.790   4.727  10.150  0.1363 -0.0327 -0.7086
  558TMC3    C8 8339   2.764   4.583  10.596  0.2973  0.4946  0.7072
  558TMC3    O1 8340   2.836   0.077  10.076  0.4795 -0.0222 -0.5552
  558TMC3    O2 8341   2.643   4.602  10.612  0.1036 -0.6960 -0.0803
  559MPD2     C 8342   3.642   1.214  10.678 -0.6700 -0.3246 -0.5220
  559MPD2    C1 8343   3.567   1.143  10.764  0.5784 -0.5054 -0.1867
  559MPD2    C2 8344   3.624   1.125  10.894  0.0405  0.0217 -0.3264
  559MPD2    C3 8345   3.753   1.160  10.924 -0.7216  0.1138 -0.1886
  559MPD2    C4 8346   3.823   1.229  10.832 -0.1446 -0.3120 -0.7848
  559MPD2    C5 8347   3.766   1.251  10.707  0.9158 -0.1831 -0.6822
  559MPD2     H 8348   3.568   1.070  10.969  0.7125 -1.6399 -1.0537
  559MPD2    H1 8349   3.922   1.270  10.846 -0.5455  0.6766 -0.8247
  559MPD2    H2 8350   3.606   1.256  10.585 -3.7062  0.2140  0.9078
  559MPD2    H3 8351   3.829   1.315  10.647  0.9143  0.0826 -0.3981
  559MPD2     N 8352   3.802   1.121  11.054 -0.0910 -0.4212  0.0333
  559MPD2    H5 8353   3.741   1.058  11.105 -1.3428  0.0598 -0.8809
  559MPD2    N1 8354   3.428   1.113  10.736  0.0745 -0.2405  0.3692
  559MPD2    H7 8355   3.374   1.071  10.811 -0.9958 -1.0272 -0.8363
  560TMC3    C1 8356   3.977   1.027  11.185  0.0062 -0.3924 -0.2352
  560TMC3    C2 8357   3.900   0.918  11.204 -0.4422  0.6032  0.6936
  560TMC3    C3 8358   3.948   0.820  11.279 -0.1121  0.0269 -0.5553
  560TMC3    C4 8359   4.107   1.037  11.226  0.3578 -0.1939  0.0807
  560TMC3    C5 8360   4.150   0.929  11.305  0.2562 -0.4139  1.3066
  560TMC3    C6 8361   4.069   0.821  11.339  0.5013 -0.2797  0.0353
  560TMC3     C 8362   3.935   1.130  11.088 -0.2859  0.4232 -0.1052
  560TMC3     O 8363   4.017   1.213  11.052  0.8587  0.3451  0.4032
  560TMC3     H 8364   3.797   0.917  11.171  0.0946 -1.5235 -0.8842
  560TMC3    H1 8365   4.161   1.127  11.198 -0.1011  0.8690  2.7076
  560TMC3    H2 8366   4.128   0.732  11.354 -1.6435 -1.6357  0.3997
  560TMC3    C7 8367   4.290   0.902  11.329  0.8817 -0.0250 -0.1029
  560TMC3    C8 8368   3.861   0.707  11.307 -0.6335 -0.0410 -0.1684
  560TMC3    O1 8369   4.307   0.837  11.432 -0.0206 -0.6613  0.2470
  560TMC3    O2 8370   3.754   0.695  11.253 -0.4894  0.0372  0.1044
  561TMC3    C1 8371   1.581   4.611  11.099  0.0199  0.1729  0.0746
  561TMC3    C2 8372   1.557   4.533  11.207 -0.7935 -0.6433  0.3245
  561TMC3    C3 8373   1.539   4.586  11.332 -0.0426  0.1642  0.0485
  561TMC3    C4 8374   1.586   0.014  11.112 -0.0101  0.3472 -0.3703
  561TMC3    C5 8375   1.589   0.064  11.237  0.0789 -0.2645 -0.4275
  561TMC3    C6 8376   1.556   4.717  11.348  0.3548  0.4008 -0.7660
  561TMC3     C 8377   1.636   4.563  10.977 -0.1481 -0.1615 -0.3207
  561TMC3     O 8378   1.618   4.627  10.877 -0.3975 -0.2754 -0.3673
  561TMC3     H 8379   1.531   4.429  11.188 -2.4717 -0.1311 -0.1933
  561TMC3    H1 8380   1.592   0.072  11.021 -1.0625  1.1525  0.0710
  561TMC3    H2 8381   1.541   0.031  11.444  0.5856 -0.4921 -0.2985
  561TMC3    C7 8382   1.567   0.207  11.243  0.2289 -0.0436  0.3481
  561TMC3    C8 8383   1.491   4.505  11.436  0.0616  0.1864 -0.1763
  561TMC3    O1 8384   1.506   0.250  11.339  0.5333  0.2742 -0.0329
  561TMC3    O2 8385   1.471   4.389  11.403  1.1134  0.6775 -0.4888
  562TMC3    C1 8386   2.843   1.525  16.770 -0.8554  0.7053 -0.3197
  562TMC3    C2 8387   2.832   1.655  16.752  0.7219  0.2068  0.0296
  562TMC3    C3 8388   2.760   1.700  16.649 -0.1010  0.5809  0.5751
  562TMC3    C4 8389   2.772   1.433  16.698  0.0761  0.4923 -0.8672
  562TMC3    C5 8390   2.692   1.479  16.590  0.7753 -0.0959 -0.5013
  562TMC3    C6 8391   2.692   1.612  16.564  0.2885 -1.1129 -0.4248
  562TMC3     C 8392   2.944   1.479  16.862 -0.1361  0.5453  0.5862
  562TMC3     O 8393   3.029   1.569  16.882 -0.5934 -0.7943 -0.0993
  562TMC3     H 8394   2.872   1.725  16.825 -0.6255  0.9474  0.0478
  562TMC3    H1 8395   2.797   1.332  16.730  2.0902  0.2160 -3.3269
  562TMC3    H2 8396   2.632   1.651  16.483  0.6053 -0.2334 -0.2294
  562TMC3    C7 8397   2.627   1.387  16.503 -0.5599  0.6167  0.4186
  562TMC3    C8 8398   2.747   1.847  16.647 -0.5906  0.2426 -0.4242
  562TMC3    O1 8399   2.566   1.439  16.410  0.3977 -0.4015 -0.5580
  562TMC3    O2 8400   2.767   1.909  16.751 -0.0333  0.5654  0.1875
  563MPD2     C 8401   0.423   2.837  15.855 -0.0699  0.9599  0.5086
  563MPD2    C1 8402   0.476   2.900  15.968 -0.3185 -0.1673  0.1503
  563MPD2    C2 8403   0.617   2.890  15.995 -0.3078  0.7155 -0.0084
  563MPD2    C3 8404   0.694   2.814  15.912  0.6133 -0.3367  0.3875
  563MPD2    C4 8405   0.643   2.756  15.798  0.3233 -0.5475 -0.4461
  563MPD2    C5 8406   0.505   2.774  15.764  0.6474 -0.7087 -0.5603
  563MPD2     H 8407   0.657   2.925  16.089  0.4140 -0.4165  0.1006
  563MPD2    H1 8408   0.697   2.679  15.745 -1.0053 -1.1614 -0.9171
  563MPD2    H2 8409   0.318   2.825  15.832  0.5422 -1.5676 -1.0069
  563MPD2    H3 8410   0.463   2.716  15.683  1.8846 -1.3260 -0.7649
  563MPD2     N 8411   0.824   2.788  15.955 -0.4892  0.3722  0.0889
  563MPD2    H5 8412   0.858   2.841  16.035  2.6119  1.4114 -1.9253
  563MPD2    N1 8413   0.401   2.976  16.060 -0.1782 -0.3619  0.2487
  563MPD2    H7 8414   0.447   3.008  16.145 -1.5927  1.8454  0.1811
  564TMC3    C1 8415   0.210   2.986  16.201 -0.0908 -0.2697 -0.1758
  564TMC3    C2 8416   0.100   2.913  16.191 -0.4360  0.2416 -0.0193
  564TMC3    C3 8417   0.092   2.800  16.272  0.5418  0.5455 -0.2482
  564TMC3    C4 8418   0.306   2.960  16.291  0.4420  0.0939 -0.2443
  564TMC3    C5 8419   0.289   2.852  16.373 -0.0402 -0.2577 -0.4199
  564TMC3    C6 8420   0.181   2.776  16.371 -0.5560  0.1752  0.0342
  564TMC3     C 8421   0.262   2.989  16.065  0.0317  0.6657  0.5266
  564TMC3     O 8422   0.183   2.981  15.977  0.2501 -0.0077 -0.7843
  564TMC3     H 8423   0.016   2.937  16.127 -1.6034 -0.8343  1.1026
  564TMC3    H1 8424   0.398   3.016  16.305  0.9678 -0.7213 -0.4447
  564TMC3    H2 8425   0.182   2.684  16.428  0.7264  0.0441 -0.1910
  564TMC3    C7 8426   0.416   2.783  16.397 -0.2406 -0.0707  0.3477
  564TMC3    C8 8427   0.074   2.677  16.195  0.2503  0.3261 -0.0894
  564TMC3    O1 8428   0.512   2.844  16.449  0.4774 -0.1502 -0.1478
  564TMC3    O2 8429   0.059   2.576  16.257 -0.5229 -0.3308  0.9118
  565TMC3    C1 8430   0.628   3.596  10.566  0.1048 -0.2302 -0.1311
  565TMC3    C2 8431   0.661   3.544  10.689  0.4437  0.1150  0.9811
  565TMC3    C3 8432   0.609   3.424  10.724 -0.1210 -0.0528  0.0199
  565TMC3    C4 8433   0.549   3.533  10.472 -0.0025 -0.1265  0.4442
  565TMC3    C5 8434   0.492   3.416  10.521 -0.4474 -0.1963  0.0212
  565TMC3    C6 8435   0.527   3.353  10.644 -0.0471  0.7110  0.1731
  565TMC3     C 8436   0.681   3.731  10.528 -0.8036  0.3924  0.3787
  565TMC3     O 8437   0.641   3.785  10.423  0.4772 -0.1907 -0.1030
  565TMC3     H 8438   0.736   3.594  10.748  1.3502 -0.1404  0.0518
  565TMC3    H1 8439   0.525   3.564  10.371 -0.7513 -0.1975  0.5982
  565TMC3    H2 8440   0.461   3.276  10.683  0.2622 -1.1782 -2.9668
  565TMC3    C7 8441   0.448   3.314  10.422  0.0038  0.0854  0.7334
  565TMC3    C8 8442   0.638   3.376  10.865 -0.7272  0.6096 -0.1257
  565TMC3    O1 8443   0.454   3.197  10.453 -0.4578  0.4950 -0.0103
  565TMC3    O2 8444   0.682   3.465  10.939  0.2780 -0.4754 -0.1263
  566MPD2     C 8445   2.818   0.318  13.911  0.5356  0.2863  0.3258
  566MPD2    C1 8446   2.740   0.433  13.942 -0.2214  0.0256  0.2011
  566MPD2    C2 8447   2.601   0.439  13.922 -0.3219  0.8583 -0.1421
  566MPD2    C3 8448   2.543   0.330  13.858  0.0742  0.3991  0.2955
  566MPD2    C4 8449   2.613   0.217  13.829 -0.0187  0.0801 -0.0904
  566MPD2    C5 8450   2.745   0.213  13.860  0.2655  0.5573  0.0325
  566MPD2     H 8451   2.549   0.529  13.954 -1.5389  0.9591 -2.3891
  566MPD2    H1 8452   2.569   0.132  13.778 -1.4662 -0.5568  2.2051
  566MPD2    H2 8453   2.924   0.311  13.931  1.2272  0.1870 -3.2438
  566MPD2    H3 8454   2.800   0.122  13.837 -0.8305 -0.1146  0.1070
  566MPD2     N 8455   2.404   0.346  13.824  0.0462  0.0266  0.2468
  566MPD2    H5 8456   2.368   0.440  13.835 -2.7000 -1.0289  0.0799
  566MPD2    N1 8457   2.816   0.537  13.993 -0.3553  0.4933  0.4388
  566MPD2    H7 8458   2.913   0.508  13.997 -0.3003  0.4611 -1.2709
  567TMC3    C1 8459   2.878   0.743  14.029  0.0130  0.4705 -0.4873
  567TMC3    C2 8460   2.902   0.787  13.903 -0.3613  0.3900  1.0101
  567TMC3    C3 8461   2.973   0.903  13.883 -0.3821 -0.7350  0.3556
  567TMC3    C4 8462   2.916   0.820  14.136  0.2281 -0.6654  0.2753
  567TMC3    C5 8463   2.986   0.933  14.115  0.0702 -0.1055  0.3062
  567TMC3    C6 8464   3.010   0.986  13.993 -0.1264  0.4796 -0.1602
  567TMC3     C 8465   2.774   0.650  14.051  0.3182  0.6171  0.8634
  567TMC3     O 8466   2.663   0.694  14.075  0.4974  0.8149 -0.5013
  567TMC3     H 8467   2.851   0.731  13.826  1.9577 -2.0983  1.2816
  567TMC3    H1 8468   2.879   0.789  14.233 -1.1747 -1.1585 -0.4202
  567TMC3    H2 8469   3.075   1.071  13.974  1.3176 -0.3933  0.7927
  567TMC3    C7 8470   3.029   1.010  14.225 -0.4236  0.4067 -0.0269
  567TMC3    C8 8471   2.971   0.958  13.748  0.2363  0.9944 -0.0740
  567TMC3    O1 8472   3.087   1.119  14.206  0.5090  0.3292  1.1134
  567TMC3    O2 8473   2.980   1.076  13.724  0.0223  0.0341 -0.0670
  568MPD2     C 8474   0.184   1.360  16.472  0.1787  0.5736  0.1484
  568MPD2    C1 8475   0.300   1.417  16.522  0.5514 -0.5084  0.0068
  568MPD2    C2 8476   0.363   1.520  16.457 -0.1331 -0.1430  0.6081
  568MPD2    C3 8477   0.299   1.577  16.348 -0.2717  0.0761  0.0871
  568MPD2    C4 8478   0.179   1.522  16.308 -0.1761 -0.1046 -0.3236
  568MPD2    C5 8479   0.126   1.415  16.368 -0.2196 -0.0671 -0.1039
  568MPD2     H 8480   0.453   1.565  16.496  0.9800 -1.7824 -0.0830
  568MPD2    H1 8481   0.126   1.554  16.219 -1.7979 -0.4767  0.5153
  568MPD2    H2 8482   0.133   1.273  16.512  0.3515 -0.3462 -1.6380
  568MPD2    H3 8483   0.032   1.370  16.340  1.1261 -2.5012 -0.6243
  568MPD2     N 8484   0.360   1.678  16.278  0.0218 -0.4303 -0.3349
  568MPD2    H5 8485   0.453   1.706  16.309  0.2885 -0.7795 -0.8270
  568MPD2    N1 8486   0.351   1.360  16.639 -0.4100  0.0932 -0.1568
  568MPD2    H7 8487   0.298   1.282  16.676  2.8200 -1.3409  1.5223
  569TMC3    C1 8488   0.379   1.879  16.165 -0.6769 -0.7620 -0.5962
  569TMC3    C2 8489   0.412   1.946  16.274 -0.3202  0.2221 -0.3933
  569TMC3    C3 8490   0.457   2.070  16.269  0.4685  0.0551 -0.0970
  569TMC3    C4 8491   0.365   1.949  16.049 -0.7574 -0.0664 -0.0924
  569TMC3    C5 8492   0.419   2.069  16.038 -1.0383 -0.1966 -0.1133
  569TMC3    C6 8493   0.472   2.131  16.147 -0.4343 -0.0885  0.0397
  569TMC3     C 8494   0.308   1.754  16.179 -0.5370  0.0921 -0.2963
  569TMC3     O 8495   0.198   1.752  16.122 -0.2075 -0.0652  0.2807
  569TMC3     H 8496   0.374   1.913  16.371 -1.7413  2.0213 -0.3374
  569TMC3    H1 8497   0.308   1.916  15.962  0.0886  1.6164 -1.2898
  569TMC3    H2 8498   0.526   2.224  16.132  1.2703 -0.8230  1.6048
  569TMC3    C7 8499   0.356   2.154  15.943  0.0451 -1.0497 -0.0318
  569TMC3    C8 8500   0.383   2.169  16.343  0.2048 -0.1093  0.2561
  569TMC3    O1 8501   0.370   2.122  15.827 -0.3126 -0.0787  0.2307
  569TMC3    O2 8502   0.279   2.210  16.285  0.2841 -0.0755 -0.2309
  570TMC3    C1 8503   4.208   0.224  16.483  0.2391 -0.4802  0.0721
  570TMC3    C2 8504   4.278   0.248  16.366 -0.4294  0.4931  0.0861
  570TMC3    C3 8505   4.324   0.375  16.357  0.1419 -0.3764 -1.2946
  570TMC3    C4 8506   4.165   0.327  16.568  0.2400 -0.1879  0.1015
  570TMC3    C5 8507   4.218   0.456  16.542 -0.4252  0.4788  0.2807
  570TMC3    C6 8508   4.307   0.478  16.442  0.1523 -0.6919 -0.0876
  570TMC3     C 8509   4.187   0.084  16.523  0.4842 -0.1339 -0.2193
  570TMC3     O 8510   4.185   4.727  16.435  0.0140 -0.0014 -0.4205
  570TMC3     H 8511   4.315   0.161  16.312  1.0541  1.1123  0.1068
  570TMC3    H1 8512   4.103   0.304  16.654 -1.0961 -0.4391 -0.9239
  570TMC3    H2 8513   4.345   0.579  16.431  1.7850 -1.3772 -0.5439
  570TMC3    C7 8514   4.218   0.550  16.651 -0.7956 -0.1858 -0.7683
  570TMC3    C8 8515   4.401   0.420  16.239 -0.6882 -0.9188 -0.5468
  570TMC3    O1 8516   4.304   0.639  16.656  0.1068 -0.8102 -0.1999
  570TMC3    O2 8517   4.483   0.507  16.252  0.2430 -0.7887  0.0189
  571MPD2     C 8518   2.191   2.182  17.542 -0.2705  0.7979 -0.5175
  571MPD2    C1 8519   2.100   2.250  17.623  0.1459  0.2623 -0.1998
  571MPD2    C2 8520   2.145   2.336  17.724  0.5214 -0.4090  0.3491
  571MPD2    C3 8521   2.280   2.357   0.008  0.2764  0.8961  0.1820
  571MPD2    C4 8522   2.368   2.291  17.660 -0.7945 -0.2120 -0.2110
  571MPD2    C5 8523   2.322   2.207  17.564  0.2355 -0.0660 -1.1887
  571MPD2     H 8524   2.077   2.387   0.058 -0.3521 -1.0413 -0.0718
  571MPD2    H1 8525   2.474   2.314  17.665 -0.8023 -0.9823  3.2222
  571MPD2    H2 8526   2.170   2.095  17.481 -0.7317  1.0826 -0.7692
  571MPD2    H3 8527   2.385   2.149  17.497  1.5455  0.5670 -0.5031
  571MPD2     N 8528   2.319   2.431   0.120  0.1959  0.3694 -0.0216
  571MPD2    H5 8529   2.240   2.482   0.159  0.4129  1.0983 -0.5439
  571MPD2    N1 8530   1.965   2.214  17.618  0.8792 -0.1866 -0.3535
  571MPD2    H7 8531   1.939   2.149  17.544 -2.4980 -0.2731  0.8779
  572TMC3    C1 8532   2.453   2.536   0.289 -0.3747 -0.1053 -0.0142
  572TMC3    C2 8533   2.553   2.503   0.378  0.7749  0.6073 -0.8698
  572TMC3    C3 8534   2.598   2.605   0.451  0.5145 -0.4881  0.0468
  572TMC3    C4 8535   2.392   2.654   0.275  0.8011  0.9417  0.0781
  572TMC3    C5 8536   2.444   2.749   0.355  0.5717  0.0878  0.9983
  572TMC3    C6 8537   2.536   2.728   0.451 -0.3630  0.6291  0.6663
  572TMC3     C 8538   2.441   2.456   0.170 -0.6548  0.0053  0.2085
  572TMC3     O 8539   2.541   2.393   0.147 -0.6024  0.5888 -0.1985
  572TMC3     H 8540   2.621   2.419   0.370  0.7084  0.3293  1.2868
  572TMC3    H1 8541   2.324   2.676   0.193  2.4466  0.6090 -1.3756
  572TMC3    H2 8542   2.569   2.808   0.516  2.3966  0.1836 -0.1498
  572TMC3    C7 8543   2.383   2.873   0.341 -0.5808 -0.2999 -0.7401
  572TMC3    C8 8544   2.694   2.587   0.561 -0.1971  0.2099  0.1662
  572TMC3    O1 8545   2.335   2.909   0.234 -0.3677  0.3342 -0.1144
  572TMC3    O2 8546   2.759   2.682   0.601 -0.0423 -0.0627  0.5440
  573MPD2     C 8547   3.507   2.390   1.155  0.6588 -0.3093 -0.1909
  573MPD2    C1 8548   3.525   2.453   1.036  0.7667  0.7133 -0.4192
  573MPD2    C2 8549   3.475   2.399   0.921  0.3253 -0.6386 -0.4475
  573MPD2    C3 8550   3.386   2.290   0.931 -0.1552 -0.4247 -0.5397
  573MPD2    C4 8551   3.358   2.233   1.053  0.7677 -0.3438 -0.1445
  573MPD2    C5 8552   3.423   2.279   1.162  0.0985 -0.7337 -0.2149
  573MPD2     H 8553   3.502   2.448   0.828  1.0260  0.7957  0.5023
  573MPD2    H1 8554   3.285   2.154   1.061  2.2393 -1.6845 -0.1265
  573MPD2    H2 8555   3.557   2.429   1.242 -0.0250  1.3799 -0.5624
  573MPD2    H3 8556   3.419   2.230   1.259 -1.3415  0.7397  0.4536
  573MPD2     N 8557   3.307   2.241   0.815  0.2217  0.5259  0.3996
  573MPD2    H5 8558   3.237   2.168   0.826  2.1752 -0.8587  3.8525
  573MPD2    N1 8559   3.612   2.563   1.029  0.0198 -0.3700 -0.2706
  573MPD2    H7 8560   3.657   2.584   1.117  1.0990  0.4671 -1.0064
  574TMC3    C1 8561   3.197   2.236   0.618  0.3195  0.9255  0.0628
  574TMC3    C2 8562   3.147   2.306   0.516 -0.1228  0.1887 -1.0683
  574TMC3    C3 8563   3.020   2.280   0.466 -0.8491 -0.1320 -0.2309
  574TMC3    C4 8564   3.122   2.134   0.681 -0.9191  0.2433 -0.0383
  574TMC3    C5 8565   2.999   2.111   0.636 -0.5012 -0.0954  0.7050
  574TMC3    C6 8566   2.946   2.189   0.540  0.2202 -0.5446  0.9911
  574TMC3     C 8567   3.301   2.301   0.695 -0.0540  0.3483 -0.6128
  574TMC3     O 8568   3.342   2.414   0.660  0.0066  0.2773 -0.4192
  574TMC3     H 8569   3.212   2.383   0.477  0.0029 -0.1644 -1.5463
  574TMC3    H1 8570   3.166   2.061   0.748  1.7865  1.6584 -0.2575
  574TMC3    H2 8571   2.847   2.171   0.501  1.6087  0.2355 -2.8788
  574TMC3    C7 8572   2.919   2.012   0.704  0.6594  0.2116 -0.4961
  574TMC3    C8 8573   2.945   2.361   0.374  0.6915  0.2532 -0.0659
  574TMC3    O1 8574   2.973   1.988   0.811  0.4880  0.1871  0.4564
  574TMC3    O2 8575   2.829   2.334   0.352 -0.1376 -0.2671 -0.1967
  575TMC3    C1 8576   1.160   3.436  11.516  0.5841  0.5813 -0.1666
  575TMC3    C2 8577   1.110   3.449  11.639 -0.1641 -0.0270  0.1112
  575TMC3    C3 8578   0.978   3.403  11.655 -0.2653 -0.6373 -0.0064
  575TMC3    C4 8579   1.095   3.371  11.413  0.8493  0.0271  0.0600
  575TMC3    C5 8580   0.971   3.326  11.434 -0.2820  0.0387 -0.0717
  575TMC3    C6 8581   0.907   3.342  11.553 -0.1140  0.2049 -1.0189
  575TMC3     C 8582   1.302   3.464  11.508  0.3559 -0.3374 -0.1555
  575TMC3     O 8583   1.357   3.482  11.615  0.5272  0.5537 -0.1810
  575TMC3     H 8584   1.160   3.492  11.725 -0.6710  0.0656  0.3616
  575TMC3    H1 8585   1.147   3.361  11.318  1.6218 -1.1001  0.5999
  575TMC3    H2 8586   0.810   3.299  11.572  0.2366 -1.0267 -2.0279
  575TMC3    C7 8587   0.903   3.310  11.315 -0.5081  0.0348  0.0868
  575TMC3    C8 8588   0.911   3.414  11.780 -0.1991  0.2732  0.1317
  575TMC3    O1 8589   0.927   3.390  11.223 -0.2764  0.7121  0.3116
  575TMC3    O2 8590   0.821   3.335  11.802  0.2773 -0.1216  0.3459
  576MPD2     C 8591   0.593   0.092  12.549 -0.4216  0.1228 -0.1169
  576MPD2    C1 8592   0.633   0.186  12.457  0.5436 -0.3581 -0.9437
  576MPD2    C2 8593   0.620   0.318  12.486  0.0687 -0.1686  0.3619
  576MPD2    C3 8594   0.567   0.364  12.606  0.4004 -0.0510 -0.0194
  576MPD2    C4 8595   0.528   0.268  12.693 -0.0780 -0.1973 -0.1234
  576MPD2    C5 8596   0.541   0.133  12.667 -0.4678 -0.2153 -0.4740
  576MPD2     H 8597   0.658   0.388  12.412  1.0228 -0.3140  0.7091
  576MPD2    H1 8598   0.492   0.281  12.794  0.6466 -1.5632  0.3157
  576MPD2    H2 8599   0.595   4.718  12.532 -0.3610  0.2070 -0.6373
  576MPD2    H3 8600   0.529   0.063  12.749 -0.7411 -2.2635 -2.2593
  576MPD2     N 8601   0.574   0.503  12.638  0.5104  0.1131 -0.8414
  576MPD2    H5 8602   0.627   0.564  12.577  1.5996  1.7313  1.7284
  576MPD2    N1 8603   0.678   0.145  12.330  0.3931  0.1440 -0.0891
  576MPD2    H7 8604   0.699   0.226  12.272  1.8738  0.2098  0.5265
  577TMC3    C1 8605   0.788   0.014  12.172 -0.2788 -0.2153 -0.5710
  577TMC3    C2 8606   0.908   4.683  12.165 -0.2317 -0.4507 -0.3971
  577TMC3    C3 8607   0.979   4.696  12.049 -0.0336  0.4746 -0.8783
  577TMC3    C4 8608   0.738   0.091  12.064  0.3685 -1.0486 -0.3014
  577TMC3    C5 8609   0.815   0.100  11.955 -0.1194  0.0256  0.4903
  577TMC3    C6 8610   0.935   0.037  11.941 -0.0244  0.1183  0.2419
  577TMC3     C 8611   0.725   0.022  12.297 -0.5417  0.3484 -0.3646
  577TMC3     O 8612   0.760   4.675  12.379  0.1920 -0.4178  0.1445
  577TMC3     H 8613   0.932   4.614  12.245  0.5956 -1.0734 -1.1755
  577TMC3    H1 8614   0.652   0.154  12.079  0.0992 -1.1500 -1.4800
  577TMC3    H2 8615   0.982   0.028  11.844 -1.0910 -2.7522 -0.0038
  577TMC3    C7 8616   0.772   0.178  11.843 -0.2972 -0.0429  0.3421
  577TMC3    C8 8617   1.091   4.601  12.033  0.0818 -0.9594  0.5222
  577TMC3    O1 8618   0.862   0.235  11.786  0.1294  0.0858  0.3464
  577TMC3    O2 8619   1.081   4.500  12.101 -0.4895 -0.3197  0.5213
  578MPD2     C 8620   3.604   0.645   1.665  0.1293 -0.7325 -0.5248
  578MPD2    C1 8621   3.663   0.576   1.558  0.1367 -0.8162 -0.2290
  578MPD2    C2 8622   3.784   0.524   1.576 -0.3230  0.1057 -0.2203
  578MPD2    C3 8623   3.852   0.541   1.691  0.2878  0.0953 -0.5560
  578MPD2    C4 8624   3.803   0.620   1.798  0.7657 -0.1121 -0.3841
  578MPD2    C5 8625   3.670   0.661   1.781 -0.3489 -0.4769 -0.3797
  578MPD2     H 8626   3.830   0.474   1.492  0.0445 -0.0730  0.0855
  578MPD2    H1 8627   3.846   0.633   1.897  1.4925 -0.2640 -0.6800
  578MPD2    H2 8628   3.508   0.694   1.654  0.8892  1.2739  1.8842
  578MPD2    H3 8629   3.628   0.717   1.863  0.8508  0.1730 -0.2145
  578MPD2     N 8630   3.975   0.480   1.691  0.5671 -0.4346 -0.1690
  578MPD2    H5 8631   4.003   0.419   1.615 -1.2851  0.6212 -1.6836
  578MPD2    N1 8632   3.581   0.556   1.442  0.9172  0.2149  0.0290
  578MPD2    H7 8633   3.485   0.589   1.442  1.0793  0.6811 -1.3482
  579TMC3    C1 8634   4.205   0.440   1.731  0.4276  0.9493  0.0181
  579TMC3    C2 8635   4.326   0.506   1.758 -0.0321 -0.3436  0.3870
  579TMC3    C3 8636   4.444   0.443   1.712  0.2998  0.0069 -0.1892
  579TMC3    C4 8637   4.202   0.332   1.655 -0.4573 -0.1855 -0.6716
  579TMC3    C5 8638   4.322   0.271   1.624 -0.2301  0.4376  0.0944
  579TMC3    C6 8639   4.443   0.315   1.663  0.8734  0.1520 -0.3921
  579TMC3     C 8640   4.079   0.503   1.778 -0.2331  0.1346  0.3340
  579TMC3     O 8641   4.081   0.583   1.869  0.3626 -0.1872  0.0028
  579TMC3     H 8642   4.337   0.594   1.820 -0.3395  0.5831 -0.8639
  579TMC3    H1 8643   4.110   0.277   1.641 -0.1133 -0.6113 -1.2553
  579TMC3    H2 8644   4.525   0.251   1.633  0.2805 -0.9536  0.3380
  579TMC3    C7 8645   4.317   0.135   1.561 -0.7277 -0.1683 -0.0699
  579TMC3    C8 8646   4.571   0.501   1.750 -0.4314  0.0996  0.6987
  579TMC3    O1 8647   4.416   0.060   1.568  0.4447  0.0061 -0.3742
  579TMC3    O2 8648   4.563   0.580   1.841  0.3435 -0.8449 -0.1351
  580TMC3    C1 8649   2.725   3.717  11.964 -0.2556 -0.5284 -0.4824
  580TMC3    C2 8650   2.720   3.669  11.833 -0.6494 -0.3614 -0.0498
  580TMC3    C3 8651   2.782   3.552  11.803  0.4126  0.3424 -0.2434
  580TMC3    C4 8652   2.752   3.632  12.065 -0.3277  0.1294 -0.4912
  580TMC3    C5 8653   2.807   3.512  12.034  0.5856  0.6329 -0.3984
  580TMC3    C6 8654   2.834   3.482  11.905 -1.4409  0.2260 -0.0521
  580TMC3     C 8655   2.809   3.839  11.957  0.0704 -1.0591 -0.3803
  580TMC3     O 8656   2.782   3.925  11.877  0.4516  0.0347  0.4018
  580TMC3     H 8657   2.716   3.738  11.749 -1.7434 -0.0221  0.2814
  580TMC3    H1 8658   2.743   3.653  12.171  1.3531 -2.4783  0.1828
  580TMC3    H2 8659   2.869   3.386  11.872 -1.6577 -0.0045  0.3914
  580TMC3    C7 8660   2.899   3.467  12.132 -0.3617 -0.0724  0.5013
  580TMC3    C8 8661   2.874   3.557  11.696  0.2328  0.8610  0.0273
  580TMC3    O1 8662   2.944   3.558  12.199  0.0598 -0.6314  0.0286
  580TMC3    O2 8663   2.823   3.549  11.584  0.3946 -0.8290  0.3433
  581MPD2     C 8664   1.576   3.610  14.857  0.8777  0.1543 -0.2367
  581MPD2    C1 8665   1.471   3.661  14.929  0.3698  0.5352  0.5959
  581MPD2    C2 8666   1.381   3.744  14.860  0.0630 -0.0087  1.1835
  581MPD2    C3 8667   1.394   3.779  14.721 -0.5001  0.9023 -0.1262
  581MPD2    C4 8668   1.498   3.715  14.653  0.2970  0.2865  0.5738
  581MPD2    C5 8669   1.587   3.635  14.727  0.2401 -0.5056  0.0592
  581MPD2     H 8670   1.298   3.790  14.912  0.2787  1.9932 -0.2772
  581MPD2    H1 8671   1.538   3.735  14.555  0.7521 -2.2693  0.2393
  581MPD2    H2 8672   1.651   3.547  14.903 -0.9318 -0.2802  2.1459
  581MPD2    H3 8673   1.668   3.582  14.678  0.0444 -1.4318  0.7243
  581MPD2     N 8674   1.313   3.873  14.652  0.3524 -0.0078 -0.4845
  581MPD2    H5 8675   1.247   3.919  14.715  1.5101 -1.1203  1.5454
  581MPD2    N1 8676   1.448   3.632  15.065 -0.0525  0.2428  0.1397
  581MPD2    H7 8677   1.358   3.657  15.106 -1.8908 -2.8414 -2.0410
  582TMC3    C1 8678   1.490   3.566  15.283 -0.0222 -1.1528  0.1314
  582TMC3    C2 8679   1.568   3.603  15.386 -0.0606 -0.8613  0.4074
  582TMC3    C3 8680   1.534   3.567  15.516  0.1658  0.2117  0.5065
  582TMC3    C4 8681   1.385   3.477  15.294 -0.0344  0.5580 -0.4283
  582TMC3    C5 8682   1.356   3.437  15.421  0.3296 -0.4011  0.2042
  582TMC3    C6 8683   1.435   3.474  15.529  0.7226  0.0503  0.0293
  582TMC3     C 8684   1.544   3.585  15.153  0.9483 -0.0897  0.4156
  582TMC3     O 8685   1.666   3.597  15.146  0.1483  0.0419 -0.7130
  582TMC3     H 8686   1.625   3.694  15.371 -1.7911  0.4497  1.7084
  582TMC3    H1 8687   1.326   3.458  15.205  0.0695 -0.6333 -0.2416
  582TMC3    H2 8688   1.393   3.441  15.623  0.8308  1.4990  0.5724
  582TMC3    C7 8689   1.214   3.402  15.438 -0.6824 -0.4716 -0.7452
  582TMC3    C8 8690   1.535   3.653  15.635 -0.4500  0.6988 -0.7949
  582TMC3    O1 8691   1.163   3.303  15.383 -0.6627 -0.1715  0.7497
  582TMC3    O2 8692   1.449   3.630  15.712  0.1071  0.7151 -0.1326
  583MPD2     C 8693   1.362   0.989  16.834  0.0109  0.7381 -0.7317
  583MPD2    C1 8694   1.331   1.106  16.766 -0.7368  0.0141  0.8760
  583MPD2    C2 8695   1.254   1.206  16.840 -0.3265  0.8035  0.1959
  583MPD2    C3 8696   1.211   1.183  16.966 -0.4677 -0.2765  0.4370
  583MPD2    C4 8697   1.252   1.073  17.029 -0.3256  0.6100  0.2574
  583MPD2    C5 8698   1.317   0.980  16.960 -0.3729 -0.0171 -0.1112
  583MPD2     H 8699   1.226   1.296  16.786  1.3820  0.7764 -0.7517
  583MPD2    H1 8700   1.212   1.052  17.127  1.2561 -2.0358  0.3240
  583MPD2    H2 8701   1.411   0.905  16.786 -0.9191 -0.7384  0.8763
  583MPD2    H3 8702   1.340   0.890  17.017 -0.1760 -0.6097 -1.1363
  583MPD2     N 8703   1.124   1.284  17.026  0.6486 -0.2013  0.0853
  583MPD2    H5 8704   1.077   1.349  16.963 -0.7540 -1.6365 -0.3530
  583MPD2    N1 8705   1.369   1.131  16.632 -0.2586  0.3108 -0.0213
  583MPD2    H7 8706   1.340   1.222  16.596  0.6587  1.4569  2.1082
  584TMC3    C1 8707   0.999   1.401  17.186 -0.9064  0.1455  0.2034
  584TMC3    C2 8708   0.993   1.506  17.095 -0.2819 -0.6326 -0.0707
  584TMC3    C3 8709   0.962   1.635  17.138 -0.3871 -0.2528 -0.2597
  584TMC3    C4 8710   0.974   1.419  17.320  0.4626  0.5312  0.3983
  584TMC3    C5 8711   0.954   1.547  17.360  0.1274 -0.2015  0.5849
  584TMC3    C6 8712   0.939   1.650  17.272 -0.1228  0.0991 -0.3404
  584TMC3     C 8713   1.086   1.288  17.159  0.1132  0.1592  0.2822
  584TMC3     O 8714   1.138   1.232  17.252  0.0118 -0.0505 -0.6963
  584TMC3     H 8715   1.019   1.503  16.990  3.1908  2.8657  0.7019
  584TMC3    H1 8716   0.983   1.335  17.388  4.1482  2.5759  2.4582
  584TMC3    H2 8717   0.900   1.745  17.309 -2.1502 -1.0718  0.5412
  584TMC3    C7 8718   0.927   1.568  17.506 -1.0444  0.0779  0.3884
  584TMC3    C8 8719   1.005   1.747  17.052 -0.7967 -0.0105  0.0938
  584TMC3    O1 8720   0.934   1.467  17.579 -0.3205 -0.1330 -0.2255
  584TMC3    O2 8721   0.983   1.728  16.936 -0.3725  0.4582 -0.5302
  585MPD2     C 8722   0.515   0.061   0.533 -0.3934 -0.5855  0.0143
  585MPD2    C1 8723   0.464   0.131   0.424  0.3834  0.4641  0.3505
  585MPD2    C2 8724   0.513   0.125   0.292 -0.1164 -0.4706  0.6366
  585MPD2    C3 8725   0.610   0.021   0.274 -0.3311 -0.2585  0.0386
  585MPD2    C4 8726   0.650   4.672   0.381  0.0768 -0.3463 -0.1721
  585MPD2    C5 8727   0.612   4.699   0.509  0.0863 -0.3068  1.1781
  585MPD2     H 8728   0.490   0.204   0.222  2.5565 -0.2730 -0.0168
  585MPD2    H1 8729   0.717   4.588   0.367 -1.5572 -1.6583 -0.2276
  585MPD2    H2 8730   0.472   0.070   0.633 -0.5884 -0.9013 -0.0420
  585MPD2    H3 8731   0.645   4.636   0.591 -1.7377 -0.6970  1.6103
  585MPD2     N 8732   0.667   0.005   0.148  0.2815  0.0361 -0.2686
  585MPD2    H5 8733   0.728   4.658   0.135  1.1883  0.5916  0.5344
  585MPD2    N1 8734   0.367   0.229   0.450 -0.9601  0.0671 -0.2354
  585MPD2    H7 8735   0.358   0.255   0.548  1.3877 -1.8314  0.4950
  586TMC3    C1 8736   0.729   0.042  17.658  0.1356 -0.7244  0.0478
  586TMC3    C2 8737   0.827   4.676  17.671 -0.1182  0.3160 -0.3879
  586TMC3    C3 8738   0.852   4.601  17.564 -0.0595  1.0786  0.4227
  586TMC3    C4 8739   0.664   0.050  17.539 -0.3772  0.4432  0.5116
  586TMC3    C5 8740   0.675   4.692  17.440 -0.4200 -0.2882 -0.2221
  586TMC3    C6 8741   0.782   4.605  17.446  1.2536  0.0997  1.2761
  586TMC3     C 8742   0.649   0.087   0.040 -1.0145  0.4272  0.0358
  586TMC3     O 8743   0.576   0.186   0.029 -0.4755 -0.2895 -0.4115
  586TMC3     H 8744   0.890   4.682   0.027  2.8070 -0.4276 -2.4449
  586TMC3    H1 8745   0.572   0.107  17.538 -0.0029  0.9956 -1.9077
  586TMC3    H2 8746   0.786   4.538  17.360 -3.2450  0.3912  0.8421
  586TMC3    C7 8747   0.548   4.627  17.419  0.6329  0.6800  0.5480
  586TMC3    C8 8748   0.936   4.478  17.596  0.0989 -0.3936  0.1368
  586TMC3    O1 8749   0.480   4.606  17.515 -0.1286  0.0850  0.6563
  586TMC3    O2 8750   0.989   4.468  17.707 -0.0944  0.2312  0.3819
  587TMC3    C1 8751   2.833   3.578  16.032  1.1016  0.5981  0.0137
  587TMC3    C2 8752   2.842   3.656  16.147  0.1684  0.9074 -0.7844
  587TMC3    C3 8753   2.965   3.673  16.204  1.0908 -0.4957  0.2710
  587TMC3    C4 8754   2.939   3.506  15.988  0.1971 -0.1019 -0.2483
  587TMC3    C5 8755   3.063   3.520  16.045 -0.3922 -0.1422  0.3329
  587TMC3    C6 8756   3.076   3.611  16.150  0.2191 -0.5252  0.1859
  587TMC3     C 8757   2.710   3.557  15.972  0.0960  0.1580 -0.7894
  587TMC3     O 8758   2.708   3.510  15.859 -0.3865 -0.0295 -0.2462
  587TMC3     H 8759   2.758   3.711  16.187  0.5917  1.3151 -0.4420
  587TMC3    H1 8760   2.924   3.435  15.907  1.9235  0.3091 -0.9309
  587TMC3    H2 8761   3.171   3.643  16.189 -0.6025  2.5682 -0.3845
  587TMC3    C7 8762   3.172   3.443  15.990 -0.1380  0.6247 -0.6364
  587TMC3    C8 8763   2.979   3.727  16.343 -0.4573 -0.4872 -0.6602
  587TMC3    O1 8764   3.147   3.362  15.903  0.2944 -0.2660  0.0894
  587TMC3    O2 8765   3.072   3.683  16.410 -0.4504 -0.4883 -0.2755
  588TMC3    C1 8766   0.146   0.720   9.441 -0.5148  1.1687 -0.0094
  588TMC3    C2 8767   0.078   0.602   9.436 -0.4033 -0.4760 -0.1309
  588TMC3    C3 8768   0.154   0.487   9.455 -0.3479  0.1672 -0.5238
  588TMC3    C4 8769   0.279   0.732   9.456  0.2870  0.0770  0.4044
  588TMC3    C5 8770   0.349   0.616   9.480 -0.1898 -0.3390 -0.0615
  588TMC3    C6 8771   0.287   0.495   9.481  0.1600 -0.3814  0.3492
  588TMC3     C 8772   0.067   0.825   9.499 -0.0471 -0.3310  0.0449
  588TMC3     O 8773   4.718   0.788   9.583  0.0922  0.2754 -0.1995
  588TMC3     H 8774   4.704   0.589   9.427 -0.5066  1.0007 -1.1112
  588TMC3    H1 8775   0.332   0.826   9.445 -0.8416  0.6034 -0.5703
  588TMC3    H2 8776   0.352   0.409   9.494  1.0309  0.2701  0.2759
  588TMC3    C7 8777   0.487   0.627   9.534  0.0304  0.0169  0.4384
  588TMC3    C8 8778   0.081   0.387   9.516  0.2851  0.5487 -0.3286
  588TMC3    O1 8779   0.573   0.543   9.504 -0.5155 -0.5853 -0.3037
  588TMC3    O2 8780   4.698   0.371   9.481 -0.5200 -0.1785 -0.3948
  589TMC3    C1 8781   4.293   3.454   1.402  0.2284  0.5361 -0.3372
  589TMC3    C2 8782   4.342   3.368   1.495 -0.6059 -0.3243 -0.2473
  589TMC3    C3 8783   4.357   3.236   1.455 -0.2686 -0.1196  0.3542
  589TMC3    C4 8784   4.269   3.412   1.274  0.1582 -0.5621  0.4426
  589TMC3    C5 8785   4.279   3.278   1.237  0.0387  0.0215  0.1052
  589TMC3    C6 8786   4.334   3.188   1.330 -0.2665 -0.2294  0.1889
  589TMC3     C 8787   4.224   3.570   1.455  0.7693  0.3669  0.4539
  589TMC3     O 8788   4.126   3.608   1.382  0.1594 -0.4515  0.1524
  589TMC3     H 8789   4.343   3.406   1.596  1.4748  0.5281 -0.5855
  589TMC3    H1 8790   4.211   3.472   1.206  0.3825  0.0360  0.7814
  589TMC3    H2 8791   4.336   3.082   1.308 -2.4456  0.4026 -3.0315
  589TMC3    C7 8792   4.242   3.236   1.100 -0.9731  0.1776  0.2227
  589TMC3    C8 8793   4.396   3.137   1.552  0.0257  0.3066 -0.2842
  589TMC3    O1 8794   4.184   3.131   1.079  0.4276  0.5143  0.3366
  589TMC3    O2 8795   4.344   3.148   1.666  0.0678 -0.0917 -0.3509
  590MPD2     C 8796   3.731   1.701  16.869  0.6207 -0.1449  0.1174
  590MPD2    C1 8797   3.662   1.764  16.770  0.0759 -1.0744  0.0058
  590MPD2    C2 8798   3.733   1.837  16.677  0.5451  0.2274 -0.0903
  590MPD2    C3 8799   3.868   1.838  16.681 -0.1136  0.4217 -0.4843
  590MPD2    C4 8800   3.939   1.768  16.778 -0.6675  0.1568  0.2233
  590MPD2    C5 8801   3.870   1.710  16.880  0.4853  0.6550  0.6093
  590MPD2     H 8802   3.676   1.903  16.611  1.9212  0.7684 -0.7279
  590MPD2    H1 8803   4.046   1.769  16.789 -0.7562 -0.5352  1.2349
  590MPD2    H2 8804   3.684   1.653  16.954  1.9531 -0.7723  0.5031
  590MPD2    H3 8805   3.922   1.659  16.960  0.5473 -3.5927 -2.1702
  590MPD2     N 8806   3.934   1.910  16.577  0.2018 -0.3717  0.3626
  590MPD2    H5 8807   3.871   1.941  16.504 -0.8350  0.4102  1.5983
  590MPD2    N1 8808   3.514   1.772  16.761  0.3591  0.1089 -0.0563
  590MPD2    H7 8809   3.479   1.839  16.693 -1.2092 -0.1510  0.4955
  591TMC3    C1 8810   4.089   2.018  16.466  0.0606 -0.6905 -0.2689
  591TMC3    C2 8811   4.202   1.991  16.395  0.1729  0.0914 -0.3709
  591TMC3    C3 8812   4.222   2.071  16.288 -0.1666 -0.3914 -0.1779
  591TMC3    C4 8813   4.004   2.122  16.447  0.6603  0.8245 -0.1563
  591TMC3    C5 8814   4.040   2.204  16.342  0.0324  0.1188 -0.2013
  591TMC3    C6 8815   4.149   2.180  16.270 -0.4056  0.1919 -0.5226
  591TMC3     C 8816   4.062   1.934  16.573 -0.4298  0.1843  0.8621
  591TMC3     O 8817   4.156   1.889  16.639  0.2871  0.1749 -0.2015
  591TMC3     H 8818   4.250   1.897  16.419  0.7019  0.5363  0.3073
  591TMC3    H1 8819   3.919   2.138  16.512  0.8213  0.1967  0.2129
  591TMC3    H2 8820   4.171   2.244  16.186  0.0005  1.7961  0.8106
  591TMC3    C7 8821   3.939   2.298  16.296 -0.2853  0.2076 -0.1439
  591TMC3    C8 8822   4.337   2.041  16.209 -0.7177  0.2687 -0.7444
  591TMC3    O1 8823   3.823   2.290  16.329  0.2988 -0.5629  0.0116
  591TMC3    O2 8824   4.376   1.924  16.214 -0.3107 -0.6889 -0.1190
  592MPD2     C 8825   4.129   3.522  11.453  0.4505 -0.2403 -0.2632
  592MPD2    C1 8826   4.080   3.580  11.567  0.2383  0.2976 -0.0135
  592MPD2    C2 8827   3.979   3.516  11.636 -0.0623 -0.0142  0.3587
  592MPD2    C3 8828   3.934   3.392  11.592 -0.2603 -0.5137  0.0963
  592MPD2    C4 8829   3.987   3.333  11.472 -0.1032 -0.8400 -0.7374
  592MPD2    C5 8830   4.085   3.400  11.410 -0.1299 -0.2776  0.6708
  592MPD2     H 8831   3.929   3.555  11.724  0.4804  0.2362  0.5536
  592MPD2    H1 8832   3.948   3.237  11.441 -0.3407 -0.9328 -0.1573
  592MPD2    H2 8833   4.208   3.573  11.399  1.0512  1.5703  2.3402
  592MPD2    H3 8834   4.126   3.353  11.320 -0.3373 -1.2061  1.0596
  592MPD2     N 8835   3.822   3.345  11.669  0.3156  0.0542  0.0972
  592MPD2    H5 8836   3.802   3.401  11.751  2.8576 -0.2073  0.8948
  592MPD2    N1 8837   4.144   3.697  11.601  0.1406  0.1002  0.6417
  592MPD2    H7 8838   4.199   3.744  11.530  1.8468  0.2341  2.0338
  593TMC3    C1 8839   4.195   3.887  11.731 -0.1077  0.7969 -0.3078
  593TMC3    C2 8840   4.187   3.949  11.854 -0.1787  0.7726  0.3058
  593TMC3    C3 8841   4.219   4.079  11.875 -0.3142 -0.3385  0.2263
  593TMC3    C4 8842   4.244   3.962  11.625 -0.0301 -0.0438  0.3367
  593TMC3    C5 8843   4.280   4.090  11.652 -0.2078 -0.5145  0.9310
  593TMC3    C6 8844   4.269   4.154  11.772  0.0368  0.2267 -0.3125
  593TMC3     C 8845   4.134   3.758  11.722 -0.6920  0.2066 -0.4710
  593TMC3     O 8846   4.061   3.727  11.819  0.4948 -0.0861 -0.3626
  593TMC3     H 8847   4.147   3.899  11.941  1.1402 -1.3959 -0.3166
  593TMC3    H1 8848   4.251   3.924  11.524 -1.1818  0.3655  0.1046
  593TMC3    H2 8849   4.294   4.259  11.768 -1.1223  0.4921 -0.5418
  593TMC3    C7 8850   4.358   4.154  11.550  0.2204  0.2517 -1.1278
  593TMC3    C8 8851   4.211   4.123  12.010 -0.0004 -0.0464  0.1561
  593TMC3    O1 8852   4.365   4.275  11.547  0.2210  0.0819 -0.3743
  593TMC3    O2 8853   4.153   4.061  12.098  0.0711 -0.0519 -0.3275
  594MPD2     C 8854   3.357   2.709  15.058  0.0269 -0.1370 -0.2350
  594MPD2    C1 8855   3.279   2.719  14.946  0.2437 -0.6656 -0.0989
  594MPD2    C2 8856   3.328   2.775  14.826  0.2313  0.1678 -0.0638
  594MPD2    C3 8857   3.460   2.796  14.807  0.2328  0.2345 -0.6014
  594MPD2    C4 8858   3.542   2.778  14.916 -0.1876 -0.0940 -1.2140
  594MPD2    C5 8859   3.488   2.733  15.036  0.3689  0.1988 -0.0976
  594MPD2     H 8860   3.254   2.786  14.747 -0.4712  1.6107  0.7944
  594MPD2    H1 8861   3.649   2.796  14.920 -0.1608 -0.6141  0.3596
  594MPD2    H2 8862   3.318   2.674  15.152 -0.4466  0.7159 -0.1100
  594MPD2    H3 8863   3.556   2.731  15.121 -0.6942 -1.1717  0.7202
  594MPD2     N 8864   3.509   2.854  14.688  1.4460 -0.6538 -0.2114
  594MPD2    H5 8865   3.437   2.871  14.619  0.5874 -1.1042  0.5699
  594MPD2    N1 8866   3.144   2.667  14.941  0.4980  0.3331  0.7213
  594MPD2    H7 8867   3.094   2.683  14.854  1.5839  1.8523  0.3708
  595TMC3    C1 8868   3.844   3.102  14.473 -0.1877  0.7048  1.0664
  595TMC3    C2 8869   3.801   2.984  14.525  0.0828 -0.6324 -0.4574
  595TMC3    C3 8870   3.669   2.963  14.550 -0.5078 -0.4752  0.3731
  595TMC3    C4 8871   3.759   3.205  14.441 -0.3833  0.1353  0.0006
  595TMC3    C5 8872   3.627   3.190  14.475 -0.3613 -0.5625 -0.2713
  595TMC3    C6 8873   3.590   3.070  14.530 -0.7645  0.3726 -0.6402
  595TMC3     C 8874   3.986   3.137  14.469 -0.2052  0.6311  0.8571
  595TMC3     O 8875   4.007   3.254  14.454  0.0282  0.6442 -0.2030
  595TMC3     H 8876   3.865   2.896  14.529  1.9155  0.7675  0.8078
  595TMC3    H1 8877   3.801   3.302  14.418 -1.2777  0.1280 -1.6586
  595TMC3    H2 8878   3.486   3.067  14.561 -0.2125  0.0617  1.2213
  595TMC3    C7 8879   3.540   3.302  14.504 -0.0896 -0.0559 -0.1551
  595TMC3    C8 8880   3.645   2.866  14.658  0.0723 -1.0498 -0.3912
  595TMC3    O1 8881   3.442   3.287  14.571  0.0584 -0.2505  0.3061
  595TMC3    O2 8882   3.743   2.816  14.709 -0.0861  0.3169 -0.0111
  596MPD2     C 8883   2.132   0.786  16.908  0.2083  0.6546 -0.7906
  596MPD2    C1 8884   2.145   0.913  16.849 -0.1674  0.2111 -0.1648
  596MPD2    C2 8885   2.174   0.921  16.713  0.2506 -0.2901  0.1403
  596MPD2    C3 8886   2.169   0.811  16.631  0.7017  0.9147 -0.0639
  596MPD2    C4 8887   2.152   0.689  16.691  0.8016  0.2186 -0.6670
  596MPD2    C5 8888   2.138   0.676  16.827  0.1435 -0.0665 -0.0574
  596MPD2     H 8889   2.187   1.022  16.676  0.4128 -0.6213 -0.7137
  596MPD2    H1 8890   2.137   0.600  16.631 -0.2394 -0.8652  1.2034
  596MPD2    H2 8891   2.151   0.782  17.015 -0.8916 -0.7970 -0.6465
  596MPD2    H3 8892   2.124   0.574  16.861 -0.4276  0.0935  0.1963
  596MPD2     N 8893   2.171   0.812  16.487  0.2799  0.4150  0.7817
  596MPD2    H5 8894   2.189   0.726  16.437  1.9392 -0.2403  2.4744
  596MPD2    N1 8895   2.140   1.030  16.931  0.0692  0.1197 -0.4689
  596MPD2    H7 8896   2.135   1.123  16.891  2.6380 -0.5871 -2.3991
  597TMC3    C1 8897   2.091   1.178  17.106 -0.7222  0.5615  0.0161
  597TMC3    C2 8898   2.164   1.271  17.048  1.0224  0.2557  0.3655
  597TMC3    C3 8899   2.132   1.400  17.087  0.5455 -0.4970  1.0364
  597TMC3    C4 8900   1.981   1.214  17.187 -0.7926  0.1093  0.3412
  597TMC3    C5 8901   1.958   1.345  17.210 -0.8301 -0.9777  1.2767
  597TMC3    C6 8902   2.034   1.445  17.162  0.2014 -0.2544 -0.4632
  597TMC3     C 8903   2.107   1.034  17.065 -0.2155 -0.0152  0.1515
  597TMC3     O 8904   2.067   0.944  17.134 -0.7091 -0.2030 -0.1693
  597TMC3     H 8905   2.250   1.247  16.986  0.5461 -0.8692  0.1402
  597TMC3    H1 8906   1.908   1.141  17.219  2.0328 -2.6924  0.4588
  597TMC3    H2 8907   2.023   1.549  17.192  1.0918 -0.1867 -0.3539
  597TMC3    C7 8908   1.835   1.376  17.274 -0.4182  0.5365 -0.5066
  597TMC3    C8 8909   2.222   1.496  17.042  0.5638  0.6520  0.1108
  597TMC3    O1 8910   1.811   1.305  17.370 -0.3180  0.3902 -0.2872
  597TMC3    O2 8911   2.269   1.577  17.121 -0.0035 -0.1449  0.2281
  598TMC3    C1 8912   1.009   2.342  15.823 -0.3555  0.5722 -0.2009
  598TMC3    C2 8913   0.950   2.270  15.925 -0.0749 -0.0743  0.0058
  598TMC3    C3 8914   0.833   2.211  15.906 -0.3192  0.2546 -0.9375
  598TMC3    C4 8915   0.942   2.361  15.705 -0.0622 -0.7525 -0.5662
  598TMC3    C5 8916   0.818   2.299  15.693 -0.3926  0.1521  0.0872
  598TMC3    C6 8917   0.760   2.222  15.789  0.5616 -0.9741  0.4201
  598TMC3     C 8918   1.148   2.392  15.839  0.2351 -0.4777 -0.7390
  598TMC3     O 8919   1.190   2.377  15.954  0.2194 -0.1632  0.0729
  598TMC3     H 8920   0.982   2.280  16.028 -0.8068  0.8382  0.1459
  598TMC3    H1 8921   0.983   2.396  15.611 -0.9531  2.1503  0.1242
  598TMC3    H2 8922   0.655   2.197  15.781  0.0236  1.8402 -1.4119
  598TMC3    C7 8923   0.731   2.335  15.579 -0.2032 -0.1615  0.7369
  598TMC3    C8 8924   0.794   2.104  15.989 -0.2961  0.3916 -0.0286
  598TMC3    O1 8925   0.653   2.249  15.544 -0.4989  0.3766 -0.3247
  598TMC3    O2 8926   0.805   2.126  16.109  0.0401  0.6579 -0.0351
  599MPD2     C 8927   0.213   0.113  15.883  0.1748 -0.2232  0.9578
  599MPD2    C1 8928   0.185   4.723  15.934 -0.4465 -0.3432  0.0034
  599MPD2    C2 8929   0.090   4.711  16.037  0.3183  0.5401  0.1031
  599MPD2    C3 8930   0.028   0.088  16.095 -0.1736  0.4099  0.2880
  599MPD2    C4 8931   0.075   0.210  16.056  0.3596 -0.2453  0.6026
  599MPD2    C5 8932   0.165   0.222  15.951  0.0077  0.0824  0.0094
  599MPD2     H 8933   0.075   4.618  16.090 -0.4814 -1.0396 -2.9125
  599MPD2    H1 8934   0.034   0.298  16.103 -0.0342 -0.5518  0.8238
  599MPD2    H2 8935   0.273   0.130  15.795 -0.1065  0.0520  0.8190
  599MPD2    H3 8936   0.196   0.319  15.915  1.9528 -0.0764  1.2681
  599MPD2     N 8937   4.682   0.074  16.214 -0.3472  0.4656  0.0085
  599MPD2    H5 8938   4.658   0.161  16.262  1.4962  0.4404  0.9543
  599MPD2    N1 8939   0.259   4.618  15.872  0.6556  0.1763  0.1149
  599MPD2    H7 8940   0.328   4.650  15.805  0.2153 -1.4349 -1.1162
  600TMC3    C1 8941   4.588   4.701  16.396  0.0798  0.4570 -0.1124
  600TMC3    C2 8942   4.524   4.592  16.452 -0.2211 -0.6594  0.0267
  600TMC3    C3 8943   4.500   4.583  16.585 -0.8908  0.4513 -0.1057
  600TMC3    C4 8944   4.644   0.061  16.485 -0.3106  0.1436  0.1300
  600TMC3    C5 8945   4.608   0.054  16.620 -0.1078 -0.0111 -0.6024
  600TMC3    C6 8946   4.536   4.682  16.676  0.4823  0.4500 -0.7154
  600TMC3     C 8947   4.621   4.693  16.251 -0.2681 -0.3950 -0.6482
  600TMC3     O 8948   4.601   4.583  16.198  0.6837  0.3263 -0.1224
  600TMC3     H 8949   4.493   4.514  16.384  1.9439 -1.3251 -0.1945
  600TMC3    H1 8950   4.725   0.127  16.456 -1.1459  0.3934 -1.6833
  600TMC3    H2 8951   4.522   4.664  16.782  0.8282 -2.0517 -1.0886
  600TMC3    C7 8952   4.628   0.163  16.707  0.0130 -0.2541  0.1163
  600TMC3    C8 8953   4.447   4.468  16.639 -0.0114  0.8726 -0.3171
  600TMC3    O1 8954   4.583   0.149  16.818 -0.1526  0.5329  0.3982
  600TMC3    O2 8955   4.484   4.453  16.757 -0.0012  0.4427 -0.4330
  601MPD2     C 8956   2.182   3.295   0.569  0.3009 -1.0920  0.4764
  601MPD2    C1 8957   2.217   3.281   0.436  0.2928 -0.0595 -0.6280
  601MPD2    C2 8958   2.275   3.158   0.404  0.2940  0.5213 -0.4795
  601MPD2    C3 8959   2.306   3.058   0.498  0.2526  0.2852  0.7200
  601MPD2    C4 8960   2.283   3.084   0.632 -0.4029 -0.1341  0.7917
  601MPD2    C5 8961   2.222   3.204   0.667 -0.7213 -0.7962  0.6168
  601MPD2     H 8962   2.304   3.143   0.301  2.2970  0.3112  0.1218
  601MPD2    H1 8963   2.318   3.020   0.712  2.4679  2.3926  1.5474
  601MPD2    H2 8964   2.147   3.392   0.603  0.8677 -1.0882  1.0622
  601MPD2    H3 8965   2.227   3.241   0.769  2.8628  1.8762 -0.5093
  601MPD2     N 8966   2.369   2.932   0.466  0.2492  0.5481  0.4366
  601MPD2    H5 8967   2.401   2.873   0.542  0.3015  0.1429  0.0991
  601MPD2    N1 8968   2.202   3.383   0.332 -0.0546 -0.6458  0.2187
  601MPD2    H7 8969   2.232   3.354   0.240 -1.0174 -0.9505 -0.0028
  602TMC3    C1 8970   2.176   3.591   0.234 -0.1254  0.6473  0.0447
  602TMC3    C2 8971   2.087   3.698   0.232  0.3001  0.0617  0.2322
  602TMC3    C3 8972   2.093   3.776   0.121 -0.1704 -0.2684  0.1614
  602TMC3    C4 8973   2.262   3.557   0.138  0.0618 -0.1017  0.0661
  602TMC3    C5 8974   2.265   3.640   0.027 -0.0492  0.3004 -0.2446
  602TMC3    C6 8975   2.173   3.743   0.017 -0.1952 -0.2920 -0.0885
  602TMC3     C 8976   2.161   3.512   0.351  0.1514 -0.2478 -0.0657
  602TMC3     O 8977   2.129   3.570   0.455  0.6743 -0.0087 -0.9269
  602TMC3     H 8978   1.989   3.695   0.279  0.1819 -0.4502 -0.0422
  602TMC3    H1 8979   2.337   3.479   0.148 -0.6322 -0.6467  0.9823
  602TMC3    H2 8980   2.167   3.812  17.666 -0.3261 -0.4706 -0.2269
  602TMC3    C7 8981   2.332   3.592  17.639 -0.3836 -0.5558  0.0073
  602TMC3    C8 8982   1.955   3.811   0.089  0.5779  0.9342  0.6946
  602TMC3    O1 8983   2.438   3.526  17.642  0.2596  0.5458 -0.8012
  602TMC3    O2 8984   1.897   3.878   0.170 -0.6831 -0.1575  0.0766
  603TMC3    C1 8985   0.285   2.906  10.703  0.3173  0.3164 -0.1792
  603TMC3    C2 8986   0.237   2.893  10.827 -0.0854 -0.4073  0.4305
  603TMC3    C3 8987   0.183   2.996  10.889  0.4467  0.3514 -0.6994
  603TMC3    C4 8988   0.267   3.023  10.632 -0.6689 -0.1851  0.4663
  603TMC3    C5 8989   0.211   3.128  10.696 -0.3881 -1.1210 -0.1050
  603TMC3    C6 8990   0.180   3.118  10.830 -1.0421 -0.0353 -0.0152
  603TMC3     C 8991   0.341   2.780  10.645 -0.2372 -0.7534 -0.0503
  603TMC3     O 8992   0.363   2.776  10.523  0.2543  0.3886  0.6430
  603TMC3     H 8993   0.223   2.796  10.873 -0.2872 -1.8667 -2.7029
  603TMC3    H1 8994   0.300   3.025  10.529 -0.3897  1.9661  0.6052
  603TMC3    H2 8995   0.131   3.204  10.875 -2.2156 -0.9723  0.5051
  603TMC3    C7 8996   0.142   3.230  10.627 -0.0605  0.4847 -0.8678
  603TMC3    C8 8997   0.134   2.980  11.029 -0.4208 -0.4184  0.2761
  603TMC3    O1 8998   0.122   3.332  10.695  0.5512  0.0380 -0.3213
  603TMC3    O2 8999   0.176   2.894  11.101 -0.1457  0.1219 -0.0900
  604MPD2     C 9000   1.564   2.477  16.288 -0.0184 -0.0165 -0.5317
  604MPD2    C1 9001   1.480   2.369  16.274  0.8557 -0.6538  0.5744
  604MPD2    C2 9002   1.486   2.283  16.164 -0.0641  0.6041 -0.2150
  604MPD2    C3 9003   1.591   2.294  16.072  0.1522 -0.2305  0.3515
  604MPD2    C4 9004   1.674   2.398  16.090 -0.4222  0.6482 -0.1560
  604MPD2    C5 9005   1.657   2.491  16.193  0.1967  0.3178 -0.0106
  604MPD2     H 9006   1.423   2.197  16.140 -0.3409  0.5884  0.5816
  604MPD2    H1 9007   1.752   2.431  16.022  0.9246 -0.2146  0.9716
  604MPD2    H2 9008   1.559   2.547  16.371  0.1734  0.4626 -0.9245
  604MPD2    H3 9009   1.726   2.574  16.200  1.2858 -0.5818  0.1079
  604MPD2     N 9010   1.611   2.190  15.980  0.2708  0.1867 -0.0543
  604MPD2    H5 9011   1.554   2.106  15.979  2.3114 -1.2536  1.8582
  604MPD2    N1 9012   1.376   2.366  16.368  0.0455  0.0117  0.1308
  604MPD2    H7 9013   1.384   2.430  16.446  0.9037 -0.4917  0.4519
  605TMC3    C1 9014   1.181   2.307  16.495 -0.8982  0.3052 -0.1860
  605TMC3    C2 9015   1.243   2.376  16.592  0.1908 -0.4645 -0.6219
  605TMC3    C3 9016   1.173   2.456  16.675  0.4487  0.1148 -0.7263
  605TMC3    C4 9017   1.049   2.337  16.471  0.3171 -0.0356 -0.2292
  605TMC3    C5 9018   0.975   2.429  16.545  0.0606 -0.0054 -0.2596
  605TMC3    C6 9019   1.037   2.481  16.657  0.1211  0.1327 -0.4066
  605TMC3     C 9020   1.267   2.290  16.374  0.0283  0.0066  0.6454
  605TMC3     O 9021   1.216   2.221  16.286  0.5096 -0.2032  0.2274
  605TMC3     H 9022   1.345   2.350  16.617  0.7146  1.3874 -0.8476
  605TMC3    H1 9023   1.010   2.276  16.390 -0.6929 -0.5074  0.6067
  605TMC3    H2 9024   0.993   2.563  16.713 -1.9099 -0.7695 -0.6583
  605TMC3    C7 9025   0.851   2.489  16.502 -0.0860 -0.2501  0.0988
  605TMC3    C8 9026   1.255   2.550  16.738 -0.0540  0.0967  0.6816
  605TMC3    O1 9027   0.794   2.571  16.572 -0.6721 -0.1222  0.0933
  605TMC3    O2 9028   1.366   2.567  16.682  0.3821  0.0219  0.0551
  606TMC3    C1 9029   2.559   0.451  17.646  0.4854  0.1178 -0.0737
  606TMC3    C2 9030   2.675   0.405  17.697 -0.1285  0.3758 -0.0915
  606TMC3    C3 9031   2.729   0.288  17.652 -0.3070 -0.3199 -0.6069
  606TMC3    C4 9032   2.501   0.385  17.541 -0.4811 -0.3507 -0.2188
  606TMC3    C5 9033   2.560   0.264  17.496 -0.2565  0.0966 -0.2495
  606TMC3    C6 9034   2.675   0.211  17.551  0.2630 -0.1168  0.2532
  606TMC3     C 9035   2.528   0.594  17.650  0.1100 -0.5792  0.2777
  606TMC3     O 9036   2.454   0.639  17.565 -0.1554  0.3698 -0.0940
  606TMC3     H 9037   2.744   0.461   0.027  0.8066  0.3356 -1.0932
  606TMC3    H1 9038   2.422   0.438  17.490 -0.1246 -0.4676 -0.8860
  606TMC3    H2 9039   2.713   0.110  17.535 -0.7695 -0.0679 -2.5233
  606TMC3    C7 9040   2.487   0.170  17.417  0.5156 -0.2327 -0.0496
  606TMC3    C8 9041   2.860   0.266  17.708  0.0860  0.5457  0.3407
  606TMC3    O1 9042   2.539   0.066  17.387 -0.3445 -0.1689 -0.3917
  606TMC3    O2 9043   2.885   0.304   0.088  0.1632  0.2382 -0.0479
  607MPD2     C 9044   4.037   3.064  11.786 -0.6461  0.6093  0.0919
  607MPD2    C1 9045   4.085   3.171  11.854 -0.3001  0.2290  0.3787
  607MPD2    C2 9046   4.053   3.193  11.987  0.5704  0.5177 -0.0848
  607MPD2    C3 9047   3.973   3.101  12.051 -0.2450 -0.2085 -0.3253
  607MPD2    C4 9048   3.919   3.001  11.976  0.4080 -0.5925 -0.1187
  607MPD2    C5 9049   3.956   2.975  11.849 -0.2430  0.6433 -0.3115
  607MPD2     H 9050   4.088   3.277  12.046  0.0265 -1.1573  2.5886
  607MPD2    H1 9051   3.845   2.936  12.021 -0.8974 -0.4312 -2.0279
  607MPD2    H2 9052   4.061   3.063  11.680  0.5234  0.0344  0.3579
  607MPD2    H3 9053   3.907   2.892  11.799  3.2923 -0.4532 -1.9385
  607MPD2     N 9054   3.946   3.127  12.191  0.2972  0.3305  0.1064
  607MPD2    H5 9055   3.993   3.213  12.220 -0.5790  0.9430 -0.2777
  607MPD2    N1 9056   4.179   3.267  11.804  0.2292  0.0582  0.2486
  607MPD2    H7 9057   4.208   3.334  11.874 -0.0817  1.4411 -0.9445
  608TMC3    C1 9058   4.385   3.328  11.723  0.0794 -0.0483 -0.7165
  608TMC3    C2 9059   4.448   3.343  11.845 -0.3490 -0.2750 -0.1662
  608TMC3    C3 9060   4.558   3.417  11.854 -0.2409  0.2017 -0.5692
  608TMC3    C4 9061   4.443   3.389  11.611 -0.1073  0.3200 -0.3092
  608TMC3    C5 9062   4.565   3.447  11.625  0.4513  0.4702  1.1813
  608TMC3    C6 9063   4.613   3.472  11.749 -0.2444 -0.1876 -1.0770
  608TMC3     C 9064   4.269   3.240  11.704 -0.2477  0.1804  0.2866
  608TMC3     O 9065   4.254   3.158  11.612 -0.2523 -0.6786 -0.1657
  608TMC3     H 9066   4.408   3.289  11.930 -2.8205  1.6274 -0.1188
  608TMC3    H1 9067   4.391   3.383  11.516  0.7777 -1.1401 -0.7110
  608TMC3    H2 9068   4.697   3.541  11.761  0.4074 -1.2050  0.1998
  608TMC3    C7 9069   4.626   3.506  11.508 -0.3150  0.0882  0.0417
  608TMC3    C8 9070   4.614   3.444  11.985  0.5921  0.4697  0.0930
  608TMC3    O1 9071   4.553   3.536  11.414  0.2823  0.4538  0.7433
  608TMC3    O2 9072   0.002   3.470  11.999  0.0835 -0.3705  0.1311
  609TMC3    C1 9073   3.051   2.951   9.048 -0.9363  0.1585  1.1819
  609TMC3    C2 9074   3.078   3.075   9.104  0.8847 -0.7923  0.4387
  609TMC3    C3 9075   3.172   3.078   9.201 -0.0559 -0.0993 -0.4345
  609TMC3    C4 9076   3.123   2.842   9.076 -0.0231 -0.0102  0.7202
  609TMC3    C5 9077   3.213   2.846   9.179  0.4271  0.3545  0.0407
  609TMC3    C6 9078   3.243   2.968   9.244  0.4934  0.6224  0.3836
  609TMC3     C 9079   2.914   2.932   8.992  0.0621 -0.0847  0.1998
  609TMC3     O 9080   2.866   2.816   8.993 -0.0980  0.4468  0.1524
  609TMC3     H 9081   3.009   3.158   9.091  0.1736 -1.2751  1.1730
  609TMC3    H1 9082   3.091   2.752   9.025 -0.7845  0.3422  0.5808
  609TMC3    H2 9083   3.332   2.984   9.304  1.7351 -0.9704 -1.0554
  609TMC3    C7 9084   3.274   2.729   9.228  0.6062  0.7386  0.7370
  609TMC3    C8 9085   3.213   3.210   9.231 -0.3847 -0.2286  0.4340
  609TMC3    O1 9086   3.318   2.730   9.342 -0.3179  0.5335 -0.3109
  609TMC3    O2 9087   3.269   3.225   9.341  0.1495 -0.2145  0.6279
  610TMC3    C1 9088   4.565   3.186  13.077 -0.4530 -0.3985  0.3892
  610TMC3    C2 9089   4.510   3.305  13.113 -0.3754  0.6575 -0.1213
  610TMC3    C3 9090   4.606   3.399  13.152 -0.0263  0.0703  0.1437
  610TMC3    C4 9091   4.698   3.163  13.083 -0.2431 -0.4599  0.4836
  610TMC3    C5 9092   0.048   3.262  13.124 -0.5329 -0.4490 -0.1246
  610TMC3    C6 9093   0.003   3.384  13.169  0.3864 -0.1375  0.6895
  610TMC3     C 9094   4.474   3.098  13.018  0.3089  0.1060 -0.9565
  610TMC3     O 9095   4.374   3.141  12.955 -0.6218 -0.2788 -0.5263
  610TMC3     H 9096   4.404   3.326  13.112 -0.7783 -1.0932  3.9177
  610TMC3    H1 9097   0.001   3.074  13.033  1.3700  0.9953 -0.9606
  610TMC3    H2 9098   0.068   3.465  13.200 -1.4639  0.8285  2.0749
  610TMC3    C7 9099   0.186   3.227  13.103 -0.4449 -0.3258  0.2999
  610TMC3    C8 9100   4.544   3.531  13.165  0.7122 -0.0591 -0.4771
  610TMC3    O1 9101   0.211   3.107  13.099  0.0582  0.0707 -0.3862
  610TMC3    O2 9102   4.424   3.537  13.189 -0.0098 -0.1611  0.5073
  611MPD2     C 9103   3.681   3.351   9.853  0.0555 -0.3520  0.6919
  611MPD2    C1 9104   3.713   3.217   9.854 -0.2081 -0.5328 -0.1498
  611MPD2    C2 9105   3.840   3.183   9.813 -0.0017  0.4185  0.0925
  611MPD2    C3 9106   3.928   3.275   9.772  0.4338  0.2905 -0.2906
  611MPD2    C4 9107   3.899   3.406   9.773  0.4380 -0.1328 -0.6711
  611MPD2    C5 9108   3.776   3.441   9.814 -0.6191  0.2434 -0.3373
  611MPD2     H 9109   3.865   3.078   9.815  1.3225  0.6421 -3.8063
  611MPD2    H1 9110   3.966   3.488   9.750  1.1345 -0.4566  0.2146
  611MPD2    H2 9111   3.581   3.382   9.881  0.7099  1.3752  1.1054
  611MPD2    H3 9112   3.746   3.545   9.812 -0.9913  0.1022 -2.5523
  611MPD2     N 9113   4.063   3.241   9.735 -0.4104  0.0879  0.2881
  611MPD2    H5 9114   4.131   3.317   9.735  0.2800 -0.5344 -1.0739
  611MPD2    N1 9115   3.611   3.137   9.903  0.1454  0.0001 -0.2417
  611MPD2    H7 9116   3.523   3.180   9.929  0.2374  0.4387 -0.6715
  612TMC3    C1 9117   4.252   3.113   9.756  0.2670  0.4639 -0.0184
  612TMC3    C2 9118   4.287   3.182   9.868 -0.2060 -0.5392 -0.0366
  612TMC3    C3 9119   4.406   3.154   9.931 -0.0621  0.3892  0.3865
  612TMC3    C4 9120   4.331   3.010   9.713 -0.0863 -0.4273  0.5574
  612TMC3    C5 9121   4.453   2.985   9.768  0.2230  0.0215 -0.0232
  612TMC3    C6 9122   4.495   3.060   9.879 -0.2990 -0.4568 -0.2363
  612TMC3     C 9123   4.111   3.112   9.731 -0.3404  0.1882  0.2624
  612TMC3     O 9124   4.059   3.008   9.702 -0.2773 -0.1835  0.4240
  612TMC3     H 9125   4.224   3.258   9.914  1.5087  0.3681  0.8076
  612TMC3    H1 9126   4.294   2.954   9.627  0.8699  1.6492 -1.2076
  612TMC3    H2 9127   4.598   3.052   9.913 -1.0793 -1.8475  1.7810
  612TMC3    C7 9128   4.532   2.880   9.718 -0.1978  0.4165 -0.2758
  612TMC3    C8 9129   4.446   3.254  10.033 -0.4393 -0.4029  0.1609
  612TMC3    O1 9130   4.494   2.838   9.610  0.4257  0.1167 -0.0428
  612TMC3    O2 9131   4.384   3.356  10.030  0.2345  0.5853  0.1375
  613MPD2     C 9132   3.111   0.792  17.047 -0.9422 -0.0962  0.4303
  613MPD2    C1 9133   3.035   0.852  16.950  0.0864 -0.4656 -0.1511
  613MPD2    C2 9134   2.913   0.804  16.896  0.0154 -0.4091  0.5973
  613MPD2    C3 9135   2.865   0.688  16.947  0.1738  0.0305 -0.1438
  613MPD2    C4 9136   2.943   0.621  17.038  0.1720 -0.1026 -0.7978
  613MPD2    C5 9137   3.060   0.668  17.090  1.2103  0.4023 -0.2489
  613MPD2     H 9138   2.864   0.857  16.815  1.3822  0.0908  0.0957
  613MPD2    H1 9139   2.910   0.524  17.073  1.0076  0.9662  3.0000
  613MPD2    H2 9140   3.216   0.809  17.067 -0.1093 -2.0946 -2.3035
  613MPD2    H3 9141   3.124   0.605  17.151 -2.7752 -0.6856  2.7861
  613MPD2     N 9142   2.759   0.619  16.897  0.4195  0.1296 -0.0186
  613MPD2    H5 9143   2.731   0.526  16.925  1.1911  0.9456  3.4220
  613MPD2    N1 9144   3.079   0.964  16.880 -0.3321 -0.4263  0.2064
  613MPD2    H7 9145   3.031   0.986  16.794 -1.4667 -0.0278  0.9449
  614TMC3    C1 9146   3.249   1.064  16.765 -0.4070 -0.1795  0.0955
  614TMC3    C2 9147   3.318   0.970  16.692 -0.6881 -0.5718  0.2841
  614TMC3    C3 9148   3.277   0.946  16.560 -0.1464  0.3494 -0.0384
  614TMC3    C4 9149   3.161   1.149  16.704 -0.4082 -0.0605 -0.0913
  614TMC3    C5 9150   3.128   1.130  16.570 -0.0425  0.6476 -0.2881
  614TMC3    C6 9151   3.187   1.029  16.497  0.4983 -0.4170 -0.0918
  614TMC3     C 9152   3.206   1.016  16.892  0.5659  0.0175  0.3350
  614TMC3     O 9153   3.290   1.007  16.980  0.1096 -0.0815 -0.0602
  614TMC3     H 9154   3.391   0.911  16.746 -0.4964 -0.6781 -0.0840
  614TMC3    H1 9155   3.117   1.230  16.761  0.1877  0.5019 -0.4317
  614TMC3    H2 9156   3.149   0.998  16.401  1.2586  1.1392 -0.9004
  614TMC3    C7 9157   3.068   1.237  16.501  0.1523 -0.0862  0.0216
  614TMC3    C8 9158   3.232   0.810  16.540 -0.0410 -0.3646 -0.4897
  614TMC3    O1 9159   3.035   1.336  16.565 -0.1737 -0.1710 -0.0446
  614TMC3    O2 9160   3.140   0.784  16.463  0.6604  0.2903  0.1405
  615MPD2     C 9161   2.918   2.474  16.414  0.4349 -0.3650 -0.2708
  615MPD2    C1 9162   3.016   2.558  16.459 -0.0164  0.3536  0.5088
  615MPD2    C2 9163   3.030   2.673  16.389 -0.6998 -0.2087 -0.1725
  615MPD2    C3 9164   2.959   2.697  16.271 -0.1026  0.2655  0.5726
  615MPD2    C4 9165   2.864   2.614  16.231 -0.0219 -0.4046 -0.2067
  615MPD2    C5 9166   2.836   2.500  16.304 -0.5495 -0.2164 -0.2510
  615MPD2     H 9167   3.103   2.744  16.426 -0.3252 -0.0573 -1.2119
  615MPD2    H1 9168   2.811   2.631  16.138 -0.2019  0.1843  0.0061
  615MPD2    H2 9169   2.891   2.381  16.463 -1.2076 -0.4616 -1.3661
  615MPD2    H3 9170   2.755   2.432  16.280  0.2120 -0.4119 -2.2674
  615MPD2     N 9171   2.970   2.810  16.186 -0.2368  0.2679 -0.1903
  615MPD2    H5 9172   2.922   2.801  16.097  1.9585 -0.3471 -1.3241
  615MPD2    N1 9173   3.091   2.528  16.577 -0.6028 -0.0079  0.3463
  615MPD2    H7 9174   3.134   2.605  16.627  1.0983  0.3799 -1.7293
  616TMC3    C1 9175   3.154   2.384  16.747 -0.0333  0.2124 -0.0318
  616TMC3    C2 9176   3.243   2.284  16.770  0.4709 -0.3296  0.0704
  616TMC3    C3 9177   3.289   2.261  16.900 -0.4052  0.1963 -0.3417
  616TMC3    C4 9178   3.120   2.479  16.842 -0.5985  0.1751  0.0121
  616TMC3    C5 9179   3.169   2.449  16.965  0.1442  0.0655 -0.0175
  616TMC3    C6 9180   3.249   2.348  17.000 -0.4625  1.0045  0.3007
  616TMC3     C 9181   3.098   2.398  16.616  0.5805  0.6154 -0.2117
  616TMC3     O 9182   3.069   2.288  16.563  0.0309 -0.7157  0.2273
  616TMC3     H 9183   3.285   2.237  16.681  1.4582  0.9570 -0.1443
  616TMC3    H1 9184   3.058   2.567  16.830  1.8511  2.0779  1.3234
  616TMC3    H2 9185   3.278   2.331  17.103 -0.1711 -0.6638 -0.0583
  616TMC3    C7 9186   3.128   2.534  17.078  0.4927 -0.1906  0.8412
  616TMC3    C8 9187   3.407   2.183  16.911 -0.7825  0.1164 -0.1836
  616TMC3    O1 9188   3.019   2.588  17.069  0.0292 -0.2808 -0.2873
  616TMC3    O2 9189   3.414   2.098  16.999  0.3271 -0.3207 -0.2675
  617MPD2     C 9190   0.805   0.642  13.514 -0.2072  0.0836 -0.5557
  617MPD2    C1 9191   0.901   0.565  13.574  0.2737 -0.0138 -1.2543
  617MPD2    C2 9192   0.881   0.527  13.704 -0.2917  0.3889  0.2528
  617MPD2    C3 9193   0.762   0.563  13.769 -0.0339 -0.0572  0.2019
  617MPD2    C4 9194   0.669   0.646  13.707 -0.1008  0.0745 -0.0718
  617MPD2    C5 9195   0.690   0.681  13.580  0.1101  0.0314  0.4140
  617MPD2     H 9196   0.959   0.475  13.759 -0.5460  0.0998  0.3406
  617MPD2    H1 9197   0.580   0.676  13.761  1.0166 -0.3215  1.9858
  617MPD2    H2 9198   0.816   0.681  13.413 -1.4016  0.5287 -0.5091
  617MPD2    H3 9199   0.620   0.741  13.523  1.4823 -0.7991 -2.1413
  617MPD2     N 9200   0.730   0.516  13.899  0.0757  0.1736  0.4962
  617MPD2    H5 9201   0.664   0.579  13.945 -1.1178 -0.4754 -0.3295
  617MPD2    N1 9202   1.019   0.533  13.494 -0.6202 -0.5198 -0.2381
  617MPD2    H7 9203   1.029   0.570  13.400  0.1365  1.4669  0.6212
  618TMC3    C1 9204   1.231   0.478  13.443 -0.1845  0.1644 -0.4689
  618TMC3    C2 9205   1.288   0.364  13.383 -0.4744 -1.2768  0.2295
  618TMC3    C3 9206   1.340   0.387  13.256  0.0214  0.4437  0.5355
  618TMC3    C4 9207   1.239   0.596  13.382 -0.0990 -0.6080 -0.2449
  618TMC3    C5 9208   1.303   0.613  13.261  0.0873 -0.4318 -0.6028
  618TMC3    C6 9209   1.362   0.512  13.196 -0.7329 -0.4477  0.2331
  618TMC3     C 9210   1.123   0.458  13.538 -0.4802  0.3582  0.3272
  618TMC3     O 9211   1.137   0.395  13.642  0.2481  1.1683  0.3285
  618TMC3     H 9212   1.257   0.268  13.422 -0.8079 -0.7532  1.2653
  618TMC3    H1 9213   1.191   0.686  13.421  2.4932  0.7997 -0.3334
  618TMC3    H2 9214   1.402   0.518  13.095 -3.2846 -1.9551 -0.8725
  618TMC3    C7 9215   1.197   0.646  13.164 -0.2164 -0.3140  0.0616
  618TMC3    C8 9216   1.319   0.287  13.162 -0.7911  0.2279 -0.5010
  618TMC3    O1 9217   1.091   0.592  13.199 -0.0195 -0.0057 -0.4652
  618TMC3    O2 9218   1.317   0.326  13.047  0.3659 -0.2694 -0.3389
  619MPD2     C 9219   2.285   1.605  14.283 -0.8034 -0.0807  0.7365
  619MPD2    C1 9220   2.203   1.533  14.192 -0.2962  0.2976 -0.4239
  619MPD2    C2 9221   2.063   1.556  14.203  0.2490  0.5515  0.0383
  619MPD2    C3 9222   2.014   1.639  14.299 -0.3905 -0.5209  0.3725
  619MPD2    C4 9223   2.096   1.701  14.384  0.6581  0.6421  0.0855
  619MPD2    C5 9224   2.229   1.687  14.373  0.9758  0.6927 -0.3481
  619MPD2     H 9225   1.998   1.507  14.132  0.5806  0.8171 -0.4452
  619MPD2    H1 9226   2.056   1.781  14.446  0.3257 -0.5437  1.4256
  619MPD2    H2 9227   2.391   1.585  14.295 -0.4917  1.8116  1.2707
  619MPD2    H3 9228   2.294   1.742  14.440  0.5664  0.6493  0.0898
  619MPD2     N 9229   1.875   1.671  14.309  0.9468 -0.1322 -0.7584
  619MPD2    H5 9230   1.851   1.754  14.362  1.2022 -1.2362  1.0844
  619MPD2    N1 9231   2.258   1.437  14.101 -0.3545  0.6871 -0.0895
  619MPD2    H7 9232   2.197   1.410  14.024 -2.1648 -0.5014  1.7561
  620TMC3    C1 9233   2.422   1.369  13.953 -0.6036  0.7531  0.2866
  620TMC3    C2 9234   2.313   1.308  13.888 -0.1114 -0.1192 -0.4041
  620TMC3    C3 9235   2.271   1.357  13.758  0.0201 -0.6726  0.2701
  620TMC3    C4 9236   2.482   1.471  13.887  0.0023 -0.0478  0.1174
  620TMC3    C5 9237   2.452   1.503  13.757  0.2445 -0.6299 -0.4186
  620TMC3    C6 9238   2.346   1.444  13.690  0.2296  0.5444  0.2202
  620TMC3     C 9239   2.393   1.403  14.088  0.9775  0.0669  0.0043
  620TMC3     O 9240   2.490   1.442  14.154 -0.4722 -0.1805  0.4481
  620TMC3     H 9241   2.243   1.243  13.939  1.1730  0.7070  2.4334
  620TMC3    H1 9242   2.535   1.549  13.941 -0.4900 -1.4872  2.6500
  620TMC3    H2 9243   2.315   1.471  13.590  1.1148 -2.1973 -0.8113
  620TMC3    C7 9244   2.494   1.626  13.701  0.0338  0.2763  0.9735
  620TMC3    C8 9245   2.137   1.415  13.751 -0.5086  0.6235 -0.0656
  620TMC3    O1 9246   2.426   1.668  13.610 -0.6922 -0.2129  0.0168
  620TMC3    O2 9247   2.054   1.350  13.812 -0.4097  0.1709 -0.1708
  621MPD2     C 9248   2.942   1.686   9.628 -0.1765  0.3654  0.7463
  621MPD2    C1 9249   2.847   1.697   9.718 -0.3265  0.1687 -0.1282
  621MPD2    C2 9250   2.744   1.788   9.702  0.1161 -0.1902 -1.1776
  621MPD2    C3 9251   2.734   1.865   9.582 -0.0117  0.5940 -0.5977
  621MPD2    C4 9252   2.826   1.854   9.483 -0.3693  0.6715 -0.4012
  621MPD2    C5 9253   2.930   1.762   9.512 -0.5329  0.8020 -0.6463
  621MPD2     H 9254   2.663   1.804   9.773 -0.9851 -0.1991 -2.4405
  621MPD2    H1 9255   2.826   1.915   9.394  1.3791 -2.5561 -2.5830
  621MPD2    H2 9256   3.036   1.634   9.642 -0.2059  1.0860  3.6994
  621MPD2    H3 9257   3.005   1.755   9.435 -1.8028 -0.9612 -1.7279
  621MPD2     N 9258   2.628   1.961   9.577 -0.5309  0.4994 -0.5880
  621MPD2    H5 9259   2.576   1.969   9.664 -2.0016 -1.0786 -1.3205
  621MPD2    N1 9260   2.845   1.623   9.839 -0.4758  0.0118  0.3810
  621MPD2    H7 9261   2.771   1.640   9.906 -1.2436 -0.9182 -0.2349
  622TMC3    C1 9262   2.890   1.449   9.994 -1.4167 -0.0984 -0.1868
  622TMC3    C2 9263   2.760   1.448  10.031  0.4179  0.2921  0.2838
  622TMC3    C3 9264   2.721   1.361  10.131 -0.2348  0.1575  0.6288
  622TMC3    C4 9265   2.988   1.359  10.044 -0.2690  0.2714 -0.1179
  622TMC3    C5 9266   2.943   1.284  10.148  0.1417 -0.7623  0.0083
  622TMC3    C6 9267   2.814   1.283  10.191 -0.2138 -0.3740  0.3072
  622TMC3     C 9268   2.936   1.533   9.884 -0.0831 -0.2676 -0.0137
  622TMC3     O 9269   3.042   1.501   9.833 -0.7961 -0.5290 -0.2950
  622TMC3     H 9270   2.686   1.510   9.982  2.1539  1.3235 -1.0352
  622TMC3    H1 9271   3.094   1.370  10.029 -0.3564  1.8256  0.4945
  622TMC3    H2 9272   2.787   1.212  10.268 -1.9191 -2.1591 -1.9448
  622TMC3    C7 9273   3.048   1.195  10.205 -0.5448 -0.1475 -0.1255
  622TMC3    C8 9274   2.589   1.373  10.189 -0.3845 -0.9111 -0.0522
  622TMC3    O1 9275   3.167   1.221  10.190  0.0222  0.4748  0.8128
  622TMC3    O2 9276   2.554   1.314  10.294  0.0360 -0.4568  0.5657
  623MPD2     C 9277   1.651   2.930  15.971  0.2710  0.1658 -0.0551
  623MPD2    C1 9278   1.588   2.870  16.074 -0.5527  0.0930  0.9467
  623MPD2    C2 9279   1.639   2.891  16.204  1.2742  0.1619 -0.7894
  623MPD2    C3 9280   1.719   3.002  16.225  0.4153  0.6427  0.5671
  623MPD2    C4 9281   1.760   3.085  16.121 -0.0559 -0.2634  0.2818
  623MPD2    C5 9282   1.722   3.044  15.993  0.0211  0.1976  0.4183
  623MPD2     H 9283   1.604   2.833  16.289 -2.0230  1.2346 -1.4463
  623MPD2    H1 9284   1.804   3.184  16.126 -0.9373  0.2456 -1.9775
  623MPD2    H2 9285   1.625   2.915  15.867  0.2217  0.7369 -0.1242
  623MPD2    H3 9286   1.753   3.106  15.910  0.3511 -1.3013 -0.5653
  623MPD2     N 9287   1.738   3.025  16.362  0.4490 -0.2144 -0.1872
  623MPD2    H5 9288   1.685   2.966  16.425 -1.0122 -0.1693 -1.3509
  623MPD2    N1 9289   1.485   2.777  16.065 -0.2925 -0.4954 -0.0870
  623MPD2    H7 9290   1.459   2.738  16.155 -1.8432  0.1137 -0.2681
  624TMC3    C1 9291   1.927   2.976  16.738 -0.2044  0.3851 -0.0338
  624TMC3    C2 9292   1.809   2.974  16.804  0.4279  0.3756 -0.6351
  624TMC3    C3 9293   1.696   3.023  16.740  0.7215 -0.2686 -0.4967
  624TMC3    C4 9294   1.950   3.041  16.617  0.0983 -0.3610  0.7757
  624TMC3    C5 9295   1.836   3.091  16.560 -0.3282 -0.0654  0.2109
  624TMC3    C6 9296   1.709   3.062  16.610  0.5389 -0.6097  0.0916
  624TMC3     C 9297   2.035   2.899  16.800  0.2696 -0.2450 -0.0119
  624TMC3     O 9298   2.035   2.894  16.924 -0.6280 -0.0784 -0.3759
  624TMC3     H 9299   1.788   2.948  16.907  2.8230 -0.0718 -0.2751
  624TMC3    H1 9300   2.043   3.018  16.567  0.3230  3.3742 -0.5241
  624TMC3    H2 9301   1.614   3.087  16.563 -0.1981 -1.5975  1.0513
  624TMC3    C7 9302   1.832   3.113  16.416  0.0880 -0.1745  0.7011
  624TMC3    C8 9303   1.577   2.952  16.771  0.1659  0.4070  0.3480
  624TMC3    O1 9304   1.927   3.169  16.360 -0.7823  0.4982 -0.6583
  624TMC3    O2 9305   1.498   2.930  16.677  0.2406 -0.3386 -0.0929
  625MPD2     C 9306   2.229   4.004   1.251 -0.5758  0.2471 -0.0449
  625MPD2    C1 9307   2.249   4.120   1.179 -0.3575 -0.2627  0.0031
  625MPD2    C2 9308   2.376   4.174   1.181  0.0335  0.0773 -0.3947
  625MPD2    C3 9309   2.480   4.115   1.247  0.7125 -0.1702 -1.1276
  625MPD2    C4 9310   2.457   4.005   1.327  0.7057 -0.0949 -0.4088
  625MPD2    C5 9311   2.336   3.942   1.319 -0.0111 -0.2695 -0.4871
  625MPD2     H 9312   2.396   4.266   1.127  0.6550  0.1112 -0.1012
  625MPD2    H1 9313   2.539   3.955   1.378 -0.2068 -1.1576  0.0205
  625MPD2    H2 9314   2.133   3.953   1.247  0.5450 -1.8461 -0.1548
  625MPD2    H3 9315   2.327   3.854   1.381 -1.2070 -0.3584 -0.7973
  625MPD2     N 9316   2.613   4.161   1.215  0.5422 -0.2769  0.1496
  625MPD2    H5 9317   2.623   4.231   1.143  1.7174 -0.2492  0.3378
  625MPD2    N1 9318   2.153   4.187   1.098 -0.1534 -0.4190  0.0386
  625MPD2    H7 9319   2.176   4.282   1.071 -2.0371 -1.0744 -3.9785
  626TMC3    C1 9320   1.952   4.210   0.989  0.5616  0.2984  0.1130
  626TMC3    C2 9321   1.894   4.170   0.870  0.0119  0.3229  0.0658
  626TMC3    C3 9322   1.774   4.220   0.839  0.1253 -0.1470 -0.7899
  626TMC3    C4 9323   1.882   4.289   1.070  0.0871 -0.2365  0.5131
  626TMC3    C5 9324   1.753   4.328   1.050  0.6853  0.0364  0.1760
  626TMC3    C6 9325   1.706   4.300   0.927  0.1242 -0.1569  0.3796
  626TMC3     C 9326   2.042   4.121   1.051  0.1627  0.2348 -0.1237
  626TMC3     O 9327   2.032   3.995   1.042  0.0462 -0.3034  0.4813
  626TMC3     H 9328   1.951   4.101   0.808 -0.2655 -0.7719  1.0382
  626TMC3    H1 9329   1.925   4.301   1.169  2.3648 -1.2045 -0.3740
  626TMC3    H2 9330   1.613   4.341   0.890  0.9183  1.4963  0.2224
  626TMC3    C7 9331   1.669   4.327   1.162  0.3826 -0.0166  0.0035
  626TMC3    C8 9332   1.715   4.190   0.705  0.6351  0.8608  0.0011
  626TMC3    O1 9333   1.720   4.347   1.271 -0.3574  0.4577  0.8281
  626TMC3    O2 9334   1.791   4.161   0.610  0.6570 -0.6205  0.0189
  627MPD2     C 9335   0.838   3.956  13.930  0.0301 -0.0430  0.2690
  627MPD2    C1 9336   0.854   3.878  14.045  0.2445 -0.1517  0.4580
  627MPD2    C2 9337   0.804   3.755  14.047 -0.0767  0.1891  1.0703
  627MPD2    C3 9338   0.728   3.705  13.944  0.8147 -0.0061  0.2563
  627MPD2    C4 9339   0.700   3.777  13.827  0.8150  0.1693  0.0395
  627MPD2    C5 9340   0.756   3.902  13.826 -0.4841  0.0187  0.3081
  627MPD2     H 9341   0.813   3.691  14.134 -1.3442 -1.1398  0.2199
  627MPD2    H1 9342   0.646   3.743  13.740 -3.3599  0.9841  2.3106
  627MPD2    H2 9343   0.863   4.061  13.924  1.8382 -0.6358 -2.6486
  627MPD2    H3 9344   0.737   3.973  13.747  0.6294 -0.1523 -0.1201
  627MPD2     N 9345   0.674   3.580  13.963 -1.0531 -0.0757 -0.6176
  627MPD2    H5 9346   0.705   3.519  14.038  2.0432  0.9426 -1.1022
  627MPD2    N1 9347   0.920   3.916  14.167 -0.2550  0.6135  0.3123
  627MPD2    H7 9348   0.913   3.842  14.236  2.3019  1.7374  1.7625
  628TMC3    C1 9349   1.039   4.053  14.314 -0.5114 -0.0567 -0.1583
  628TMC3    C2 9350   1.119   3.952  14.362 -0.9673 -0.2547  0.4465
  628TMC3    C3 9351   1.188   3.977  14.480  0.6258  0.0086  0.8666
  628TMC3    C4 9352   1.042   4.177  14.367 -0.4628 -0.5122 -1.2028
  628TMC3    C5 9353   1.117   4.201  14.479  0.4513  0.3184 -0.4224
  628TMC3    C6 9354   1.180   4.093  14.552  0.1891  0.3094  0.7981
  628TMC3     C 9355   0.974   4.040  14.188 -0.4531  0.3467 -0.8386
  628TMC3     O 9356   0.973   4.136  14.108  0.6224 -0.5072 -0.4836
  628TMC3     H 9357   1.120   3.850  14.327  1.4071 -0.5696  1.4161
  628TMC3    H1 9358   0.983   4.256  14.322  0.6392  0.2622 -1.2779
  628TMC3    H2 9359   1.263   4.124  14.615  1.7047 -1.7022 -0.1897
  628TMC3    C7 9360   1.128   4.335  14.539 -0.1061 -0.1049  0.2142
  628TMC3    C8 9361   1.299   3.881  14.514  0.0168  0.4891 -0.2230
  628TMC3    O1 9362   1.198   4.353  14.641 -0.7630 -0.5928 -0.6767
  628TMC3    O2 9363   1.362   3.822  14.426 -0.0610  0.1709  0.1196
  629MPD2     C 9364   3.922   2.179  16.812  0.9301  0.6420  0.0372
  629MPD2    C1 9365   3.865   2.285  16.748  0.1381  0.0513  0.9433
  629MPD2    C2 9366   3.731   2.308  16.759  0.0754  0.9158 -0.3308
  629MPD2    C3 9367   3.641   2.222  16.823  0.3081  0.2008 -0.3243
  629MPD2    C4 9368   3.701   2.114  16.891  0.3727  0.5908 -0.6367
  629MPD2    C5 9369   3.837   2.096  16.883  0.0474  0.1671 -0.2524
  629MPD2     H 9370   3.697   2.394  16.702 -1.4926 -0.7671 -1.9274
  629MPD2    H1 9371   3.645   2.044  16.952  2.4027  1.8685  2.7564
  629MPD2    H2 9372   4.028   2.159  16.812  0.7414 -0.2915 -1.4121
  629MPD2    H3 9373   3.869   2.003  16.928 -1.2333  0.1760  0.6989
  629MPD2     N 9374   3.505   2.240  16.830  0.2451  0.0579 -0.3800
  629MPD2    H5 9375   3.472   2.319  16.774  0.4111 -0.0262 -0.5984
  629MPD2    N1 9376   3.951   2.373  16.684  0.6559  0.3707  0.5301
  629MPD2    H7 9377   4.050   2.357  16.700  0.7418  0.6157  0.2461
  630TMC3    C1 9378   4.036   2.587  16.627 -0.0015 -0.0904 -0.1618
  630TMC3    C2 9379   4.004   2.709  16.571  0.2202  0.1542 -1.3010
  630TMC3    C3 9380   4.038   2.818  16.646  0.5360  0.2390 -0.3411
  630TMC3    C4 9381   4.107   2.579  16.740  0.5891 -0.0151 -0.4956
  630TMC3    C5 9382   4.119   2.688  16.817  0.2181  0.0051  0.0764
  630TMC3    C6 9383   4.092   2.812  16.768 -0.1293 -0.4265 -0.1294
  630TMC3     C 9384   3.923   2.494  16.629 -0.1047 -0.4870 -0.2434
  630TMC3     O 9385   3.823   2.556  16.600  0.3851 -0.4077  0.0175
  630TMC3     H 9386   3.954   2.702  16.475 -1.2425 -0.6178 -0.4686
  630TMC3    H1 9387   4.116   2.495  16.808 -3.5319 -1.1528 -1.3975
  630TMC3    H2 9388   4.096   2.902  16.829 -0.3543 -1.2410  1.1006
  630TMC3    C7 9389   4.238   2.681  16.900 -0.3579  0.3690 -0.1336
  630TMC3    C8 9390   4.084   2.923  16.561 -0.8863 -0.1805  0.3350
  630TMC3    O1 9391   4.268   2.594  16.980 -0.8095 -0.0202  0.4535
  630TMC3    O2 9392   4.183   2.985  16.608 -0.1065  0.2347 -0.4478
  631MPD2     C 9393   2.847   3.208  15.294 -0.1489  0.4170  0.6711
  631MPD2    C1 9394   2.731   3.168  15.358 -0.4356  0.8307 -0.2820
  631MPD2    C2 9395   2.739   3.124  15.491  0.5313 -0.2655 -0.0800
  631MPD2    C3 9396   2.861   3.114  15.558  0.1283  0.8012 -0.3643
  631MPD2    C4 9397   2.974   3.141  15.489  0.1860 -0.2114 -0.2375
  631MPD2    C5 9398   2.964   3.198  15.362 -0.5683  0.1253 -0.0189
  631MPD2     H 9399   2.651   3.100  15.550 -0.9812  0.8398 -1.8852
  631MPD2    H1 9400   3.069   3.141  15.543  0.3065 -0.3411 -0.4475
  631MPD2    H2 9401   2.849   3.223  15.187  0.3659  1.0776  0.7700
  631MPD2    H3 9402   3.055   3.212  15.304 -0.6401 -1.0494 -0.4137
  631MPD2     N 9403   2.854   3.108  15.701 -0.1852 -0.0482 -0.3077
  631MPD2    H5 9404   2.766   3.118  15.749 -0.2819 -1.1216 -0.2609
  631MPD2    N1 9405   2.609   3.167  15.291 -0.0922  0.9508 -0.6230
  631MPD2    H7 9406   2.614   3.200  15.195 -1.9937  1.4900 -0.5359
  632TMC3    C1 9407   2.373   3.147  15.265  0.2241  0.0782 -0.3096
  632TMC3    C2 9408   2.261   3.149  15.344  0.0397 -0.5527  0.1266
  632TMC3    C3 9409   2.146   3.165  15.288  0.6398  0.3735  0.2887
  632TMC3    C4 9410   2.377   3.151  15.131  0.3381  0.0370 -0.4622
  632TMC3    C5 9411   2.251   3.169  15.073 -0.2977 -0.4784  0.6022
  632TMC3    C6 9412   2.133   3.170  15.150  0.0602 -0.5692  1.3883
  632TMC3     C 9413   2.490   3.123  15.342  0.4876 -0.5725  0.5045
  632TMC3     O 9414   2.464   3.066  15.447  0.3655 -0.4756 -0.1793
  632TMC3     H 9415   2.269   3.148  15.452  1.4241 -1.0014  0.0229
  632TMC3    H1 9416   2.470   3.158  15.076 -0.1217  0.6902 -1.1444
  632TMC3    H2 9417   2.031   3.173  15.114  0.9615 -1.2400 -1.2253
  632TMC3    C7 9418   2.245   3.182  14.930  0.3650 -0.1805 -0.3378
  632TMC3    C8 9419   2.032   3.182  15.368 -0.1915  0.7873 -0.1779
  632TMC3    O1 9420   2.345   3.145  14.870  0.1454  0.3379  0.2018
  632TMC3    O2 9421   1.926   3.154  15.315 -0.2756 -0.0564  0.0531
  633MPD2     C 9422   1.435   0.848  17.369  0.0092  0.2565 -0.3260
  633MPD2    C1 9423   1.550   0.807  17.315 -0.9407  0.2457 -0.3769
  633MPD2    C2 9424   1.597   0.674  17.341  0.5342  0.0395  0.2420
  633MPD2    C3 9425   1.526   0.583  17.421 -0.0189  0.1188  0.4427
  633MPD2    C4 9426   1.413   0.633  17.475  0.0017 -0.4856  0.6127
  633MPD2    C5 9427   1.371   0.760  17.452  0.0636 -0.3034  0.0179
  633MPD2     H 9428   1.690   0.641  17.298 -1.0183  0.1291 -3.1643
  633MPD2    H1 9429   1.351   0.580  17.546  0.6191  0.9148  2.1887
  633MPD2    H2 9430   1.397   0.950  17.366  0.3007  0.3180 -2.0339
  633MPD2    H3 9431   1.276   0.789  17.495  0.9119  1.2716  0.8245
  633MPD2     N 9432   1.565   0.445  17.429  0.2715 -0.5283 -0.6456
  633MPD2    H5 9433   1.652   0.426  17.380  0.2954 -1.1347 -0.3630
  633MPD2    N1 9434   1.620   0.881  17.216 -0.3131  0.3055  0.6176
  633MPD2    H7 9435   1.700   0.840  17.170 -2.5036 -0.6283 -2.3846
  634TMC3    C1 9436   1.667   1.037  17.047  0.3124  0.2053  0.0868
  634TMC3    C2 9437   1.713   0.933  16.970 -0.2115 -0.0654  0.4836
  634TMC3    C3 9438   1.721   0.958  16.837 -0.6951 -1.3214  0.1328
  634TMC3    C4 9439   1.650   1.163  17.003  0.2794 -0.1368  0.3464
  634TMC3    C5 9440   1.652   1.183  16.866 -0.2932 -0.1917 -0.5690
  634TMC3    C6 9441   1.681   1.077  16.782  0.3857 -0.5551 -0.0191
  634TMC3     C 9442   1.592   1.003  17.167 -0.4728  0.1414 -0.1713
  634TMC3     O 9443   1.506   1.078  17.209 -0.3891 -0.2654  0.0827
  634TMC3     H 9444   1.707   0.827  16.993 -0.8718 -0.4641 -1.5360
  634TMC3    H1 9445   1.626   1.244  17.070 -0.6912  0.7705 -1.1141
  634TMC3    H2 9446   1.666   1.090  16.675 -0.7700 -0.2692  0.1699
  634TMC3    C7 9447   1.605   1.303  16.795 -0.6652  0.8255  0.7098
  634TMC3    C8 9448   1.730   0.846  16.744 -0.3113  0.3770  0.1986
  634TMC3    O1 9449   1.648   1.316  16.683  0.6813 -0.2393 -0.2521
  634TMC3    O2 9450   1.717   0.735  16.787  0.0819  0.3468  0.4400
  635TMC3    C1 9451   1.740   2.188  17.656  0.3860 -0.3630 -0.4944
  635TMC3    C2 9452   1.712   2.182  17.523  0.4406  1.1786 -0.0813
  635TMC3    C3 9453   1.612   2.098  17.477 -0.1111 -0.3284  0.0396
  635TMC3    C4 9454   1.673   2.112   0.010 -0.1484  0.2478 -0.5284
  635TMC3    C5 9455   1.570   2.032  17.694  0.2894  0.3667  0.1037
  635TMC3    C6 9456   1.536   2.026  17.562 -0.3550 -0.2469  0.7979
  635TMC3     C 9457   1.864   2.247  17.705 -0.0185  0.1755 -0.1833
  635TMC3     O 9458   1.869   2.306   0.082 -0.0874 -0.0704 -0.0879
  635TMC3     H 9459   1.769   2.245  17.456 -1.4157 -0.1142 -2.8906
  635TMC3    H1 9460   1.706   2.112   0.113 -1.8038 -0.5982  0.0112
  635TMC3    H2 9461   1.447   1.969  17.535  0.5558 -0.9423 -0.7179
  635TMC3    C7 9462   1.514   1.934   0.053 -0.3272 -0.3081 -0.1283
  635TMC3    C8 9463   1.588   2.093  17.341  0.4799  0.1493 -0.4401
  635TMC3    O1 9464   1.401   1.904   0.029 -0.3711 -0.2283  0.4102
  635TMC3    O2 9465   1.473   2.056  17.304  0.1550  0.3303 -0.9764
  636MPD2     C 9466   2.554   1.167  16.323 -0.0069  0.1358 -0.0450
  636MPD2    C1 9467   2.599   1.143  16.446 -0.3522 -0.1103  0.6054
  636MPD2    C2 9468   2.608   1.018  16.495 -0.5318  0.2593 -0.2953
  636MPD2    C3 9469   2.568   0.917  16.422  0.0385  0.3897 -0.1007
  636MPD2    C4 9470   2.524   0.936  16.297  0.1112 -0.1343 -0.4975
  636MPD2    C5 9471   2.511   1.061  16.250  0.3042  0.0194  0.2370
  636MPD2     H 9472   2.638   0.994  16.596 -2.5990 -4.5470 -0.8255
  636MPD2    H1 9473   2.483   0.859  16.233 -0.2818 -0.5476  0.2625
  636MPD2    H2 9474   2.534   1.265  16.279 -4.5107 -0.8254 -0.1561
  636MPD2    H3 9475   2.467   1.079  16.152 -2.6372  0.3867  1.6340
  636MPD2     N 9476   2.568   0.787  16.479 -0.4241  0.0198 -0.7345
  636MPD2    H5 9477   2.619   0.771  16.566  0.7386  0.1106 -1.4043
  636MPD2    N1 9478   2.639   1.248  16.532 -0.2544 -0.3759  0.3735
  636MPD2    H7 9479   2.666   1.217  16.625  2.5640 -1.2089 -0.7229
  637TMC3    C1 9480   2.532   0.561  16.512  0.2018  0.6287  0.4664
  637TMC3    C2 9481   2.516   0.602  16.641  0.1148  0.0358  0.0532
  637TMC3    C3 9482   2.598   0.558  16.741  0.2453 -0.2899  0.5964
  637TMC3    C4 9483   2.628   0.470  16.481  0.8128 -0.2529 -0.5252
  637TMC3    C5 9484   2.704   0.425  16.586  0.8915 -0.6651  0.2082
  637TMC3    C6 9485   2.674   0.448  16.717  0.4345  0.1702  0.1979
  637TMC3     C 9486   2.527   0.673  16.420 -0.4021 -0.6038  0.1549
  637TMC3     O 9487   2.482   0.643  16.307  0.8823 -0.2737  0.0394
  637TMC3     H 9488   2.440   0.674  16.668  1.0475  1.4501 -1.1555
  637TMC3    H1 9489   2.657   0.460  16.377 -2.3107 -0.4950 -1.3633
  637TMC3    H2 9490   2.735   0.402  16.794  0.5985  0.0777  0.0105
  637TMC3    C7 9491   2.840   0.446  16.552 -0.4500  0.8954 -0.0336
  637TMC3    C8 9492   2.674   0.660  16.800  0.2351 -0.4419  0.9283
  637TMC3    O1 9493   2.863   0.524  16.464  0.1789  0.5109  0.8524
  637TMC3    O2 9494   2.667   0.761  16.736  0.1443 -0.0474  0.0143
  638MPD2     C 9495   2.487   4.692  15.019 -0.5189  0.1708 -0.1517
  638MPD2    C1 9496   2.513   4.582  14.937 -0.5750  0.5835 -0.2145
  638MPD2    C2 9497   2.514   4.458  14.992 -0.1812 -0.8167 -0.0078
  638MPD2    C3 9498   2.500   4.430  15.126  0.2716 -0.1478 -0.4432
  638MPD2    C4 9499   2.475   4.540  15.209  0.2441 -0.5528 -1.2487
  638MPD2    C5 9500   2.464   4.667  15.150 -0.0803 -0.5590  0.6938
  638MPD2     H 9501   2.543   4.375  14.928  1.7135  0.6764 -1.0783
  638MPD2    H1 9502   2.444   4.516  15.310 -2.0027  0.0892 -1.7853
  638MPD2    H2 9503   2.482   0.061  14.983 -2.8917  0.1471  0.0800
  638MPD2    H3 9504   2.446   0.018  15.216 -1.5067 -0.8021  0.6097
  638MPD2     N 9505   2.515   4.301  15.163  0.6376 -0.7178  0.5411
  638MPD2    H5 9506   2.509   4.232  15.088  0.0245  0.5287 -0.5573
  638MPD2    N1 9507   2.553   4.600  14.802 -0.1723 -0.0567 -0.6079
  638MPD2    H7 9508   2.573   4.694  14.772 -0.8536  0.3775  0.2997
  639TMC3    C1 9509   2.570   4.114  15.287  0.0590  0.5140 -0.5570
  639TMC3    C2 9510   2.515   4.052  15.184  0.1695  0.2625 -0.3689
  639TMC3    C3 9511   2.594   3.959  15.116 -0.8144  0.0180  0.1293
  639TMC3    C4 9512   2.691   4.089  15.337 -0.5699  0.1294  1.0723
  639TMC3    C5 9513   2.770   4.005  15.260  0.4857 -0.5691 -0.0681
  639TMC3    C6 9514   2.719   3.933  15.158  0.2164 -0.3808  0.2171
  639TMC3     C 9515   2.546   4.251  15.286  0.2250 -0.7775 -0.1278
  639TMC3     O 9516   2.567   4.317  15.390  0.1421  0.3251  0.9953
  639TMC3     H 9517   2.413   4.073  15.156 -0.7256 -2.2088  1.0539
  639TMC3    H1 9518   2.733   4.146  15.419  1.2416  1.4148 -0.7556
  639TMC3    H2 9519   2.775   3.845  15.129  1.1185 -0.5220  2.3945
  639TMC3    C7 9520   2.902   3.967  15.312 -0.2587 -0.0627 -0.3438
  639TMC3    C8 9521   2.540   3.888  15.006  0.9607  0.4337 -0.0369
  639TMC3    O1 9522   2.912   3.967  15.433  0.9631 -0.1344  0.0158
  639TMC3    O2 9523   2.617   3.866  14.911  0.4853 -0.5234  0.2917
  640MPD2     C 9524   2.393   2.687  10.603  0.4496  0.0508 -0.0893
  640MPD2    C1 9525   2.419   2.757  10.493 -0.3415  1.0441 -0.9668
  640MPD2    C2 9526   2.376   2.891  10.502  0.3375  0.4093 -0.3633
  640MPD2    C3 9527   2.320   2.951  10.616  0.6199  0.4574  0.5031
  640MPD2    C4 9528   2.307   2.873  10.726 -0.2883 -0.1877 -0.2961
  640MPD2    C5 9529   2.338   2.743  10.717  0.3040 -0.3807 -0.4558
  640MPD2     H 9530   2.395   2.961  10.421 -0.7488 -0.1940 -1.1448
  640MPD2    H1 9531   2.273   2.914  10.820  1.9485  3.1446 -0.9334
  640MPD2    H2 9532   2.411   2.580  10.609 -3.4065 -0.6045  0.1987
  640MPD2    H3 9533   2.321   2.669  10.795  3.5052  0.4698  1.0675
  640MPD2     N 9534   2.279   3.081  10.633  0.3093  0.0500 -0.6147
  640MPD2    H5 9535   2.222   3.101  10.714 -0.6672 -0.1037 -1.2592
  640MPD2    N1 9536   2.482   2.700  10.374 -0.6921 -0.1880  0.0550
  640MPD2    H7 9537   2.530   2.611  10.385 -0.3967 -0.2638 -1.9342
  641TMC3    C1 9538   2.564   2.663  10.150 -0.3213  0.1488 -0.4607
  641TMC3    C2 9539   2.668   2.583  10.188 -0.0730 -0.7355 -0.0703
  641TMC3    C3 9540   2.748   2.532  10.081 -0.1667 -0.0824 -0.2494
  641TMC3    C4 9541   2.535   2.688  10.019 -0.0582  0.7892 -0.4991
  641TMC3    C5 9542   2.614   2.630   9.922 -0.4170 -0.5009  0.0879
  641TMC3    C6 9543   2.721   2.549   9.951  0.1361  0.3681 -0.3077
  641TMC3     C 9544   2.500   2.753  10.250  0.2540 -0.0196 -0.6365
  641TMC3     O 9545   2.448   2.851  10.208  0.0431 -0.0144 -0.0894
  641TMC3     H 9546   2.706   2.580  10.290 -0.1573 -0.7195 -0.0389
  641TMC3    H1 9547   2.444   2.742   9.995 -1.7627 -2.0365 -0.3821
  641TMC3    H2 9548   2.794   2.522   9.876  0.4339  0.9279 -0.2198
  641TMC3    C7 9549   2.593   2.686   9.793 -0.5338  0.0613 -0.7522
  641TMC3    C8 9550   2.843   2.426  10.094  0.5219  0.4696 -0.9967
  641TMC3    O1 9551   2.493   2.757   9.782 -0.7054 -0.0273 -0.1703
  641TMC3    O2 9552   2.850   2.345  10.007  0.5655  0.3390  0.1160
  642TMC3    C1 9553   4.165   3.971  12.440  0.1107 -0.1336  0.3482
  642TMC3    C2 9554   4.294   3.974  12.387 -0.1819  0.0802 -0.3995
  642TMC3    C3 9555   4.330   3.867  12.303 -0.8716 -0.1159 -1.1134
  642TMC3    C4 9556   4.082   3.860  12.423  0.0097  0.1176 -0.5490
  642TMC3    C5 9557   4.125   3.767  12.333  0.2691 -0.0844 -0.3709
  642TMC3    C6 9558   4.242   3.773  12.264  0.1721 -0.7092  0.6006
  642TMC3     C 9559   4.109   4.101  12.476 -0.1376 -0.0226 -0.0508
  642TMC3     O 9560   4.181   4.180  12.533  0.1017 -0.2875  0.1429
  642TMC3     H 9561   4.355   4.064  12.384  2.4161 -1.7165 -1.4374
  642TMC3    H1 9562   3.986   3.860  12.473 -0.6005  1.5872 -1.7412
  642TMC3    H2 9563   4.279   3.694  12.200  1.5863  0.4709 -0.0383
  642TMC3    C7 9564   4.033   3.672  12.282  1.1621  0.6953  0.7439
  642TMC3    C8 9565   4.457   3.863  12.238 -0.1758  0.1899 -0.4991
  642TMC3    O1 9566   4.044   3.634  12.167 -0.3643 -0.4029  0.1523
  642TMC3    O2 9567   4.468   3.833  12.123 -0.3229 -0.4378 -0.2906
  643TMC3    C1 9568   3.684   3.918   0.936  0.8270  0.2271 -0.1777
  643TMC3    C2 9569   3.569   3.984   0.959 -0.1354  0.1222 -0.6162
  643TMC3    C3 9570   3.474   3.985   0.858  0.4015 -0.0491  0.0844
  643TMC3    C4 9571   3.710   3.857   0.818 -0.3953  0.2888 -0.0594
  643TMC3    C5 9572   3.624   3.861   0.720  0.2828 -1.0044  0.0142
  643TMC3    C6 9573   3.504   3.921   0.742  0.6885 -0.2809  0.3694
  643TMC3     C 9574   3.798   3.969   1.015  0.4310  0.0837 -0.0235
  643TMC3     O 9575   3.906   3.946   0.965 -0.2360  0.9523  0.2741
  643TMC3     H 9576   3.539   4.022   1.056  2.6381  1.9469 -0.4755
  643TMC3    H1 9577   3.801   3.798   0.809 -0.6649  0.0913 -1.4334
  643TMC3    H2 9578   3.433   3.916   0.660 -0.0023 -1.1862  1.0291
  643TMC3    C7 9579   3.672   3.884   0.587 -0.0469  0.3555 -0.1927
  643TMC3    C8 9580   3.399   4.102   0.842 -0.6896 -0.2378 -0.0642
  643TMC3    O1 9581   3.646   3.993   0.546  0.4241 -0.3830  0.3349
  643TMC3    O2 9582   3.370   4.161   0.944 -0.2730  0.4355  0.3450
  644MPD2     C 9583   2.206   3.029   9.988 -0.0066 -0.0162  0.2908
  644MPD2    C1 9584   2.255   3.111   9.886 -0.3542  0.0286 -0.0585
  644MPD2    C2 9585   2.171   3.208   9.836  0.5795  0.3472  0.0027
  644MPD2    C3 9586   2.035   3.218   9.876  0.0214 -1.0874 -0.7207
  644MPD2    C4 9587   1.992   3.132   9.974 -0.6902  0.5700  0.5395
  644MPD2    C5 9588   2.076   3.036  10.030 -0.9766  0.0632 -0.7041
  644MPD2     H 9589   2.207   3.278   9.762 -0.1080 -1.9739 -2.5081
  644MPD2    H1 9590   1.888   3.135  10.006 -0.5194  0.3813  1.1070
  644MPD2    H2 9591   2.272   2.955  10.033  0.1164 -0.6724 -0.9652
  644MPD2    H3 9592   2.035   2.958  10.094 -1.5205  1.1163  0.2298
  644MPD2     N 9593   1.949   3.309   9.806  0.2536 -0.2953  0.6470
  644MPD2    H5 9594   1.986   3.355   9.723  0.7946 -0.8782  0.5658
  644MPD2    N1 9595   2.392   3.090   9.846  0.3267 -0.8046 -0.4967
  644MPD2    H7 9596   2.440   3.015   9.895 -0.6765 -0.4766  0.9961
  645TMC3    C1 9597   1.767   3.466   9.790  0.6299  0.2610 -0.8287
  645TMC3    C2 9598   1.632   3.484   9.803  0.1317  0.4714  0.2692
  645TMC3    C3 9599   1.584   3.606   9.760  0.1980  0.1249  1.1532
  645TMC3    C4 9600   1.851   3.562   9.739 -0.5668  0.5236 -0.1742
  645TMC3    C5 9601   1.799   3.679   9.696  0.5853  0.7977 -0.0161
  645TMC3    C6 9602   1.666   3.693   9.698 -0.2501  0.1550  0.1046
  645TMC3     C 9603   1.817   3.334   9.835 -0.2190  1.1014 -0.3630
  645TMC3     O 9604   1.743   3.267   9.909  0.0480 -0.7134 -0.1447
  645TMC3     H 9605   1.568   3.408   9.847  0.9619 -0.7609 -0.6532
  645TMC3    H1 9606   1.958   3.544   9.747 -0.3617  1.1209 -1.4832
  645TMC3    H2 9607   1.639   3.791   9.660  0.3063  0.2764  0.0256
  645TMC3    C7 9608   1.877   3.775   9.623  0.6147  0.3295 -0.2359
  645TMC3    C8 9609   1.440   3.621   9.768  0.8687  0.6546  0.7219
  645TMC3    O1 9610   1.819   3.856   9.547 -0.2471 -0.2449  0.2686
  645TMC3    O2 9611   1.375   3.540   9.834 -0.3465 -0.2286  0.1468
  646MPD2     C 9612   3.162   3.422  14.448  0.4704 -0.2874 -0.2991
  646MPD2    C1 9613   3.074   3.360  14.528  0.5855 -0.1225 -0.2378
  646MPD2    C2 9614   2.940   3.384  14.511  0.3108  0.1774  0.3009
  646MPD2    C3 9615   2.900   3.455  14.403  1.1302 -0.3158  0.1928
  646MPD2    C4 9616   3.000   3.519  14.328  0.1675 -0.3147 -0.3367
  646MPD2    C5 9617   3.131   3.507  14.348  0.2393 -0.0558  0.0841
  646MPD2     H 9618   2.859   3.337  14.566 -0.8009  1.4482 -0.2419
  646MPD2    H1 9619   2.970   3.590  14.251  0.2741 -1.2115 -1.1997
  646MPD2    H2 9620   3.269   3.410  14.457  0.4417 -0.8728 -0.7132
  646MPD2    H3 9621   3.199   3.563  14.285  0.4484 -0.2727  0.1190
  646MPD2     N 9622   2.758   3.460  14.382  0.2764  0.4390  0.0746
  646MPD2    H5 9623   2.702   3.397  14.440 -2.7174  3.5871  0.6129
  646MPD2    N1 9624   3.121   3.280  14.631 -0.0181  0.2598  0.2673
  646MPD2    H7 9625   3.221   3.263  14.634 -0.2402 -1.2580 -0.9215
  647TMC3    C1 9626   3.130   3.158  14.833  0.0824 -0.7162 -0.5413
  647TMC3    C2 9627   3.070   3.068  14.917  0.3134 -0.1502  0.2888
  647TMC3    C3 9628   3.142   3.024  15.025  0.3037 -0.3893 -0.0255
  647TMC3    C4 9629   3.267   3.190  14.831 -0.3325 -0.6526 -0.0335
  647TMC3    C5 9630   3.329   3.139  14.942 -0.4722 -0.1488 -0.6644
  647TMC3    C6 9631   3.276   3.059  15.038 -0.8049 -0.6731  0.0825
  647TMC3     C 9632   3.044   3.219  14.728 -0.6499  0.1846  0.8333
  647TMC3     O 9633   2.930   3.179  14.718  0.7746  0.7267  0.1136
  647TMC3     H 9634   2.963   3.053  14.907  0.5715 -1.1701 -0.9048
  647TMC3    H1 9635   3.319   3.263  14.770 -0.4674 -0.1345  0.4668
  647TMC3    H2 9636   3.333   3.020  15.122  0.4465 -1.4961 -1.1420
  647TMC3    C7 9637   3.469   3.153  14.960 -0.1812  0.5384  0.7156
  647TMC3    C8 9638   3.081   2.951  15.138 -0.2045 -1.0689 -0.9084
  647TMC3    O1 9639   3.514   3.117  15.069  0.1522  0.1945 -0.5306
  647TMC3    O2 9640   3.155   2.918  15.229  0.0700 -0.2458  0.1153
  648TMC3    C1 9641   2.151   0.895  16.263  0.7417  0.5473 -0.1132
  648TMC3    C2 9642   2.187   0.770  16.216  0.0436  0.1274 -0.3008
  648TMC3    C3 9643   2.192   0.756  16.081 -0.0589 -0.4065  0.0370
  648TMC3    C4 9644   2.109   0.997  16.182 -1.6320  0.0869 -0.4144
  648TMC3    C5 9645   2.106   0.972  16.048 -0.5013  0.0332  0.4333
  648TMC3    C6 9646   2.144   0.851  15.995 -0.1604 -0.1710 -0.4612
  648TMC3     C 9647   2.162   0.923  16.408 -0.3292  0.6192  1.0309
  648TMC3     O 9648   2.145   1.038  16.452 -0.2645 -0.1927  0.0913
  648TMC3     H 9649   2.215   0.692  16.286  0.0805  1.6482  1.3763
  648TMC3    H1 9650   2.051   1.080  16.223 -1.0451 -0.4572  1.5357
  648TMC3    H2 9651   2.138   0.837  15.888  2.0813  0.2521 -0.6554
  648TMC3    C7 9652   2.107   1.090  15.951  0.6934 -0.3130 -0.3636
  648TMC3    C8 9653   2.273   0.643  16.026  0.7284  0.5786  0.0930
  648TMC3    O1 9654   2.142   1.083  15.836 -0.0195 -1.0591  0.1643
  648TMC3    O2 9655   2.306   0.648  15.907  0.3261 -0.6622  0.8416
  649TMC3    C1 9656   1.183   1.835  12.791 -0.2094 -0.5374 -0.3618
  649TMC3    C2 9657   1.315   1.879  12.771  0.0625 -0.3856 -0.1389
  649TMC3    C3 9658   1.394   1.867  12.878  0.5711  0.2583  0.1993
  649TMC3    C4 9659   1.140   1.777  12.904 -0.1458 -0.4049 -0.2199
  649TMC3    C5 9660   1.234   1.759  13.000  0.0217 -1.2617 -0.5324
  649TMC3    C6 9661   1.357   1.821  13.001  0.4076 -0.1153 -0.0650
  649TMC3     C 9662   1.079   1.864  12.693 -0.0861 -0.2696 -0.4948
  649TMC3     O 9663   0.963   1.850  12.730 -0.2448  0.8218  0.9716
  649TMC3     H 9664   1.337   1.933  12.680  0.5431  1.2728  0.9608
  649TMC3    H1 9665   1.044   1.727  12.902 -0.0401 -0.6967  1.8014
  649TMC3    H2 9666   1.428   1.797  13.080  1.1642  1.2611 -0.3281
  649TMC3    C7 9667   1.184   1.691  13.116  0.3094 -0.3230  0.2464
  649TMC3    C8 9668   1.538   1.879  12.857  0.0546  0.0320  0.3076
  649TMC3    O1 9669   1.057   1.689  13.131 -0.3357  0.4835  0.0657
  649TMC3    O2 9670   1.609   1.807  12.925 -0.2980 -0.0540 -0.5883
  650TMC3    C1 9671   3.436   3.437  12.812 -0.7715 -0.1459 -0.8365
  650TMC3    C2 9672   3.358   3.545  12.833  0.3819 -0.2986 -0.1532
  650TMC3    C3 9673   3.230   3.529  12.792  0.1208  0.6888 -0.1811
  650TMC3    C4 9674   3.400   3.310  12.772 -0.7221 -0.1080 -0.3048
  650TMC3    C5 9675   3.273   3.298  12.736 -0.0917 -0.5574 -0.2337
  650TMC3    C6 9676   3.186   3.410  12.737 -0.4223  0.6881  0.2941
  650TMC3     C 9677   3.580   3.463  12.839 -0.2271 -0.1541 -0.0305
  650TMC3     O 9678   3.617   3.578  12.813  0.2030 -0.1279  0.0440
  650TMC3     H 9679   3.395   3.633  12.885 -2.4849  0.3714  0.7743
  650TMC3    H1 9680   3.477   3.235  12.755 -0.8867 -0.6656  1.3904
  650TMC3    H2 9681   3.081   3.391  12.716  0.1525 -1.3376 -0.7846
  650TMC3    C7 9682   3.265   3.215  12.618 -0.0718 -0.4748 -0.1829
  650TMC3    C8 9683   3.177   3.648  12.726  0.2417 -0.3397  0.7643
  650TMC3    O1 9684   3.343   3.122  12.612 -0.1241  0.0731  0.0596
  650TMC3    O2 9685   3.256   3.736  12.693  0.5666  0.0651 -0.1702
  651MPD2     C 9686   2.514   0.774  10.977  0.3347 -0.0100  0.2950
  651MPD2    C1 9687   2.497   0.801  10.845  0.9003  0.1010 -0.1900
  651MPD2    C2 9688   2.602   0.863  10.775 -1.0240 -0.0122  0.2607
  651MPD2    C3 9689   2.725   0.882  10.842  0.3154  0.0707  0.3230
  651MPD2    C4 9690   2.739   0.845  10.972 -0.2957  0.5137 -0.4425
  651MPD2    C5 9691   2.628   0.806  11.040  0.1311 -0.2454 -0.2626
  651MPD2     H 9692   2.595   0.896  10.672 -1.8078 -1.6856 -0.2273
  651MPD2    H1 9693   2.837   0.845  11.020  0.5140  0.4346 -2.1112
  651MPD2    H2 9694   2.435   0.733  11.039 -0.0310  0.7003  0.2956
  651MPD2    H3 9695   2.635   0.780  11.145  1.7684  1.6679  0.0920
  651MPD2     N 9696   2.833   0.942  10.768  0.3688 -0.1893 -0.4220
  651MPD2    H5 9697   2.813   0.980  10.676 -2.0451  1.8385  0.9546
  651MPD2    N1 9698   2.370   0.789  10.781 -0.1330 -0.3700  0.0803
  651MPD2    H7 9699   2.370   0.810  10.681  0.2002  0.4072  0.2438
  652TMC3    C1 9700   3.215   1.145  10.633 -0.2600  0.0238  0.3767
  652TMC3    C2 9701   3.156   1.065  10.729  0.0920  0.4927  0.1701
  652TMC3    C3 9702   3.025   1.075  10.745  0.5920 -0.5359 -0.0419
  652TMC3    C4 9703   3.141   1.236  10.562 -0.1739 -0.0273  0.1791
  652TMC3    C5 9704   3.007   1.254  10.598  0.3916 -0.1831  0.1260
  652TMC3    C6 9705   2.943   1.171  10.688  0.2592 -0.0084 -0.0922
  652TMC3     C 9706   3.359   1.153  10.622 -0.4443  0.5832  0.3590
  652TMC3     O 9707   3.400   1.192  10.516 -0.1691  0.1550  0.3323
  652TMC3     H 9708   3.217   0.995  10.784  0.2172  0.0008 -0.5905
  652TMC3    H1 9709   3.193   1.291  10.484  1.3070  0.3987  1.4843
  652TMC3    H2 9710   2.840   1.182  10.719  0.0087  0.9497 -1.2366
  652TMC3    C7 9711   2.926   1.346  10.529 -0.3806  0.2495 -0.8390
  652TMC3    C8 9712   2.953   0.979  10.827  0.3066  0.5057 -0.2581
  652TMC3    O1 9713   2.805   1.344  10.543 -0.1651 -0.9009 -0.3827
  652TMC3    O2 9714   3.020   0.921  10.911  0.2526 -0.2733  0.2506
  653MPD2     C 9715   1.331   0.922   0.235  0.2966 -0.1288  0.1137
  653MPD2    C1 9716   1.271   0.977   0.124 -0.5811  0.8376 -0.1310
  653MPD2    C2 9717   1.201   0.899   0.034  0.3848  0.0284 -0.3956
  653MPD2    C3 9718   1.190   0.760   0.060  0.4287 -0.0034  0.4150
  653MPD2    C4 9719   1.252   0.703   0.169 -0.7841 -0.2246 -1.0335
  653MPD2    C5 9720   1.329   0.786   0.245 -0.3387 -0.3892 -0.1577
  653MPD2     H 9721   1.153   0.949  17.683 -1.1440  0.7652  0.9324
  653MPD2    H1 9722   1.254   0.599   0.202  0.3188 -0.4769 -1.8980
  653MPD2    H2 9723   1.367   0.982   0.318 -0.1479  2.9585 -1.9528
  653MPD2    H3 9724   1.389   0.739   0.322  0.6592 -0.5620 -1.0475
  653MPD2     N 9725   1.116   0.684  17.704 -0.1850  0.0122 -0.8876
  653MPD2    H5 9726   1.074   0.733  17.625  1.4528  1.9714 -0.5521
  653MPD2    N1 9727   1.266   1.117   0.095  0.7413 -0.4791 -0.0869
  653MPD2    H7 9728   1.214   1.151   0.015 -0.0156 -0.6104  0.3467
  654TMC3    C1 9729   1.015   0.511  17.597 -0.1829  1.2933  1.0705
  654TMC3    C2 9730   0.901   0.584  17.572 -0.0225 -0.9983 -0.0756
  654TMC3    C3 9731   0.812   0.528  17.491 -0.0917  0.4130  0.3282
  654TMC3    C4 9732   1.032   0.389  17.539 -0.9625  0.1747  0.7865
  654TMC3    C5 9733   0.930   0.335  17.465  0.3163 -0.3840 -0.4687
  654TMC3    C6 9734   0.822   0.407  17.428  0.0692  0.4177 -0.0818
  654TMC3     C 9735   1.115   0.552  17.700 -0.5483  0.2228  0.1919
  654TMC3     O 9736   1.173   0.471   0.039 -0.5069 -0.2618 -0.7492
  654TMC3     H 9737   0.877   0.681  17.614  2.9175 -0.3109 -0.0036
  654TMC3    H1 9738   1.125   0.339  17.564 -0.3111 -0.1612 -2.4038
  654TMC3    H2 9739   0.743   0.373  17.363 -0.6087  2.3221 -0.2561
  654TMC3    C7 9740   0.965   0.231  17.375  0.5216  0.2051 -0.0169
  654TMC3    C8 9741   0.772   0.632  17.399  0.2013  0.5129 -0.0174
  654TMC3    O1 9742   0.914   0.243  17.266  0.2275 -0.0390 -0.0043
  654TMC3    O2 9743   0.726   0.739  17.437 -0.1641  0.1924 -0.5001
  655MPD2     C 9744   2.408   1.003  15.720  0.7279  0.4613 -0.0891
  655MPD2    C1 9745   2.464   1.117  15.661 -0.2902 -0.2324  0.0346
  655MPD2    C2 9746   2.476   1.115  15.520  0.0262  0.6618 -0.0543
  655MPD2    C3 9747   2.434   1.005  15.444  0.1522  0.3103  0.0169
  655MPD2    C4 9748   2.378   0.895  15.502 -0.1590  0.0107  0.1948
  655MPD2    C5 9749   2.378   0.887  15.644  0.0298  0.4231  0.0996
  655MPD2     H 9750   2.531   1.196  15.473 -0.2683  0.2085 -1.1619
  655MPD2    H1 9751   2.344   0.808  15.448  2.4209 -1.1717  0.4558
  655MPD2    H2 9752   2.393   1.012  15.827  1.7379 -0.8678  0.1628
  655MPD2    H3 9753   2.344   0.793  15.685 -0.6239  0.5914 -0.0660
  655MPD2     N 9754   2.445   0.996  15.300 -0.2901 -1.3730  0.6348
  655MPD2    H5 9755   2.404   0.916  15.253 -1.4107 -1.2514  1.4043
  655MPD2    N1 9756   2.497   1.238  15.730 -0.3181 -0.2254 -0.1285
  655MPD2    H7 9757   2.522   1.320  15.677  1.4316 -1.9667 -2.0233
  656TMC3    C1 9758   2.476   1.379  15.927 -0.0585  0.4864 -0.5492
  656TMC3    C2 9759   2.417   1.366  16.053 -0.3951 -0.0082  0.0645
  656TMC3    C3 9760   2.346   1.475  16.102  0.0942  0.9106  0.3746
  656TMC3    C4 9761   2.472   1.491  15.851  0.1278 -0.0682  0.2694
  656TMC3    C5 9762   2.402   1.594  15.906 -0.4046  0.2179 -0.0057
  656TMC3    C6 9763   2.345   1.590  16.033  0.5266 -0.1992 -0.0366
  656TMC3     C 9764   2.493   1.245  15.870 -0.5946 -0.8114 -0.2818
  656TMC3     O 9765   2.512   1.151  15.947 -0.5146  0.4368 -0.2238
  656TMC3     H 9766   2.419   1.271  16.106  1.0812 -0.0425 -0.0665
  656TMC3    H1 9767   2.501   1.484  15.747 -0.0214  0.0470  0.2199
  656TMC3    H2 9768   2.269   1.663  16.059  0.1577 -1.2899  1.9576
  656TMC3    C7 9769   2.350   1.710  15.829 -0.1160 -0.4912  0.3919
  656TMC3    C8 9770   2.239   1.429  16.195 -0.4048 -0.7856 -0.4921
  656TMC3    O1 9771   2.270   1.789  15.882 -0.0223  0.2953  0.3422
  656TMC3    O2 9772   2.215   1.310  16.202 -0.3149  0.7388  0.0522
  657TMC3    C1 9773   1.352   0.354  15.201 -0.3948  0.1836  0.4645
  657TMC3    C2 9774   1.483   0.336  15.244  0.5985 -0.0256 -0.7321
  657TMC3    C3 9775   1.524   0.420  15.351  0.4175 -0.4220 -1.7568
  657TMC3    C4 9776   1.273   0.445  15.257 -0.1747  0.0946 -0.0592
  657TMC3    C5 9777   1.317   0.526  15.359 -0.1304  0.5024 -0.0565
  657TMC3    C6 9778   1.447   0.517  15.410 -0.8159 -0.5995  0.3549
  657TMC3     C 9779   1.285   0.236  15.143 -1.0839 -0.4807  0.1591
  657TMC3     O 9780   1.167   0.236  15.116 -0.4337 -1.2933  0.0830
  657TMC3     H 9781   1.541   0.247  15.222  1.1964  0.5355 -1.4295
  657TMC3    H1 9782   1.165   0.446  15.240 -0.4205  1.3434  1.5300
  657TMC3    H2 9783   1.481   0.583  15.489 -1.0346  2.3827 -2.0441
  657TMC3    C7 9784   1.215   0.593  15.427  0.3842  0.4201  0.2731
  657TMC3    C8 9785   1.658   0.402  15.408  0.0423  0.6047 -0.4791
  657TMC3    O1 9786   1.104   0.594  15.379 -0.1954  0.0916  0.1252
  657TMC3    O2 9787   1.679   0.474  15.504 -0.4606  0.2303 -0.5341
  658MPD2     C 9788   2.985   1.155  14.724 -0.1728 -0.0940  0.1143
  658MPD2    C1 9789   2.889   1.061  14.700  0.6814 -0.2655  0.2198
  658MPD2    C2 9790   2.894   0.999  14.569 -0.3012 -0.8097  1.0895
  658MPD2    C3 9791   2.990   1.035  14.477  0.3042  0.0065  0.9080
  658MPD2    C4 9792   3.091   1.131  14.510 -1.2639  0.0471  0.6722
  658MPD2    C5 9793   3.085   1.191  14.632  0.5472  0.5007  0.5339
  658MPD2     H 9794   2.814   0.934  14.535 -0.6550  0.2711 -0.1486
  658MPD2    H1 9795   3.161   1.169  14.436 -1.2303 -2.1044 -0.4000
  658MPD2    H2 9796   2.980   1.210  14.818  0.3309  0.1862 -0.0219
  658MPD2    H3 9797   3.162   1.263  14.657  0.2924  0.6375  0.9345
  658MPD2     N 9798   2.987   0.962  14.353  0.1396 -0.4773 -0.0485
  658MPD2    H5 9799   2.920   0.886  14.354 -0.8406  0.4052  1.5731
  658MPD2    N1 9800   2.782   1.040  14.794  0.0032 -0.5018 -0.4081
  658MPD2    H7 9801   2.793   1.095  14.878 -1.7645 -2.2448  0.9530
  659TMC3    C1 9802   2.567   0.971  14.875  0.2422 -0.0052  0.0880
  659TMC3    C2 9803   2.591   1.021  14.998 -0.1660 -0.4125 -0.7401
  659TMC3    C3 9804   2.486   1.054  15.082  1.2741  0.7839 -0.1551
  659TMC3    C4 9805   2.437   0.922  14.845  0.7855  0.3329  0.7387
  659TMC3    C5 9806   2.335   0.960  14.932 -0.9778 -0.2630  0.6598
  659TMC3    C6 9807   2.355   1.024  15.052  0.1318  0.2207  0.8670
  659TMC3     C 9808   2.671   0.963  14.775 -0.0761  0.1679  0.2722
  659TMC3     O 9809   2.637   0.906  14.677  0.3739 -0.1177 -0.8525
  659TMC3     H 9810   2.689   1.049  15.035  0.2989 -1.1262 -1.4354
  659TMC3    H1 9811   2.410   0.880  14.749 -0.6440 -2.0192  2.1736
  659TMC3    H2 9812   2.274   1.051  15.119 -1.5757 -1.2016 -0.6508
  659TMC3    C7 9813   2.205   0.945  14.864  0.9601 -0.2867  0.2737
  659TMC3    C8 9814   2.512   1.085  15.217  0.1373  0.3936  0.7888
  659TMC3    O1 9815   2.187   0.846  14.790  0.1998  0.1291 -0.5954
  659TMC3    O2 9816   2.584   1.180  15.245  0.1209 -0.3538 -0.1519
  660MPD2     C 9817   0.662   4.425  12.423  0.4257 -0.0007 -0.1652
  660MPD2    C1 9818   0.541   4.480  12.462  0.1914 -0.3017 -0.3538
  660MPD2    C2 9819   0.511   4.495  12.594  0.0875 -0.0172 -0.0858
  660MPD2    C3 9820   0.591   4.445  12.694 -0.7142  0.7397 -0.3656
  660MPD2    C4 9821   0.700   4.384  12.649 -0.2550  0.1066  0.0722
  660MPD2    C5 9822   0.737   4.371  12.521 -0.0447 -0.0368  0.2540
  660MPD2     H 9823   0.414   4.532  12.627 -0.1488 -0.0608 -0.7149
  660MPD2    H1 9824   0.758   4.340  12.729 -0.9132 -2.2761 -0.7577
  660MPD2    H2 9825   0.697   4.428  12.320 -1.4360 -2.0722 -0.8647
  660MPD2    H3 9826   0.825   4.311  12.500 -0.9100 -1.0551 -0.4736
  660MPD2     N 9827   0.559   4.441  12.827 -0.5448  0.0624  0.1752
  660MPD2    H5 9828   0.622   4.379  12.877 -0.3029 -0.4713 -0.7836
  660MPD2    N1 9829   0.452   4.523  12.365 -0.0359  0.5300 -0.7347
  660MPD2    H7 9830   0.490   4.522  12.271 -1.5367 -1.1042 -1.3523
  661TMC3    C1 9831   0.260   4.618  12.259 -1.0960 -0.0533  0.1040
  661TMC3    C2 9832   0.333   4.692  12.169  0.0798  0.0204  0.2823
  661TMC3    C3 9833   0.272   4.727  12.045 -0.9157  0.0531  0.4175
  661TMC3    C4 9834   0.135   4.581  12.234 -0.0569 -0.4089  0.0775
  661TMC3    C5 9835   0.076   4.631  12.117  1.1615 -0.1398  0.3327
  661TMC3    C6 9836   0.140   4.701  12.021 -0.0499 -0.1230 -0.4835
  661TMC3     C 9837   0.326   4.574  12.386 -0.2585 -0.7820 -0.4005
  661TMC3     O 9838   0.261   4.581  12.489 -0.1737 -0.0921 -0.1421
  661TMC3     H 9839   0.438   4.710  12.191 -0.1283  2.8446 -1.0280
  661TMC3    H1 9840   0.073   4.523  12.301  2.1770 -1.2430  1.4245
  661TMC3    H2 9841   0.090   4.719  11.927 -1.1155  1.3122  0.3721
  661TMC3    C7 9842   4.685   4.576  12.078  0.4978  0.5256 -0.6232
  661TMC3    C8 9843   0.358   4.694  11.938  0.0017  0.3706 -0.1714
  661TMC3    O1 9844   4.653   4.567  11.958 -0.3004  0.2301 -0.1652
  661TMC3    O2 9845   0.472   0.002  11.941 -0.5192  0.3398 -0.6928
  662MPD2     C 9846   1.171   4.056  17.413 -0.4991  0.1409  0.1855
  662MPD2    C1 9847   1.147   4.100  17.544 -0.9043 -0.3868  0.4002
  662MPD2    C2 9848   1.087   4.225  17.566 -0.1725 -0.1037  0.2418
  662MPD2    C3 9849   1.024   4.288  17.460 -0.3649  0.3742  0.3732
  662MPD2    C4 9850   1.038   4.238  17.332 -0.0311  0.4906  0.3580
  662MPD2    C5 9851   1.110   4.123  17.312 -0.5216 -0.4252  0.4666
  662MPD2     H 9852   1.083   4.264  17.667  0.1841 -1.2916  0.7104
  662MPD2    H1 9853   0.995   4.287  17.246  0.0559 -1.3279 -0.7203
  662MPD2    H2 9854   1.237   3.971  17.401 -0.5512 -0.1576  2.0064
  662MPD2    H3 9855   1.115   4.088  17.209 -1.1065  1.9064 -0.3615
  662MPD2     N 9856   0.943   4.403  17.480 -0.3712  1.0047  0.0476
  662MPD2    H5 9857   0.901   4.443  17.398  1.4832  0.9221 -0.9338
  662MPD2    N1 9858   1.186   4.026  17.656 -0.1170  0.1362  0.2790
  662MPD2    H7 9859   1.177   4.073   0.014  0.7316  0.3108  0.2771
  663TMC3    C1 9860   1.215   3.845   0.056 -0.9310 -0.5092 -0.0209
  663TMC3    C2 9861   1.175   3.935   0.152  0.5899  0.2298  0.3227
  663TMC3    C3 9862   1.098   3.898   0.261 -0.2746 -0.0422 -0.0961
  663TMC3    C4 9863   1.174   3.711   0.062 -0.1923 -0.1965  0.6108
  663TMC3    C5 9864   1.069   3.687   0.156  0.1135  0.0027  0.0446
  663TMC3    C6 9865   1.036   3.778   0.254 -0.2939 -0.5321 -0.3973
  663TMC3     C 9866   1.235   3.896  17.655 -0.5237  0.0876  0.7070
  663TMC3     O 9867   1.264   3.820  17.569 -0.4191 -0.5279 -0.4993
  663TMC3     H 9868   1.229   4.029   0.162  2.5606 -0.7992 -0.7448
  663TMC3    H1 9869   1.208   3.640  17.720  0.6825  0.5510  0.2973
  663TMC3    H2 9870   0.945   3.748   0.306  1.0505 -4.0117 -0.0501
  663TMC3    C7 9871   0.956   3.632   0.088  0.1914 -0.1991  0.1002
  663TMC3    C8 9872   1.005   4.006   0.302  0.6132  0.3896 -0.3531
  663TMC3    O1 9873   0.851   3.691   0.107  0.2466  0.4224 -0.0368
  663TMC3    O2 9874   1.000   4.100   0.227  0.2372 -0.3497  0.1174
  664MPD2     C 9875   4.364   2.204  17.663 -0.3350  0.4038 -0.1117
  664MPD2    C1 9876   4.341   2.328  17.722 -0.1002 -0.1126 -0.5010
  664MPD2    C2 9877   4.247   2.338   0.097  0.2941 -0.2067  0.3911
  664MPD2    C3 9878   4.166   2.239   0.129  0.1895 -0.1811  0.1941
  664MPD2    C4 9879   4.186   2.116   0.077 -0.1113  0.2150  1.0321
  664MPD2    C5 9880   4.285   2.101  17.705 -0.7088 -0.2510 -0.0621
  664MPD2     H 9881   4.238   2.431   0.153  3.9627 -0.3212  1.2075
  664MPD2    H1 9882   4.124   2.029   0.096 -0.2707 -0.2011 -1.4132
  664MPD2    H2 9883   4.446   2.187  17.594 -0.0923  1.7921 -0.1533
  664MPD2    H3 9884   4.297   2.005  17.656 -0.2780 -0.2032 -0.0529
  664MPD2     N 9885   4.083   2.257   0.241 -0.1868 -0.6371 -0.1548
  664MPD2    H5 9886   4.104   2.342   0.292 -2.2461  0.3032 -0.8531
  664MPD2    N1 9887   4.410   2.443  17.678  0.1267  0.2828 -0.8649
  664MPD2    H7 9888   4.480   2.441  17.605 -1.3948 -0.3885 -2.2933
  665TMC3    C1 9889   3.884   2.255   0.384 -0.9387 -0.5968 -0.3912
  665TMC3    C2 9890   3.816   2.168   0.469  0.4796 -0.4343 -0.0287
  665TMC3    C3 9891   3.757   2.231   0.569 -0.4511 -0.3327 -0.4655
  665TMC3    C4 9892   3.903   2.388   0.413  0.0700  0.0052  0.5260
  665TMC3    C5 9893   3.851   2.439   0.526  0.3075  0.0123  0.4365
  665TMC3    C6 9894   3.776   2.360   0.604 -0.4257  0.7746  0.0355
  665TMC3     C 9895   3.973   2.187   0.283 -0.3843 -0.3693 -0.7309
  665TMC3     O 9896   3.959   2.073   0.250 -0.2183  0.5432 -0.9410
  665TMC3     H 9897   3.799   2.064   0.444 -3.5748  0.6257 -1.8049
  665TMC3    H1 9898   3.949   2.451   0.337  0.0000 -0.4881  0.0751
  665TMC3    H2 9899   3.722   2.402   0.688  0.9440 -1.8457  2.1798
  665TMC3    C7 9900   3.883   2.578   0.561  0.1510  0.3949  0.7361
  665TMC3    C8 9901   3.676   2.148   0.653  0.8080  0.6219  0.4164
  665TMC3    O1 9902   3.888   2.650   0.464  0.5506  0.0693  0.0972
  665TMC3    O2 9903   3.708   2.136   0.769  0.1358  0.1111 -0.9017
  666TMC3    C1 9904   2.504   2.142   9.484  0.0299 -0.1714  0.2115
  666TMC3    C2 9905   2.537   2.236   9.393  0.2777  0.0335 -0.5357
  666TMC3    C3 9906   2.553   2.366   9.434 -0.1807  0.4014 -0.0923
  666TMC3    C4 9907   2.458   2.179   9.614 -0.1948  0.1230 -0.1015
  666TMC3    C5 9908   2.435   2.318   9.631 -0.1656 -0.4922 -0.0164
  666TMC3    C6 9909   2.486   2.418   9.543 -0.0719 -0.1737 -0.0952
  666TMC3     C 9910   2.580   2.019   9.464  0.2681  0.0667  0.4494
  666TMC3     O 9911   2.614   1.988   9.354  0.1712  0.0689 -0.4481
  666TMC3     H 9912   2.573   2.202   9.296 -2.9891 -1.5943 -1.1739
  666TMC3    H1 9913   2.422   2.099   9.677 -0.9764 -0.3517 -1.1577
  666TMC3    H2 9914   2.501   2.518   9.582  1.2410  0.1928 -1.5264
  666TMC3    C7 9915   2.364   2.364   9.745 -0.0425 -0.0953  0.3123
  666TMC3    C8 9916   2.699   2.386   9.448 -0.1374 -0.3089 -0.4099
  666TMC3    O1 9917   2.349   2.291   9.834  0.3211  0.1160  0.1911
  666TMC3    O2 9918   2.743   2.422   9.559  0.4646  0.2816  0.1311
  667MPD2     C 9919   0.304   2.486  14.969 -0.2987 -0.3499 -0.7657
  667MPD2    C1 9920   0.176   2.523  15.019  0.7951  0.2150 -0.7264
  667MPD2    C2 9921   0.075   2.424  15.013  1.3922  0.0048 -0.1805
  667MPD2    C3 9922   0.095   2.295  14.975  0.0853 -0.3899 -0.2711
  667MPD2    C4 9923   0.219   2.261  14.913 -0.2128  0.8981 -0.5651
  667MPD2    C5 9924   0.315   2.362  14.909  0.3065 -0.1540  0.7149
  667MPD2     H 9925   4.714   2.451  15.060  1.3457  0.1492 -0.3572
  667MPD2    H1 9926   0.238   2.168  14.861  2.0110  0.0909  1.6753
  667MPD2    H2 9927   0.389   2.553  14.963 -0.1529 -0.4183  0.5482
  667MPD2    H3 9928   0.408   2.342  14.857  0.9755 -0.6624  2.1168
  667MPD2     N 9929   4.727   2.201  14.973  0.1497 -0.1563 -0.6145
  667MPD2    H5 9930   0.011   2.112  14.928 -1.9517 -0.4926 -0.7669
  667MPD2    N1 9931   0.159   2.652  15.077  0.4266 -0.1088  0.3095
  667MPD2    H7 9932   0.075   2.675  15.130  0.3122 -1.8406  0.8808
  668TMC3    C1 9933   0.203   2.872  15.126 -0.0281  0.4062 -0.1323
  668TMC3    C2 9934   0.221   2.990  15.062 -0.1750  1.2423  0.3972
  668TMC3    C3 9935   0.196   3.102  15.130 -0.6767 -0.1174 -1.2681
  668TMC3    C4 9936   0.167   2.863  15.256 -0.3284 -0.0699 -1.1293
  668TMC3    C5 9937   0.144   2.971  15.322  0.0795  0.3633 -0.3269
  668TMC3    C6 9938   0.160   3.093  15.264 -0.5578 -0.0647  0.1502
  668TMC3     C 9939   0.243   2.758  15.051 -0.5996 -0.3783  0.6364
  668TMC3     O 9940   0.333   2.775  14.965 -0.1396 -0.0130 -0.0558
  668TMC3     H 9941   0.241   3.000  14.956  0.4750 -2.4807  0.1767
  668TMC3    H1 9942   0.157   2.766  15.304  1.7973 -0.4406 -1.4490
  668TMC3    H2 9943   0.136   3.177  15.329  1.5160 -1.2223  2.4079
  668TMC3    C7 9944   0.107   2.971  15.464  0.0984 -1.0051 -0.8484
  668TMC3    C8 9945   0.268   3.225  15.096  0.3525  0.1684  0.3437
  668TMC3    O1 9946   0.160   3.053  15.537 -0.1785 -0.0635 -0.4231
  668TMC3    O2 9947   0.240   3.324  15.164  0.0253  0.1221  0.3718
  669TMC3    C1 9948   2.736   2.493  15.115  0.3927 -0.1749 -0.1473
  669TMC3    C2 9949   2.663   2.521  15.001  0.7673 -0.2702  0.2164
  669TMC3    C3 9950   2.743   2.562  14.891  0.5697  0.2650 -0.9685
  669TMC3    C4 9951   2.870   2.526  15.129 -0.1367  0.6621  0.0002
  669TMC3    C5 9952   2.935   2.587  15.026 -0.8686  0.4494  0.5901
  669TMC3    C6 9953   2.877   2.602  14.899  0.4695 -0.3753  0.3258
  669TMC3     C 9954   2.685   2.421  15.225  0.7995  0.4521  0.0397
  669TMC3     O 9955   2.564   2.426  15.237 -0.2311 -0.5293  0.6425
  669TMC3     H 9956   2.558   2.497  14.987  1.4253 -2.0511 -1.6050
  669TMC3    H1 9957   2.918   2.518  15.226 -1.5025  1.8242  0.7804
  669TMC3    H2 9958   2.930   2.652  14.819  0.4677 -1.3673 -0.2978
  669TMC3    C7 9959   3.077   2.605  15.045  0.7487 -0.1259  0.5093
  669TMC3    C8 9960   2.675   2.559  14.756 -0.6663 -0.0605  0.2764
  669TMC3    O1 9961   3.132   2.558  15.144 -0.3293 -0.5248 -0.5909
  669TMC3    O2 9962   2.552   2.543  14.746 -0.5024 -0.0684  0.3963
  670MPD2     C 9963   1.034   4.601  13.172 -0.8913  0.0859  0.2071
  670MPD2    C1 9964   0.929   4.691  13.177 -0.5654 -0.0258  0.0194
  670MPD2    C2 9965   0.892   0.017  13.299  0.3784 -0.5706 -0.5115
  670MPD2    C3 9966   0.961   4.719  13.414 -0.2307 -0.7459 -0.4217
  670MPD2    C4 9967   1.062   4.628  13.412  0.2265  0.1159 -0.1792
  670MPD2    C5 9968   1.099   4.577  13.288  0.0341 -0.0185 -0.0875
  670MPD2     H 9969   0.811   0.089  13.296  0.5343 -0.3581  0.5305
  670MPD2    H1 9970   1.114   4.594  13.501 -1.0633 -0.1543  0.4621
  670MPD2    H2 9971   1.077   4.571  13.077  1.2476  0.6471  1.0072
  670MPD2    H3 9972   1.180   4.506  13.284 -1.7893 -1.9927 -2.0547
  670MPD2     N 9973   0.912   0.045  13.536  0.2745 -0.4799 -0.0443
  670MPD2    H5 9974   0.831   0.106  13.530  1.5787  1.2352 -0.2548
  670MPD2    N1 9975   0.855   4.728  13.063 -0.2408 -0.2616  0.0126
  670MPD2    H7 9976   0.789   0.073  13.060  0.9723  0.7992  1.1225
  671TMC3    C1 9977   0.892   0.091  13.770 -0.1912  0.1066 -0.3549
  671TMC3    C2 9978   0.951   0.080  13.898 -0.2006  0.4687 -0.7680
  671TMC3    C3 9979   0.890   0.018  13.998 -0.2081 -0.2864  0.3499
  671TMC3    C4 9980   0.758   0.063  13.757  0.3288  0.0012  0.3145
  671TMC3    C5 9981   0.700   4.725  13.860  0.2335  0.6226 -0.0653
  671TMC3    C6 9982   0.756   4.710  13.985  0.6803  0.2690 -0.2141
  671TMC3     C 9983   0.981   0.047  13.658 -0.5687 -0.2884  0.6310
  671TMC3     O 9984   1.086   4.729  13.701  0.0266  0.0429 -0.4011
  671TMC3     H 9985   1.057   0.099  13.905 -0.4008  0.9682  0.9253
  671TMC3    H1 9986   0.710   0.078  13.661 -0.2161 -0.7027  0.4811
  671TMC3    H2 9987   0.717   4.647  14.064  0.0453  0.4200 -0.4075
  671TMC3    C7 9988   0.614   4.621  13.824 -0.1105 -0.1037  0.7439
  671TMC3    C8 9989   0.974   4.642  14.051  0.5397 -0.5773  0.5339
  671TMC3    O1 9990   0.621   4.582  13.711  0.1756 -0.2087 -0.3031
  671TMC3    O2 9991   0.936   4.528  14.017 -0.0315  0.4012 -0.5763
  672MPD2     C 9992   1.165   0.928   1.354  0.1703 -0.0986 -0.5255
  672MPD2    C1 9993   1.243   0.860   1.266  0.2994 -0.3240  0.0145
  672MPD2    C2 9994   1.365   0.903   1.234 -0.1801 -0.0265  0.5653
  672MPD2    C3 9995   1.412   1.012   1.300 -0.5067 -0.5131  0.2902
  672MPD2    C4 9996   1.340   1.084   1.389 -0.1948 -0.5003  0.0351
  672MPD2    C5 9997   1.211   1.043   1.415  0.2484 -0.5975 -0.5643
  672MPD2     H 9998   1.420   0.842   1.162 -3.1804 -2.1880  0.1227
  672MPD2    H1 9999   1.365   1.172   1.448  1.3736 -1.1728  0.3808
  672MPD2    H210000   1.064   0.897   1.378 -0.1289 -0.6925 -2.5560
  672MPD2    H310001   1.150   1.114   1.469  1.1147  0.2976 -0.7855
  672MPD2     N10002   1.537   1.067   1.283  0.4240 -0.0370  0.3156
  672MPD2    H510003   1.557   1.153   1.333  1.4295  0.5417 -1.0703
  672MPD2    N110004   1.191   0.758   1.191 -0.0044  0.9417 -0.1638
  672MPD2    H710005   1.264   0.717   1.134  0.2175 -0.1408  0.8849
  673TMC3    C110006   1.053   0.598   1.099 -0.4672 -0.4299  0.1411
  673TMC3    C210007   1.138   0.490   1.103  0.3652 -0.3500  0.1552
  673TMC3    C310008   1.102   0.384   1.020  0.0931 -0.0045 -0.1455
  673TMC3    C410009   0.946   0.601   1.012  0.0155  0.8208  0.0074
  673TMC3    C510010   0.911   0.495   0.936  0.6338  0.2655 -0.4576
  673TMC3    C610011   0.999   0.385   0.936 -0.9562 -0.1485  0.6072
  673TMC3     C10012   1.065   0.717   1.185 -0.6345  0.6640 -0.1025
  673TMC3     O10013   0.962   0.771   1.222  0.1986 -0.4746 -0.6643
  673TMC3     H10014   1.205   0.472   1.186 -0.5784  0.8642  1.1803
  673TMC3    H110015   0.882   0.688   1.015  0.2111  0.9797 -0.4266
  673TMC3    H210016   0.982   0.300   0.871 -0.7707  1.6831 -1.8804
  673TMC3    C710017   0.833   0.517   0.811 -0.4583 -0.0384  0.2929
  673TMC3    C810018   1.166   0.256   1.030  0.3804 -0.5563  0.7735
  673TMC3    O110019   0.788   0.416   0.763 -1.2382  0.2905  0.5716
  673TMC3    O210020   1.102   0.158   1.000 -0.1926  0.6220 -0.5162
  674MPD2     C10021   0.695   0.879   0.131 -0.4216 -0.8438 -0.5946
  674MPD2    C110022   0.698   0.735   0.140  0.1987 -0.8305  0.1845
  674MPD2    C210023   0.568   0.672   0.136 -0.2860  0.0646  0.6250
  674MPD2    C310024   0.452   0.735   0.130 -0.2237  0.1220 -0.4228
  674MPD2    C410025   0.455   0.868   0.103  0.2598  0.2691 -0.7503
  674MPD2    C510026   0.570   0.938   0.107  0.3800  0.1552  0.0515
  674MPD2     H10027   0.567   0.565   0.151 -0.2068 -0.6801 -4.6800
  674MPD2    H110028   0.363   0.925   0.092 -0.2392 -0.2600  0.6673
  674MPD2    H210029   0.781   0.944   0.129 -1.7713  1.0022  1.5966
  674MPD2    H310030   0.572   1.045   0.091 -0.5510  0.1930  0.2113
  674MPD2     N10031   0.337   0.658   0.159  0.0867  0.1186 -0.4725
  674MPD2    H510032   0.346   0.556   0.163 -0.3055  0.1678  1.8382
  674MPD2    N110033   0.814   0.663   0.179  0.0490  0.4117 -0.5847
  674MPD2    H710034   0.893   0.716   0.214  0.0004 -0.9614  1.5926
  675TMC3    C110035   0.918   0.469   0.259 -0.5847  0.3692  0.4381
  675TMC3    C210036   0.959   0.342   0.220 -0.1528 -0.2733 -0.8600
  675TMC3    C310037   1.017   0.265   0.316 -0.8837  0.1169  0.4266
  675TMC3    C410038   0.949   0.520   0.382  0.2977 -0.2185 -0.1783
  675TMC3    C510039   1.028   0.449   0.465 -0.4134 -0.0367 -0.0913
  675TMC3    C610040   1.056   0.318   0.438 -0.1893 -0.1115  0.1718
  675TMC3     C10041   0.817   0.527   0.178  0.4997  0.0501 -0.3045
  675TMC3     O10042   0.749   0.448   0.117 -0.1475 -0.1031 -0.4566
  675TMC3     H10043   0.920   0.302   0.127  0.1209  1.0371 -1.5511
  675TMC3    H110044   0.917   0.621   0.407  0.2452 -0.2208 -0.2352
  675TMC3    H210045   1.114   0.261   0.509  0.9454  2.1574  1.0568
  675TMC3    C710046   1.094   0.510   0.587 -0.4757 -0.4026  0.2884
  675TMC3    C810047   1.007   0.130   0.292  0.5103  0.1188  0.1582
  675TMC3    O110048   1.152   0.434   0.664  0.0151  0.0996 -0.2663
  675TMC3    O210049   1.008   0.087   0.177  0.1336 -0.3182  0.4255
  676MPD2     C10050   3.512   3.109  11.073 -0.4211  0.0576 -0.2462
  676MPD2    C110051   3.429   3.021  11.131  0.4411 -0.1166 -0.5318
  676MPD2    C210052   3.445   2.888  11.102 -0.4553  0.3031 -0.0460
  676MPD2    C310053   3.548   2.850  11.014  0.2703 -0.5800 -0.1212
  676MPD2    C410054   3.619   2.941  10.945  0.2845 -0.3896  0.5173
  676MPD2    C510055   3.601   3.074  10.974  0.0978  0.5239  0.5239
  676MPD2     H10056   3.398   2.817  11.170  0.9567  1.2792  1.9635
  676MPD2    H110057   3.693   2.913  10.871 -0.2445 -2.4770  0.7749
  676MPD2    H210058   3.498   3.214  11.095 -1.1158  0.4354 -2.5350
  676MPD2    H310059   3.667   3.147  10.929 -1.0248  0.7109 -0.8123
  676MPD2     N10060   3.582   2.717  10.995  0.1718  0.0584 -0.2320
  676MPD2    H510061   3.645   2.688  10.921 -0.0878 -1.9499  0.3323
  676MPD2    N110062   3.337   3.062  11.239 -0.1546 -0.1783  0.2751
  676MPD2    H710063   3.286   2.986  11.283  1.6669 -1.0185  0.9367
  677TMC3    C110064   3.196   3.199  11.373  0.1064  0.2058 -0.3656
  677TMC3    C210065   3.094   3.101  11.356  0.3907  0.0930 -0.0675
  677TMC3    C310066   3.006   3.085  11.459 -0.4795  0.1977 -0.0216
  677TMC3    C410067   3.211   3.273  11.488 -0.0497 -0.4890  0.3985
  677TMC3    C510068   3.119   3.254  11.583 -0.8357 -0.2391 -0.3413
  677TMC3    C610069   3.017   3.169  11.572  0.2708  0.1754  0.2593
  677TMC3     C10070   3.311   3.193  11.283 -0.1781 -0.4279  0.1042
  677TMC3     O10071   3.384   3.292  11.276  0.3738 -0.0858 -0.1744
  677TMC3     H10072   3.092   3.041  11.266 -0.1133  2.2523 -1.4850
  677TMC3    H110073   3.295   3.341  11.494 -0.5957  0.2913 -0.7125
  677TMC3    H210074   2.950   3.159  11.657 -0.3606 -3.1631 -0.6269
  677TMC3    C710075   3.151   3.288  11.720  0.5954 -0.5197 -0.5448
  677TMC3    C810076   2.905   2.983  11.445  0.1159  0.1717 -0.1130
  677TMC3    O110077   3.089   3.230  11.807  0.1681 -0.1339 -0.2792
  677TMC3    O210078   2.835   2.981  11.343  0.7460  0.0154  0.3151
  678MPD2     C10079   0.011   2.782   1.689  0.0784  0.0124 -0.4684
  678MPD2    C110080   0.022   2.803   1.552  0.1319 -0.6063  0.2892
  678MPD2    C210081   4.677   2.904   1.496 -0.1245 -0.2882  0.0918
  678MPD2    C310082   4.576   2.965   1.572  0.2168 -0.5126  0.0645
  678MPD2    C410083   4.558   2.936   1.699  0.4303 -0.1658  0.4222
  678MPD2    C510084   4.644   2.853   1.757  0.2253  0.4180 -0.5355
  678MPD2     H10085   4.704   2.915   1.391  0.3765 -0.2337  0.2244
  678MPD2    H110086   4.482   2.987   1.757  0.7456  2.1807 -1.2355
  678MPD2    H210087   0.063   2.714   1.755 -0.2840 -1.9890 -2.2290
  678MPD2    H310088   4.632   2.821   1.860  0.3803  1.6248 -0.1409
  678MPD2     N10089   4.497   3.058   1.501  0.2695  0.1488  0.1659
  678MPD2    H510090   4.532   3.067   1.406 -0.8208  0.2868 -0.2159
  678MPD2    N110091   0.126   2.757   1.466 -0.1521  0.3090  0.0617
  678MPD2    H710092   0.138   2.805   1.378  1.0638  2.8776  1.6324
  679TMC3    C110093   0.570   2.640   1.411 -0.1871  0.4575 -0.1998
  679TMC3    C210094   0.445   2.603   1.467 -0.1100 -0.2426  0.0117
  679TMC3    C310095   0.336   2.675   1.427 -0.2230 -0.1340  0.6456
  679TMC3    C410096   0.574   2.729   1.304  0.1672 -0.1552  0.1622
  679TMC3    C510097   0.459   2.800   1.278 -0.0477  0.2876  0.7769
  679TMC3    C610098   0.343   2.783   1.344  0.3814 -0.0193 -0.4537
  679TMC3     C10099   0.658   2.523   1.386 -0.7638 -0.5019  0.6908
  679TMC3     O10100   0.690   2.504   1.268 -0.4377  0.2031  0.0078
  679TMC3     H10101   0.441   2.536   1.551 -2.6639 -0.2799 -0.1374
  679TMC3    H110102   0.670   2.763   1.269  0.9456 -1.9385  0.6032
  679TMC3    H210103   0.259   2.844   1.312  0.4853 -1.1272 -2.7869
  679TMC3    C710104   0.463   2.915   1.189  0.5911 -0.4770 -0.1269
  679TMC3    C810105   0.221   2.664   1.505  0.1761 -0.0304 -1.1312
  679TMC3    O110106   0.375   2.999   1.212 -0.0667  0.6456  0.2914
  679TMC3    O210107   0.226   2.592   1.603 -0.0525  0.3983  0.2693
  680MPD2     C10108   0.564   1.967  13.592 -0.2879  0.0895 -1.0158
  680MPD2    C110109   0.667   1.901  13.659  0.6448 -0.2584  0.4119
  680MPD2    C210110   0.759   1.971  13.736 -0.4181  0.3371 -0.4233
  680MPD2    C310111   0.755   2.109  13.726 -0.5683  0.5410 -0.1920
  680MPD2    C410112   0.651   2.174  13.673  0.6188  0.0693 -0.4941
  680MPD2    C510113   0.558   2.104  13.614 -0.2106  0.9070 -0.1871
  680MPD2     H10114   0.826   1.912  13.799 -2.7305 -1.4172  0.3775
  680MPD2    H110115   0.650   2.281  13.660  0.3525 -0.0823 -1.7188
  680MPD2    H210116   0.486   1.922  13.533 -0.2372 -1.4474  0.0682
  680MPD2    H310117   0.475   2.160  13.573 -1.5940 -1.6875 -0.8950
  680MPD2     N10118   0.850   2.183  13.797  0.3607 -0.7258 -0.7348
  680MPD2    H510119   0.840   2.284  13.789  0.0460 -0.9854 -3.3784
  680MPD2    N110120   0.675   1.763  13.660 -0.2316 -0.7387 -0.2852
  680MPD2    H710121   0.761   1.728  13.701  0.3700 -0.2396 -1.1214
  681TMC3    C110122   0.642   1.538  13.615  0.2116  0.0334 -0.4821
  681TMC3    C210123   0.558   1.442  13.656  0.3193  0.0710 -0.9971
  681TMC3    C310124   0.605   1.322  13.710 -0.2467 -0.2159 -0.0690
  681TMC3    C410125   0.778   1.526  13.626 -0.1955 -0.1459 -0.4404
  681TMC3    C510126   0.829   1.414  13.677  0.0997 -0.0985  0.0632
  681TMC3    C610127   0.742   1.310  13.722 -0.5266  0.3675 -0.1602
  681TMC3     C10128   0.591   1.670  13.613  0.9308  0.2735  0.5019
  681TMC3     O10129   0.475   1.697  13.580 -0.0005 -0.0711  0.3476
  681TMC3     H10130   0.451   1.456  13.659  0.4736  0.7385  1.4811
  681TMC3    H110131   0.840   1.611  13.598 -0.8992  0.3171 -0.6026
  681TMC3    H210132   0.791   1.219  13.756  0.3771  0.5522 -0.9958
  681TMC3    C710133   0.956   1.374  13.632  0.4816  0.4704  0.4784
  681TMC3    C810134   0.516   1.278  13.813  0.4456  0.2339  0.2399
  681TMC3    O110135   0.986   1.257  13.652  0.3231 -0.1503 -0.0954
  681TMC3    O210136   0.417   1.220  13.781 -0.7306 -0.7106  0.0017
  682MPD2     C10137   1.843   2.688  10.995 -0.3539  0.1669  0.2414
  682MPD2    C110138   1.970   2.634  10.986  0.4770  0.2084  0.2754
  682MPD2    C210139   2.037   2.614  11.104  0.1185 -0.0308  0.4334
  682MPD2    C310140   1.980   2.629  11.233 -0.3101 -0.4153 -0.7343
  682MPD2    C410141   1.849   2.680  11.232 -0.4447  0.1231 -0.3641
  682MPD2    C510142   1.786   2.700  11.114 -0.3061  0.2292 -0.0210
  682MPD2     H10143   2.142   2.589  11.100 -0.0353 -0.8355  1.3266
  682MPD2    H110144   1.804   2.716  11.323  1.9763 -0.5298  1.0888
  682MPD2    H210145   1.787   2.721  10.908 -0.1708 -0.6852 -0.1942
  682MPD2    H310146   1.689   2.749  11.118 -1.2129 -1.5923  0.0994
  682MPD2     N10147   2.063   2.606  11.349  0.2508 -0.7171 -0.5146
  682MPD2    H510148   2.155   2.570  11.323  0.8203 -0.0911  0.6287
  682MPD2    N110149   2.033   2.601  10.865 -0.3670 -0.6847 -0.2408
  682MPD2    H710150   2.125   2.561  10.879 -1.3896 -2.9769 -0.2360
  683TMC3    C110151   2.216   2.601  11.791 -0.0438 -0.3756  0.6442
  683TMC3    C210152   2.309   2.505  11.752  0.5465  0.1881  0.1288
  683TMC3    C310153   2.306   2.458  11.627 -0.4713 -0.3282 -0.0294
  683TMC3    C410154   2.129   2.644  11.694  0.0369 -0.3787  0.5158
  683TMC3    C510155   2.129   2.593  11.572  0.5534  0.5751  0.2667
  683TMC3    C610156   2.211   2.493  11.533  0.4047 -0.9151  0.1377
  683TMC3     C10157   2.210   2.667  11.920  0.5337  0.3306  0.1018
  683TMC3     O10158   2.142   2.771  11.927 -0.2330 -0.1422  0.2907
  683TMC3     H10159   2.369   2.455  11.826  2.1118  0.5400 -0.9113
  683TMC3    H110160   2.049   2.710  11.725 -0.3765 -1.3119  1.4336
  683TMC3    H210161   2.214   2.444  11.437  0.1232  0.1809 -0.4343
  683TMC3    C710162   2.031   2.641  11.476 -0.1806  0.1882 -0.5061
  683TMC3    C810163   2.414   2.366  11.584 -0.5638  0.0708 -0.5161
  683TMC3    O110164   1.936   2.710  11.519  0.7988  0.0164 -0.2426
  683TMC3    O210165   2.490   2.331  11.674 -0.0555  0.3612 -0.0785
  684MPD2     C10166   1.098   2.824  16.579  0.0268  0.1338 -0.6453
  684MPD2    C110167   1.032   2.857  16.462 -0.4039  0.4606 -0.4343
  684MPD2    C210168   0.950   2.968  16.457 -0.4818  0.1196 -0.4157
  684MPD2    C310169   0.963   3.063  16.559  0.3947  1.8342 -0.5685
  684MPD2    C410170   1.030   3.033  16.674  0.1887  0.4273  0.1450
  684MPD2    C510171   1.092   2.913  16.686  0.4272  0.3304 -0.5269
  684MPD2     H10172   0.900   2.988  16.363  2.1829 -0.4144 -1.9474
  684MPD2    H110173   1.044   3.100  16.758  0.2623 -1.4557  1.6567
  684MPD2    H210174   1.170   2.743  16.578  0.5827  0.6402 -1.0366
  684MPD2    H310175   1.149   2.905  16.778  0.6888 -0.1734 -0.7355
  684MPD2     N10176   0.938   3.198  16.538  0.6563  0.3712  0.0991
  684MPD2    H510177   0.966   3.255  16.617  2.3879 -0.4404  0.0817
  684MPD2    N110178   1.045   2.783  16.345 -0.0447  0.4480  0.4534
  684MPD2    H710179   0.996   2.829  16.268 -0.2865  2.6119  1.9046
  685TMC3    C110180   1.136   2.652  16.178 -0.3039  0.7810 -0.3092
  685TMC3    C210181   1.021   2.686  16.111 -0.4169 -0.7213  0.4714
  685TMC3    C310182   1.040   2.706  15.971  0.5935 -0.1989 -0.2356
  685TMC3    C410183   1.266   2.650  16.123 -0.1748 -0.6621 -0.2464
  685TMC3    C510184   1.278   2.699  15.995 -0.0195  0.6329 -0.0737
  685TMC3    C610185   1.164   2.713  15.914 -0.2139 -0.4162  0.5940
  685TMC3     C10186   1.121   2.672  16.324 -0.4622 -0.5659  0.3369
  685TMC3     O10187   1.200   2.612  16.397  0.3551  0.0843 -0.3877
  685TMC3     H10188   0.919   2.673  16.145 -0.3605 -0.2195  0.8428
  685TMC3    H110189   1.343   2.630  16.197  2.2296 -0.0732 -2.5804
  685TMC3    H210190   1.168   2.736  15.808  0.3346  2.9903  1.3561
  685TMC3    C710191   1.407   2.759  15.955  0.5198 -0.9773 -0.0370
  685TMC3    C810192   0.924   2.706  15.891  0.4104 -0.7429 -0.4050
  685TMC3    O110193   1.409   2.816  15.844 -0.6913  0.1410 -0.0232
  685TMC3    O210194   0.910   2.642  15.782  0.2492  0.1203 -0.1285
  686MPD2     C10195   2.295   3.295  16.445  0.0292 -0.0044 -0.3488
  686MPD2    C110196   2.304   3.257  16.312 -0.7680 -0.8602  0.7555
  686MPD2    C210197   2.422   3.274  16.237 -0.6535 -0.0764  0.1551
  686MPD2    C310198   2.537   3.310  16.305  0.1675 -0.0990 -0.2464
  686MPD2    C410199   2.529   3.348  16.442 -0.7595 -0.4807  0.1938
  686MPD2    C510200   2.403   3.354  16.497 -0.3734 -0.8257  1.1603
  686MPD2     H10201   2.420   3.254  16.130  0.2991 -1.0788  0.3264
  686MPD2    H110202   2.608   3.395  16.499 -1.0215 -0.7104  0.7432
  686MPD2    H210203   2.210   3.270  16.508  2.0682 -0.8837  2.0830
  686MPD2    H310204   2.403   3.386  16.600  1.5547  0.2567  0.8299
  686MPD2     N10205   2.662   3.298  16.244 -0.3523  0.3286 -0.4094
  686MPD2    H510206   2.740   3.321  16.305 -0.9003 -1.6792  1.0614
  686MPD2    N110207   2.191   3.187  16.259  0.1034 -0.2617 -0.1205
  686MPD2    H710208   2.113   3.168  16.321  0.8669  1.7636  1.4411
  687TMC3    C110209   2.822   3.205  16.096 -0.7826  0.1802 -0.1447
  687TMC3    C210210   2.840   3.188  15.963 -0.7821  0.0596 -0.1194
  687TMC3    C310211   2.928   3.092  15.923 -0.1688 -0.2682  0.0710
  687TMC3    C410212   2.880   3.127  16.190 -0.5913 -0.0530  0.2803
  687TMC3    C510213   2.973   3.040  16.141  1.0956  0.0474 -0.8838
  687TMC3    C610214   3.010   3.024  16.009 -0.1167 -0.2609 -0.0091
  687TMC3     C10215   2.687   3.245  16.123 -0.2695  0.0598 -0.3047
  687TMC3     O10216   2.608   3.222  16.028  0.1355  0.5811  0.1618
  687TMC3     H10217   2.790   3.255  15.893  0.3044  0.5335 -0.4434
  687TMC3    H110218   2.855   3.129  16.295  1.4469 -0.8050  0.7645
  687TMC3    H210219   3.077   2.945  15.979  2.0723  1.4919  0.3161
  687TMC3    C710220   3.019   2.931  16.230 -0.0388 -0.1418  0.2922
  687TMC3    C810221   2.956   3.084  15.780 -0.2079  0.3837  0.2130
  687TMC3    O110222   3.040   2.967  16.344 -0.1584  0.1605  0.7235
  687TMC3    O210223   3.062   3.039  15.740  0.3497 -1.2337  0.1050
  688MPD2     C10224   1.430   1.688  17.346  0.4122 -0.0469 -0.0487
  688MPD2    C110225   1.474   1.580  17.428 -0.7073 -0.6862  0.8303
  688MPD2    C210226   1.583   1.508  17.383  0.5778  0.3422  0.5357
  688MPD2    C310227   1.651   1.541  17.264  0.3543 -0.0347  0.5736
  688MPD2    C410228   1.618   1.656  17.199 -0.3706 -0.7010  0.4834
  688MPD2    C510229   1.501   1.725  17.234 -0.8502  0.4775 -0.3905
  688MPD2     H10230   1.615   1.418  17.435 -0.7913 -0.1821  0.4642
  688MPD2    H110231   1.668   1.686  17.108 -1.3395  0.2360  0.2611
  688MPD2    H210232   1.344   1.742  17.383 -1.7333 -2.1952 -1.8344
  688MPD2    H310233   1.481   1.824  17.195  0.9206  0.7572 -0.5919
  688MPD2     N10234   1.756   1.473  17.209  1.1454  0.4081  0.6798
  688MPD2    H510235   1.797   1.519  17.129 -0.3874  0.3821 -0.1160
  688MPD2    N110236   1.404   1.534  17.538 -0.2030  0.4044  0.5668
  688MPD2    H710237   1.440   1.454  17.590  0.5198  0.1914 -0.2703
  689TMC3    C110238   1.241   1.504  17.708  0.5535  0.7699 -0.1900
  689TMC3    C210239   1.156   1.575   0.055 -0.2021 -0.4815  0.0016
  689TMC3    C310240   1.140   1.529   0.179  0.0400 -0.1060  0.5053
  689TMC3    C410241   1.291   1.383   0.009  0.9295 -0.3659  0.4461
  689TMC3    C510242   1.272   1.341   0.140 -0.0203 -0.1197 -0.6915
  689TMC3    C610243   1.198   1.414   0.222 -0.3632  0.4658 -0.6150
  689TMC3     C10244   1.283   1.582  17.594  0.5005  0.2323  0.3167
  689TMC3     O10245   1.221   1.679  17.563 -0.1831 -0.9108 -0.2016
  689TMC3     H10246   1.115   1.670   0.024 -1.3935 -0.8490  0.4310
  689TMC3    H110247   1.366   1.334  17.681  0.0422 -0.3202 -0.7018
  689TMC3    H210248   1.178   1.376   0.321  0.6744 -0.3854 -0.7328
  689TMC3    C710249   1.322   1.212   0.184  0.4762  0.1951 -0.2420
  689TMC3    C810250   1.095   1.612   0.280 -0.4946  0.5982  0.4677
  689TMC3    O110251   1.372   1.199   0.296  0.0598 -0.4353 -0.0373
  689TMC3    O210252   1.088   1.555   0.390 -0.3520  0.0524  0.5765
  690MPD2     C10253   4.267   3.565  15.796 -0.3489  0.0167 -0.3336
  690MPD2    C110254   4.209   3.539  15.677 -0.9893 -0.1703 -0.3020
  690MPD2    C210255   4.293   3.567  15.571 -0.3378 -0.0639  0.1237
  690MPD2    C310256   4.416   3.621  15.582  0.1642 -0.4381  0.3660
  690MPD2    C410257   4.471   3.644  15.711  0.2065  0.0307  0.5394
  690MPD2    C510258   4.398   3.602  15.818 -0.0852 -0.3138  0.1535
  690MPD2     H10259   4.255   3.537  15.474  0.2701  0.0167 -0.1396
  690MPD2    H110260   4.564   3.691  15.741  0.0929  0.4267  0.2688
  690MPD2    H210261   4.210   3.560  15.888  0.2958 -0.8131  0.0281
  690MPD2    H310262   4.434   3.617  15.919 -1.4332 -0.1007  0.6022
  690MPD2     N10263   4.485   3.665  15.468 -0.2610  0.1880 -0.3465
  690MPD2    H510264   4.467   3.628  15.375  1.9586 -0.4189 -0.5157
  690MPD2    N110265   4.084   3.486  15.649  0.2933 -0.0541 -0.5344
  690MPD2    H710266   4.066   3.467  15.551  0.6356 -0.6054 -0.4907
  691TMC3    C110267   3.864   3.386  15.706  0.0435 -0.1418  0.3656
  691TMC3    C210268   3.821   3.410  15.580  0.3151  0.2046 -0.1216
  691TMC3    C310269   3.731   3.317  15.531  0.0666  0.5236 -1.1381
  691TMC3    C410270   3.813   3.284  15.783 -0.4027 -0.4135  0.1963
  691TMC3    C510271   3.723   3.199  15.733  0.5989 -0.1676  0.0394
  691TMC3    C610272   3.689   3.207  15.605 -0.0307 -0.1793  0.0797
  691TMC3     C10273   3.990   3.448  15.750 -0.2459 -0.0334  0.1900
  691TMC3     O10274   4.006   3.461  15.870  0.4361 -0.4186 -0.1667
  691TMC3     H10275   3.859   3.489  15.516  0.4956 -0.9850 -1.4834
  691TMC3    H110276   3.857   3.271  15.882 -0.3098 -0.7633  0.1068
  691TMC3    H210277   3.629   3.130  15.557 -0.4171 -0.0358  0.3282
  691TMC3    C710278   3.726   3.065  15.787 -0.5112 -0.2507 -0.0287
  691TMC3    C810279   3.647   3.366  15.425  0.6366  0.0642  0.3724
  691TMC3    O110280   3.819   3.033  15.861  0.0160 -0.5442  0.1455
  691TMC3    O210281   3.653   3.309  15.313 -0.0449  0.0058 -0.0896
  692TMC3    C110282   0.352   4.406  15.859  0.2330 -0.1261 -0.1657
  692TMC3    C210283   0.484   4.454  15.849 -0.4997 -0.2484 -0.1275
  692TMC3    C310284   0.599   4.372  15.851 -0.0057  0.2389  0.2269
  692TMC3    C410285   0.329   4.275  15.888  0.2591 -0.1154  0.2222
  692TMC3    C510286   0.444   4.195  15.889 -0.6279  0.3813  0.3715
  692TMC3    C610287   0.575   4.243  15.882 -0.5404 -0.1008 -0.8199
  692TMC3     C10288   0.239   4.485  15.897 -0.3596 -0.4872  0.1889
  692TMC3     O10289   0.151   4.438  15.967 -0.1408  0.1685  0.0974
  692TMC3     H10290   0.487   4.551  15.801 -0.3768 -1.1089 -1.8864
  692TMC3    H110291   0.228   4.243  15.868 -0.0215 -0.1328  1.6690
  692TMC3    H210292   0.651   4.171  15.853 -3.1983 -2.4279 -1.9552
  692TMC3    C710293   0.419   4.055  15.903 -0.2822 -0.0202  0.2359
  692TMC3    C810294   0.706   4.437  15.924 -0.4690 -0.2957 -0.2286
  692TMC3    O110295   0.317   4.010  15.854 -0.1101  0.6874 -0.0716
  692TMC3    O210296   0.789   4.368  15.984 -1.0890  0.0969 -0.2818
  693MPD2     C10297   0.201   2.056  10.751  0.2451 -0.6705 -0.4366
  693MPD2    C110298   0.142   1.997  10.862  0.0311  0.1555 -0.6134
  693MPD2    C210299   0.221   1.921  10.953 -0.1587 -0.3302 -0.1126
  693MPD2    C310300   0.355   1.910  10.923 -0.5017 -0.6529  0.3427
  693MPD2    C410301   0.412   1.964  10.812 -0.1750  0.6628  0.2416
  693MPD2    C510302   0.333   2.030  10.725  0.1706  0.0156  0.0065
  693MPD2     H10303   0.170   1.879  11.039 -1.2991 -0.7733 -0.9978
  693MPD2    H110304   0.517   1.965  10.787 -0.4877  4.2799 -0.8734
  693MPD2    H210305   0.137   2.113  10.685 -0.8833 -0.6651  0.6614
  693MPD2    H310306   0.371   2.066  10.630 -1.1999 -1.5288 -1.1248
  693MPD2     N10307   0.449   1.854  11.017 -0.2414  0.3470 -0.2174
  693MPD2    H510308   0.543   1.863  10.980 -1.5110  0.9914 -3.3402
  693MPD2    N110309   4.733   2.005  10.891  0.7776  0.3311  0.7295
  693MPD2    H710310   4.703   1.945  10.967 -2.1313  1.1208  0.2019
  694TMC3    C110311   4.504   2.002  10.867  0.0752 -0.4118  0.6731
  694TMC3    C210312   4.400   1.994  10.779  0.3525  0.7484 -0.2456
  694TMC3    C310313   4.276   1.981  10.836  1.2525 -0.4740  0.1303
  694TMC3    C410314   4.493   2.007  11.007 -0.0085  0.1058  0.1178
  694TMC3    C510315   4.364   2.013  11.054 -0.0739  0.2166  0.4061
  694TMC3    C610316   4.256   2.004  10.970 -0.3174 -0.0849 -0.0459
  694TMC3     C10317   4.636   2.039  10.811  0.4456 -1.2077 -0.4153
  694TMC3     O10318   4.628   2.075  10.694 -0.0831 -0.4959 -0.7144
  694TMC3     H10319   4.417   1.982  10.672  2.0038 -0.3892  0.1448
  694TMC3    H110320   4.574   2.034  11.073 -0.8254  2.1074  0.3180
  694TMC3    H210321   4.158   2.021  11.014  0.7693  1.8477  1.6369
  694TMC3    C710322   4.345   2.009  11.194  0.7819  0.1880 -0.0053
  694TMC3    C810323   4.165   1.957  10.753  0.3286 -0.1345 -0.2166
  694TMC3    O110324   4.421   2.083  11.262 -0.1549  0.4232  0.3857
  694TMC3    O210325   4.073   1.889  10.802  0.3964  0.1243  0.1118
  695MPD2     C10326   1.288   4.223  13.401  0.0352 -0.2551  0.0650
  695MPD2    C110327   1.217   4.221  13.517  0.0435  0.3220 -0.2119
  695MPD2    C210328   1.084   4.245  13.515 -0.7536  0.0855 -0.0499
  695MPD2    C310329   1.009   4.280  13.408 -0.3683  0.4473 -0.1112
  695MPD2    C410330   1.078   4.273  13.290  0.6392 -0.1750 -0.5837
  695MPD2    C510331   1.211   4.250  13.286  0.0939 -0.4694 -0.7978
  695MPD2     H10332   1.036   4.243  13.612 -2.6466  1.3773 -0.9449
  695MPD2    H110333   1.033   4.280  13.192  1.4139  1.0964 -0.8616
  695MPD2    H210334   1.395   4.205  13.393  0.3099  2.5659 -2.3826
  695MPD2    H310335   1.271   4.261  13.197  0.0252 -1.6343 -0.9891
  695MPD2     N10336   0.866   4.312  13.425  0.1665  0.3641 -0.8122
  695MPD2    H510337   0.829   4.321  13.519 -0.4860  0.7671 -1.1047
  695MPD2    N110338   1.281   4.183  13.638 -0.3692 -0.2037  0.2800
  695MPD2    H710339   1.230   4.196  13.725 -0.7416 -0.4537  0.0988
  696TMC3    C110340   0.640   4.378  13.373  0.3744 -1.0564  0.5361
  696TMC3    C210341   0.584   4.287  13.455  0.6097 -0.2187  1.0680
  696TMC3    C310342   0.464   4.321  13.512 -1.1994  0.4749  0.3910
  696TMC3    C410343   0.583   4.503  13.339  0.1871  0.5572 -0.3924
  696TMC3    C510344   0.475   4.538  13.413  0.4034  0.2549  0.3931
  696TMC3    C610345   0.412   4.449  13.494  0.2032 -0.4066 -0.1894
  696TMC3     C10346   0.784   4.364  13.331  0.6556 -0.3225 -0.3422
  696TMC3     O10347   0.807   4.371  13.214 -0.3562 -0.1489 -0.3967
  696TMC3     H10348   0.624   4.189  13.480 -0.2223 -0.9193 -0.3724
  696TMC3    H110349   0.638   4.574  13.278  0.3969  1.2938  0.6434
  696TMC3    H210350   0.309   4.474  13.520  0.7729 -0.4220  2.0668
  696TMC3    C710351   0.458   4.681  13.422  0.0671  0.4531  0.0841
  696TMC3    C810352   0.381   4.218  13.573 -0.2077  0.0129  0.4978
  696TMC3    O110353   0.491   0.008  13.322 -0.2386  0.1989 -0.4531
  696TMC3    O210354   0.397   4.108  13.519  0.1139 -0.4823  0.1051
  697MPD2     C10355   0.318   1.329  15.938  0.2632  0.2459  0.2146
  697MPD2    C110356   0.328   1.263  15.817 -1.3710 -0.1025 -0.2365
  697MPD2    C210357   0.368   1.343  15.710  0.0129  0.9499  0.6736
  697MPD2    C310358   0.385   1.483  15.723 -0.9409  0.3325  0.3569
  697MPD2    C410359   0.369   1.545  15.847  0.3080 -0.0069 -0.3870
  697MPD2    C510360   0.351   1.459  15.955  0.1008  0.0913  0.1890
  697MPD2     H10361   0.378   1.299  15.612  0.9014  1.4876  0.5146
  697MPD2    H110362   0.370   1.652  15.865  0.2138 -0.2832  1.2530
  697MPD2    H210363   0.300   1.270  16.027  1.5040  0.4531  0.6049
  697MPD2    H310364   0.351   1.504  16.054  0.6672  1.1832 -0.3083
  697MPD2     N10365   0.427   1.563  15.611 -0.5465 -0.2303 -0.5573
  697MPD2    H510366   0.496   1.518  15.553  0.6489 -0.3952  0.9812
  697MPD2    N110367   0.308   1.123  15.800 -0.0909  0.0276 -0.2197
  697MPD2    H710368   0.315   1.087  15.705 -0.7957  1.9683 -1.0199
  698TMC3    C110369   0.506   1.758  15.499 -0.2073  0.2254  0.0115
  698TMC3    C210370   0.588   1.865  15.527 -1.1184  0.4459  0.0377
  698TMC3    C310371   0.686   1.902  15.445 -0.5563 -0.6776 -0.2329
  698TMC3    C410372   0.520   1.686  15.380  0.1945 -0.2235  0.1015
  698TMC3    C510373   0.623   1.721  15.298 -0.7592  0.5592 -0.2027
  698TMC3    C610374   0.708   1.823  15.329 -0.2974 -0.8784  0.1254
  698TMC3     C10375   0.427   1.702  15.604  0.1396  0.2176  0.4227
  698TMC3     O10376   0.370   1.777  15.683  0.4172  0.1794  0.0609
  698TMC3     H10377   0.573   1.929  15.614 -1.5202 -1.2824  1.2415
  698TMC3    H110378   0.458   1.601  15.354 -1.1044  0.5849  0.5726
  698TMC3    H210379   0.773   1.859  15.250 -1.1839  1.1231  0.3011
  698TMC3    C710380   0.586   1.690  15.162  0.4744 -0.6698  0.6510
  698TMC3    C810381   0.795   1.970  15.513 -0.1001  0.1068  0.1356
  698TMC3    O110382   0.470   1.694  15.129  0.5485 -0.0904 -0.8738
  698TMC3    O210383   0.798   1.966  15.636  0.2685  0.4862 -0.1071
  699TMC3    C110384   0.422   4.452  13.018 -0.7698 -0.2231  0.2226
  699TMC3    C210385   0.483   4.327  13.046  0.6877 -0.2095  0.4921
  699TMC3    C310386   0.409   4.245  13.131 -0.8617  0.6145 -0.5142
  699TMC3    C410387   0.299   4.489  13.079  0.0234 -0.5954 -0.5538
  699TMC3    C510388   0.238   4.403  13.171  0.0229 -0.3175 -0.0585
  699TMC3    C610389   0.296   4.283  13.193 -0.4869 -0.3590 -0.3812
  699TMC3     C10390   0.453   4.504  12.891  0.3679  0.7159 -0.8184
  699TMC3     O10391   0.383   4.598  12.848  0.0224 -0.2610 -0.4317
  699TMC3     H10392   0.579   4.289  13.013  0.2249 -0.5348 -0.4783
  699TMC3    H110393   0.253   4.577  13.036 -1.0456 -2.0192 -2.3419
  699TMC3    H210394   0.257   4.220  13.273 -0.3023  0.7275  0.5784
  699TMC3    C710395   0.145   4.464  13.261 -0.3175  0.4428  0.6965
  699TMC3    C810396   0.465   4.111  13.168 -0.4057  0.4737 -0.1343
  699TMC3    O110397   0.083   4.390  13.335 -0.5386  0.1603 -0.0292
  699TMC3    O210398   0.380   4.022  13.167 -0.9944  0.0437  0.8600
  700TMC3    C110399   4.323   1.752  17.434 -0.3330  0.3027 -0.3314
  700TMC3    C210400   4.408   1.678  17.354  0.1532  0.5296 -0.6864
  700TMC3    C310401   4.466   1.577  17.414  0.4443  0.4665  0.3508
  700TMC3    C410402   4.301   1.732  17.562 -0.0194 -0.4947 -0.2555
  700TMC3    C510403   4.368   1.633  17.624 -0.6518  0.3014  0.2238
  700TMC3    C610404   4.461   1.556  17.549  0.5617  0.1931  0.6483
  700TMC3     C10405   4.243   1.849  17.373 -0.0522 -0.0234 -0.0492
  700TMC3     O10406   4.125   1.845  17.406  0.1202 -0.0254 -0.0740
  700TMC3     H10407   4.424   1.703  17.250 -0.5214 -0.6792 -1.0772
  700TMC3    H110408   4.225   1.783  17.620  1.3877 -0.1573  1.3085
  700TMC3    H210409   4.522   1.483  17.601 -1.1018 -2.5092 -1.1817
  700TMC3    C710410   4.415   1.674   0.023  0.7539  0.2444 -0.5724
  700TMC3    C810411   4.549   1.495  17.327  0.3740 -0.1018  0.3980
  700TMC3    O110412   4.530   1.650   0.054  0.1564 -0.3220 -0.2970
  700TMC3    O210413   4.600   1.542  17.227 -0.1899  0.0440  0.0790
  701TMC3    C110414   4.209   0.562  15.691 -0.0331  0.6045  0.2598
  701TMC3    C210415   4.126   0.596  15.590  0.2272  0.0169 -0.0486
  701TMC3    C310416   4.138   0.716  15.537 -0.0716  0.4075  0.6169
  701TMC3    C410417   4.300   0.651  15.743 -0.2485 -0.3177 -0.1642
  701TMC3    C510418   4.318   0.769  15.671  0.5587  0.4934  0.3718
  701TMC3    C610419   4.237   0.800  15.563  0.0602  0.2596  0.5643
  701TMC3     C10420   4.151   0.458  15.772  0.6044 -0.5491 -0.4805
  701TMC3     O10421   4.079   0.374  15.721  0.2773 -0.4972  0.1538
  701TMC3     H10422   4.043   0.530  15.569  0.5365 -1.0190  1.9905
  701TMC3    H110423   4.351   0.633  15.837  1.2034 -0.2629 -0.9523
  701TMC3    H210424   4.242   0.894  15.510 -0.7815  0.5634  1.0231
  701TMC3    C710425   4.422   0.866  15.695 -0.2771 -1.2941 -1.3986
  701TMC3    C810426   4.063   0.747  15.412  0.3947  0.3877  0.2056
  701TMC3    O110427   4.462   0.913  15.591  0.1986 -0.8430 -0.3713
  701TMC3    O210428   4.067   0.863  15.365 -0.2168 -0.3622 -0.0186
  702MPD2     C10429   3.715   2.295  10.431 -0.5924 -0.1764  0.0489
  702MPD2    C110430   3.648   2.388  10.505  0.2533  0.0213 -0.3117
  702MPD2    C210431   3.582   2.495  10.439 -0.6442 -0.0861  0.7022
  702MPD2    C310432   3.591   2.517  10.303  0.4147 -0.5727  0.3955
  702MPD2    C410433   3.674   2.425  10.235  0.1114 -0.1049  0.6213
  702MPD2    C510434   3.727   2.314  10.295  0.1171 -0.2515 -0.0299
  702MPD2     H10435   3.525   2.565  10.500 -0.1767  1.6180 -0.8417
  702MPD2    H110436   3.690   2.437  10.129  1.2993 -0.8175  0.7122
  702MPD2    H210437   3.793   2.232  10.473 -0.8712  1.2820  2.7322
  702MPD2    H310438   3.793   2.252  10.236 -1.2680 -0.5315 -1.2694
  702MPD2     N10439   3.536   2.630  10.236  0.2473 -0.2473  0.3468
  702MPD2    H510440   3.564   2.629  10.138  0.7033  0.6587  0.4740
  702MPD2    N110441   3.643   2.390  10.647  0.7464  0.7009 -0.0559
  702MPD2    H710442   3.583   2.461  10.688  0.7155 -0.0801  1.2280
  703TMC3    C110443   3.442   2.839  10.194  0.1335  0.0769 -0.3346
  703TMC3    C210444   3.321   2.895  10.192  0.3085  0.2055  0.3830
  703TMC3    C310445   3.293   2.992  10.104  0.6447 -0.2721  0.3431
  703TMC3    C410446   3.545   2.872  10.111  0.2086 -0.1715  0.2821
  703TMC3    C510447   3.514   2.961  10.016  0.5969  0.2117 -0.0198
  703TMC3    C610448   3.392   3.016  10.013  0.2542 -0.5135  1.0966
  703TMC3     C10449   3.464   2.730  10.290  0.5870  0.0998  0.0878
  703TMC3     O10450   3.411   2.745  10.397  0.2368 -0.3336  0.0977
  703TMC3     H10451   3.247   2.871  10.269  2.0535 -0.4042  1.8667
  703TMC3    H110452   3.645   2.832  10.123 -0.1232 -2.1004 -3.4599
  703TMC3    H210453   3.362   3.072   9.926  2.2940  0.1779  0.8267
  703TMC3    C710454   3.628   3.009   9.943 -1.0569 -0.7563 -0.1912
  703TMC3    C810455   3.168   3.069  10.106 -0.2510  0.3582 -0.3258
  703TMC3    O110456   3.718   2.930   9.923  0.2069 -0.3334 -0.1958
  703TMC3    O210457   3.173   3.168  10.040 -0.0148  0.1039  0.3041
  704TMC3    C110458   1.533   1.199  12.098 -0.6559  0.1440  0.4658
  704TMC3    C210459   1.653   1.246  12.062  0.0739 -0.1536  0.0451
  704TMC3    C310460   1.763   1.241  12.151  0.1401  0.5404  0.3618
  704TMC3    C410461   1.507   1.166  12.227  0.5484 -0.0392  0.6036
  704TMC3    C510462   1.613   1.171  12.318  0.1163 -0.2448  0.3789
  704TMC3    C610463   1.744   1.193  12.279 -0.6611 -0.2925 -0.1418
  704TMC3     C10464   1.459   1.130  12.001 -0.1936  0.2159 -0.4167
  704TMC3     O10465   1.345   1.102  12.025  0.9070 -0.2856 -0.4380
  704TMC3     H10466   1.665   1.312  11.976  0.4314 -1.5206 -0.9497
  704TMC3    H110467   1.405   1.150  12.259 -0.0387  0.0344 -1.2389
  704TMC3    H210468   1.825   1.178  12.350 -0.1968  1.7655 -0.2389
  704TMC3    C710469   1.589   1.079  12.424 -0.3353  0.5081 -0.5993
  704TMC3    C810470   1.846   1.157  12.074 -0.2599  0.1946  0.1411
  704TMC3    O110471   1.496   1.001  12.399  0.1622 -0.0877  0.6165
  704TMC3    O210472   1.811   1.147  11.954 -0.2320  0.2738  0.3737
  705MPD2     C10473   0.886   3.882  16.464  0.8453 -0.1989 -0.7804
  705MPD2    C110474   0.907   4.018  16.454 -0.0967 -0.0882  0.4809
  705MPD2    C210475   0.808   4.102  16.493  0.0520  0.3694  0.6279
  705MPD2    C310476   0.684   4.062  16.525  0.4314 -0.3285 -0.4637
  705MPD2    C410477   0.667   3.929  16.556 -1.2410 -0.0019 -0.2496
  705MPD2    C510478   0.760   3.839  16.504 -0.5367  0.0917 -0.6027
  705MPD2     H10479   0.823   4.208  16.471  0.4810 -0.0290 -1.0392
  705MPD2    H110480   0.569   3.893  16.586 -0.9330  0.4814  1.3553
  705MPD2    H210481   0.959   3.805  16.440 -0.6434 -1.2787 -1.8666
  705MPD2    H310482   0.751   3.733  16.523 -3.6630  0.4839  0.2495
  705MPD2     N10483   0.581   4.150  16.557  0.3740  0.4791 -0.5104
  705MPD2    H510484   0.498   4.097  16.582  0.0517 -0.4057 -3.4467
  705MPD2    N110485   1.019   4.077  16.394  0.5681 -0.0252  0.3184
  705MPD2    H710486   1.020   4.177  16.379 -0.1810  0.0594  0.8596
  706TMC3    C110487   1.455   4.121  16.216  0.4158  0.0938  0.4854
  706TMC3    C210488   1.432   4.253  16.187 -0.3394 -0.0153  0.3291
  706TMC3    C310489   1.316   4.309  16.231 -0.0881  0.0457  0.0683
  706TMC3    C410490   1.351   4.044  16.261  0.5209  0.4308  0.2815
  706TMC3    C510491   1.232   4.103  16.299 -0.1844 -0.2408  0.2484
  706TMC3    C610492   1.215   4.243  16.301 -0.5303  0.5778  0.2482
  706TMC3     C10493   1.565   4.067  16.141  0.4105 -0.4105  0.4184
  706TMC3     O10494   1.670   4.131  16.149  0.2732 -0.8150 -0.7288
  706TMC3     H10495   1.512   4.311  16.143 -1.2819  2.2492  1.6250
  706TMC3    H110496   1.356   3.936  16.268  1.2508  0.3622 -1.3088
  706TMC3    H210497   1.120   4.288  16.327 -1.5056 -1.3907  0.0402
  706TMC3    C710498   1.128   4.013  16.349  0.5859 -0.5025  0.0549
  706TMC3    C810499   1.322   4.458  16.230  0.3468  0.0199  0.2806
  706TMC3    O110500   1.163   3.896  16.358  0.1596 -0.3959  0.3548
  706TMC3    O210501   1.394   4.514  16.155 -0.6603 -0.5538 -0.4616
  707TMC3    C110502   2.715   2.728   0.979  0.4008 -0.0700 -0.4733
  707TMC3    C210503   2.707   2.645   1.087  0.1632 -0.9979 -0.3341
  707TMC3    C310504   2.591   2.572   1.086 -0.2270  0.2892 -0.1495
  707TMC3    C410505   2.624   2.744   0.875 -0.0941  0.0936  0.7425
  707TMC3    C510506   2.510   2.660   0.881  0.3055 -0.5620 -0.3618
  707TMC3    C610507   2.493   2.576   0.992 -0.3276  0.1926  0.6936
  707TMC3     C10508   2.846   2.794   0.958  0.1220  0.8919 -0.9331
  707TMC3     O10509   2.926   2.803   1.053 -0.8295  0.0302 -0.1509
  707TMC3     H10510   2.778   2.650   1.169  0.1442  0.5388 -0.4034
  707TMC3    H110511   2.640   2.805   0.786 -0.0434 -4.0909 -2.1256
  707TMC3    H210512   2.394   2.536   1.013 -0.8418  1.3705  0.4774
  707TMC3    C710513   2.406   2.674   0.788  0.1181 -0.1139  0.2234
  707TMC3    C810514   2.577   2.459   1.177 -0.5843 -0.5134  0.2063
  707TMC3    O110515   2.420   2.769   0.710 -0.4675 -0.4474  0.0208
  707TMC3    O210516   2.465   2.414   1.192  0.3510 -0.0693  0.1587
  708MPD2     C10517   0.001   2.484  14.009 -0.7490 -0.7524 -0.2369
  708MPD2    C110518   4.645   2.440  14.099  0.1856 -0.1656  1.0915
  708MPD2    C210519   4.680   2.417  14.228 -0.3374  0.8793  0.3137
  708MPD2    C310520   0.075   2.433  14.263 -0.1730  0.6637 -0.0447
  708MPD2    C410521   0.170   2.482  14.174  0.8898  0.5052  0.1607
  708MPD2    C510522   0.130   2.505  14.045  0.4792  0.9180 -0.1912
  708MPD2     H10523   4.611   2.372  14.299 -1.6621  0.9908 -0.9105
  708MPD2    H110524   0.269   2.520  14.197 -0.0053  1.7868  1.8259
  708MPD2    H210525   4.704   2.511  13.908  0.4523  1.4642 -0.0115
  708MPD2    H310526   0.190   2.540  13.961 -0.9883  0.2755 -1.5168
  708MPD2     N10527   0.105   2.406  14.401  0.2816  0.5173  0.4087
  708MPD2    H510528   0.027   2.383  14.462 -0.9737  0.8942 -1.0443
  708MPD2    N110529   4.515   2.403  14.051 -0.6858 -0.4545 -0.5051
  708MPD2    H710530   4.497   2.432  13.956  2.0100 -0.3718 -0.9962
  709TMC3    C110531   4.303   2.299  14.044  0.1743  0.0413  0.8574
  709TMC3    C210532   4.243   2.398  13.972 -0.0998 -0.6073  0.0238
  709TMC3    C310533   4.105   2.403  13.990  0.0738  0.1712  0.3342
  709TMC3    C410534   4.233   2.215  14.127  0.4476  0.2439  0.1661
  709TMC3    C510535   4.103   2.228  14.143  0.1998 -0.1235 -0.5802
  709TMC3    C610536   4.033   2.312  14.070 -0.9895 -0.3786 -0.8833
  709TMC3     C10537   4.427   2.321  14.112 -0.4788 -0.7486 -0.2673
  709TMC3     O10538   4.423   2.286  14.224 -0.2309 -0.0535 -0.3514
  709TMC3     H10539   4.297   2.478  13.923  1.2801 -1.1294  0.6995
  709TMC3    H110540   4.280   2.123  14.160  1.3347  1.3539  1.9810
  709TMC3    H210541   3.927   2.329  14.081 -1.0027  0.0153 -1.6040
  709TMC3    C710542   4.069   2.235  14.283  0.3960 -1.4911  0.0968
  709TMC3    C810543   4.030   2.494  13.914 -0.1233  0.2881 -1.3233
  709TMC3    O110544   3.953   2.228  14.320 -0.5224 -0.0074 -0.4771
  709TMC3    O210545   3.913   2.514  13.946 -0.4936 -0.0864  0.5117
  710TMC3    C110546   0.245   3.734   0.910  0.0991  0.3671 -0.5741
  710TMC3    C210547   0.344   3.792   0.840 -0.3944  0.8342  0.6437
  710TMC3    C310548   0.423   3.710   0.761 -0.2744  0.9606  0.2249
  710TMC3    C410549   0.236   3.599   0.923  0.9809  0.1774  0.4137
  710TMC3    C510550   0.332   3.522   0.853 -0.1555  0.2244  0.1055
  710TMC3    C610551   0.426   3.573   0.767  0.2995 -0.0596  0.6050
  710TMC3     C10552   0.137   3.810   0.983  0.3778 -0.0661 -0.6666
  710TMC3     O10553   0.032   3.754   0.997  0.1247 -1.1800 -0.0074
  710TMC3     H10554   0.341   3.898   0.816  0.4179  0.7916  0.3641
  710TMC3    H110555   0.160   3.555   0.986  0.7716 -1.9245 -1.3125
  710TMC3    H210556   0.481   3.513   0.695  1.1595  1.5236 -0.0652
  710TMC3    C710557   0.370   3.404   0.918  0.9141  0.3642 -0.7036
  710TMC3    C810558   0.526   3.769   0.678  0.1403  0.3224 -0.6509
  710TMC3    O110559   0.301   3.370   1.013  0.1282 -0.0315 -0.4903
  710TMC3    O210560   0.622   3.694   0.656  0.5139 -0.6010  0.1399
  711TMC3    C110561   4.724   0.109  15.423  0.0886  0.0164  0.2733
  711TMC3    C210562   0.041   0.228  15.461 -0.0027  0.7824 -0.3036
  711TMC3    C310563   0.172   0.223  15.510 -0.1381 -0.0227 -0.3577
  711TMC3    C410564   0.054   4.721  15.442  0.0269 -0.3267 -0.2344
  711TMC3    C510565   0.171   4.720  15.511  0.0936 -0.2204  0.4582
  711TMC3    C610566   0.232   0.109  15.541 -0.0547 -0.1756 -0.1039
  711TMC3     C10567   4.587   0.093  15.367  0.6979  0.2935 -0.6828
  711TMC3     O10568   4.546   4.713  15.350  0.2170  0.3531  0.2394
  711TMC3     H10569   4.726   0.325  15.453 -0.5330  0.3031 -2.8775
  711TMC3    H110570   0.006   4.630  15.407  0.7805 -1.1294  0.8034
  711TMC3    H210571   0.324   0.104  15.597 -0.6092 -0.6301  0.7667
  711TMC3    C710572   0.240   4.598  15.531 -0.1695 -0.9145 -0.5534
  711TMC3    C810573   0.208   0.339  15.593  0.2841  0.6324 -0.6133
  711TMC3    O110574   0.358   4.609  15.557  0.0979 -0.1715  0.3185
  711TMC3    O210575   0.120   0.420  15.621 -0.2700 -0.0312 -0.0794
  712MPD2     C10576   1.519   0.957  14.027 -0.0160  0.8048 -0.5214
  712MPD2    C110577   1.391   1.029  14.008  0.0247 -0.2118  0.4467
  712MPD2    C210578   1.393   1.154  14.063  0.3002  0.2154 -0.0797
  712MPD2    C310579   1.503   1.221  14.112 -0.1563  0.4314  0.7103
  712MPD2    C410580   1.623   1.159  14.109 -0.6270 -0.0155  0.5065
  712MPD2    C510581   1.625   1.025  14.079  0.1883 -0.1920  0.0323
  712MPD2     H10582   1.300   1.209  14.068  0.9808  1.3957 -0.3567
  712MPD2    H110583   1.708   1.212  14.150  1.2549 -2.1170 -0.7416
  712MPD2    H210584   1.525   0.850  14.010  1.8753  1.3257 -3.0521
  712MPD2    H310585   1.722   0.977  14.092  0.3841  0.5119  1.1535
  712MPD2     N10586   1.504   1.356  14.150 -0.2717  0.0725  0.4502
  712MPD2    H510587   1.593   1.381  14.192 -0.3363  0.1390  0.5465
  712MPD2    N110588   1.272   0.971  13.961  0.1286  0.0589  0.5236
  712MPD2    H710589   1.192   1.034  13.962 -0.6046 -0.8886  2.0794
  713TMC3    C110590   1.449   1.566  14.205 -0.5761 -0.1554  0.2164
  713TMC3    C210591   1.554   1.555  14.288 -0.4766  0.7066 -0.1444
  713TMC3    C310592   1.646   1.653  14.286  0.1327  0.5300  0.0926
  713TMC3    C410593   1.426   1.675  14.132 -0.7325  0.2994  0.0853
  713TMC3    C510594   1.520   1.780  14.142  0.9323 -0.0684 -0.3409
  713TMC3    C610595   1.630   1.769  14.224 -0.5380  0.0928  0.4859
  713TMC3     C10596   1.402   1.448  14.139  0.3519  0.5041 -0.0764
  713TMC3     O10597   1.293   1.445  14.089  0.5707  0.0471 -0.2450
  713TMC3     H10598   1.561   1.482  14.368  0.7336  0.8721 -0.0919
  713TMC3    H110599   1.336   1.688  14.073 -1.4180  0.8871  1.2579
  713TMC3    H210600   1.711   1.840  14.216 -0.8357  0.6552  2.4754
  713TMC3    C710601   1.533   1.897  14.051  0.1179 -0.0237 -0.4113
  713TMC3    C810602   1.778   1.601  14.251 -0.3147  0.4694 -0.3942
  713TMC3    O110603   1.630   1.966  14.066  0.1591  0.0793  0.5457
  713TMC3    O210604   1.775   1.481  14.224  0.1195 -0.2669 -0.0498
  714MPD2     C10605   4.005   0.308   2.115 -0.0996  0.4813 -0.2872
  714MPD2    C110606   4.053   0.235   2.010  0.3502 -0.0349  0.3947
  714MPD2    C210607   3.960   0.214   1.909 -0.4168  0.3869  0.0143
  714MPD2    C310608   3.835   0.267   1.909 -0.3364  0.4069  0.1285
  714MPD2    C410609   3.791   0.345   2.015 -0.1395 -0.2301 -0.4950
  714MPD2    C510610   3.884   0.374   2.113 -0.4374  0.4493  0.2320
  714MPD2     H10611   3.988   0.163   1.817  0.3734 -1.3787  1.2375
  714MPD2    H110612   3.701   0.405   2.019 -1.3328 -2.0692 -0.0343
  714MPD2    H210613   4.056   0.337   2.206 -0.0814 -0.8799  0.1299
  714MPD2    H310614   3.861   0.430   2.202 -0.0484  1.5974 -0.3911
  714MPD2     N10615   3.759   0.233   1.796 -0.1406 -0.0441  0.6441
  714MPD2    H510616   3.804   0.165   1.735  0.3055 -1.9356  3.0953
  714MPD2    N110617   4.186   0.184   2.011 -0.0181 -0.3089  0.0513
  714MPD2    H710618   4.243   0.218   2.088  1.2875 -2.1350 -0.0940
  715TMC3    C110619   4.370   0.050   1.925  0.4895 -0.8833  0.0545
  715TMC3    C210620   4.407   4.676   1.844 -0.4317  0.0528 -0.1730
  715TMC3    C310621   4.538   4.654   1.822  0.0294 -0.7655  0.1069
  715TMC3    C410622   4.464   0.134   1.985 -0.4188 -0.9634 -0.1793
  715TMC3    C510623   4.595   0.107   1.958 -0.0805  0.3533 -1.0273
  715TMC3    C610624   4.636   4.729   1.886  0.6249  0.2709 -0.5955
  715TMC3     C10625   4.226   0.085   1.923 -0.6333  0.1716  0.3549
  715TMC3     O10626   4.155   0.023   1.847  0.0957  0.4505 -0.0622
  715TMC3     H10627   4.334   4.635   1.775 -1.8626  1.0429  0.7613
  715TMC3    H110628   4.433   0.229   2.027  0.7706 -0.7932  0.3250
  715TMC3    H210629   0.008   4.706   1.876  0.6751  0.3199 -0.2033
  715TMC3    C710630   4.708   0.180   2.015  0.5216 -0.5173 -0.2933
  715TMC3    C810631   4.562   4.531   1.738 -0.0546  0.4632  0.6776
  715TMC3    O110632   0.091   0.162   1.978 -0.0441  0.3285 -0.5559
  715TMC3    O210633   4.466   4.482   1.684 -0.3721  0.3092  0.3246
  716MPD2     C10634   3.125   2.395  10.339 -0.2239 -0.1430 -0.4645
  716MPD2    C110635   3.063   2.390  10.218  0.3332 -0.4199  0.2496
  716MPD2    C210636   3.139   2.337  10.117 -0.2632  0.2114 -0.0197
  716MPD2    C310637   3.260   2.276  10.129 -0.6618 -0.9503  1.0282
  716MPD2    C410638   3.314   2.277  10.257 -0.2558  0.0026 -0.3737
  716MPD2    C510639   3.251   2.337  10.357 -0.1433 -0.2374  0.2592
  716MPD2     H10640   3.092   2.356  10.021  0.4085 -1.2848 -0.6489
  716MPD2    H110641   3.410   2.231  10.278 -0.1837  1.0623  1.7042
  716MPD2    H210642   3.084   2.447  10.425  0.8976  0.0239 -0.0317
  716MPD2    H310643   3.307   2.345  10.450 -0.2627 -0.4946  0.3538
  716MPD2     N10644   3.327   2.239  10.011 -0.4195  0.4432  0.7396
  716MPD2    H510645   3.268   2.262   9.931 -1.3895  3.0151  2.1646
  716MPD2    N110646   2.933   2.446  10.203 -0.3764 -0.3400 -0.0896
  716MPD2    H710647   2.913   2.516  10.274  0.9515 -0.7352  0.6686
  717TMC3    C110648   3.499   2.175   9.862  0.5623  0.4639 -0.5845
  717TMC3    C210649   3.419   2.221   9.766 -0.3563  0.6015 -0.6429
  717TMC3    C310650   3.467   2.214   9.636  0.3065  0.3563  0.5109
  717TMC3    C410651   3.617   2.118   9.844  0.0661  0.3719  0.3120
  717TMC3    C510652   3.660   2.111   9.717 -0.0989 -0.7005 -0.1977
  717TMC3    C610653   3.585   2.156   9.613  0.1228  0.3939 -0.4603
  717TMC3     C10654   3.454   2.188  10.000  0.2258 -0.9117  0.0342
  717TMC3     O10655   3.522   2.132  10.090 -0.3535  0.0063  1.0594
  717TMC3     H10656   3.321   2.265   9.781 -0.2781  0.4882  0.1720
  717TMC3    H110657   3.672   2.076   9.927 -0.8136 -1.5605 -0.0718
  717TMC3    H210658   3.633   2.169   9.516 -1.2809 -0.7871 -1.3072
  717TMC3    C710659   3.796   2.069   9.698  0.0637  0.9040 -0.4988
  717TMC3    C810660   3.404   2.290   9.535 -1.1732 -0.8331 -0.0296
  717TMC3    O110661   3.873   2.077   9.791  0.1146 -0.2838  0.2965
  717TMC3    O210662   3.334   2.389   9.563  0.3231  0.0800  0.5546
  718MPD2     C10663   3.318   1.157  13.131  0.0030  0.4564  1.3067
  718MPD2    C110664   3.208   1.242  13.116 -0.3811  0.4194  0.3729
  718MPD2    C210665   3.084   1.189  13.079 -0.3295  0.5307  0.8265
  718MPD2    C310666   3.078   1.053  13.048  0.3239 -0.4718 -0.4039
  718MPD2    C410667   3.192   0.977  13.053 -0.0636 -0.2740  0.1489
  718MPD2    C510668   3.312   1.025  13.090  0.3154 -0.1555 -0.0004
  718MPD2     H10669   3.005   1.255  13.045  0.3414  0.7906 -0.2245
  718MPD2    H110670   3.183   0.874  13.021 -0.0998 -0.1635 -0.2001
  718MPD2    H210671   3.420   1.193  13.142 -0.3656  1.6868  0.6945
  718MPD2    H310672   3.398   0.960  13.097  0.5569  0.0531 -1.0558
  718MPD2     N10673   2.952   1.013  12.995 -0.4223 -0.1874  0.0034
  718MPD2    H510674   2.875   1.080  12.998 -0.5332 -0.2723 -0.7512
  718MPD2    N110675   3.213   1.381  13.131  0.0137 -0.4086  0.3214
  718MPD2    H710676   3.123   1.428  13.136  0.1087 -0.0082 -2.1351
  719TMC3    C110677   3.288   1.598  13.116  0.2155 -0.2281  0.2489
  719TMC3    C210678   3.158   1.622  13.148 -0.2570 -0.0189 -0.9187
  719TMC3    C310679   3.085   1.697  13.064  0.6173  0.6576  0.4961
  719TMC3    C410680   3.350   1.664  13.012  0.3049  0.2116 -0.5575
  719TMC3    C510681   3.275   1.746  12.938 -0.1119 -0.6742  0.3927
  719TMC3    C610682   3.139   1.759  12.948 -0.0526 -0.1038  0.4648
  719TMC3     C10683   3.328   1.459  13.132  0.6416  0.8278 -0.2735
  719TMC3     O10684   3.448   1.435  13.126  0.2108 -0.4115 -0.2061
  719TMC3     H10685   3.101   1.579  13.230  0.6692  0.9957  0.2681
  719TMC3    H110686   3.453   1.649  12.982  0.7191 -1.3450  1.6885
  719TMC3    H210687   3.074   1.798  12.871 -3.1079 -0.7215  2.7315
  719TMC3    C710688   3.351   1.812  12.825  0.5081 -0.0833 -0.1825
  719TMC3    C810689   2.952   1.642  13.049  0.4740 -0.8650  0.3403
  719TMC3    O110690   3.460   1.764  12.796 -0.1187  0.3405  0.3188
  719TMC3    O210691   2.936   1.532  13.096 -0.1628 -0.2305  0.4107
  720MPD2     C10692   1.759   2.598  13.785  0.7035  0.0838 -0.8102
  720MPD2    C110693   1.828   2.694  13.715 -0.1996  0.5248 -0.0391
  720MPD2    C210694   1.924   2.771  13.778 -0.2009  0.0547  0.4629
  720MPD2    C310695   1.939   2.768  13.913  0.2180  0.8598 -0.1923
  720MPD2    C410696   1.865   2.677  13.982 -0.3068 -0.1961  0.1867
  720MPD2    C510697   1.788   2.591  13.918 -0.1089  0.2476 -0.1806
  720MPD2     H10698   1.973   2.852  13.726 -0.8806 -0.0800 -0.3855
  720MPD2    H110699   1.880   2.666  14.089 -0.0472 -2.0457 -0.0472
  720MPD2    H210700   1.674   2.542  13.747  0.9803 -0.7675 -0.1688
  720MPD2    H310701   1.736   2.514  13.973  0.8268 -1.8106 -2.1497
  720MPD2     N10702   2.040   2.835  13.981 -0.4665  0.2813  0.4843
  720MPD2    H510703   2.034   2.831  14.082 -2.5893 -0.7537  0.3310
  720MPD2    N110704   1.789   2.730  13.580 -0.2315 -0.2743  0.4766
  720MPD2    H710705   1.824   2.815  13.538  1.5624 -0.5376  1.4142
  721TMC3    C110706   2.244   2.961  14.008  0.1161  0.4315  0.5518
  721TMC3    C210707   2.177   3.034  14.108  0.2091 -0.4700 -0.2332
  721TMC3    C310708   2.243   3.130  14.183  0.3577 -0.6341  0.5860
  721TMC3    C410709   2.369   3.002  13.971 -0.8092  0.4178 -0.4920
  721TMC3    C510710   2.432   3.101  14.043  0.0316 -0.4540 -0.7319
  721TMC3    C610711   2.367   3.169  14.145  0.1898 -0.1861 -0.1633
  721TMC3     C10712   2.156   2.879  13.917  0.0896 -0.2138 -0.0831
  721TMC3     O10713   2.208   2.849  13.810 -0.1036 -0.1702 -0.0696
  721TMC3     H10714   2.075   3.012  14.137 -0.4358  1.1485 -1.2846
  721TMC3    H110715   2.406   2.949  13.884  0.8908 -0.8928  1.0332
  721TMC3    H210716   2.418   3.239  14.210 -1.1623  1.6883 -1.1116
  721TMC3    C710717   2.573   3.133  14.009  0.4420  0.1752 -0.7209
  721TMC3    C810718   2.161   3.218  14.277  0.5707 -0.1655  0.5491
  721TMC3    O110719   2.634   3.230  14.056  0.6826 -0.6600 -0.0744
  721TMC3    O210720   2.049   3.254  14.234 -0.4253 -0.1083  0.1117
  722MPD2     C10721   0.745   1.552  13.285 -0.2130  0.4223  0.0860
  722MPD2    C110722   0.658   1.664  13.295 -0.6082 -0.3809  0.5866
  722MPD2    C210723   0.523   1.652  13.282  0.5579 -0.4320 -1.2116
  722MPD2    C310724   0.472   1.526  13.268  0.1825 -0.4771 -0.0953
  722MPD2    C410725   0.559   1.421  13.265 -0.5440  0.1034 -0.2566
  722MPD2    C510726   0.695   1.425  13.273  0.2126 -0.3486  0.3555
  722MPD2     H10727   0.459   1.739  13.290  1.5841  0.1411  0.7151
  722MPD2    H110728   0.527   1.318  13.254  0.0357 -0.2764  1.6372
  722MPD2    H210729   0.851   1.567  13.268 -0.1875  1.1799  0.9068
  722MPD2    H310730   0.750   1.331  13.269 -0.5026 -0.7491 -0.1282
  722MPD2     N10731   0.332   1.524  13.278  0.0620 -0.2606  0.3866
  722MPD2    H510732   0.283   1.602  13.321  0.5489  0.8283 -1.0548
  722MPD2    N110733   0.710   1.796  13.306 -0.3837  0.0156 -0.1254
  722MPD2    H710734   0.642   1.870  13.302  2.0818  2.3469  0.8580
  723TMC3    C110735   0.128   1.417  13.302 -0.0698 -0.2767  1.1859
  723TMC3    C210736   0.055   1.299  13.291 -0.5056  0.4844  0.2043
  723TMC3    C310737   4.682   1.280  13.377 -0.6703  0.0915 -0.3067
  723TMC3    C410738   0.092   1.513  13.389 -0.2951 -0.5409  0.1323
  723TMC3    C510739   4.714   1.492  13.466 -0.0626  0.1033 -0.3108
  723TMC3    C610740   4.643   1.375  13.466 -0.2675 -0.1075  0.1034
  723TMC3     C10741   0.265   1.407  13.270 -0.7223 -1.1191  0.3593
  723TMC3     O10742   0.300   1.309  13.201 -0.5539 -0.4439 -0.4046
  723TMC3     H10743   0.103   1.219  13.236  0.1261  0.8524  0.2178
  723TMC3    H110744   0.136   1.611  13.403 -0.3319 -0.2914 -1.5556
  723TMC3    H210745   4.550   1.376  13.521 -1.4269  1.2405 -1.8879
  723TMC3    C710746   4.645   1.606  13.528  0.7778  0.0123 -0.1096
  723TMC3    C810747   4.630   1.146  13.403 -0.1253 -0.7939 -0.4907
  723TMC3    O110748   4.564   1.588  13.617  0.0416 -0.2960  0.3596
  723TMC3    O210749   4.548   1.130  13.490 -0.0315  0.2610  0.0225
  724TMC3    C110750   0.539   4.193  10.778 -0.4601 -0.7256  0.7052
  724TMC3    C210751   0.526   4.215  10.646  0.1156 -0.1628 -0.2006
  724TMC3    C310752   0.578   4.326  10.590  0.1630 -0.3804 -0.2666
  724TMC3    C410753   0.611   4.272  10.854 -0.1909 -0.4995 -0.7190
  724TMC3    C510754   0.663   4.387  10.797  0.9091 -0.3926  0.1664
  724TMC3    C610755   0.642   4.419  10.671  0.0526 -0.3257  0.3734
  724TMC3     C10756   0.533   4.060  10.828  0.0559  0.4624  1.1365
  724TMC3     O10757   0.596   4.023  10.923  0.0032 -0.4324 -0.0312
  724TMC3     H10758   0.480   4.142  10.581 -0.1818 -0.8946  0.8225
  724TMC3    H110759   0.626   4.239  10.956  1.2511 -1.0658 -1.1140
  724TMC3    H210760   0.662   4.523  10.647 -1.3815 -0.7279 -2.6474
  724TMC3    C710761   0.770   4.467  10.855 -0.2141  0.0149  0.0139
  724TMC3    C810762   0.538   4.352  10.457  0.4094 -0.0132  0.6140
  724TMC3    O110763   0.840   4.534  10.784  0.3066  0.3087 -0.1285
  724TMC3    O210764   0.463   4.276  10.400 -1.0382  0.2070 -0.3227
  725TMC3    C110765   2.353   3.015  12.919  0.0085  0.5618  0.0487
  725TMC3    C210766   2.258   3.048  12.832 -0.3763 -0.7975 -0.1624
  725TMC3    C310767   2.175   2.949  12.778 -0.1575 -0.6462 -0.8437
  725TMC3    C410768   2.383   2.882  12.943 -0.0258 -0.8155 -0.3742
  725TMC3    C510769   2.298   2.788  12.893 -0.0662 -0.4826  0.2252
  725TMC3    C610770   2.189   2.818  12.812  1.0555 -0.6259 -0.0943
  725TMC3     C10771   2.449   3.118  12.956  0.2669  0.3787 -0.2618
  725TMC3     O10772   2.459   3.219  12.890  0.2997 -0.6647  0.1270
  725TMC3     H10773   2.249   3.154  12.812 -3.0446 -1.4610 -2.5137
  725TMC3    H110774   2.481   2.860  12.985  0.3871 -0.7962 -1.3214
  725TMC3    H210775   2.123   2.751  12.757 -1.6418  0.6506  1.5584
  725TMC3    C710776   2.314   2.648  12.913  0.3495  0.5971 -0.3948
  725TMC3    C810777   2.038   2.989  12.760  0.4584  0.5667  0.4696
  725TMC3    O110778   2.260   2.566  12.831 -0.3933  0.1837  0.5738
  725TMC3    O210779   1.955   2.906  12.788  0.1545  0.0535 -0.2506
  726MPD2     C10780   0.035   0.103  10.765  0.1983 -0.0039 -0.1606
  726MPD2    C110781   4.645   0.139  10.722 -0.7736  0.1590  0.6390
  726MPD2    C210782   4.532   0.058  10.744 -0.2406  0.0118  0.1133
  726MPD2    C310783   4.553   4.673  10.818 -0.0736  0.2435 -0.2388
  726MPD2    C410784   4.682   4.637  10.858  0.0794  0.6001  0.4882
  726MPD2    C510785   0.056   4.723  10.838  0.5333 -0.3659  0.7428
  726MPD2     H10786   4.430   0.084  10.720  0.0590  1.7550  0.7591
  726MPD2    H110787   4.689   4.551  10.924 -1.2481 -0.9839 -1.4252
  726MPD2    H210788   0.132   0.147  10.750  0.6032 -0.1941  1.8214
  726MPD2    H310789   0.155   4.697  10.874  1.0620 -0.2985 -0.6564
  726MPD2     N10790   4.436   4.602  10.842 -0.0950 -0.0171  0.0283
  726MPD2    H510791   4.352   4.644  10.805 -0.5883 -0.7830  0.2807
  726MPD2    N110792   4.641   0.236  10.620 -0.0182  0.4445  0.7920
  726MPD2    H710793   4.561   0.234  10.557 -0.6951  0.6565  1.6423
  727TMC3    C110794   4.715   0.406  10.474  0.9228  0.1617 -0.2645
  727TMC3    C210795   0.078   0.497  10.448  0.6036  0.5091  0.0300
  727TMC3    C310796   0.098   0.533  10.322  0.0161 -1.2396  0.4907
  727TMC3    C410797   4.626   0.360  10.379 -0.1752 -0.6251  0.1220
  727TMC3    C510798   4.644   0.416  10.258  0.6315  0.2982 -0.2249
  727TMC3    C610799   0.005   0.509  10.229 -0.0214  0.4548 -0.6164
  727TMC3     C10800   4.729   0.339  10.603  0.9479  0.1210 -0.3653
  727TMC3     O10801   0.086   0.376  10.677 -0.5047 -0.2709 -0.3148
  727TMC3     H10802   0.158   0.525  10.515  0.7140 -1.2399  0.6393
  727TMC3    H110803   4.547   0.288  10.397  0.9387 -1.7794  0.4588
  727TMC3    H210804   0.012   0.562  10.135  1.0329  0.9919 -0.2355
  727TMC3    C710805   4.530   0.427  10.168 -0.7653  0.3330 -0.6538
  727TMC3    C810806   0.218   0.611  10.301  0.1490 -0.1240  0.6623
  727TMC3    O110807   4.555   0.468  10.054 -0.8220  0.3598  0.0814
  727TMC3    O210808   0.259   0.679  10.396 -0.0662 -0.2638 -0.0274
  728TMC3    C110809   4.620   3.792  15.327  0.6479  0.8474 -0.8463
  728TMC3    C210810   4.728   3.865  15.297  0.2890  0.2871 -0.2853
  728TMC3    C310811   0.001   3.942  15.184 -0.5319 -1.0294  0.2801
  728TMC3    C410812   4.510   3.799  15.248  0.4430  0.0291 -0.3505
  728TMC3    C510813   4.515   3.883  15.137  0.7303  0.3451  0.5026
  728TMC3    C610814   4.623   3.959  15.108  0.2882 -0.4621  0.2032
  728TMC3     C10815   4.605   3.739  15.463  0.6569  0.7125  0.0855
  728TMC3     O10816   4.662   3.800  15.552 -0.0518 -0.2578 -0.3044
  728TMC3     H10817   0.062   3.875  15.381 -0.2772 -1.4574  0.3831
  728TMC3    H110818   4.415   3.748  15.256  0.5469 -0.3060 -1.2392
  728TMC3    H210819   4.627   4.032  15.028  0.1160  0.8340  1.3816
  728TMC3    C710820   4.400   3.879  15.053 -0.4586 -0.1132  0.0503
  728TMC3    C810821   0.099   4.045  15.200  0.0467 -0.1760 -0.0452
  728TMC3    O110822   4.333   3.780  15.049 -0.4020  0.2042  0.2455
  728TMC3    O210823   0.208   4.004  15.224 -0.3793  0.0464  0.1293
  729MPD2     C10824   1.278   0.313  16.725  0.3777  0.2049 -0.1140
  729MPD2    C110825   1.372   0.213  16.742 -0.1482  0.1648  0.5939
  729MPD2    C210826   1.384   0.153  16.861 -0.0025  0.5757 -0.2648
  729MPD2    C310827   1.307   0.194  16.969  0.2091  0.5552 -0.3921
  729MPD2    C410828   1.208   0.291  16.949  0.1556 -0.2897 -0.0184
  729MPD2    C510829   1.197   0.357  16.829 -0.6252 -0.4829 -0.3216
  729MPD2     H10830   1.463   0.083  16.886 -1.3855 -0.6605  0.6657
  729MPD2    H110831   1.140   0.327  17.025 -1.5721 -0.0385 -1.6899
  729MPD2    H210832   1.254   0.349  16.626 -0.5361  1.9437  0.7329
  729MPD2    H310833   1.121   0.435  16.824  0.2296  0.3008 -1.0641
  729MPD2     N10834   1.338   0.154  17.100 -0.1185  0.0066  0.5275
  729MPD2    H510835   1.302   0.212  17.176  2.5637  1.4155  0.7182
  729MPD2    N110836   1.454   0.181  16.635 -0.9277 -0.3437 -0.4408
  729MPD2    H710837   1.445   0.249  16.560  0.4415 -0.1105 -0.4015
  730TMC3    C110838   1.465   0.037  17.262  0.1634  0.2672 -0.2282
  730TMC3    C210839   1.593   4.728  17.270  0.2304  0.2086  0.4510
  730TMC3    C310840   1.689   0.077  17.321 -0.0337  0.1821  0.2308
  730TMC3    C410841   1.431   0.140  17.337  0.5734  0.2045 -0.4333
  730TMC3    C510842   1.529   0.213  17.406  0.2343  0.7566 -0.0574
  730TMC3    C610843   1.659   0.192  17.387 -1.5794 -0.2670  0.5353
  730TMC3     C10844   1.409   0.039  17.130  0.6737 -0.7278  0.2087
  730TMC3     O10845   1.449   4.682  17.053 -0.3849 -0.2199 -0.2268
  730TMC3     H10846   1.622   4.638  17.216  0.7664 -0.2596  1.5302
  730TMC3    H110847   1.326   0.167  17.344  0.0356 -2.6732  2.6842
  730TMC3    H210848   1.734   0.252  17.438 -1.2386 -0.8648  0.7419
  730TMC3    C710849   1.488   0.342  17.471  0.4268  0.4675  0.3942
  730TMC3    C810850   1.805   0.070  17.244  0.2294 -0.1188  0.1229
  730TMC3    O110851   1.369   0.351  17.497  0.2584 -0.5037 -0.8646
  730TMC3    O210852   1.792   0.029  17.129  0.5046  0.6444 -0.2960
  731MPD2     C10853   1.310   2.262  12.425  0.4961 -0.1292  0.2511
  731MPD2    C110854   1.438   2.313  12.438  0.1084 -0.4116  0.4820
  731MPD2    C210855   1.491   2.317  12.567 -0.1767 -0.5584  0.0070
  731MPD2    C310856   1.414   2.277  12.676  0.5476  0.3370 -0.1495
  731MPD2    C410857   1.288   2.223  12.659  0.3766  0.1490 -0.2168
  731MPD2    C510858   1.236   2.218  12.528 -0.3898 -0.4798  0.3430
  731MPD2     H10859   1.582   2.371  12.593 -0.9265  1.0977 -0.7640
  731MPD2    H110860   1.236   2.168  12.737  0.6358 -0.7277 -0.6692
  731MPD2    H210861   1.267   2.256  12.325 -2.8207  3.6918  1.4790
  731MPD2    H310862   1.141   2.167  12.511  1.3697 -3.4464 -0.5360
  731MPD2     N10863   1.473   2.292  12.803  0.3724 -0.2034  0.0488
  731MPD2    H510864   1.563   2.337  12.811  0.2818 -0.2376  1.2340
  731MPD2    N110865   1.505   2.355  12.327  0.4082 -0.5540 -0.1640
  731MPD2    H710866   1.455   2.342  12.239  2.8761  1.9344 -1.9428
  732TMC3    C110867   1.653   2.450  12.189 -0.2531  0.2771  0.3845
  732TMC3    C210868   1.561   2.502  12.105 -0.0021 -0.0778  0.0013
  732TMC3    C310869   1.609   2.553  11.988  0.7935  0.2826 -0.0216
  732TMC3    C410870   1.784   2.437  12.161  0.3775  0.6208  0.3277
  732TMC3    C510871   1.823   2.481  12.038  0.5983 -0.4031 -0.1548
  732TMC3    C610872   1.742   2.549  11.954 -0.6151  0.1593  0.5583
  732TMC3     C10873   1.622   2.411  12.323 -0.3790  0.0342  0.8505
  732TMC3     O10874   1.707   2.440  12.408 -0.8651  0.4855  0.4803
  732TMC3     H10875   1.468   2.528  12.154 -1.4031  0.1078 -2.7346
  732TMC3    H110876   1.847   2.376  12.225 -0.6540 -0.8042 -0.0289
  732TMC3    H210877   1.778   2.582  11.858  2.4363  1.0114  2.0011
  732TMC3    C710878   1.939   2.423  11.980  0.4344 -0.1198 -0.4767
  732TMC3    C810879   1.525   2.619  11.893  0.0564 -0.0476  0.1059
  732TMC3    O110880   1.925   2.399  11.860  0.0479  0.0316  0.2235
  732TMC3    O210881   1.584   2.677  11.801 -0.1942 -0.1367  0.4890
  733TMC3    C110882   2.576   0.850  12.816 -0.9698 -0.5180  0.3119
  733TMC3    C210883   2.687   0.830  12.883 -0.4810 -0.0943  0.3864
  733TMC3    C310884   2.783   0.927  12.872  0.4615  0.1370 -0.6074
  733TMC3    C410885   2.548   0.972  12.749  0.0866 -0.5094 -0.0713
  733TMC3    C510886   2.645   1.065  12.740  0.4269  0.0532 -0.5930
  733TMC3    C610887   2.765   1.047  12.807 -0.1801  0.0847 -0.1677
  733TMC3     C10888   2.458   0.817  12.894  0.2813 -0.1414  0.3367
  733TMC3     O10889   2.464   0.826  13.017 -0.3402  0.5080 -0.0293
  733TMC3     H10890   2.702   0.749  12.954 -1.6615  0.8464  1.7145
  733TMC3    H110891   2.453   0.991  12.700 -0.0204 -2.3449 -0.5597
  733TMC3    H210892   2.856   1.100  12.780  0.0543 -0.2567 -0.0582
  733TMC3    C710893   2.613   1.205  12.706  0.1758  0.0550  0.1880
  733TMC3    C810894   2.911   0.896  12.934  0.4038 -0.5647  0.3347
  733TMC3    O110895   2.511   1.237  12.649 -0.4629  0.3249 -0.2937
  733TMC3    O210896   2.957   0.783  12.941 -0.4976 -0.4769  0.1152
  734MPD2     C10897   4.476   3.509  12.477 -0.0156  0.1115 -0.9177
  734MPD2    C110898   4.376   3.447  12.402 -0.0750  0.7560  0.0352
  734MPD2    C210899   4.389   3.426  12.266 -0.5666  0.4210  0.6471
  734MPD2    C310900   4.506   3.469  12.206 -0.4902  0.4340  0.1814
  734MPD2    C410901   4.610   3.523  12.279 -0.4032 -0.0758 -0.0346
  734MPD2    C510902   4.586   3.546  12.410 -0.1690  0.0849  0.6229
  734MPD2     H10903   4.316   3.370  12.208 -0.7367  1.5388 -0.2269
  734MPD2    H110904   4.698   3.565  12.233 -0.1520 -1.1202 -0.4921
  734MPD2    H210905   4.460   3.525  12.583  3.8899 -1.0478 -0.1475
  734MPD2    H310906   4.658   3.604  12.467 -1.2039 -1.9683  3.9592
  734MPD2     N10907   4.506   3.447  12.071 -0.4261 -0.1444  0.0985
  734MPD2    H510908   4.418   3.429  12.024 -0.9965  2.6943  0.0734
  734MPD2    N110909   4.263   3.390  12.476 -0.0050  0.4258 -0.0011
  734MPD2    H710910   4.272   3.366  12.574 -2.3713  0.5443  0.2370
  735TMC3    C110911   4.087   3.223  12.492 -0.1662 -0.0777 -0.0109
  735TMC3    C210912   3.968   3.194  12.435 -0.3234  0.0036  0.3056
  735TMC3    C310913   3.926   3.065  12.420 -0.1455 -0.6626 -0.1521
  735TMC3    C410914   4.164   3.122  12.536  0.2944  0.3509  0.2901
  735TMC3    C510915   4.130   2.989  12.517  0.6798 -0.3714 -0.0849
  735TMC3    C610916   4.000   2.963  12.471 -0.3806 -0.6640  0.4140
  735TMC3     C10917   4.153   3.330  12.419 -0.0711 -0.1728  0.5547
  735TMC3     O10918   4.109   3.341  12.307  0.5425  0.2501 -1.0225
  735TMC3     H10919   3.913   3.273  12.384  0.5410  0.1133 -0.4577
  735TMC3    H110920   4.263   3.136  12.577  1.0903 -0.7492 -1.2518
  735TMC3    H210921   3.974   2.862  12.441 -1.3243 -0.3865  0.2952
  735TMC3    C710922   4.231   2.905  12.455 -0.1501 -0.3314  0.1225
  735TMC3    C810923   3.892   3.035  12.279  0.6451 -0.5122 -0.0833
  735TMC3    O110924   4.331   2.960  12.415 -0.2118  0.0028 -0.3607
  735TMC3    O210925   3.862   2.919  12.256  0.1605  0.1003  0.0978
  736MPD2     C10926   4.218   2.552  12.368  0.1309  0.4031 -0.4510
  736MPD2    C110927   4.275   2.679  12.374  0.7630  0.0060  0.1104
  736MPD2    C210928   4.383   2.702  12.300 -0.8064  0.6340 -0.5693
  736MPD2    C310929   4.432   2.599  12.217 -0.4531  0.2459  0.1156
  736MPD2    C410930   4.376   2.478  12.215 -1.1688  0.0621  0.0376
  736MPD2    C510931   4.272   2.450  12.299 -0.1758  0.0069  0.3673
  736MPD2     H10932   4.429   2.800  12.296 -0.7060  0.6450  1.1039
  736MPD2    H110933   4.411   2.399  12.150  0.6446  1.3842 -0.5845
  736MPD2    H210934   4.136   2.525  12.433  0.0482  0.2589 -0.6149
  736MPD2    H310935   4.226   2.354  12.281  1.0412 -0.5525  0.2467
  736MPD2     N10936   4.523   2.622  12.113  0.5654  0.1776  0.0724
  736MPD2    H510937   4.531   2.546  12.046 -0.2920 -0.6573  0.9080
  736MPD2    N110938   4.203   2.772  12.451  0.1041 -0.8577  0.3025
  736MPD2    H710939   4.121   2.733  12.498 -0.6544  0.7176  0.2682
  737TMC3    C110940   4.635   2.750  11.943  0.3822 -0.0036 -0.2650
  737TMC3    C210941   4.625   2.856  11.863  0.1679 -0.6180 -0.0130
  737TMC3    C310942   4.688   2.866  11.745  0.1602 -0.0632 -0.7219
  737TMC3    C410943   4.710   2.643  11.902  0.1334  0.1018 -0.2533
  737TMC3    C510944   0.030   2.646  11.778  0.0969  0.4521  0.1513
  737TMC3    C610945   0.013   2.753  11.696  0.9742  0.4306  0.4728
  737TMC3     C10946   4.582   2.747  12.080  0.1659  0.5497 -0.3184
  737TMC3     O10947   4.566   2.855  12.134 -0.0517  0.0768  0.0373
  737TMC3     H10948   4.561   2.941  11.884  0.0768 -0.5015 -0.7386
  737TMC3    H110949   4.731   2.556  11.963  1.2051  0.0104 -0.7550
  737TMC3    H210950   0.033   2.753  11.589  0.8809 -0.4920  0.4521
  737TMC3    C710951   0.095   2.532  11.725  0.4164 -0.6895  0.7650
  737TMC3    C810952   4.629   2.966  11.653 -0.1472  0.1711 -0.0155
  737TMC3    O110953   0.069   2.415  11.765 -0.2578  0.0927 -0.2671
  737TMC3    O210954   4.542   3.041  11.696 -0.1807  0.0519  0.1229
  738MPD2     C10955   1.072   2.044  15.595  0.1481 -1.0065  0.2212
  738MPD2    C110956   1.022   2.051  15.465  0.5600  0.2962  0.6104
  738MPD2    C210957   1.103   2.105  15.362  0.7564  0.2749  0.0752
  738MPD2    C310958   1.229   2.146  15.396 -0.0032  0.1828  0.3313
  738MPD2    C410959   1.283   2.134  15.528  0.1224 -0.3903  0.7681
  738MPD2    C510960   1.199   2.085  15.619 -0.7402 -0.2385 -0.5361
  738MPD2     H10961   1.062   2.085  15.263 -1.4704 -0.4920  1.1306
  738MPD2    H110962   1.385   2.155  15.558  0.9692 -2.6176 -0.5056
  738MPD2    H210963   1.006   2.009  15.674 -0.9291 -0.7360 -0.5464
  738MPD2    H310964   1.232   2.078  15.722  2.8140 -1.6005 -1.7821
  738MPD2     N10965   1.324   2.167  15.293 -0.2575  0.3813 -0.1755
  738MPD2    H510966   1.423   2.172  15.312 -0.1389 -0.7212 -0.5240
  738MPD2    N110967   0.893   1.997  15.423  0.6137  0.1164 -0.3119
  738MPD2    H710968   0.870   2.009  15.324 -0.0558 -0.1731 -0.1900
  739TMC3    C110969   1.414   2.194  15.069  0.5736 -0.5397  0.2465
  739TMC3    C210970   1.395   2.204  14.929  0.6627 -0.3801 -0.6159
  739TMC3    C310971   1.502   2.212  14.844 -0.5618  0.2035  0.4007
  739TMC3    C410972   1.541   2.201  15.116  0.6008  0.2655 -0.0932
  739TMC3    C510973   1.645   2.215  15.024  0.3014 -0.1237  0.0119
  739TMC3    C610974   1.631   2.214  14.887  0.3144 -0.0568 -0.0086
  739TMC3     C10975   1.296   2.176  15.154  0.2352 -0.1155 -0.7086
  739TMC3     O10976   1.192   2.151  15.096  0.6445 -0.3049  0.4678
  739TMC3     H10977   1.292   2.211  14.896  1.1262  0.2208 -1.9000
  739TMC3    H110978   1.569   2.197  15.221  0.0447 -1.2337 -0.0048
  739TMC3    H210979   1.710   2.228  14.814 -0.9695 -0.6768 -1.5398
  739TMC3    C710980   1.781   2.231  15.074  0.3399  0.2882  1.0631
  739TMC3    C810981   1.475   2.242  14.703  0.4026 -0.4542 -0.5438
  739TMC3    O110982   1.817   2.157  15.166  0.1478 -0.0751 -0.3306
  739TMC3    O210983   1.368   2.198  14.661  0.5239 -0.5174  0.4853
  740TMC3    C110984   1.125   3.550  14.625  0.1801  0.6013  0.0997
  740TMC3    C210985   1.191   3.463  14.708 -0.1258  0.3976  0.0419
  740TMC3    C310986   1.291   3.380  14.652  0.9995 -0.1151 -1.0153
  740TMC3    C410987   1.171   3.572  14.498 -0.0587 -0.0265  0.0403
  740TMC3    C510988   1.266   3.488  14.446 -0.2457 -0.3309 -1.1152
  740TMC3    C610989   1.322   3.389  14.517  0.0240 -0.5780 -0.4604
  740TMC3     C10990   1.040   3.649  14.681  0.4817 -0.3442 -0.3930
  740TMC3     O10991   1.022   3.757  14.627  0.5847 -0.8511  0.1159
  740TMC3     H10992   1.176   3.465  14.815 -1.5020 -1.1193 -0.1115
  740TMC3    H110993   1.131   3.656  14.442 -2.1167 -2.0116 -1.4709
  740TMC3    H210994   1.399   3.330  14.469 -0.9275 -1.8713 -0.4154
  740TMC3    C710995   1.324   3.515  14.318  0.5916  0.5181 -0.4156
  740TMC3    C810996   1.390   3.332  14.737 -0.0901 -0.1308 -0.2988
  740TMC3    O110997   1.436   3.474  14.294 -0.2133 -0.3286  0.3417
  740TMC3    O210998   1.503   3.324  14.691 -0.1816 -0.0275 -0.3179
  741TMC3    C110999   1.160   2.687  14.469  0.4276 -0.1239  0.3441
  741TMC3    C211000   1.068   2.627  14.394  0.4135  0.3410 -0.6085
  741TMC3    C311001   1.023   2.498  14.434  0.5218  0.0543 -0.0157
  741TMC3    C411002   1.192   2.637  14.596 -0.5201  0.5670 -0.3417
  741TMC3    C511003   1.145   2.514  14.634  0.2589  0.1956 -0.0349
  741TMC3    C611004   1.066   2.441  14.547 -0.3345  0.0049  0.1878
  741TMC3     C11005   1.277   2.749  14.406  0.6252  0.1359 -0.8002
  741TMC3     O11006   1.382   2.725  14.462  0.3713 -0.3410  0.2264
  741TMC3     H11007   1.053   2.651  14.289 -3.7128 -1.1951 -0.3748
  741TMC3    H111008   1.242   2.697  14.671 -0.1913 -1.7294  1.2870
  741TMC3    H211009   1.025   2.346  14.580  0.3979 -0.5485 -0.5262
  741TMC3    C711010   1.151   2.472  14.773 -0.4988  0.0648 -0.5204
  741TMC3    C811011   0.931   2.442  14.355  0.2682 -0.0766  0.7545
  741TMC3    O111012   1.051   2.423  14.829 -0.5914  0.0238  0.1302
  741TMC3    O211013   0.858   2.509  14.290  0.1264 -0.0301  0.2498
  742TMC3    C111014   0.964   1.162  15.464 -0.6070  0.1705 -0.3401
  742TMC3    C211015   0.899   1.185  15.342  0.0398  0.3980  0.7269
  742TMC3    C311016   0.971   1.180  15.227  0.5606  0.5277  0.8948
  742TMC3    C411017   1.084   1.106  15.481 -0.1720 -0.5239 -0.0256
  742TMC3    C511018   1.156   1.102  15.360  0.5684  0.4364 -0.3643
  742TMC3    C611019   1.098   1.149  15.240  0.5416  0.0149 -0.0113
  742TMC3     C11020   0.881   1.179  15.580  0.3202 -0.1659  0.0536
  742TMC3     O11021   0.761   1.184  15.561  0.0005  0.0618  0.0321
  742TMC3     H11022   0.802   1.234  15.342  1.0530  2.4155  0.4861
  742TMC3    H111023   1.127   1.066  15.572  3.8832 -0.3432 -1.8480
  742TMC3    H211024   1.158   1.147  15.150 -2.1827 -0.5154 -1.8201
  742TMC3    C711025   1.266   1.005  15.347  0.7155  0.2726  0.8076
  742TMC3    C811026   0.897   1.167  15.099  0.3086  1.0418 -0.1065
  742TMC3    O111027   1.286   0.962  15.234 -0.3586 -0.4485  0.4878
  742TMC3    O211028   0.970   1.124  15.012 -0.2680 -0.0263 -0.2779
  743MPD2     C11029   3.664   1.990   1.672 -0.1814 -0.2897  0.4609
  743MPD2    C111030   3.668   2.002   1.533 -0.5159 -0.1353  0.1592
  743MPD2    C211031   3.782   2.054   1.471  0.2982 -0.2982  0.1900
  743MPD2    C311032   3.889   2.101   1.544  0.3676  0.0741 -0.0956
  743MPD2    C411033   3.887   2.079   1.682  0.1332 -1.0615  0.1570
  743MPD2    C511034   3.775   2.030   1.744  0.2033  0.5869 -0.3327
  743MPD2     H11035   3.773   2.080   1.366 -1.3246 -2.1579 -0.1262
  743MPD2    H111036   3.974   2.088   1.747 -0.6336  1.1581  0.8683
  743MPD2    H211037   3.574   1.960   1.726 -0.3543 -2.2964 -0.9379
  743MPD2    H311038   3.767   2.030   1.852  1.1126  1.4325 -0.2682
  743MPD2     N11039   3.994   2.175   1.478  0.3314  0.3919  0.0194
  743MPD2    H511040   3.989   2.181   1.377 -0.6177  1.8300  0.1419
  743MPD2    N111041   3.561   1.952   1.449  0.1774  0.5386  0.8030
  743MPD2    H711042   3.566   1.955   1.347  1.1811 -0.4205  0.8243
  744TMC3    C111043   3.338   1.900   1.394  0.0746 -0.5389 -0.1988
  744TMC3    C211044   3.220   1.964   1.398 -0.0733 -0.5925  0.0586
  744TMC3    C311045   3.149   1.968   1.282  0.0280  0.6603 -0.1273
  744TMC3    C411046   3.397   1.860   1.279 -0.1055  0.3841 -0.0299
  744TMC3    C511047   3.314   1.856   1.171 -0.5443 -0.4137  0.4809
  744TMC3    C611048   3.190   1.909   1.168 -0.0027  0.9234 -0.0531
  744TMC3     C11049   3.432   1.943   1.499 -0.4168  0.0497 -0.0608
  744TMC3     O11050   3.388   1.985   1.604 -0.1806  0.3168 -0.0668
  744TMC3     H11051   3.189   2.023   1.483  0.2987  1.0652 -0.9534
  744TMC3    H111052   3.481   1.791   1.283 -0.1918  0.2315 -0.7867
  744TMC3    H211053   3.137   1.938   1.078 -0.7138 -0.1390  0.0149
  744TMC3    C711054   3.392   1.868   1.046  0.2281  0.0444  0.1047
  744TMC3    C811055   3.038   2.063   1.272  0.6443 -0.3057 -0.0753
  744TMC3    O111056   3.489   1.940   1.063  0.2049  0.4449 -0.5507
  744TMC3    O211057   3.018   2.113   1.163 -0.1357 -0.3439  0.2390
  745TMC3    C111058   1.108   0.835  13.862 -0.0780  0.2075 -0.1653
  745TMC3    C211059   1.004   0.853  13.949 -0.0454  0.4515 -0.3010
  745TMC3    C311060   0.890   0.905  13.900  0.1711  0.1149 -0.3853
  745TMC3    C411061   1.097   0.854  13.731 -0.2234  0.5226  0.1529
  745TMC3    C511062   0.972   0.907  13.680  0.1602 -0.3257  1.5216
  745TMC3    C611063   0.860   0.925  13.764  0.3346 -0.6262 -0.1471
  745TMC3     C11064   1.242   0.848  13.928  0.3046 -0.7889  1.0215
  745TMC3     O11065   1.322   0.757  13.918  0.3892  0.1454  0.5652
  745TMC3     H11066   1.003   0.802  14.045  1.3184  1.0967  0.0602
  745TMC3    H111067   1.179   0.828  13.665  0.9064  1.2932  1.2422
  745TMC3    H211068   0.761   0.956  13.733  0.8653  0.4234 -0.7802
  745TMC3    C711069   0.958   0.948  13.538 -0.2556 -0.1432 -0.1006
  745TMC3    C811070   0.818   0.994  13.997 -0.2294 -0.3986  0.3546
  745TMC3    O111071   0.845   0.982  13.505 -0.4804  0.2498  0.3559
  745TMC3    O211072   0.722   1.060  13.959 -0.0565  0.3903 -0.1456
  746TMC3    C111073   3.576   2.477  11.032  0.6791  0.0950  0.1450
  746TMC3    C211074   3.643   2.459  10.913  0.4073 -0.3294  0.2263
  746TMC3    C311075   3.660   2.332  10.867  0.0118  0.7825 -0.5438
  746TMC3    C411076   3.516   2.375  11.099  0.1271  0.3034 -0.3330
  746TMC3    C511077   3.535   2.246  11.044  0.3126 -0.4481  0.2806
  746TMC3    C611078   3.607   2.226  10.935 -0.0623  0.0788  0.0723
  746TMC3     C11079   3.523   2.609  11.060  0.0282 -0.0434  0.5811
  746TMC3     O11080   3.446   2.596  11.156 -0.3908  0.1243  0.2794
  746TMC3     H11081   3.677   2.545  10.855 -0.7680  0.6876  1.0415
  746TMC3    H111082   3.442   2.391  11.176  1.6259  0.0177  1.1733
  746TMC3    H211083   3.612   2.131  10.885  2.1402 -0.6400  1.6468
  746TMC3    C711084   3.420   2.153  11.048 -0.2089  0.8746 -0.5282
  746TMC3    C811085   3.701   2.302  10.734  0.7258 -1.0685  0.9237
  746TMC3    O111086   3.389   2.099  10.947 -0.5389 -0.7809 -0.7778
  746TMC3    O211087   3.758   2.194  10.711  0.1345 -0.1309 -0.2036
  747TMC3    C111088   0.780   2.692  10.972  0.1113  0.1954 -0.6418
  747TMC3    C211089   0.734   2.580  11.037 -0.7161  0.0502  0.0297
  747TMC3    C311090   0.722   2.601  11.169  0.4052 -0.2627 -0.2097
  747TMC3    C411091   0.818   2.807  11.028 -0.3583 -0.3546  0.9310
  747TMC3    C511092   0.826   2.808  11.163 -0.1309  0.6350 -0.1327
  747TMC3    C611093   0.760   2.716  11.241 -0.3096 -0.6457 -0.1204
  747TMC3     C11094   0.761   2.695  10.829 -0.0748 -0.1957 -0.3257
  747TMC3     O11095   0.748   2.808  10.780  0.5032 -0.6122 -0.2519
  747TMC3     H11096   0.698   2.494  10.983 -1.0291  1.1902 -1.5918
  747TMC3    H111097   0.878   2.869  10.962 -0.4364 -1.4893 -0.1909
  747TMC3    H211098   0.778   2.703  11.347 -2.8116 -0.0536  0.3733
  747TMC3    C711099   0.927   2.892  11.226 -0.0609 -0.3411  0.5130
  747TMC3    C811100   0.634   2.497  11.225  0.1717 -0.6863  0.8392
  747TMC3    O111101   0.937   2.873  11.344 -0.0126  0.6784 -0.5014
  747TMC3    O211102   0.606   2.397  11.159 -0.3800  0.7296 -0.2229
  748MPD2     C11103   2.753   3.414   1.400  0.3797 -0.2513 -0.0957
  748MPD2    C111104   2.759   3.532   1.321 -0.0389  0.2303  0.1759
  748MPD2    C211105   2.880   3.603   1.319  0.6439 -0.3997 -0.0389
  748MPD2    C311106   2.991   3.558   1.395  0.2827  0.3894 -0.5916
  748MPD2    C411107   2.984   3.442   1.468  0.4179  0.2042  0.3051
  748MPD2    C511108   2.862   3.377   1.476  0.1998 -0.3003 -0.6137
  748MPD2     H11109   2.893   3.690   1.254  1.6358  0.7607  1.6985
  748MPD2    H111110   3.056   3.397   1.535  0.2814 -2.5102 -1.3715
  748MPD2    H211111   2.666   3.349   1.394  1.1404 -1.6241  3.5866
  748MPD2    H311112   2.853   3.299   1.552 -0.1486  0.4585  0.1174
  748MPD2     N11113   3.109   3.626   1.388 -0.0473  0.9268  0.8373
  748MPD2    H511114   3.113   3.701   1.320 -0.5428 -1.2716 -1.6177
  748MPD2    N111115   2.636   3.566   1.251 -0.0641  0.0885 -0.2669
  748MPD2    H711116   2.558   3.501   1.247  0.0600 -0.0893  0.2137
  749TMC3    C111117   3.319   3.711   1.452 -0.1136 -0.2855  1.0358
  749TMC3    C211118   3.437   3.672   1.498  0.6693 -0.3684  0.2207
  749TMC3    C311119   3.537   3.763   1.484 -0.1062 -0.4340 -0.3763
  749TMC3    C411120   3.299   3.834   1.392 -0.5490  0.5796 -0.9934
  749TMC3    C511121   3.409   3.918   1.385  0.0848 -0.4081 -0.6578
  749TMC3    C611122   3.538   3.887   1.424 -0.3937 -0.1809  0.2570
  749TMC3     C11123   3.217   3.617   1.479 -0.1300  0.3869 -0.3381
  749TMC3     O11124   3.227   3.551   1.580  0.5107  0.1959 -0.2126
  749TMC3     H11125   3.444   3.577   1.549 -2.6772  0.0274  1.4217
  749TMC3    H111126   3.201   3.862   1.356 -0.3883 -1.6862 -3.1552
  749TMC3    H211127   3.613   3.963   1.443 -1.6206  1.1564 -0.3065
  749TMC3    C711128   3.393   4.051   1.320 -1.0260 -0.1316 -0.2504
  749TMC3    C811129   3.662   3.727   1.554 -0.1755 -0.7983 -0.4319
  749TMC3    O111130   3.494   4.096   1.262 -0.4981  0.1524 -0.3397
  749TMC3    O211131   3.734   3.819   1.595  0.4946 -0.1249  0.2348
  750MPD2     C11132   3.623   4.358  11.294 -0.4302 -0.2990  0.2586
  750MPD2    C111133   3.489   4.327  11.304 -0.4573  0.1976  0.0366
  750MPD2    C211134   3.430   4.242  11.205 -0.2754 -0.6447  0.6688
  750MPD2    C311135   3.504   4.199  11.101 -0.4985 -0.1106 -0.2009
  750MPD2    C411136   3.641   4.234  11.096 -0.2686  0.3828  0.7147
  750MPD2    C511137   3.702   4.316  11.189  0.6888 -0.2409 -1.0689
  750MPD2     H11138   3.328   4.208  11.217 -0.5844 -0.2151 -0.6870
  750MPD2    H111139   3.701   4.196  11.013 -1.7347 -2.6224  1.0230
  750MPD2    H211140   3.671   4.412  11.375 -1.0400 -1.4276  1.3694
  750MPD2    H311141   3.807   4.341  11.182  1.1562 -1.1646  2.6866
  750MPD2     N11142   3.448   4.111  11.005  0.1898  0.4521 -0.0824
  750MPD2    H511143   3.517   4.089  10.935 -0.6987 -1.8051 -0.2542
  750MPD2    N111144   3.417   4.380  11.416 -0.1604 -0.8988 -0.2697
  750MPD2    H711145   3.471   4.431  11.485  0.5743  0.2066 -1.6540
  751TMC3    C111146   3.297   3.944  10.903  0.9612 -0.2717  0.3951
  751TMC3    C211147   3.192   3.858  10.921  0.9745  0.0110 -0.1520
  751TMC3    C311148   3.164   3.766  10.824  1.4366  0.5784  0.1092
  751TMC3    C411149   3.374   3.938  10.787 -0.5555  0.4537 -0.8268
  751TMC3    C511150   3.347   3.839  10.698 -0.1620  0.0839 -0.0505
  751TMC3    C611151   3.248   3.752  10.716 -0.2313 -0.3387  0.2288
  751TMC3     C11152   3.323   4.051  11.008 -0.3351  0.7408 -0.1401
  751TMC3     O11153   3.218   4.079  11.064  0.4161 -0.3000 -0.6450
  751TMC3     H11154   3.125   3.888  11.001  0.5443 -1.5571  0.0751
  751TMC3    H111155   3.450   4.014  10.776  0.0103  0.2108  1.2149
  751TMC3    H211156   3.233   3.666  10.652  1.6759 -0.9857  0.6666
  751TMC3    C711157   3.451   3.819  10.592  0.4166 -0.4394  0.3593
  751TMC3    C811158   3.069   3.664  10.861 -0.0005 -0.2939 -0.5392
  751TMC3    O111159   3.550   3.882  10.614  0.4065  0.2959 -0.5502
  751TMC3    O211160   2.990   3.626  10.778  0.1006  0.4294 -0.0937
  752TMC3    C111161   2.247   4.343  17.247 -0.0089  0.2214 -0.3898
  752TMC3    C211162   2.313   4.256  17.328 -0.0719  0.1230 -0.0018
  752TMC3    C311163   2.264   4.227  17.453 -0.4501 -0.2363 -0.1682
  752TMC3    C411164   2.140   4.418  17.291  0.7093 -0.3120 -0.3750
  752TMC3    C511165   2.091   4.393  17.415  0.4133  0.0510  0.1810
  752TMC3    C611166   2.151   4.291  17.493 -0.4999 -0.8473  0.2200
  752TMC3     C11167   2.290   4.345  17.112  0.2484 -0.1276 -0.3566
  752TMC3     O11168   2.397   4.296  17.081  0.0984 -0.7728  0.2285
  752TMC3     H11169   2.398   4.200  17.291 -0.9415 -0.1583 -1.5831
  752TMC3    H111170   2.101   4.501  17.233  1.3633 -0.1062 -0.5160
  752TMC3    H211171   2.119   4.266  17.593  0.4163  0.0501  0.7425
  752TMC3    C711172   1.963   4.454  17.444  0.0822  0.4605 -0.2181
  752TMC3    C811173   2.320   4.127  17.542 -0.2510  0.2730  0.4252
  752TMC3    O111174   1.896   4.486  17.344 -0.4426  0.0407  0.2519
  752TMC3    O211175   2.275   4.110  17.652  0.0807  0.3425 -0.4585
  753TMC3    C111176   4.326   0.523  14.071 -0.2461  0.6949  0.0250
  753TMC3    C211177   4.439   0.568  14.141  0.1205  0.6854 -0.0576
  753TMC3    C311178   4.515   0.474  14.210 -0.9190 -0.5853 -0.7759
  753TMC3    C411179   4.300   0.386  14.058 -0.1886 -1.1701  0.5934
  753TMC3    C511180   4.378   0.295  14.130  0.3721  1.1601 -0.2248
  753TMC3    C611181   4.481   0.338  14.217  0.8768 -0.9815  0.5711
  753TMC3     C11182   4.267   0.605  13.966 -0.0630 -0.2564  0.2695
  753TMC3     O11183   4.230   0.549  13.863 -0.2840  0.1161 -0.0374
  753TMC3     H11184   4.480   0.667  14.131 -0.1846  0.7828 -0.3336
  753TMC3    H111185   4.221   0.355  13.990  0.3275 -2.0894  0.4099
  753TMC3    H211186   4.540   0.266  14.272  0.0703 -1.5617  0.6697
  753TMC3    C711187   4.336   0.157  14.147  0.2318 -0.4487  0.2181
  753TMC3    C811188   4.620   0.509  14.300 -0.2980  0.6913  1.4978
  753TMC3    O111189   4.391   0.096  14.239 -0.8062 -0.2904 -0.1188
  753TMC3    O211190   4.673   0.412  14.347 -0.0048 -0.1755  0.7027
  754MPD2     C11191   3.154   4.381  12.636  0.5235 -0.0174  0.4441
  754MPD2    C111192   3.213   4.259  12.668 -0.1333 -0.1397 -1.0530
  754MPD2    C211193   3.132   4.152  12.713 -0.3399 -0.3334  0.2025
  754MPD2    C311194   2.998   4.167  12.737 -0.4258  0.5593  0.0330
  754MPD2    C411195   2.940   4.286  12.699  0.3093  0.3981  0.5668
  754MPD2    C511196   3.015   4.392  12.652  0.2119  0.6003 -0.4169
  754MPD2     H11197   3.179   4.057  12.737 -0.5453 -0.6857 -0.7985
  754MPD2    H111198   2.834   4.306  12.712 -0.1309 -0.3483 -1.8356
  754MPD2    H211199   3.205   4.473  12.610  0.8564 -0.1198  0.7478
  754MPD2    H311200   2.959   4.484  12.637  0.4430  0.6624 -0.8806
  754MPD2     N11201   2.914   4.060  12.777 -0.5748  0.3143 -0.1010
  754MPD2    H511202   2.815   4.061  12.752 -0.8708 -0.9805  0.9927
  754MPD2    N111203   3.353   4.256  12.676 -0.0884 -0.1495 -0.4142
  754MPD2    H711204   3.398   4.340  12.642  0.4684 -0.0105  0.6995
  755MPD2     C11205   2.134   4.245  12.807  0.0497 -0.1543 -0.3578
  755MPD2    C111206   2.152   4.208  12.938  0.7847 -0.7186  0.1824
  755MPD2    C211207   2.267   4.142  12.976  0.5751  0.8607 -0.1711
  755MPD2    C311208   2.370   4.128  12.884  0.5196 -0.1808 -0.9016
  755MPD2    C411209   2.353   4.168  12.752 -0.9889  0.0048 -0.1339
  755MPD2    C511210   2.233   4.230  12.721  0.2341  0.4651  0.3950
  755MPD2     H11211   2.275   4.107  13.078  1.1794  0.9577 -0.1891
  755MPD2    H111212   2.431   4.140  12.682 -1.9209 -2.9136  0.0117
  755MPD2    H211213   2.044   4.300  12.782 -0.2825 -0.2301  0.6685
  755MPD2    H311214   2.221   4.262  12.618  1.6945  0.2624  0.1596
  755MPD2     N11215   2.496   4.069  12.920 -0.8950 -0.4743  0.1415
  755MPD2    H511216   2.559   4.066  12.841  0.2651  1.1025  1.0151
  755MPD2    N111217   2.056   4.230  13.038 -0.4271  0.4692 -0.3375
  755MPD2    H711218   2.087   4.224  13.135 -2.1331 -3.9894 -0.1189
  756MPD2     C11219   2.612   4.714   9.909  0.2423  0.0652  0.4747
  756MPD2    C111220   2.617   4.619  10.009 -0.2922  0.1574 -0.1902
  756MPD2    C211221   2.532   4.511  10.000  0.2636 -0.5673  0.6411
  756MPD2    C311222   2.469   4.486   9.880 -0.6071  0.4219 -0.4935
  756MPD2    C411223   2.481   4.579   9.781 -0.3770 -1.1414 -0.3836
  756MPD2    C511224   2.548   4.697   9.797  0.0714 -0.1901  1.2420
  756MPD2     H11225   2.520   4.442  10.083 -2.4815 -1.2299 -0.3023
  756MPD2    H111226   2.434   4.560   9.685  0.0479 -3.8771 -0.0330
  756MPD2    H211227   2.653   0.081   9.917 -0.3576  0.2630  1.0761
  756MPD2    H311228   2.538   0.040   9.720 -4.2965 -0.3239  1.6935
  756MPD2     N11229   2.394   4.367   9.860 -0.0620 -0.0900  0.2579
  756MPD2    H511230   2.351   4.351   9.769 -1.0607  0.2723  0.6789
  756MPD2    N111231   2.684   4.635  10.132  0.6305 -0.1728 -0.2245
  756MPD2    H711232   2.666   4.567  10.204 -1.7685 -0.8179 -1.4245
  757MPD2     C11233   1.467   3.973   9.862  0.0330 -0.6109  0.2907
  757MPD2    C111234   1.538   3.906   9.959 -0.2256  0.7894  0.6854
  757MPD2    C211235   1.677   3.918   9.955  0.2159 -0.3237 -0.1057
  757MPD2    C311236   1.742   3.998   9.862 -0.7708 -0.3193  0.5138
  757MPD2    C411237   1.667   4.067   9.767  0.3311  0.0142 -0.4612
  757MPD2    C511238   1.529   4.046   9.762 -0.6034 -0.6380 -0.4978
  757MPD2     H11239   1.745   3.858  10.015 -2.4305  0.2552  3.4722
  757MPD2    H111240   1.718   4.122   9.689 -2.7249  3.0022 -0.3135
  757MPD2    H211241   1.359   3.966   9.855  0.1224 -2.5753  0.8280
  757MPD2    H311242   1.466   4.077   9.679  0.4750  0.7433 -0.8065
  757MPD2     N11243   1.880   3.995   9.868 -0.3411  0.1044  0.4899
  757MPD2    H511244   1.930   3.939   9.936 -0.0122 -0.9629 -0.6327
  757MPD2    N111245   1.465   3.830  10.059  0.1585 -0.2571 -0.5392
  757MPD2    H711246   1.364   3.834  10.052  0.0119 -0.1394  1.4913
  758MPD2     C11247   3.299   4.180  15.948 -0.6911 -0.3601 -0.2876
  758MPD2    C111248   3.309   4.051  15.993 -0.3417 -0.1898 -0.3737
  758MPD2    C211249   3.243   4.038  16.113  0.3326 -0.4409  0.1284
  758MPD2    C311250   3.184   4.140  16.184  0.4200  0.6370 -0.1988
  758MPD2    C411251   3.164   4.265  16.128  0.0408 -0.1910 -0.1763
  758MPD2    C511252   3.222   4.283  16.010  0.3958 -0.1217  0.3622
  758MPD2     H11253   3.258   3.943  16.163  1.6865  0.7868  2.0508
  758MPD2    H111254   3.102   4.341  16.176 -0.0043 -0.3273 -0.0174
  758MPD2    H211255   3.321   4.197  15.844  0.3782 -1.2349 -0.2090
  758MPD2    H311256   3.212   4.379  15.961 -1.0199  0.1989  1.2977
  758MPD2     N11257   3.132   4.124  16.308 -0.0649 -0.4650 -0.1976
  758MPD2    H511258   3.077   4.204  16.338  1.3128  0.5500 -0.3929
  758MPD2    N111259   3.383   3.949  15.927 -0.1124  0.2392  0.1153
  758MPD2    H711260   3.444   3.980  15.852 -0.5924 -2.1598 -1.2670
  759MPD2     C11261   2.270   1.957   9.247  0.0663 -0.1908 -0.7100
  759MPD2    C111262   2.189   2.023   9.337 -0.4658  0.0309  0.3010
  759MPD2    C211263   2.155   2.157   9.321 -0.0372  0.1030 -0.3093
  759MPD2    C311264   2.220   2.226   9.218  0.2598  0.3858  0.1979
  759MPD2    C411265   2.304   2.160   9.131 -0.1384 -0.2000 -0.0768
  759MPD2    C511266   2.313   2.024   9.136 -0.2279 -0.5378 -0.1039
  759MPD2     H11267   2.084   2.205   9.388  1.4965  2.4191 -0.3597
  759MPD2    H111268   2.349   2.207   9.044  1.4450  0.9209  1.3401
  759MPD2    H211269   2.294   1.851   9.252  0.7244  0.0168  0.5082
  759MPD2    H311270   2.375   1.973   9.063 -2.3948 -2.6666 -0.4126
  759MPD2     N11271   2.191   2.362   9.203  0.2708  0.3178 -0.5162
  759MPD2    H511272   2.144   2.410   9.279 -0.9936 -0.8738 -0.5402
  759MPD2    N111273   2.115   1.954   9.436  0.6757 -0.0386  0.0865
  759MPD2    H711274   2.058   2.007   9.502 -0.3910 -0.2497 -0.6588
  760MPD2     C11275   1.474   4.314  12.335  0.5037 -0.0986 -0.5562
  760MPD2    C111276   1.525   4.281  12.210 -0.0930 -0.5197  0.5800
  760MPD2    C211277   1.529   4.151  12.171  0.0257  0.0283  0.2788
  760MPD2    C311278   1.488   4.053  12.249  0.1676 -0.4967  0.5821
  760MPD2    C411279   1.427   4.079  12.372  0.2382  0.5603  0.2055
  760MPD2    C511280   1.421   4.212  12.407 -0.2217  0.0753  0.0306
  760MPD2     H11281   1.577   4.114  12.081 -0.7093  1.3940 -0.6764
  760MPD2    H111282   1.378   4.008  12.437  0.8527 -0.1693 -0.1312
  760MPD2    H211283   1.466   4.412  12.379 -2.7954 -0.6154  0.0454
  760MPD2    H311284   1.372   4.233  12.502  2.2232  1.0970  1.0599
  760MPD2     N11285   1.520   3.913  12.233 -0.4666 -0.3737 -0.4838
  760MPD2    H511286   1.465   3.844  12.284 -1.9783  1.1384 -0.0672
  760MPD2    N111287   1.587   4.375  12.132  0.0321 -0.6919 -0.6133
  760MPD2    H711288   1.615   4.344  12.040  0.8812 -0.7041 -0.3509
  761MPD2     C11289   2.891   3.343  11.232 -0.4819  0.4993 -0.2435
  761MPD2    C111290   2.864   3.347  11.094  0.1546 -0.2667  0.0383
  761MPD2    C211291   2.931   3.450  11.021 -0.4854  0.0311  1.2431
  761MPD2    C311292   3.016   3.545  11.075 -0.0220  0.6654  0.0235
  761MPD2    C411293   3.040   3.537  11.212  0.3052 -0.2008 -0.5194
  761MPD2    C511294   2.978   3.441  11.288  0.7109 -0.0904 -0.0620
  761MPD2     H11295   2.921   3.452  10.913 -2.0834 -0.9180  1.3665
  761MPD2    H111296   3.108   3.604  11.264 -1.0944  0.6398  0.2152
  761MPD2    H211297   2.850   3.271  11.301  5.0463 -1.9607  0.4489
  761MPD2    H311298   2.984   3.446  11.396  2.0045  2.8765 -0.2876
  761MPD2     N11299   3.082   3.647  11.002  0.2223 -0.2306 -0.0756
  761MPD2    H511300   3.157   3.699  11.044 -0.2817 -0.5227  1.1856
  761MPD2    N111301   2.792   3.243  11.043  0.0127  0.2266 -0.2807
  761MPD2    H711302   2.764   3.163  11.099  0.3598 -0.5907 -1.2678
  762MPD2     C11303   2.709   3.209  10.287 -0.0799  0.6832  0.4618
  762MPD2    C111304   2.760   3.104  10.361 -0.0341  0.0767 -0.0026
  762MPD2    C211305   2.875   3.043  10.323 -0.0096 -0.4937  0.2096
  762MPD2    C311306   2.944   3.079  10.211 -1.1621 -0.0398  0.3796
  762MPD2    C411307   2.886   3.174  10.131 -0.1213  0.2223 -0.7167
  762MPD2    C511308   2.772   3.238  10.167  0.1655 -0.8014  0.0322
  762MPD2     H11309   2.918   2.971  10.392  0.4578 -0.7171 -0.3121
  762MPD2    H111310   2.929   3.205  10.036 -0.1077 -0.9440 -1.0839
  762MPD2    H211311   2.612   3.255  10.300 -2.1997 -2.6481 -3.3917
  762MPD2    H311312   2.710   3.305  10.108  0.4977  0.1545  0.7792
  762MPD2     N11313   3.070   3.015  10.191 -0.3639 -0.6494 -0.0729
  762MPD2    H511314   3.081   2.931  10.247  0.8028 -0.4416  0.0116
  762MPD2    N111315   2.679   3.065  10.480 -0.0462 -0.1394  0.3718
  762MPD2    H711316   2.604   3.130  10.501 -1.4564 -1.3573 -0.8806
  763MPD2     C11317   0.461   4.287  16.258 -0.7496 -0.2140 -1.3350
  763MPD2    C111318   0.328   4.330  16.257  0.3905 -0.5472  0.8840
  763MPD2    C211319   0.305   4.468  16.282 -0.2321 -0.2037 -0.2947
  763MPD2    C311320   0.407   4.550  16.299  0.1155  0.1144  0.0334
  763MPD2    C411321   0.535   4.508  16.277  0.6445 -0.1196  0.3756
  763MPD2    C511322   0.569   4.375  16.276  0.5609  0.1676 -0.3402
  763MPD2     H11323   0.204   4.504  16.294 -0.2213 -0.6545  1.1284
  763MPD2    H111324   0.616   4.581  16.277  0.4290  0.1085 -2.0988
  763MPD2    H211325   0.483   4.186  16.223  1.1158 -0.3014  0.0669
  763MPD2    H311326   0.669   4.336  16.260 -0.7152 -3.3170  0.0157
  763MPD2     N11327   0.382   4.682  16.326 -0.3480 -0.1877 -0.0479
  763MPD2    H511328   0.464   0.010  16.326  0.5083 -1.3457  0.4906
  763MPD2    N111329   0.219   4.245  16.233  0.2935  0.2708  0.2793
  763MPD2    H711330   0.128   4.288  16.218 -0.9209 -2.4135 -0.0463
  764MPD2     C11331   3.179   0.996   0.137 -0.5580 -0.1013 -1.0905
  764MPD2    C111332   3.161   0.875   0.081  0.3386  0.6727  0.9370
  764MPD2    C211333   3.204   0.766   0.158  0.1089 -0.2762  0.3577
  764MPD2    C311334   3.264   0.774   0.282 -0.3302 -0.3233  0.7204
  764MPD2    C411335   3.280   0.901   0.341  1.1064  0.0993  0.3510
  764MPD2    C511336   3.244   1.011   0.262  0.2882 -0.6593 -1.3017
  764MPD2     H11337   3.170   0.671   0.119  0.2038 -0.7661  1.4748
  764MPD2    H111338   3.330   0.917   0.436  1.1561 -3.3248  0.8881
  764MPD2    H211339   3.147   1.089   0.093  0.0743 -0.2808 -1.9331
  764MPD2    H311340   3.264   1.111   0.299 -1.8119 -0.1467 -1.5764
  764MPD2     N11341   3.296   0.643   0.345 -0.2474  0.3263 -0.0156
  764MPD2    H511342   3.268   0.563   0.289  0.4985  0.5476 -0.7115
  764MPD2    N111343   3.072   0.845  17.708 -0.1450  0.1358 -0.1281
  764MPD2    H711344   3.053   0.750  17.679 -0.9931  0.0161  0.8234
  765MPD2     C11345   3.155   3.492  15.363 -0.7602  0.7015 -0.3340
  765MPD2    C111346   3.197   3.535  15.493 -0.0055 -0.3285  0.0349
  765MPD2    C211347   3.325   3.515  15.524 -0.2497  0.8070 -0.3011
  765MPD2    C311348   3.413   3.450  15.439  0.4171 -0.1470 -0.7845
  765MPD2    C411349   3.376   3.423  15.311  0.1125  0.6842 -0.0012
  765MPD2    C511350   3.251   3.448  15.276  0.3925  0.2622  0.2747
  765MPD2     H11351   3.359   3.556  15.619 -2.8307  0.1215  0.9288
  765MPD2    H111352   3.448   3.373  15.247  0.3429 -0.8225  1.4414
  765MPD2    H211353   3.054   3.508  15.328 -1.8403 -1.6876  1.6348
  765MPD2    H311354   3.225   3.425  15.173 -1.3861 -0.7173  0.9507
  765MPD2     N11355   3.539   3.427  15.489  0.0854 -0.2639  0.4220
  765MPD2    H511356   3.546   3.457  15.585  0.1913  0.3951  0.2072
  765MPD2    N111357   3.100   3.605  15.571 -0.3597 -0.1575 -0.1794
  765MPD2    H711358   3.004   3.580  15.547  0.0439 -2.3487  0.5071
  766MPD2     C11359   2.512   3.657  15.441  0.4143 -0.6801 -0.2491
  766MPD2    C111360   2.648   3.676  15.431  0.2178 -0.1314  0.3472
  766MPD2    C211361   2.720   3.631  15.318 -0.2119  0.7738  0.1755
  766MPD2    C311362   2.643   3.584  15.212  0.1858 -0.1265  0.6578
  766MPD2    C411363   2.505   3.576  15.218 -0.2208  1.1051 -0.7831
  766MPD2    C511364   2.439   3.611  15.336 -0.2593 -0.4580 -0.1507
  766MPD2     H11365   2.826   3.649  15.302  0.1947 -1.4246  0.4625
  766MPD2    H111366   2.447   3.549  15.130 -3.0915  2.2776  0.7441
  766MPD2    H211367   2.461   3.661  15.537 -1.3144 -0.5759 -1.1777
  766MPD2    H311368   2.331   3.604  15.340 -0.3030  0.7182  0.9519
  766MPD2     N11369   2.700   3.534  15.086 -0.5171 -0.5707 -0.5293
  766MPD2    H511370   2.639   3.517  15.008 -0.1655 -1.7097 -0.5524
  766MPD2    N111371   2.725   3.722  15.541 -0.2858 -0.1576  0.6094
  766MPD2    H711372   2.824   3.706  15.529  0.0109  2.8634 -1.0352
  767MPD2     C11373   2.194   3.764  14.973  0.0092 -0.7585  0.0330
  767MPD2    C111374   2.324   3.791  14.937 -0.0993  0.0210  0.4506
  767MPD2    C211375   2.365   3.752  14.809 -0.2954  0.4073 -0.1965
  767MPD2    C311376   2.279   3.699  14.716  0.1786  0.5240  0.2120
  767MPD2    C411377   2.150   3.672  14.758 -0.5106 -0.5760  0.1706
  767MPD2    C511378   2.110   3.705  14.886 -1.0377  0.6584 -0.1443
  767MPD2     H11379   2.468   3.771  14.779  0.1322 -1.3437  0.1864
  767MPD2    H111380   2.080   3.607  14.705 -1.7774  0.3621  0.7054
  767MPD2    H211381   2.163   3.773  15.076 -0.6641  2.5611 -0.4788
  767MPD2    H311382   2.016   3.670  14.928 -0.7304  1.1355  0.9427
  767MPD2     N11383   2.333   3.660  14.589  0.1212  0.0744 -0.0089
  767MPD2    H511384   2.435   3.664  14.584  0.1190  2.2316  1.6835
  767MPD2    N111385   2.410   3.843  15.032  0.0074  0.4312 -0.1947
  767MPD2    H711386   2.364   3.869  15.119 -1.7007 -3.0719 -0.0600
  768MPD2     C11387   3.339   1.929  10.490 -0.6306 -0.3023 -0.2763
  768MPD2    C111388   3.321   1.841  10.600 -0.4998  0.1165  0.1654
  768MPD2    C211389   3.430   1.839  10.689 -0.1679  0.1049  0.5755
  768MPD2    C311390   3.551   1.908  10.654 -0.5975 -0.3841  0.0252
  768MPD2    C411391   3.567   1.983  10.536 -0.3925 -0.5548 -0.0326
  768MPD2    C511392   3.454   1.996  10.461  0.3267  1.1458 -0.4432
  768MPD2     H11393   3.419   1.777  10.777 -0.5809 -2.1776 -1.0715
  768MPD2    H111394   3.661   2.032  10.513 -2.2229  3.0357  0.0964
  768MPD2    H211395   3.253   1.959  10.431 -1.0284  1.3495  1.1134
  768MPD2    H311396   3.452   2.063  10.376  0.2413  1.2620 -0.3503
  768MPD2     N11397   3.653   1.915  10.756  0.2394  0.2618 -0.2306
  768MPD2    H511398   3.711   1.998  10.744 -0.0175  0.4564 -0.1416
  768MPD2    N111399   3.200   1.785  10.642 -0.1743  0.3457  0.2853
  768MPD2    H711400   3.201   1.734  10.730  0.0060 -0.3206 -0.1025
  769MPD2     C11401   3.778   0.595  15.020  0.5308 -0.0075  0.4689
  769MPD2    C111402   3.798   0.484  15.101  0.6414  0.5548 -0.3703
  769MPD2    C211403   3.869   0.499  15.217 -0.1857  0.0163 -0.6063
  769MPD2    C311404   3.924   0.623  15.248 -0.8498  0.5496  0.3348
  769MPD2    C411405   3.893   0.734  15.171  0.4446  0.0333  0.3335
  769MPD2    C511406   3.820   0.716  15.061 -0.5687 -0.0400  0.3717
  769MPD2     H11407   3.891   0.420  15.288  2.5844  0.5820 -0.8029
  769MPD2    H111408   3.928   0.835  15.195  2.2636  0.0688 -2.5066
  769MPD2    H211409   3.725   0.586  14.926  0.2826 -0.5093  0.6569
  769MPD2    H311410   3.791   0.807  15.008  0.5908  0.6931  0.9991
  769MPD2     N11411   4.002   0.634  15.370  0.2643  0.0933 -0.3828
  769MPD2    H511412   4.010   0.547  15.422 -1.2680  0.3328  0.2702
  769MPD2    N111413   3.751   0.364  15.055 -0.1753 -0.5443  0.0083
  769MPD2    H711414   3.714   0.370  14.960  3.0937  0.3577 -1.2144
  770MPD2     C11415   3.960   4.048  15.018 -0.1653 -0.1806  0.3161
  770MPD2    C111416   3.833   4.049  14.968 -0.1743  0.4248 -0.7622
  770MPD2    C211417   3.766   4.172  14.962  0.2548  0.2031  0.4775
  770MPD2    C311418   3.824   4.285  15.011  0.7030  0.1453 -0.3933
  770MPD2    C411419   3.958   4.283  15.058  0.0337  0.4559  0.6698
  770MPD2    C511420   4.026   4.164  15.051  0.1289  0.3146 -0.0718
  770MPD2     H11421   3.669   4.183  14.914 -0.1020 -1.3462  0.8702
  770MPD2    H111422   4.014   4.370  15.089 -0.3937  0.1629  2.3087
  770MPD2    H211423   4.012   3.953  15.013 -0.9029 -0.5537 -0.1831
  770MPD2    H311424   4.131   4.164  15.076  0.1510 -0.5624 -0.1619
  770MPD2     N11425   3.752   4.405  15.007 -0.7821  0.0469  0.2584
  770MPD2    H511426   3.654   4.400  14.978 -1.2739 -0.2972  1.9577
  770MPD2    N111427   3.783   3.932  14.909 -0.2559  0.3140 -0.0502
  770MPD2    H711428   3.840   3.849  14.921 -0.8145 -0.1736 -0.7207
  771MPD2     C11429   0.613   2.801  13.409  0.0151  0.4792  0.3180
  771MPD2    C111430   0.507   2.881  13.378  0.1974 -0.3753  0.2900
  771MPD2    C211431   0.400   2.819  13.320 -0.4536  0.4039 -0.1837
  771MPD2    C311432   0.380   2.681  13.314 -0.0139  0.0939 -0.2394
  771MPD2    C411433   0.493   2.601  13.339  0.2526 -0.2710  0.3423
  771MPD2    C511434   0.608   2.670  13.386  0.9974  0.8524 -0.3876
  771MPD2     H11435   0.312   2.879  13.304 -0.8302 -1.5261 -5.5212
  771MPD2    H111436   0.492   2.493  13.343 -0.4596 -0.3399 -1.7569
  771MPD2    H211437   0.693   2.851  13.461 -0.3867 -0.1878  1.5783
  771MPD2    H311438   0.696   2.615  13.416  0.0129  0.3579  1.5876
  771MPD2     N11439   0.254   2.635  13.269 -0.1364 -0.0380 -0.6135
  771MPD2    H511440   0.184   2.701  13.237 -0.6615  0.6588  2.0034
  771MPD2    N111441   0.498   3.017  13.403  0.1355 -0.2642 -0.1401
  771MPD2    H711442   0.408   3.053  13.371  0.7981 -0.5132 -2.2608
  772MPD2     C11443   4.698   3.589  13.521  0.2651 -0.3876 -0.4001
  772MPD2    C111444   0.046   3.501  13.583  0.5950 -0.7015  0.0947
  772MPD2    C211445   4.727   3.442  13.695 -0.3438 -0.6475 -0.0417
  772MPD2    C311446   4.613   3.483  13.761 -0.8480  0.3516  0.3245
  772MPD2    C411447   4.556   3.598  13.702  0.5444 -0.0347 -0.8991
  772MPD2    C511448   4.588   3.643  13.581 -0.3281 -0.3235 -0.1331
  772MPD2     H11449   0.057   3.366  13.739 -0.0159 -0.0604  0.5037
  772MPD2    H111450   4.478   3.649  13.758  2.1118 -0.3847  1.5969
  772MPD2    H211451   4.732   3.631  13.427 -3.0063 -0.1262 -1.4791
  772MPD2    H311452   4.543   3.734  13.542  2.4101  2.5604  3.3929
  772MPD2     N11453   4.560   3.425  13.874 -0.1278 -0.2155 -0.9983
  772MPD2    H511454   4.490   3.476  13.926  1.2496 -1.1780  1.7944
  772MPD2    N111455   0.171   3.473  13.521  0.4233  0.3430  0.2137
  772MPD2    H711456   0.208   3.530  13.445  0.3168  0.2652  0.1048
  773MPD2     C11457   4.079   4.625   0.686  0.0860  0.3441 -0.3369
  773MPD2    C111458   4.107   4.551   0.576  0.0827 -0.0961  1.1339
  773MPD2    C211459   4.186   4.439   0.589  0.1253 -0.1913  0.1324
  773MPD2    C311460   4.242   4.404   0.711  0.3829 -0.1956  0.0861
  773MPD2    C411461   4.218   4.484   0.817  0.3337 -0.1451 -1.1036
  773MPD2    C511462   4.136   4.593   0.804  1.2014  0.3853  0.1637
  773MPD2     H11463   4.199   4.361   0.514 -2.3117  0.4458 -0.9760
  773MPD2    H111464   4.266   4.469   0.913 -0.2840 -0.1239 -0.7954
  773MPD2    H211465   3.997   4.696   0.685  0.5764  0.8692 -2.2396
  773MPD2    H311466   4.108   4.649   0.893 -1.6325 -1.8889  0.6679
  773MPD2     N11467   4.308   4.277   0.712 -0.3783  0.4686 -0.1519
  773MPD2    H511468   4.326   4.229   0.624 -2.0723 -0.7144  0.1457
  773MPD2    N111469   4.041   4.569   0.459 -0.4485 -0.1201 -0.2147
  773MPD2    H711470   4.034   4.495   0.391  1.5188  1.9382 -2.6283
  774MPD2     C11471   3.722   3.445  13.340  0.1118 -0.0237 -0.7120
  774MPD2    C111472   3.590   3.471  13.373  0.1204  0.7443  0.0854
  774MPD2    C211473   3.509   3.558  13.301 -0.0381 -0.2541 -0.1052
  774MPD2    C311474   3.558   3.618  13.189 -0.0640 -0.3162  0.5850
  774MPD2    C411475   3.694   3.591  13.156  0.6255 -0.0560  0.0954
  774MPD2    C511476   3.768   3.504  13.227 -0.2449  0.0687 -0.1447
  774MPD2     H11477   3.409   3.580  13.338 -1.3248 -2.6713 -2.1283
  774MPD2    H111478   3.738   3.643  13.071  0.0717 -0.0009 -0.1576
  774MPD2    H211479   3.787   3.384  13.401 -1.9321  0.1964  1.7131
  774MPD2    H311480   3.872   3.480  13.206 -0.4418  1.1318 -2.3247
  774MPD2     N11481   3.490   3.720  13.120 -0.3808  0.1941 -0.0155
  774MPD2    H511482   3.393   3.743  13.140 -1.0920 -0.1043 -3.0498
  774MPD2    N111483   3.550   3.414  13.496 -0.1229 -0.0621 -0.1443
  774MPD2    H711484   3.624   3.379  13.554 -1.4522 -2.8617 -0.1162
  775MPD2     C11485   4.404   0.248  15.912  0.5396  0.5824  0.4328
  775MPD2    C111486   4.444   0.342  16.008  0.0500  0.2479  1.0377
  775MPD2    C211487   4.543   0.432  15.977 -0.0886 -0.7797  0.2295
  775MPD2    C311488   4.591   0.443  15.855 -0.0040 -0.2476 -0.6498
  775MPD2    C411489   4.556   0.345  15.764 -0.3526 -0.1359 -0.5510
  775MPD2    C511490   4.465   0.252  15.787 -1.0949  0.3482 -0.2374
  775MPD2     H11491   4.578   0.502  16.052  0.0486 -1.3465  0.6972
  775MPD2    H111492   4.604   0.339  15.667  0.6584  2.7970 -0.2176
  775MPD2    H211493   4.327   0.177  15.940 -0.6514  0.7324 -2.5327
  775MPD2    H311494   4.433   0.182  15.711  0.2837 -1.5370  0.9239
  775MPD2     N11495   4.673   0.544  15.809 -0.0576  0.2827 -0.1240
  775MPD2    H511496   4.709   0.531  15.714 -0.6369 -0.7122 -0.2072
  775MPD2    N111497   4.379   0.333  16.132  0.0031  0.4255  0.2696
  775MPD2    H711498   4.315   0.255  16.145  0.5540  0.0596  0.8317
  776MPD2     C11499   3.673   0.111  11.941 -0.0520  0.2350  0.1699
  776MPD2    C111500   3.591   0.103  11.836  0.2462 -0.4846  0.6406
  776MPD2    C211501   3.568   0.220  11.766 -0.1234 -0.0202  0.0582
  776MPD2    C311502   3.615   0.341  11.806  0.2042  0.3527  0.2517
  776MPD2    C411503   3.700   0.344  11.917  0.3378  0.3501  0.4558
  776MPD2    C511504   3.725   0.229  11.986 -0.1491 -0.2291  0.6956
  776MPD2     H11505   3.506   0.215  11.678 -0.5191  1.6583  0.2486
  776MPD2    H111506   3.739   0.437  11.959 -1.7860  1.7516 -0.6638
  776MPD2    H211507   3.685   0.022  12.002 -0.9910 -0.8847 -1.2721
  776MPD2    H311508   3.785   0.239  12.076 -0.4227  0.7369  0.7722
  776MPD2     N11509   3.581   0.466  11.741 -0.1239 -0.3376  0.9347
  776MPD2    H511510   3.636   0.544  11.774  0.6664 -0.1023 -0.9549
  776MPD2    N111511   3.522   4.715  11.815 -0.0610  0.1504 -0.0381
  776MPD2    H711512   3.524   4.651  11.894 -1.0934  0.4134  0.1993
  777MPD2     C11513   3.982   2.988   0.855 -0.4964 -0.2669  0.1878
  777MPD2    C111514   3.991   2.867   0.928 -0.2346  0.2587 -0.4779
  777MPD2    C211515   3.974   2.738   0.873  0.1975 -0.2465  0.7871
  777MPD2    C311516   3.936   2.731   0.742  0.4779 -0.7080 -0.3325
  777MPD2    C411517   3.937   2.846   0.668 -0.1995  0.1132 -0.1280
  777MPD2    C511518   3.952   2.973   0.723  0.3710 -0.2631  0.3012
  777MPD2     H11519   3.996   2.645   0.923  2.4422  0.3646  0.9087
  777MPD2    H111520   3.908   2.842   0.564  2.4775 -0.7166 -0.8476
  777MPD2    H211521   4.002   3.084   0.902 -0.8829  0.8718 -1.9741
  777MPD2    H311522   3.944   3.063   0.663 -1.1881  0.6160  1.8214
  777MPD2     N11523   3.892   2.608   0.690  0.4266  0.1750  0.2076
  777MPD2    H511524   3.885   2.531   0.755 -1.2292  1.3085  1.3674
  777MPD2    N111525   4.032   2.881   1.060 -0.0189  0.1434  0.3402
  777MPD2    H711526   4.045   2.976   1.094  0.5285  0.1979 -0.0210
  778MPD2     C11527   0.391   3.448  14.959 -0.4707 -0.1178 -0.2977
  778MPD2    C111528   0.437   3.317  14.947  0.0763 -0.2768  0.3438
  778MPD2    C211529   0.548   3.290  14.863  0.2517 -0.3409  0.4110
  778MPD2    C311530   0.599   3.393  14.784 -0.0740 -0.1956 -0.3929
  778MPD2    C411531   0.540   3.517  14.792 -0.5128 -0.2284 -0.0528
  778MPD2    C511532   0.443   3.546  14.878 -0.1821  0.4808 -0.8496
  778MPD2     H11533   0.578   3.186  14.853 -0.6115 -0.4447 -1.1073
  778MPD2    H111534   0.568   3.596  14.723 -0.3742  2.5652  3.2242
  778MPD2    H211535   0.320   3.492  15.028 -1.3153 -1.3716 -0.3699
  778MPD2    H311536   0.408   3.649  14.881 -1.3406  0.0822 -0.4501
  778MPD2     N11537   0.704   3.355  14.696 -0.1754 -0.6421  0.1735
  778MPD2    H511538   0.733   3.258  14.701 -0.3840 -0.6339  1.4699
  778MPD2    N111539   0.364   3.205  15.003  0.5272  0.1043  0.6248
  778MPD2    H711540   0.393   3.109  14.990  0.4568 -0.1469  2.3536
  779MPD2     C11541   4.637   1.865  14.315 -0.2789 -0.8432  0.1837
  779MPD2    C111542   0.023   1.801  14.287  0.0183 -0.9524  0.1064
  779MPD2    C211543   0.104   1.845  14.181 -0.0948 -0.0144  0.0691
  779MPD2    C311544   0.058   1.949  14.100  0.0930  0.6751  0.0679
  779MPD2    C411545   4.663   2.011  14.136 -0.0939 -0.4182 -0.1374
  779MPD2    C511546   4.593   1.971  14.245 -0.6729  0.5338 -0.2322
  779MPD2     H11547   0.205   1.807  14.173 -0.3626 -0.3971 -1.5268
  779MPD2    H111548   4.624   2.093  14.078 -0.0143 -0.7748 -0.6955
  779MPD2    H211549   4.574   1.835  14.399 -1.9931  0.2492 -0.7108
  779MPD2    H311550   4.498   2.021  14.259 -0.5171  0.5101  0.8995
  779MPD2     N11551   0.153   2.014  14.006 -0.8078  0.0709  0.6827
  779MPD2    H511552   0.243   1.967  14.008  0.4996  2.5237 -0.5828
  779MPD2    N111553   0.062   1.692  14.364 -0.4603  0.0595 -0.6548
  779MPD2    H711554   0.162   1.673  14.357 -0.3154  0.1839  1.0464
  780MPD2     C11555   4.599   1.786   1.419 -0.6197  0.2119 -0.0841
  780MPD2    C111556   4.524   1.744   1.310 -0.4355 -0.3281 -0.3170
  780MPD2    C211557   4.566   1.778   1.187 -0.2987  0.3313 -0.5313
  780MPD2    C311558   4.681   1.854   1.172  0.2396 -0.0156 -0.1377
  780MPD2    C411559   0.025   1.891   1.286 -0.3588 -0.8196 -0.0910
  780MPD2    C511560   4.715   1.857   1.414 -0.2817  0.2377 -0.0976
  780MPD2     H11561   4.505   1.738   1.106  1.2848 -0.5766 -1.2825
  780MPD2    H111562   0.121   1.938   1.270 -0.5394 -0.6383 -0.6348
  780MPD2    H211563   4.561   1.759   1.517 -1.4299  0.3674 -0.3571
  780MPD2    H311564   0.034   1.902   1.498 -0.7697 -0.0268  0.3480
  780MPD2     N11565   4.717   1.881   1.035 -0.0841 -0.6713  0.1130
  780MPD2    H511566   4.654   1.850   0.961  2.2242  2.0176 -2.9959
  780MPD2    N111567   4.413   1.667   1.335 -0.5985 -0.2924 -0.3037
  780MPD2    H711568   4.388   1.652   1.432 -1.3531  0.1869 -0.4211
  781MPD2     C11569   1.277   3.702  12.114  0.5965  0.0482 -0.4456
  781MPD2    C111570   1.283   3.575  12.172 -0.0316  0.2800  1.3977
  781MPD2    C211571   1.323   3.462  12.106  0.1875  0.1042  0.5451
  781MPD2    C311572   1.340   3.473  11.974  0.5121  0.3597 -0.4673
  781MPD2    C411573   1.320   3.590  11.912  0.0213  0.2366 -0.0440
  781MPD2    C511574   1.294   3.701  11.977  0.1926 -0.6416  0.4161
  781MPD2     H11575   1.329   3.370  12.163  0.5853 -0.6597 -0.7335
  781MPD2    H111576   1.330   3.603  11.804 -2.9780 -2.3879 -0.6288
  781MPD2    H211577   1.263   3.796  12.166  2.0885 -0.5366  1.0361
  781MPD2    H311578   1.286   3.798  11.930 -1.3272 -1.0329 -0.1011
  781MPD2     N11579   1.378   3.369  11.889 -0.0837  0.7792  0.0308
  781MPD2    H511580   1.386   3.381  11.789  2.5500 -0.3623  0.0951
  781MPD2    N111581   1.260   3.563  12.310 -0.1827 -0.2002  0.2131
  781MPD2    H711582   1.254   3.466  12.339  0.3383 -0.3512 -0.1805
  782MPD2     C11583   3.804   4.410  10.253 -0.1492 -0.0083  0.1143
  782MPD2    C111584   3.939   4.383  10.237 -0.4711  0.0222 -0.0589
  782MPD2    C211585   4.021   4.412  10.354 -0.5524  0.9664 -0.4095
  782MPD2    C311586   3.959   4.444  10.473  0.1246 -0.7531 -0.7046
  782MPD2    C411587   3.822   4.476  10.479 -0.3699  0.3798 -0.4212
  782MPD2    C511588   3.755   4.459  10.364 -0.1910 -0.4642 -0.1443
  782MPD2     H11589   4.128   4.394  10.350 -0.9276 -0.7895 -2.2416
  782MPD2    H111590   3.778   4.508  10.573  0.5614 -1.6618  0.7275
  782MPD2    H211591   3.738   4.399  10.167  0.6912  0.0713 -0.5431
  782MPD2    H311592   3.648   4.466  10.380  0.3703  3.2033  1.9925
  782MPD2     N11593   4.040   4.435  10.591 -0.3716  0.0251 -0.0466
  782MPD2    H511594   4.130   4.389  10.584 -0.2906  0.0565  0.7726
  782MPD2    N111595   3.983   4.328  10.115  0.1014 -0.6581  0.1196
  782MPD2    H711596   3.912   4.288  10.054 -0.2119  0.3793 -0.1894
  783MPD2     C11597   3.431   3.680  10.255 -0.5795 -0.0853 -0.4418
  783MPD2    C111598   3.471   3.762  10.359 -0.8203  0.2858  0.2455
  783MPD2    C211599   3.595   3.822  10.336 -0.5963  0.1049  0.2717
  783MPD2    C311600   3.664   3.809  10.217  0.0297  0.1859 -0.0010
  783MPD2    C411601   3.611   3.736  10.115  1.1114  0.6463 -0.0080
  783MPD2    C511602   3.497   3.665  10.137 -0.0245  0.8196  0.1971
  783MPD2     H11603   3.649   3.873  10.415 -0.2126  3.0247 -1.8617
  783MPD2    H111604   3.649   3.729  10.013  1.7754  0.1258  0.2736
  783MPD2    H211605   3.337   3.627  10.269 -1.3001  1.4847  0.6828
  783MPD2    H311606   3.460   3.613  10.049 -1.2687  2.1790 -0.0823
  783MPD2     N11607   3.791   3.880  10.201  0.4563 -0.0393 -0.9677
  783MPD2    H511608   3.843   3.907  10.284  1.0606 -0.7161 -1.1314
  783MPD2    N111609   3.398   3.764  10.482 -0.4920 -0.5896 -0.6220
  783MPD2    H711610   3.307   3.719  10.490 -0.4401 -0.4031  1.0182
  784MPD2     C11611   1.573   4.697   1.153 -0.6497 -0.1333  0.4851
  784MPD2    C111612   1.615   0.098   1.143 -0.7848 -0.0154  0.6241
  784MPD2    C211613   1.521   0.194   1.113  0.3666  0.2530 -0.4198
  784MPD2    C311614   1.386   0.161   1.089 -0.5328 -0.0121 -0.2249
  784MPD2    C411615   1.346   0.027   1.104 -0.2112 -0.6531 -0.6743
  784MPD2    C511616   1.437   4.666   1.150  0.2101  0.4310 -0.1519
  784MPD2     H11617   1.563   0.293   1.102 -0.8367  0.9279  1.0719
  784MPD2    H111618   1.240   0.004   1.098 -0.4480 -0.3678  2.5996
  784MPD2    H211619   1.641   4.618   1.181  2.3466  3.0217  2.0965
  784MPD2    H311620   1.398   4.570   1.181  1.3929 -0.0284 -0.0751
  784MPD2     N11621   1.297   0.267   1.066 -1.1059  0.2012  0.2684
  784MPD2    H511622   1.327   0.363   1.082 -0.2949  0.0581 -0.3658
  784MPD2    N111623   1.754   0.133   1.167  1.0603 -0.5117 -0.6798
  784MPD2    H711624   1.771   0.230   1.192 -0.3029 -0.5013  0.2168
  785MPD2     C11625   1.786   2.283   9.359 -0.4430  0.1549 -0.3893
  785MPD2    C111626   1.820   2.209   9.470 -0.2504  0.0878  0.2054
  785MPD2    C211627   1.768   2.081   9.484 -0.1422 -0.8290 -0.3875
  785MPD2    C311628   1.679   2.029   9.398 -0.3668  0.4482  0.3681
  785MPD2    C411629   1.648   2.105   9.284 -0.1089 -0.0069 -0.1008
  785MPD2    C511630   1.703   2.230   9.263  0.4055 -0.5226 -0.2660
  785MPD2     H11631   1.795   2.020   9.570 -0.2433 -0.8426 -0.3661
  785MPD2    H111632   1.568   2.064   9.223 -0.4787 -1.1093  1.1248
  785MPD2    H211633   1.819   2.386   9.355 -0.2814  0.0779 -0.9789
  785MPD2    H311634   1.674   2.289   9.177  0.6358 -3.1256 -2.1237
  785MPD2     N11635   1.614   1.908   9.429  0.1507  0.5260  0.1771
  785MPD2    H511636   1.637   1.866   9.518  1.3342  1.7554  0.4537
  785MPD2    N111637   1.894   2.269   9.575  0.2875 -0.0987 -0.0855
  785MPD2    H711638   1.914   2.368   9.570 -0.6136  0.1994  1.8753
  786MPD2     C11639   0.486   1.127  14.777 -0.4041  0.1167 -0.0206
  786MPD2    C111640   0.611   1.071  14.763  0.0839 -0.3615 -0.0094
  786MPD2    C211641   0.711   1.095  14.860  0.4376  0.6079 -0.6526
  786MPD2    C311642   0.682   1.170  14.975 -0.3696  0.1597  0.5099
  786MPD2    C411643   0.555   1.226  14.989  0.2711  0.0179  0.2005
  786MPD2    C511644   0.457   1.198  14.893 -0.3981  0.4760  0.6276
  786MPD2     H11645   0.800   1.033  14.860  1.0940  1.5488  2.6154
  786MPD2    H111646   0.534   1.291  15.073 -0.2488 -0.3682  0.3673
  786MPD2    H211647   0.406   1.113  14.705 -0.7746 -1.0622  0.6186
  786MPD2    H311648   0.362   1.249  14.904 -0.6392 -0.6113  3.4154
  786MPD2     N11649   0.764   1.190  15.093 -0.0159 -0.0467  0.0937
  786MPD2    H511650   0.716   1.225  15.175  1.6128  1.8790  0.2315
  786MPD2    N111651   0.651   1.002  14.649  0.8059  0.8405 -0.1738
  786MPD2    H711652   0.740   0.953  14.649 -0.0979 -0.7864  0.9810
  787MPD2     C11653   1.203   0.703  14.549 -0.3304  0.1721  0.4195
  787MPD2    C111654   1.146   0.709  14.428  0.4893 -0.3572 -0.3845
  787MPD2    C211655   1.218   0.699  14.311 -0.1841  0.2616 -0.4328
  787MPD2    C311656   1.353   0.671  14.319 -0.0104 -0.1903  0.2239
  787MPD2    C411657   1.418   0.677  14.445 -0.1302  0.0814  0.9845
  787MPD2    C511658   1.343   0.680  14.559 -0.1682  0.6262  0.2942
  787MPD2     H11659   1.165   0.716  14.217  0.8268 -2.2992 -1.4517
  787MPD2    H111660   1.524   0.674  14.469  0.4969 -0.7654 -1.9063
  787MPD2    H211661   1.145   0.709  14.641 -0.1011  2.3921  0.4117
  787MPD2    H311662   1.398   0.678  14.653 -1.1076 -1.9661  0.7729
  787MPD2     N11663   1.431   0.664  14.203  0.1614 -0.5779 -0.6455
  787MPD2    H511664   1.370   0.664  14.122  1.6240 -2.5770 -1.7509
  787MPD2    N111665   1.014   0.737  14.427 -0.6002  0.0922 -0.0132
  787MPD2    H711666   0.966   0.753  14.515  3.3402  0.2302  2.1243
  788MPD2     C11667   2.966   4.704   1.021  0.0161 -0.0281 -0.2596
  788MPD2    C111668   2.970   4.596   0.936  0.2141 -0.3007  0.3460
  788MPD2    C211669   2.970   4.615   0.795  0.2408 -0.3270  0.3068
  788MPD2    C311670   2.969   0.011   0.739 -0.5981  0.2272 -0.3380
  788MPD2    C411671   2.966   0.117   0.826 -0.1787  1.1266  0.3997
  788MPD2    C511672   2.965   0.097   0.961 -0.6963  0.1752  0.1157
  788MPD2     H11673   2.971   4.533   0.724 -0.0715 -1.2410  1.3552
  788MPD2    H111674   2.973   0.219   0.790 -0.7069  0.5334 -1.3616
  788MPD2    H211675   2.973   4.700   1.130  1.2474  0.7447 -0.3130
  788MPD2    H311676   2.953   0.185   1.023  0.6497  0.0128  0.6225
  788MPD2     N11677   2.961   0.037   0.600  0.1333  0.4242 -0.3963
  788MPD2    H511678   2.938   0.133   0.576 -0.4707  0.4211  0.1822
  788MPD2    N111679   2.970   4.470   0.999 -0.8018  0.4850 -0.0736
  788MPD2    H711680   2.953   4.472   1.100  0.2505 -2.2326  0.1589
  789MPD2     C11681   2.929   3.836  16.614 -0.1484  0.1550 -0.5023
  789MPD2    C111682   2.855   3.868  16.505  0.1565  0.0603 -0.2551
  789MPD2    C211683   2.739   3.940  16.517  0.1766  0.2287 -0.4846
  789MPD2    C311684   2.706   3.986  16.644  0.0931  0.4296 -0.1070
  789MPD2    C411685   2.786   3.955  16.749  0.2608  0.1663  0.6730
  789MPD2    C511686   2.898   3.881  16.737 -0.1678 -1.0487 -0.1299
  789MPD2     H11687   2.673   3.966  16.435 -0.9949  0.0349  0.3914
  789MPD2    H111688   2.768   4.009  16.842 -0.6631 -0.3052  0.7720
  789MPD2    H211689   3.025   3.786  16.612 -0.6567 -0.7396 -2.9050
  789MPD2    H311690   2.954   3.860  16.827 -0.0435 -0.4910 -0.0817
  789MPD2     N11691   2.586   4.056  16.671 -0.0054 -0.1274 -0.4294
  789MPD2    H511692   2.575   4.077  16.770  0.0892  0.8796 -0.6365
  789MPD2    N111693   2.879   3.819  16.373 -0.3040 -0.0056  0.3048
  789MPD2    H711694   2.819   3.857  16.300 -0.3397 -1.4418 -0.4166
  790MPD2     C11695   3.844   0.820  13.577 -0.0192  0.3031  0.1096
  790MPD2    C111696   3.766   0.725  13.637  0.3014 -0.0566  0.4459
  790MPD2    C211697   3.705   0.631  13.552  0.4619  0.2021 -0.0472
  790MPD2    C311698   3.719   0.634  13.411  0.3002  0.0370  0.5866
  790MPD2    C411699   3.797   0.738  13.364  0.6126 -0.6291  0.4653
  790MPD2    C511700   3.861   0.823  13.445 -0.2171  0.2733  0.2325
  790MPD2     H11701   3.651   0.545  13.592 -0.8695 -0.2114 -2.7249
  790MPD2    H111702   3.821   0.738  13.259  2.8217  0.4980  0.9770
  790MPD2    H211703   3.885   0.905  13.631 -0.9947  0.4029  0.7106
  790MPD2    H311704   3.918   0.905  13.404  1.5034 -0.0118  2.1133
  790MPD2     N11705   3.666   0.538  13.322 -0.4811 -1.3836 -0.3539
  790MPD2    H511706   3.696   0.538  13.225 -0.8141 -1.8404 -0.4578
  790MPD2    N111707   3.737   0.735  13.777 -0.3020  0.5650  0.4270
  790MPD2    H711708   3.785   0.811  13.825  1.2382 -1.0934  1.4917
  791MPD2     C11709   2.951   0.391  13.281  0.4255 -0.3047  0.2853
  791MPD2    C111710   3.016   0.355  13.161 -0.3155 -0.1046 -0.0977
  791MPD2    C211711   2.944   0.363  13.043  0.0235  0.4258  0.4936
  791MPD2    C311712   2.814   0.417  13.042  0.5182  0.2020  0.0458
  791MPD2    C411713   2.758   0.454  13.158 -0.8509 -0.3367 -0.1045
  791MPD2    C511714   2.824   0.449  13.277  0.5535 -0.3512 -0.4789
  791MPD2     H11715   2.988   0.322  12.952 -2.8065  0.5520 -0.9246
  791MPD2    H111716   2.654   0.484  13.163 -0.0886  2.1360  1.3032
  791MPD2    H211717   3.003   0.393  13.376 -1.5182  0.5481  1.3394
  791MPD2    H311718   2.774   0.483  13.367  3.4270 -1.3388  1.4725
  791MPD2     N11719   2.751   0.420  12.913 -0.4816  0.4590  0.0948
  791MPD2    H511720   2.804   0.386  12.834 -0.5483 -0.2662  0.3646
  791MPD2    N111721   3.149   0.319  13.174  0.6044 -1.0088 -0.3400
  791MPD2    H711722   3.188   0.338  13.265  2.7266 -3.5658 -0.7345
  792MPD2     C11723   3.934   0.442  11.551  0.4623  0.1859  0.4376
  792MPD2    C111724   3.864   0.509  11.454  0.5477 -0.3549 -0.0232
  792MPD2    C211725   3.757   0.445  11.398 -0.1088  0.0218  0.5290
  792MPD2    C311726   3.719   0.316  11.433 -0.0127 -0.2477 -0.1751
  792MPD2    C411727   3.797   0.251  11.524  0.4797 -0.2733 -0.2229
  792MPD2    C511728   3.903   0.315  11.591 -0.0213 -0.3981 -0.3785
  792MPD2     H11729   3.699   0.488  11.317  1.0195 -0.5384 -0.5754
  792MPD2    H111730   3.768   0.156  11.566 -1.2472  0.2191 -0.2922
  792MPD2    H211731   4.030   0.477  11.587 -0.3733  3.4570 -0.5325
  792MPD2    H311732   3.956   0.254  11.663 -0.1419  1.1024  0.9863
  792MPD2     N11733   3.613   0.250  11.378 -0.2339  0.0813  0.1118
  792MPD2    H511734   3.620   0.149  11.384  1.7882  0.3925  2.9405
  792MPD2    N111735   3.917   0.630  11.404  0.1107  0.2336 -0.2034
  792MPD2    H711736   4.003   0.667  11.442 -0.2839 -0.1935  1.0902
  793MPD2     C11737   2.720   4.715  10.867 -0.0230 -0.0767 -0.3907
  793MPD2    C111738   2.843   4.669  10.819 -0.0606 -1.0124 -0.0667
  793MPD2    C211739   2.955   4.696  10.898  0.6347  0.2173 -0.2019
  793MPD2    C311740   2.946   0.035  11.015  0.1633 -0.8813 -0.2229
  793MPD2    C411741   2.832   0.091  11.057 -0.8454 -0.2547  0.3294
  793MPD2    C511742   2.721   0.063  10.980 -0.3511  0.4993 -0.2565
  793MPD2     H11743   3.054   4.668  10.865  1.8258  2.9958  0.9811
  793MPD2    H111744   2.829   0.152  11.146 -1.5786 -1.8251  1.3898
  793MPD2    H211745   2.628   4.725  10.811 -0.6192  0.0433  0.6091
  793MPD2    H311746   2.633   0.111  11.022 -0.4165  0.3043 -0.1713
  793MPD2     N11747   3.067   0.039  11.089  0.0471  0.1695 -0.0575
  793MPD2    H511748   3.143   4.714  11.055 -1.6243 -1.9586 -0.1566
  793MPD2    N111749   2.860   4.609  10.694 -0.5725  0.4235  0.1909
  793MPD2    H711750   2.953   4.584  10.661  0.0261 -0.2340  2.3591
  794MPD2     C11751   3.774   0.095  17.435 -0.2658  1.0928 -0.7626
  794MPD2    C111752   3.686   0.031  17.514 -0.1048 -0.7473 -0.1449
  794MPD2    C211753   3.576   4.712  17.451 -0.0845  0.3143  0.3423
  794MPD2    C311754   3.546   4.726  17.317  0.5208 -0.8060 -0.5732
  794MPD2    C411755   3.631   0.067  17.246 -0.0583 -0.1889  0.3261
  794MPD2    C511756   3.749   0.116  17.303 -0.1210  0.0053  0.3093
  794MPD2     H11757   3.509   4.654  17.514  3.4340 -0.6862  3.2202
  794MPD2    H111758   3.616   0.097  17.143  0.5788 -0.0178  0.2864
  794MPD2    H211759   3.864   0.141  17.472 -0.1554  1.3861 -1.3916
  794MPD2    H311760   3.821   0.166  17.239 -0.3904  1.2645  0.9992
  794MPD2     N11761   3.425   4.698  17.264 -0.5320  0.2360 -0.0835
  794MPD2    H511762   3.398   4.729  17.171 -5.1983 -3.3015  0.0621
  794MPD2    N111763   3.702   0.028  17.657 -0.8227  0.0081 -0.3544
  794MPD2    H711764   3.639   4.703  17.711 -1.3808  2.2381  1.4076
  795MPD2     C11765   1.344   2.223  13.703  0.1918 -0.2715  0.3628
  795MPD2    C111766   1.277   2.106  13.685 -0.8498 -0.3269 -0.5492
  795MPD2    C211767   1.309   2.004  13.768  0.1144 -0.3636 -0.2016
  795MPD2    C311768   1.408   2.011  13.861 -0.2694 -0.1045  0.3091
  795MPD2    C411769   1.476   2.129  13.874  0.3717  0.5583 -0.5657
  795MPD2    C511770   1.444   2.234  13.795 -0.1438  0.1142  0.0670
  795MPD2     H11771   1.255   1.912  13.751 -0.5443  0.1779 -1.0711
  795MPD2    H111772   1.551   2.145  13.950  0.5079  0.2327 -0.6311
  795MPD2    H211773   1.342   2.296  13.623  1.8607  0.8329  1.3517
  795MPD2    H311774   1.498   2.325  13.822 -2.3286  1.7729 -1.1927
  795MPD2     N11775   1.436   1.903  13.950 -0.6120 -0.0711 -0.7103
  795MPD2    H511776   1.358   1.839  13.960 -0.7987  0.3672  0.6514
  795MPD2    N111777   1.181   2.082  13.583 -0.3918  0.1231  0.6537
  795MPD2    H711778   1.145   1.989  13.566 -0.0669 -0.1837  1.6436
  796MPD2     C11779   0.602   3.582  15.938 -0.2723  0.1485  0.7398
  796MPD2    C111780   0.682   3.665  16.009  0.4047  0.1969  0.2241
  796MPD2    C211781   0.660   3.799  16.003  0.4158 -0.2886  0.0191
  796MPD2    C311782   0.550   3.847  15.938  0.0269 -0.4954 -0.6340
  796MPD2    C411783   0.468   3.759  15.876 -0.1728 -0.6563  0.4032
  796MPD2    C511784   0.490   3.625  15.882  0.2519  0.6693  0.0378
  796MPD2     H11785   0.733   3.866  16.046 -0.1097 -0.9479  1.9278
  796MPD2    H111786   0.379   3.792  15.824  0.3328 -1.6538 -1.1097
  796MPD2    H211787   0.619   3.475  15.945  0.6356  0.1427 -1.3961
  796MPD2    H311788   0.430   3.561  15.819 -1.6235 -0.7417  3.2335
  796MPD2     N11789   0.526   3.983  15.950 -0.0113 -1.0711  1.1683
  796MPD2    H511790   0.596   4.035  16.003 -0.5759  0.4822  0.4096
  796MPD2    N111791   0.778   3.606  16.091  0.1582  0.7050 -1.1911
  796MPD2    H711792   0.777   3.505  16.080 -0.6249  0.8291 -2.3620
  797MPD2     C11793   2.414   3.575  17.359  0.5782 -0.5427  0.4034
  797MPD2    C111794   2.281   3.592  17.401  0.1315 -0.4089  0.2250
  797MPD2    C211795   2.178   3.596  17.318  0.3234 -0.1894  0.4901
  797MPD2    C311796   2.200   3.587  17.179 -1.1607  0.1844  0.0018
  797MPD2    C411797   2.330   3.562  17.138  0.5667 -0.0485 -0.0510
  797MPD2    C511798   2.441   3.578  17.224  0.0435  0.0987 -0.7002
  797MPD2     H11799   2.081   3.617  17.362 -0.5085 -0.6483 -1.0922
  797MPD2    H111800   2.356   3.552  17.033 -2.7080  0.2455 -0.8632
  797MPD2    H211801   2.491   3.584  17.435 -0.7075 -0.6263  1.7259
  797MPD2    H311802   2.539   3.551  17.187 -0.6225 -1.7751 -1.0833
  797MPD2     N11803   2.094   3.613  17.087 -0.1530 -0.2635 -0.3118
  797MPD2    H511804   2.106   3.601  16.987 -0.2129 -3.1317  0.0296
  797MPD2    N111805   2.252   3.623  17.535 -0.2188  0.0519 -0.1270
  797MPD2    H711806   2.156   3.652  17.554  0.6234  2.1611  0.8854
  798MPD2     C11807   1.564   3.813  17.486  0.3635  0.4955 -0.2318
  798MPD2    C111808   1.665   3.734  17.435  0.2328 -0.3207 -0.7606
  798MPD2    C211809   1.779   3.711  17.510  0.1864  0.6442 -0.2179
  798MPD2    C311810   1.796   3.763  17.637  0.0759  0.6958  0.3121
  798MPD2    C411811   1.697   3.842  17.682 -0.4973 -0.1879  0.5018
  798MPD2    C511812   1.584   3.859  17.611 -0.3711  0.3309  0.0421
  798MPD2     H11813   1.861   3.658  17.462 -0.3329  0.4182 -0.8550
  798MPD2    H111814   1.689   3.877   0.053 -1.3411  0.1281  0.3325
  798MPD2    H211815   1.475   3.839  17.430 -0.6088 -1.1235  0.5714
  798MPD2    H311816   1.509   3.921  17.659 -0.7341  0.4093 -0.6139
  798MPD2     N11817   1.918   3.746  17.704  0.6798 -0.2344  0.1549
  798MPD2    H511818   1.980   3.671  17.676 -1.4513 -1.6030 -0.9075
  798MPD2    N111819   1.660   3.678  17.302  0.2252  0.0308 -0.0476
  798MPD2    H711820   1.744   3.627  17.276  0.7648  0.3597  1.0614
  799MPD2     C11821   1.149   4.624  14.569  0.6144  0.1792 -0.4801
  799MPD2    C111822   1.048   4.565  14.498 -0.3827  0.0229 -0.0254
  799MPD2    C211823   0.952   4.647  14.427  0.5548 -0.2572 -0.1596
  799MPD2    C311824   0.963   0.052  14.427  0.8789 -0.0499  0.3541
  799MPD2    C411825   1.070   0.105  14.492  0.3988 -0.8406  0.3415
  799MPD2    C511826   1.163   0.028  14.567  0.1629  0.5491  0.3172
  799MPD2     H11827   0.877   4.596  14.367  2.6422 -2.2646 -1.0414
  799MPD2    H111828   1.089   0.212  14.491  0.1866 -0.8012  0.6472
  799MPD2    H211829   1.221   4.571  14.630 -0.3456 -2.2943 -1.4847
  799MPD2    H311830   1.241   0.082  14.619  1.3229 -2.5062  1.7508
  799MPD2     N11831   0.875   0.135  14.352  0.5005  0.6930 -0.3327
  799MPD2    H511832   0.889   0.235  14.363  0.0847  0.6487  0.6274
  799MPD2    N111833   1.035   4.421  14.481  0.3014 -0.1816  0.2727
  799MPD2    H711834   0.957   4.385  14.429  0.7489 -0.6940 -0.0406
  800MPD2     C11835   0.870   1.228  14.457  0.2752  0.2593 -0.4505
  800MPD2    C111836   0.974   1.150  14.430  0.1964 -0.0805  0.2826
  800MPD2    C211837   0.976   1.084  14.307  0.2013 -0.5087  0.6825
  800MPD2    C311838   0.869   1.084  14.221 -0.0339  0.0714  0.2604
  800MPD2    C411839   0.758   1.162  14.248 -0.5286 -0.2816 -0.3716
  800MPD2    C511840   0.770   1.239  14.363 -0.7158  0.5649 -0.3103
  800MPD2     H11841   1.056   1.014  14.284 -0.3635 -1.4246  1.4869
  800MPD2    H111842   0.666   1.165  14.189 -1.9803 -3.8337  1.7088
  800MPD2    H211843   0.868   1.282  14.550 -0.8326 -1.9735  0.8170
  800MPD2    H311844   0.677   1.290  14.384 -1.6704 -1.9576  1.5911
  800MPD2     N11845   0.890   1.001  14.110 -0.3606  0.5406 -0.0062
  800MPD2    H511846   0.984   0.962  14.104 -1.4345 -1.9990 -0.4587
  800MPD2    N111847   1.092   1.144  14.519  0.1377 -0.0551 -0.2725
  800MPD2    H711848   1.090   1.198  14.605  0.8964  0.1137 -0.3583
  801MPD2     C11849   1.328   1.737  14.805 -0.5397 -0.5862 -1.0990
  801MPD2    C111850   1.259   1.654  14.718  0.0805 -0.6039  0.0129
  801MPD2    C211851   1.135   1.692  14.669 -0.0450  0.2067 -0.4832
  801MPD2    C311852   1.083   1.808  14.702  0.2434  0.3931  0.4116
  801MPD2    C411853   1.150   1.896  14.784  0.7357  0.5147  0.3262
  801MPD2    C511854   1.278   1.859  14.825  0.1836  0.5569 -0.2861
  801MPD2     H11855   1.089   1.610  14.615  0.5190 -1.3107  1.3310
  801MPD2    H111856   1.113   1.997  14.798  1.6544  1.2048 -2.1300
  801MPD2    H211857   1.422   1.707  14.851 -1.4845  0.2964  1.4024
  801MPD2    H311858   1.330   1.931  14.887 -0.3082  2.7138 -2.3638
  801MPD2     N11859   0.960   1.856  14.645  0.5972 -0.5882  0.1260
  801MPD2    H511860   0.932   1.947  14.681 -1.0115 -1.2556  0.5902
  801MPD2    N111861   1.309   1.532  14.676  0.6895 -0.6253 -0.3986
  801MPD2    H711862   1.244   1.483  14.616 -0.9311  1.6767 -0.5101
  802MPD2     C11863   0.307   2.763  17.476  0.1419 -0.0476 -0.2994
  802MPD2    C111864   0.361   2.727  17.596 -0.0694 -0.5107 -0.3079
  802MPD2    C211865   0.408   2.597  17.613  0.2011  0.2471 -0.4088
  802MPD2    C311866   0.409   2.503  17.511  0.7830  0.2700  0.1887
  802MPD2    C411867   0.335   2.536  17.397 -0.1360  0.1318 -0.1839
  802MPD2    C511868   0.296   2.660  17.379 -0.1847 -0.1456 -0.0715
  802MPD2     H11869   0.465   2.574  17.703  0.4049  0.0166 -0.5958
  802MPD2    H111870   0.311   2.467  17.316  0.7801 -0.4756  0.0548
  802MPD2    H211871   0.279   2.864  17.452 -1.1856 -0.5372 -0.7999
  802MPD2    H311872   0.245   2.687  17.288 -0.3498 -1.4622 -0.3744
  802MPD2     N11873   0.478   2.379  17.528 -0.1225  0.0801 -0.1493
  802MPD2    H511874   0.535   2.359  17.610  0.4353 -1.2239 -0.8451
  802MPD2    N111875   0.353   2.802  17.719  0.9286  0.3998  0.0897
  802MPD2    H711876   0.391   2.757   0.069  0.1547 -0.6532 -0.1284
  803MPD2     C11877   1.410   0.068  12.087  0.0537  0.1973  0.0066
  803MPD2    C111878   1.417   0.203  12.115 -0.5356 -0.1461 -0.2678
  803MPD2    C211879   1.403   0.245  12.245 -0.3637  0.0726  0.1076
  803MPD2    C311880   1.374   0.147  12.341  0.0845 -0.4404  0.0722
  803MPD2    C411881   1.362   0.017  12.300 -0.3707  0.5091  0.4958
  803MPD2    C511882   1.382   4.707  12.178 -0.0964 -0.3738  0.1105
  803MPD2     H11883   1.406   0.348  12.277 -1.5323 -0.1691  0.9897
  803MPD2    H111884   1.341   4.673  12.374 -0.3970  1.5965  1.6344
  803MPD2    H211885   1.430   0.027  11.988  0.4370 -0.3062  0.2940
  803MPD2    H311886   1.385   4.599  12.164 -0.1374 -0.7176  2.7613
  803MPD2     N11887   1.351   0.183  12.475 -0.5257  0.8010 -0.5942
  803MPD2    H511888   1.321   0.105  12.533  1.3816  1.0191  0.6752
  803MPD2    N111889   1.475   0.297  12.020  0.0593  0.0421 -0.4540
  803MPD2    H711890   1.496   0.394  12.041 -0.5808 -0.2425  1.5692
  804MPD2     C11891   1.124   1.994  16.921 -0.3128 -0.1485  0.9229
  804MPD2    C111892   1.135   1.961  17.050 -0.2347 -0.0617 -1.0300
  804MPD2    C211893   1.200   2.057  17.125 -0.2087  0.2464  0.0730
  804MPD2    C311894   1.254   2.170  17.067  0.4085  0.6875 -0.2554
  804MPD2    C411895   1.244   2.201  16.934  0.0897 -0.6534  0.5090
  804MPD2    C511896   1.179   2.101  16.863 -0.0910  0.5227  0.0324
  804MPD2     H11897   1.219   2.040  17.230  2.4393  0.6599 -0.3462
  804MPD2    H111898   1.283   2.297  16.905 -2.5987  0.5430  0.8348
  804MPD2    H211899   1.066   1.930  16.855 -2.0365  0.8929  1.4427
  804MPD2    H311900   1.168   2.124  16.757 -1.0763 -0.1319 -0.0105
  804MPD2     N11901   1.308   2.261  17.165 -0.1102  0.6427  0.2990
  804MPD2    H511902   1.316   2.229  17.261 -1.1710 -0.7916 -0.0930
  804MPD2    N111903   1.075   1.849  17.113  0.2251  0.2325 -0.5732
  804MPD2    H711904   1.087   1.844  17.214  0.7903 -0.9583 -0.6987
  805MPD2     C11905   0.330   0.511  15.815 -0.1180 -0.4647 -0.3901
  805MPD2    C111906   0.402   0.421  15.734  0.2697  0.5310 -0.2805
  805MPD2    C211907   0.539   0.419  15.750  0.3721  0.4823  0.0742
  805MPD2    C311908   0.611   0.497  15.839 -0.6293  0.0826 -0.4299
  805MPD2    C411909   0.537   0.583  15.927 -0.1154  0.2994  0.0717
  805MPD2    C511910   0.398   0.589  15.909 -0.8278  0.4481 -0.1467
  805MPD2     H11911   0.603   0.358  15.687 -0.7111 -2.0925  1.4760
  805MPD2    H111912   0.576   0.648  16.005 -1.3694  0.1833  0.7923
  805MPD2    H211913   0.221   0.513  15.809 -0.0743  0.3478 -0.9651
  805MPD2    H311914   0.344   0.650  15.981 -2.0726 -0.1285 -0.5847
  805MPD2     N11915   0.753   0.478  15.853 -0.5808  0.3293  0.3818
  805MPD2    H511916   0.802   0.428  15.780  2.4420  0.9096  2.0021
  805MPD2    N111917   0.342   0.344  15.632  0.0293 -0.1697 -0.2981
  805MPD2    H711918   0.404   0.279  15.584  0.8874 -0.0480  0.6486
  806MPD2     C11919   1.008   4.378   0.419 -0.5298 -0.0835  0.0924
  806MPD2    C111920   0.950   4.446   0.526 -0.3994 -0.0684  0.5317
  806MPD2    C211921   0.948   4.583   0.525  0.7112  0.5651 -0.8047
  806MPD2    C311922   0.995   4.648   0.415  0.2128  0.2667 -0.2591
  806MPD2    C411923   1.067   4.577   0.316 -0.1202 -0.2671  0.7805
  806MPD2    C511924   1.072   4.445   0.317 -0.3243  0.0021  0.2540
  806MPD2     H11925   0.908   4.645   0.604  0.4117 -0.3961 -0.1998
  806MPD2    H111926   1.110   4.628   0.231 -0.6437 -1.1157  0.0092
  806MPD2    H211927   1.016   4.270   0.419 -4.2976 -0.3528  0.1858
  806MPD2    H311928   1.127   4.390   0.241  0.9645  2.4711 -0.6216
  806MPD2     N11929   0.989   0.057   0.410 -0.4181 -0.4585 -0.5167
  806MPD2    H511930   0.959   0.099   0.498 -2.4149  0.9443 -1.8802
  806MPD2    N111931   0.907   4.373   0.645  0.5006  0.1487  0.1926
  806MPD2    H711932   0.920   4.272   0.646 -0.6971 -0.0643 -4.1454
  807MPD2     C11933   0.867   3.687   0.876  0.0327 -0.1331 -0.1170
  807MPD2    C111934   0.792   3.743   0.977 -0.0691 -0.4832 -0.2160
  807MPD2    C211935   0.728   3.653   1.065 -0.3308 -0.3157 -0.8410
  807MPD2    C311936   0.755   3.523   1.069  0.2293  0.8581 -0.7266
  807MPD2    C411937   0.830   3.467   0.973  0.0699 -0.7944  0.7633
  807MPD2    C511938   0.880   3.550   0.873  0.0399 -0.6319  0.5457
  807MPD2     H11939   0.665   3.679   1.149 -0.6827  1.4671 -1.6567
  807MPD2    H111940   0.855   3.361   0.971 -0.2835 -0.8951  1.7537
  807MPD2    H211941   0.921   3.743   0.801  0.8729 -2.0839 -0.9559
  807MPD2    H311942   0.939   3.509   0.792  0.2804  1.1081 -0.1523
  807MPD2     N11943   0.689   3.451   1.169 -0.1309 -0.2008  0.3323
  807MPD2    H511944   0.624   3.504   1.227 -0.1078 -1.1522  1.2436
  807MPD2    N111945   0.777   3.885   0.987 -0.1379  0.0785  0.3244
  807MPD2    H711946   0.732   3.923   1.070  1.5978 -0.9699  1.7492
  808MPD2     C11947   1.103   0.579   9.679 -0.2721 -0.3563 -0.3859
  808MPD2    C111948   1.137   0.584   9.817 -0.1974 -0.7260 -0.3344
  808MPD2    C211949   1.267   0.609   9.857  0.6473  0.2922 -0.1012
  808MPD2    C311950   1.368   0.616   9.761 -0.0768 -0.3629 -0.9380
  808MPD2    C411951   1.333   0.623   9.626  0.7050  0.3790 -0.0767
  808MPD2    C511952   1.205   0.597   9.586 -0.1674 -0.0579  0.5223
  808MPD2     H11953   1.297   0.599   9.961  3.1296 -2.4171 -1.0530
  808MPD2    H111954   1.405   0.644   9.547  0.2063 -0.4231 -0.7331
  808MPD2    H211955   1.006   0.548   9.643 -0.4595 -2.5507  2.0362
  808MPD2    H311956   1.182   0.590   9.480 -0.2420 -1.0740  0.6040
  808MPD2     N11957   1.509   0.626   9.795  0.0240  0.0133 -0.2620
  808MPD2    H511958   1.567   0.653   9.716  1.9837 -0.1607  1.1032
  808MPD2    N111959   1.052   0.545   9.919  0.3262  0.1341  0.6003
  808MPD2    H711960   1.090   0.545  10.013  1.4106  0.7381  0.1676
  809MPD2     C11961   2.199   0.281  10.449 -0.1796 -0.1202  0.7151
  809MPD2    C111962   2.226   0.416  10.444 -1.3678 -0.1665  0.5628
  809MPD2    C211963   2.147   0.498  10.364 -0.5988  0.0157 -0.1149
  809MPD2    C311964   2.050   0.440  10.286  0.2341  0.0415 -0.1121
  809MPD2    C411965   2.017   0.306  10.295  0.2117 -1.0265  0.5031
  809MPD2    C511966   2.089   0.231  10.384 -0.2179  0.5839  0.8276
  809MPD2     H11967   2.165   0.604  10.373 -0.4412 -0.0174 -0.0316
  809MPD2    H111968   1.930   0.268  10.243 -0.0761  0.9190 -0.4484
  809MPD2    H211969   2.258   0.212  10.508 -1.1339 -1.2121  0.3768
  809MPD2    H311970   2.063   0.126  10.384  0.5371  0.3957  2.7817
  809MPD2     N11971   1.977   0.523  10.198  0.2606  0.2775 -0.3382
  809MPD2    H511972   1.912   0.474  10.137 -0.7067 -1.4022  1.9974
  809MPD2    N111973   2.329   0.476  10.507 -0.6349 -0.4172  0.2152
  809MPD2    H711974   2.343   0.573  10.480 -2.5959 -0.7048 -1.7993
  810MPD2     C11975   0.599   0.530  10.843 -0.2369 -0.4702  0.3250
  810MPD2    C111976   0.575   0.555  10.709  0.1945  0.7881  0.1290
  810MPD2    C211977   0.614   0.672  10.641  0.2491 -0.3785  0.1910
  810MPD2    C311978   0.699   0.763  10.714  0.9980  0.4308 -1.1682
  810MPD2    C411979   0.725   0.732  10.843 -0.0397  0.5131 -0.3964
  810MPD2    C511980   0.678   0.623  10.916  0.1912  0.0030 -0.1372
  810MPD2     H11981   0.592   0.690  10.536  1.9095 -2.2442 -0.4773
  810MPD2    H111982   0.792   0.796  10.899 -1.7242  1.7936  0.1800
  810MPD2    H211983   0.570   0.441  10.899 -0.0699  0.5411  2.0109
  810MPD2    H311984   0.709   0.585  11.012 -2.7204 -1.3064  0.2795
  810MPD2     N11985   0.752   0.879  10.655 -0.4424  0.2613 -0.1567
  810MPD2    H511986   0.823   0.929  10.706  0.9823  0.2562 -2.1224
  810MPD2    N111987   0.503   0.458  10.637 -0.2758 -0.2011  0.3707
  810MPD2    H711988   0.431   0.409  10.690  2.0495  0.4838  4.1529
  811MPD2     C11989   4.714   0.153   9.962  0.1594  0.6898 -0.1955
  811MPD2    C111990   0.111   0.202   9.965  0.3450 -0.3122 -0.1790
  811MPD2    C211991   0.167   0.266   9.851  0.8249  0.0576 -1.0901
  811MPD2    C311992   0.097   0.267   9.733  0.1915 -0.0446  0.0689
  811MPD2    C411993   4.707   0.209   9.727  0.0859  0.1981  0.1401
  811MPD2    C511994   4.649   0.149   9.838  0.1071  0.2769 -0.0638
  811MPD2     H11995   0.260   0.321   9.853  1.0124 -0.3112  0.3622
  811MPD2    H111996   4.649   0.208   9.635 -1.5001  0.9034  1.1519
  811MPD2    H211997   4.669   0.103  10.048  1.7551  0.9330  0.7839
  811MPD2    H311998   4.547   0.114   9.844 -0.0707  0.7141 -0.4725
  811MPD2     N11999   0.154   0.340   9.621 -0.5392 -0.4211  0.1055
  811MPD2    H512000   0.250   0.371   9.628  0.2338 -2.4307 -1.5184
  811MPD2    N112001   0.182   0.191  10.090 -0.6202  0.0592 -0.0658
  811MPD2    H712002   0.119   0.155  10.161 -0.9015  0.1822 -0.2518
  812MPD2     C12003   4.654   0.352  12.132  0.3729  0.1049 -0.4584
  812MPD2    C112004   4.546   0.388  12.209  0.0353  0.3289 -0.5016
  812MPD2    C212005   4.502   0.313  12.321 -0.3667 -0.6127 -0.1621
  812MPD2    C312006   4.573   0.202  12.359 -0.2740  0.1450 -0.9649
  812MPD2    C412007   4.687   0.166  12.282  0.3150  0.2393  0.7074
  812MPD2    C512008   4.727   0.239  12.174 -0.7131 -0.1807  0.0641
  812MPD2     H12009   4.414   0.331  12.383  0.3725  0.0939  0.6792
  812MPD2    H112010   0.003   0.071  12.302  0.8301  0.5884  1.1337
  812MPD2    H212011   4.677   0.406  12.041 -2.1598  0.6534 -0.7740
  812MPD2    H312012   0.071   0.198  12.110 -0.5915 -0.3242  0.3011
  812MPD2     N12013   4.537   0.126  12.472  0.0414 -0.2430 -0.4107
  812MPD2    H512014   4.464   0.163  12.532 -0.5093 -2.2985  0.2038
  812MPD2    N112015   4.478   0.507  12.170  0.6979 -0.3344 -0.0645
  812MPD2    H712016   4.519   0.552  12.089 -0.4436  0.0420 -0.4453
  813MPD2     C12017   4.109   2.163  13.168  0.2314 -0.4549  0.0970
  813MPD2    C112018   4.025   2.261  13.126 -0.8600  0.4888 -0.3700
  813MPD2    C212019   3.892   2.261  13.165 -0.2524  0.7954  0.3970
  813MPD2    C312020   3.848   2.174  13.262 -0.4747 -0.5289 -0.0056
  813MPD2    C412021   3.937   2.067  13.303 -0.9338 -0.0187  0.5764
  813MPD2    C512022   4.069   2.065  13.258 -0.1716 -0.1761  0.4006
  813MPD2     H12023   3.824   2.339  13.133 -0.3020  0.1427 -1.1239
  813MPD2    H112024   3.906   1.996  13.378  1.3962 -1.4916  0.1403
  813MPD2    H212025   4.215   2.166  13.145  0.1754  0.0356 -0.0919
  813MPD2    H312026   4.137   1.985  13.283 -2.6038 -2.5611 -0.5353
  813MPD2     N12027   3.713   2.192  13.314  0.3997 -0.0288 -0.2104
  813MPD2    H512028   3.665   2.278  13.288 -0.2051 -0.2254  0.2449
  813MPD2    N112029   4.089   2.365  13.054  0.4279 -0.5016  0.5547
  813MPD2    H712030   4.190   2.372  13.063  0.7027 -1.5615 -1.9941
  814MPD2     C12031   3.644   3.341  12.349 -0.6658 -0.3162  0.3869
  814MPD2    C112032   3.705   3.377  12.235  0.4082 -0.9974  0.1023
  814MPD2    C212033   3.800   3.478  12.237 -0.8186 -0.1634  0.2648
  814MPD2    C312034   3.832   3.541  12.360 -0.4693  0.0367  0.7209
  814MPD2    C412035   3.768   3.508  12.474 -0.2098  0.2652  0.4930
  814MPD2    C512036   3.678   3.406  12.468  0.2591 -0.3602 -0.0210
  814MPD2     H12037   3.854   3.503  12.147 -2.6379  3.3192  0.1447
  814MPD2    H112038   3.792   3.555  12.568 -3.0631 -1.2507  1.9671
  814MPD2    H212039   3.575   3.258  12.359 -1.7499  0.5757  0.2489
  814MPD2    H312040   3.620   3.378  12.555 -2.3117 -0.3620 -1.7531
  814MPD2     N12041   3.936   3.638  12.376 -0.2957  0.0080 -0.1982
  814MPD2    H512042   3.948   3.674  12.470  0.6359 -1.7602  0.3757
  814MPD2    N112043   3.699   3.298  12.111 -0.0544  0.2905  0.6473
  814MPD2    H712044   3.742   3.335  12.027 -0.7805  1.6714  0.8909
  815MPD2     C12045   4.437   1.994  11.899  0.2407 -0.0886  0.6771
  815MPD2    C112046   4.380   1.869  11.880  0.4276  0.4138 -0.0654
  815MPD2    C212047   4.262   1.832  11.939 -0.2850  0.1133 -0.0846
  815MPD2    C312048   4.191   1.926  12.008 -0.1898  0.4315  0.2483
  815MPD2    C412049   4.246   2.046  12.023 -0.3268 -0.1291 -0.7149
  815MPD2    C512050   4.369   2.082  11.968  0.3945 -0.3926  0.4818
  815MPD2     H12051   4.215   1.734  11.937  1.0979 -0.5120 -1.5710
  815MPD2    H112052   4.196   2.131  12.068 -2.1100  0.1179 -3.1585
  815MPD2    H212053   4.529   2.024  11.850 -0.4516  1.2716  0.2410
  815MPD2    H312054   4.415   2.179  11.981  0.5266 -0.0620 -2.3046
  815MPD2     N12055   4.069   1.881  12.053  0.3755  0.0162 -0.5879
  815MPD2    H512056   4.036   1.790  12.022 -1.4392 -0.0877  1.6677
  815MPD2    N112057   4.451   1.782  11.791  0.1436 -0.0391  0.0787
  815MPD2    H712058   4.527   1.825  11.739 -0.9767  1.9710  0.1077
  816MPD2     C12059   4.632   1.139  17.378  0.2133  0.1205  0.5466
  816MPD2    C112060   4.644   1.268  17.321 -0.0368  0.3110  0.0059
  816MPD2    C212061   0.020   1.296  17.240 -0.3297  0.6767 -0.1517
  816MPD2    C312062   0.102   1.192  17.204  0.3574  1.2047 -0.5577
  816MPD2    C412063   0.082   1.063  17.262  0.0658 -0.0716  0.2701
  816MPD2    C512064   4.709   1.034  17.338 -0.1859  0.1497  0.2186
  816MPD2     H12065   0.041   1.398  17.208 -1.3559  0.7759 -0.4840
  816MPD2    H112066   0.154   0.984  17.243  0.7506  0.2199  1.6058
  816MPD2    H212067   4.552   1.125  17.450  2.4291 -0.7927  2.8054
  816MPD2    H312068   4.717   0.933  17.376  1.7801 -0.0799 -0.7767
  816MPD2     N12069   0.218   1.227  17.131 -0.2899  0.2394  0.4955
  816MPD2    H512070   0.230   1.326  17.115  0.1433  0.1651  0.3525
  816MPD2    N112071   4.552   1.367  17.371 -0.3496  0.1705  0.9569
  816MPD2    H712072   4.482   1.335  17.437 -1.3064  0.8373  0.2579
  817MPD2     C12073   3.254   2.614   9.988  0.5728 -0.3548  0.5336
  817MPD2    C112074   3.283   2.660   9.861 -0.1355 -0.2134 -0.3322
  817MPD2    C212075   3.197   2.755   9.799 -0.2490 -0.1061  0.2922
  817MPD2    C312076   3.083   2.806   9.868  0.5989  0.3672  0.3912
  817MPD2    C412077   3.056   2.752   9.993 -0.3591 -0.3228  0.7259
  817MPD2    C512078   3.143   2.663  10.052 -0.4110  0.4879  0.7532
  817MPD2     H12079   3.214   2.770   9.693  2.2523  0.7677  0.8197
  817MPD2    H112080   2.973   2.773  10.060 -1.6293 -0.9800 -0.6576
  817MPD2    H212081   3.311   2.540  10.044  1.9211 -2.1924 -3.2439
  817MPD2    H312082   3.124   2.626  10.152 -2.0053 -0.0257  0.2625
  817MPD2     N12083   2.993   2.889   9.799  0.0910  0.3860 -0.0728
  817MPD2    H512084   3.014   2.927   9.708  0.5468 -0.7671 -0.4406
  817MPD2    N112085   3.403   2.612   9.798  0.8695  0.2450  0.5335
  817MPD2    H712086   3.411   2.634   9.699  0.6901  3.4971  1.2569
  818MPD2     C12087   2.048   2.701   9.959 -0.2003 -0.1119 -0.4867
  818MPD2    C112088   2.139   2.613  10.018 -0.0522 -0.2288  0.9107
  818MPD2    C212089   2.225   2.540   9.934 -0.2103  0.5203 -0.0420
  818MPD2    C312090   2.214   2.554   9.797 -0.1835  0.0183  0.2805
  818MPD2    C412091   2.135   2.647   9.745 -0.4783 -0.1166 -0.1324
  818MPD2    C512092   2.051   2.723   9.826 -0.6216 -0.3219  0.4714
  818MPD2     H12093   2.289   2.469   9.987 -0.6443  0.1626  0.0028
  818MPD2    H112094   2.133   2.677   9.641  2.7434  0.3732 -0.0477
  818MPD2    H212095   1.976   2.758  10.017  0.4580 -1.7119  1.9081
  818MPD2    H312096   1.990   2.799   9.778  0.5992 -0.7546 -1.7177
  818MPD2     N12097   2.294   2.482   9.709  0.2185  0.6166  0.1516
  818MPD2    H512098   2.300   2.519   9.615 -3.2337  0.3149 -0.2113
  818MPD2    N112099   2.153   2.593  10.156  0.0546  0.2422  0.3579
  818MPD2    H712100   2.231   2.539  10.191 -0.4004  0.8999  2.3638
  819MPD2     C12101   0.960   4.610  15.745 -0.7774 -0.4589 -0.2568
  819MPD2    C112102   1.043   4.503  15.732  0.5635 -0.1326 -0.0854
  819MPD2    C212103   1.173   4.518  15.774  0.2786  0.2137  0.4508
  819MPD2    C312104   1.222   4.636  15.826  0.3478  0.2336 -0.2161
  819MPD2    C412105   1.134   0.008  15.836 -0.4306 -0.2233  0.5718
  819MPD2    C512106   1.005   4.729  15.804 -0.5504  0.3521  0.0589
  819MPD2     H12107   1.245   4.443  15.743  0.2619  0.8420 -1.1475
  819MPD2    H112108   1.176   0.104  15.864  0.2140 -0.3727  0.1118
  819MPD2    H212109   0.853   4.601  15.729 -1.1754  0.0593  2.0784
  819MPD2    H312110   0.937   0.079  15.823 -1.5293 -0.4860  0.1981
  819MPD2     N12111   1.359   4.641  15.847  0.3213  0.4971 -0.3557
  819MPD2    H512112   1.410   4.562  15.808  2.3701  0.6226  2.0078
  819MPD2    N112113   0.981   4.387  15.691 -0.2122  0.4313 -0.1273
  819MPD2    H712114   0.889   4.397  15.651 -0.3279  0.2597  0.0988
  820MPD2     C12115   0.109   4.260  15.521 -1.2213 -0.5395  0.7264
  820MPD2    C112116   0.201   4.354  15.530 -0.4044 -0.4373 -0.0745
  820MPD2    C212117   0.331   4.305  15.541 -0.0322  0.5952 -0.2089
  820MPD2    C312118   0.357   4.167  15.546  0.4808  0.3722  0.2541
  820MPD2    C412119   0.260   4.075  15.534  0.1695 -0.3821  0.5275
  820MPD2    C512120   0.131   4.127  15.521 -0.2967 -0.2495  0.5048
  820MPD2     H12121   0.415   4.372  15.552  1.8678 -1.9347  0.6175
  820MPD2    H112122   0.283   3.969  15.530  1.1354 -0.1920  1.0268
  820MPD2    H212123   0.007   4.292  15.501 -1.7980 -1.8750  1.5169
  820MPD2    H312124   0.046   4.061  15.508 -0.6819 -0.0083  1.8288
  820MPD2     N12125   0.481   4.114  15.552  0.2804 -0.6465 -0.2488
  820MPD2    H512126   0.484   4.015  15.574  0.8778 -0.7015 -0.5676
  820MPD2    N112127   0.160   4.488  15.520 -0.2455 -0.1061  0.1239
  820MPD2    H712128   0.059   4.496  15.514 -0.2662  0.5307  1.5038
  821MPD2     C12129   1.019   1.037  13.266 -0.6181  0.1726  0.8391
  821MPD2    C112130   1.111   0.990  13.355 -0.7702  0.3091 -0.0699
  821MPD2    C212131   1.248   0.981  13.321  0.1520  0.0546  0.2587
  821MPD2    C312132   1.298   1.022  13.198  0.5366 -0.4932  0.0953
  821MPD2    C412133   1.201   1.062  13.109  0.1798 -0.6068 -0.4719
  821MPD2    C512134   1.065   1.070  13.143 -0.2447 -0.9264 -0.3502
  821MPD2     H12135   1.315   0.943  13.398 -1.3946  0.9412  2.0654
  821MPD2    H112136   1.224   1.089  13.007  4.2014 -0.8509  0.3593
  821MPD2    H212137   0.915   1.055  13.291 -0.7673  0.4234  0.0469
  821MPD2    H312138   0.998   1.114  13.070  1.7463 -0.4657 -1.9130
  821MPD2     N12139   1.430   1.013  13.158  0.1702 -0.2346 -0.0817
  821MPD2    H512140   1.455   1.043  13.064  1.0942  1.5396  0.7289
  821MPD2    N112141   1.080   0.963  13.481  0.0201 -1.2064  0.4933
  821MPD2    H712142   1.155   0.925  13.537  0.9497  0.3234  0.3038
  822MPD2     C12143   2.102   1.367  15.856  0.4603 -0.0723 -1.1595
  822MPD2    C112144   2.011   1.320  15.948 -0.2948 -0.1429  0.0949
  822MPD2    C212145   1.910   1.398  15.999 -0.4481  0.3205  0.1312
  822MPD2    C312146   1.899   1.531  15.969 -0.1700 -0.0151 -0.5516
  822MPD2    C412147   1.971   1.572  15.861 -0.1841 -0.2408  0.3676
  822MPD2    C512148   2.068   1.491  15.807  0.6342  0.1205  0.6763
  822MPD2     H12149   1.841   1.359  16.073 -0.3770 -0.0310  0.0155
  822MPD2    H112150   1.966   1.676  15.828 -2.6103 -0.7317 -0.7533
  822MPD2    H212151   2.175   1.309  15.800  0.0968 -0.8071 -0.8734
  822MPD2    H312152   2.131   1.529  15.727 -0.7019 -2.5577 -1.6305
  822MPD2     N12153   1.816   1.611  16.048  0.2671  0.1803 -0.0858
  822MPD2    H512154   1.782   1.562  16.130 -2.5430  0.2115 -1.2376
  822MPD2    N112155   2.026   1.186  16.000 -0.0955  0.7149  0.4811
  822MPD2    H712156   1.978   1.168  16.088  1.2594 -2.2129  0.6059
  823MPD2     C12157   1.360   1.761  16.755  0.3443 -1.0466  0.1542
  823MPD2    C112158   1.431   1.692  16.664  0.6928 -0.1669 -0.0337
  823MPD2    C212159   1.496   1.568  16.697 -0.4205  0.1839  0.6062
  823MPD2    C312160   1.469   1.509  16.820 -0.0224  1.5595 -0.7820
  823MPD2    C412161   1.384   1.580  16.907  0.6881  0.5891  0.3431
  823MPD2    C512162   1.330   1.704  16.871 -0.0147  0.1436 -0.1724
  823MPD2     H12163   1.565   1.518  16.630 -1.3499 -2.0555  1.3319
  823MPD2    H112164   1.356   1.539  17.003 -1.4326 -1.8526 -1.3214
  823MPD2    H212165   1.310   1.853  16.725  0.5016 -0.9007  0.3460
  823MPD2    H312166   1.298   1.766  16.955  0.8840  0.4883 -0.0811
  823MPD2     N12167   1.518   1.385  16.865  0.2140 -0.1515 -0.3287
  823MPD2    H512168   1.484   1.356  16.956 -1.3933  3.4043  0.2353
  823MPD2    N112169   1.449   1.758  16.534  0.8988  0.2959 -0.1647
  823MPD2    H712170   1.409   1.851  16.528 -1.5825 -0.7915 -0.3064
  824MPD2     C12171   2.380   0.346  16.208  0.2126 -0.1994 -0.7867
  824MPD2    C112172   2.355   0.420  16.092 -0.2978 -0.0211 -0.2537
  824MPD2    C212173   2.409   0.379  15.974 -0.3819 -0.0353 -0.3757
  824MPD2    C312174   2.497   0.270  15.968 -0.0140  0.4245  0.1720
  824MPD2    C412175   2.518   0.203  16.086  0.2730 -0.7957  0.0892
  824MPD2    C512176   2.462   0.236  16.207  0.4150  0.3387  0.1493
  824MPD2     H12177   2.395   0.432  15.880 -1.6910  1.0441  0.4374
  824MPD2    H112178   2.586   0.119  16.073 -1.0808 -1.7716 -0.7203
  824MPD2    H212179   2.332   0.366  16.303 -0.5723 -1.7858 -0.8373
  824MPD2    H312180   2.482   0.174  16.294  1.1368  1.1895  0.6035
  824MPD2     N12181   2.558   0.245  15.843 -0.0547  0.0496  0.0987
  824MPD2    H512182   2.548   0.316  15.771 -0.1387 -0.3665 -0.2950
  824MPD2    N112183   2.285   0.540  16.113  0.5440 -0.2127  0.1932
  824MPD2    H712184   2.234   0.543  16.201  0.9060  0.4332  0.3827
  825MPD2     C12185   2.881   0.561  15.162 -0.0617 -0.5484  0.9006
  825MPD2    C112186   2.868   0.567  15.297 -0.0871 -0.4344 -0.3142
  825MPD2    C212187   2.859   0.689  15.360  0.1683  0.0610 -0.5217
  825MPD2    C312188   2.862   0.809  15.290 -0.0804  0.7538  0.1621
  825MPD2    C412189   2.878   0.796  15.156 -0.2589  0.0539 -0.4243
  825MPD2    C512190   2.890   0.678  15.091 -0.0404 -0.3420  0.5114
  825MPD2     H12191   2.837   0.688  15.466 -2.2814 -1.3025 -1.0554
  825MPD2    H112192   2.899   0.884  15.097 -1.5340  1.1859  0.8428
  825MPD2    H212193   2.875   0.468  15.106 -2.1080 -0.9776  1.8403
  825MPD2    H312194   2.903   0.683  14.984 -1.9575 -0.1187  0.2918
  825MPD2     N12195   2.856   0.935  15.349 -0.6560  0.6178 -0.0365
  825MPD2    H512196   2.867   1.010  15.282 -2.2642 -0.3526 -1.4014
  825MPD2    N112197   2.864   0.446  15.365  0.5768  0.7136 -0.0267
  825MPD2    H712198   2.856   0.362  15.309  2.0385 -1.2408  2.6818
  826MPD2     C12199   1.878   4.620  13.072 -1.1070  0.3321  0.4023
  826MPD2    C112200   1.997   4.626  13.131  0.0114  0.6594  0.3039
  826MPD2    C212201   2.005   4.695  13.249 -0.0767 -0.1453  0.2403
  826MPD2    C312202   1.892   0.020  13.304  0.6783 -0.3436  0.6591
  826MPD2    C412203   1.771   0.009  13.239  0.3119 -0.2120 -0.3415
  826MPD2    C512204   1.762   4.670  13.126  0.2592  0.2522 -0.1515
  826MPD2     H12205   2.104   4.707  13.292 -0.3868  0.9461  0.6454
  826MPD2    H112206   1.679   0.047  13.283  0.5496  1.3928 -1.2495
  826MPD2    H212207   1.872   4.574  12.974 -1.1264  2.6081 -0.6710
  826MPD2    H312208   1.667   4.658  13.075 -1.8560  1.6154  3.5283
  826MPD2     N12209   1.899   0.095  13.423  0.1764  0.2774  0.4754
  826MPD2    H512210   1.840   0.177  13.432 -3.5233 -2.1048 -1.8506
  826MPD2    N112211   2.110   4.585  13.054 -0.2256  0.1237  0.2136
  826MPD2    H712212   2.092   4.558  12.958  1.8200 -2.2131  0.4762
  827MPD2     C12213   3.646   1.470   9.849 -0.0524 -0.6565  0.8055
  827MPD2    C112214   3.531   1.487   9.923 -0.0622  0.1102  0.0971
  827MPD2    C212215   3.409   1.463   9.864  0.0512  0.4294 -0.0694
  827MPD2    C312216   3.395   1.431   9.727 -0.3086  0.3779 -0.1089
  827MPD2    C412217   3.524   1.426   9.649 -0.2505  0.2888 -0.8967
  827MPD2    C512218   3.646   1.436   9.711  0.0457  0.4734  0.4859
  827MPD2     H12219   3.319   1.476   9.922 -0.4536  0.4467 -0.8500
  827MPD2    H112220   3.517   1.409   9.542 -1.7669 -1.5465 -0.5152
  827MPD2    H212221   3.738   1.470   9.905 -0.0150 -1.5808  0.7499
  827MPD2    H312222   3.748   1.439   9.672  0.7689 -1.5789  2.2129
  827MPD2     N12223   3.273   1.409   9.668 -0.7792  0.4058 -0.2539
  827MPD2    H512224   3.193   1.398   9.730 -0.5726 -1.9251 -0.3890
  827MPD2    N112225   3.546   1.511  10.059 -0.2294 -0.3025 -0.0522
  827MPD2    H712226   3.641   1.511  10.095 -0.5759  0.7675  0.8697
  828MPD2     C12227   1.889   1.496  11.872 -0.0247  0.2885 -0.4656
  828MPD2    C112228   1.877   1.628  11.850 -0.2685 -0.0691  0.0517
  828MPD2    C212229   1.898   1.680  11.723  0.5544 -0.1994 -0.7892
  828MPD2    C312230   1.928   1.608  11.617 -0.3858  0.0177 -1.2298
  828MPD2    C412231   1.952   1.473  11.638  0.5366 -0.3897 -0.2293
  828MPD2    C512232   1.939   1.426  11.771  0.2156 -0.0910 -0.0980
  828MPD2     H12233   1.874   1.784  11.707  0.3760  0.0989  1.3276
  828MPD2    H112234   1.993   1.408  11.561  0.5869 -0.5690 -0.0514
  828MPD2    H212235   1.863   1.438  11.960 -1.3567  2.6432  0.6953
  828MPD2    H312236   1.962   1.320  11.782 -0.7611 -0.2776  0.1641
  828MPD2     N12237   1.951   1.654  11.484 -0.3022  0.1775  0.5769
  828MPD2    H512238   1.973   1.579  11.420  1.1007 -0.3239  1.6325
  828MPD2    N112239   1.818   1.713  11.946 -0.0877  0.1440 -0.4909
  828MPD2    H712240   1.772   1.800  11.918  0.2452  0.3170 -0.5010
  829MPD2     C12241   1.403   2.348  11.690 -0.1405  0.0770  0.6751
  829MPD2    C112242   1.323   2.308  11.790  0.3139 -0.4028  0.2245
  829MPD2    C212243   1.389   2.234  11.888  0.3200 -0.2506  0.2561
  829MPD2    C312244   1.527   2.212  11.899 -0.6456  0.2073 -0.0285
  829MPD2    C412245   1.598   2.257  11.791  0.0459  0.3185  0.1064
  829MPD2    C512246   1.537   2.323  11.688 -0.2584 -0.3610  0.0310
  829MPD2     H12247   1.325   2.181  11.958  1.2214 -0.6238  0.7919
  829MPD2    H112248   1.702   2.229  11.777  0.2269  1.2596 -0.4089
  829MPD2    H212249   1.363   2.417  11.617  0.5574  0.7232  0.9033
  829MPD2    H312250   1.592   2.377  11.612 -1.6270 -0.5213 -1.0853
  829MPD2     N12251   1.587   2.114  11.984  1.0421 -0.0741 -0.1475
  829MPD2    H512252   1.676   2.079  11.951  1.2160 -0.8602  1.1547
  829MPD2    N112253   1.187   2.328  11.774 -0.0405  0.3375 -0.8854
  829MPD2    H712254   1.149   2.356  11.684 -1.9573  0.6684  0.0127
  830MPD2     C12255   2.169   4.424  15.626  0.5947  0.2274 -0.4728
  830MPD2    C112256   2.040   4.447  15.598  0.1440  0.2593 -0.5896
  830MPD2    C212257   1.991   4.416  15.471  0.4907 -0.1514  0.2504
  830MPD2    C312258   2.070   4.352  15.379 -0.4671  0.1236 -0.1482
  830MPD2    C412259   2.202   4.329  15.406  0.2732  0.8854  0.3547
  830MPD2    C512260   2.249   4.371  15.528  0.5706 -0.0798  0.0899
  830MPD2     H12261   1.888   4.426  15.440  0.7903  1.2466 -0.2936
  830MPD2    H112262   2.266   4.276  15.337 -0.3515  0.3713  0.1766
  830MPD2    H212263   2.218   4.450  15.720  0.7529  1.2506 -0.8397
  830MPD2    H312264   2.352   4.352  15.556  0.0358 -3.0521  0.0227
  830MPD2     N12265   2.019   4.316  15.254 -0.1826 -0.2333  0.5421
  830MPD2    H512266   2.087   4.265  15.198 -2.3294  0.3447 -2.6385
  830MPD2    N112267   1.965   4.523  15.703  0.5428  0.1207  0.2172
  830MPD2    H712268   2.007   4.555  15.789 -0.9699  1.3658  0.4829
  831MPD2     C12269   2.027   1.658  16.391  0.0623 -0.4548 -0.3689
  831MPD2    C112270   2.062   1.541  16.331 -0.3480 -0.5804  0.0113
  831MPD2    C212271   1.966   1.439  16.330  0.7105 -0.1006 -0.4156
  831MPD2    C312272   1.844   1.457  16.393  0.7246 -0.8538  0.4671
  831MPD2    C412273   1.825   1.568  16.473 -0.0353 -0.0365  0.2946
  831MPD2    C512274   1.912   1.669  16.461  0.7039  0.3705 -0.5217
  831MPD2     H12275   1.989   1.352  16.270  3.4637  0.2634  0.0760
  831MPD2    H112276   1.738   1.595  16.532  0.5676 -1.1090  1.6965
  831MPD2    H212277   2.087   1.748  16.397 -0.0091 -0.4308  0.0168
  831MPD2    H312278   1.902   1.758  16.523 -0.6075  0.7020 -1.2080
  831MPD2     N12279   1.742   1.365  16.375  0.1662  0.0022  0.4502
  831MPD2    H512280   1.654   1.388  16.420 -0.2466 -0.0092 -0.3458
  831MPD2    N112281   2.181   1.540  16.256 -0.5944 -0.8740 -0.5681
  831MPD2    H712282   2.227   1.629  16.239  1.5183 -1.8371  0.0275
  832MPD2     C12283   0.646   2.426  17.097 -0.0815 -0.2569 -0.8977
  832MPD2    C112284   0.595   2.548  17.139 -0.0704 -0.4931  0.0258
  832MPD2    C212285   0.473   2.587  17.090 -0.0313  0.4394  0.1458
  832MPD2    C312286   0.401   2.488  17.021  0.1119 -0.1446 -1.1238
  832MPD2    C412287   0.455   2.372  16.979 -0.2148 -0.4798  0.1161
  832MPD2    C512288   0.577   2.344  17.018 -0.4143 -1.0708 -0.2097
  832MPD2     H12289   0.424   2.677  17.124 -1.0065 -0.1101  0.1974
  832MPD2    H112290   0.400   2.293  16.927 -0.5719 -0.1579  0.0042
  832MPD2    H212291   0.744   2.391  17.129 -0.1184  0.0560 -0.4483
  832MPD2    H312292   0.614   2.247  16.987  1.3167 -0.4206 -0.1512
  832MPD2     N12293   0.265   2.502  16.994 -0.4033 -0.2963  0.4418
  832MPD2    H512294   0.217   2.426  16.948 -3.0838  1.0216  1.0690
  832MPD2    N112295   0.672   2.627  17.226  0.3328 -0.0672  0.5598
  832MPD2    H712296   0.752   2.575  17.260  0.1090  0.6917  2.2150
  833MPD2     C12297   2.310   3.682  12.947  0.7052  1.0453 -0.0602
  833MPD2    C112298   2.283   3.738  12.821  0.3501  0.8374 -0.2967
  833MPD2    C212299   2.340   3.676  12.715 -0.8795  0.4162 -0.1959
  833MPD2    C312300   2.419   3.564  12.721 -0.2902 -0.4849 -0.2730
  833MPD2    C412301   2.450   3.526  12.850 -0.5923  0.2899  0.1953
  833MPD2    C512302   2.402   3.583  12.961 -0.1535 -0.3375  0.1896
  833MPD2     H12303   2.301   3.704  12.618 -0.1701  0.8353 -0.3598
  833MPD2    H112304   2.521   3.445  12.865 -1.8821 -0.5494  1.8204
  833MPD2    H212305   2.269   3.724  13.038 -3.8311 -0.6157 -1.3817
  833MPD2    H312306   2.430   3.543  13.058  1.1444  0.4189  0.1362
  833MPD2     N12307   2.460   3.480  12.612 -1.0275  0.3777 -0.2242
  833MPD2    H512308   2.511   3.394  12.627 -0.1795  0.6591 -1.4978
  833MPD2    N112309   2.182   3.837  12.808  0.2006  0.2380  0.3267
  833MPD2    H712310   2.133   3.858  12.894  1.3942  0.2762  0.9939
  834MPD2     C12311   2.384   2.588  12.224 -0.2178  1.0905  0.0640
  834MPD2    C112312   2.333   2.671  12.133 -0.8566  0.3937 -0.3488
  834MPD2    C212313   2.318   2.802  12.164 -0.3359  0.1026 -0.0070
  834MPD2    C312314   2.342   2.849  12.291  0.8705 -0.4231  0.6017
  834MPD2    C412315   2.389   2.761  12.388  0.9054 -0.1708 -0.0378
  834MPD2    C512316   2.410   2.634  12.350  0.1031 -0.3036 -0.1243
  834MPD2     H12317   2.279   2.868  12.088 -0.4010  0.6602  0.5131
  834MPD2    H112318   2.428   2.792  12.484 -0.8422  0.5889  0.4314
  834MPD2    H212319   2.394   2.484  12.194  0.9663  1.4571 -0.8167
  834MPD2    H312320   2.442   2.560  12.423  3.6309 -0.1290 -1.4972
  834MPD2     N12321   2.312   2.986  12.310  0.1125 -0.4175  0.3648
  834MPD2    H512322   2.288   3.046  12.232 -0.0966 -0.7219  0.1945
  834MPD2    N112323   2.291   2.615  12.015  0.3240 -0.5677  0.9302
  834MPD2    H712324   2.341   2.529  11.994  0.6618 -0.0169 -0.5486
  835MPD2     C12325   2.724   1.400  10.944  0.0062 -0.7573  0.2022
  835MPD2    C112326   2.629   1.458  11.025  0.0298  0.4002  0.0705
  835MPD2    C212327   2.591   1.411  11.148 -0.1729 -0.8216  0.3401
  835MPD2    C312328   2.640   1.288  11.185 -0.4258  0.4591 -0.0670
  835MPD2    C412329   2.718   1.219  11.096 -0.6587  0.6280 -0.0553
  835MPD2    C512330   2.772   1.275  10.980 -0.4048 -0.0064 -0.2872
  835MPD2     H12331   2.533   1.467  11.220 -1.0292 -0.9345 -0.2595
  835MPD2    H112332   2.741   1.114  11.109  2.3517  1.1789 -0.8871
  835MPD2    H212333   2.757   1.450  10.854 -2.7952  2.0551  0.7304
  835MPD2    H312334   2.839   1.223  10.912 -0.9048 -2.3420  0.9825
  835MPD2     N12335   2.625   1.226  11.307  0.3783  0.5723 -0.3993
  835MPD2    H512336   2.679   1.141  11.322  1.1703  1.1547  0.0015
  835MPD2    N112337   2.550   1.568  10.987 -0.1217  0.4900 -0.8064
  835MPD2    H712338   2.477   1.589  11.054  1.4142 -0.6941  1.2223
  836MPD2     C12339   2.598   0.930  12.166 -0.0345 -0.1581  0.2867
  836MPD2    C112340   2.580   1.043  12.094  0.0179 -0.7832  0.1426
  836MPD2    C212341   2.548   1.163  12.154 -0.6149  0.0771  0.0500
  836MPD2    C312342   2.521   1.163  12.291  0.0219 -0.9048 -0.1645
  836MPD2    C412343   2.544   1.047  12.358 -0.4781  0.5127  0.1556
  836MPD2    C512344   2.571   0.923  12.299  0.0874 -0.0957  0.5095
  836MPD2     H12345   2.528   1.250  12.092  0.1303  0.9677  1.0389
  836MPD2    H112346   2.535   1.038  12.466 -1.5987  0.0259  0.0188
  836MPD2    H212347   2.630   0.832  12.131  0.5749  1.2037 -2.9021
  836MPD2    H312348   2.576   0.828  12.350 -0.2621 -0.1604  0.4230
  836MPD2     N12349   2.470   1.270  12.367 -0.7445  0.1242 -0.3373
  836MPD2    H512350   2.443   1.259  12.464 -1.8213  0.7919 -0.5554
  836MPD2    N112351   2.598   1.031  11.951  0.1738 -0.3158  0.0195
  836MPD2    H712352   2.612   0.939  11.910 -0.9912  0.4615 -2.0909
  837MPD2     C12353   0.748   0.757   9.636  0.2238  0.0817 -1.0753
  837MPD2    C112354   0.627   0.822   9.625 -0.2046  0.3520  0.0708
  837MPD2    C212355   0.610   0.947   9.667 -0.2219 -0.2631 -0.4417
  837MPD2    C312356   0.715   1.018   9.717 -0.7253 -0.7911 -0.5514
  837MPD2    C412357   0.840   0.959   9.724  0.4881  0.8559 -0.9378
  837MPD2    C512358   0.854   0.828   9.686  0.2186 -0.8169  0.0430
  837MPD2     H12359   0.511   0.990   9.660 -0.4692 -1.0011 -1.5099
  837MPD2    H112360   0.920   0.995   9.787 -0.6726 -0.4332  1.3151
  837MPD2    H212361   0.767   0.661   9.589  3.3285  0.1712  0.0038
  837MPD2    H312362   0.955   0.788   9.679  0.7770  0.1599  2.7877
  837MPD2     N12363   0.681   1.145   9.772 -0.1034 -0.5168 -0.0450
  837MPD2    H512364   0.583   1.171   9.773 -0.7882 -3.1381  2.2033
  837MPD2    N112365   0.510   0.757   9.587 -0.1663 -0.0113  0.2920
  837MPD2    H712366   0.422   0.799   9.618  0.2932  0.1271  1.3938
  838MPD2     C12367   3.209   3.901  11.519  0.3644  0.0169  0.2090
  838MPD2    C112368   3.234   3.888  11.653 -0.2735  0.2257 -0.0903
  838MPD2    C212369   3.165   3.785  11.717  0.1134 -0.2294 -0.4686
  838MPD2    C312370   3.060   3.711  11.659 -0.0195  0.2290  0.0610
  838MPD2    C412371   3.036   3.736  11.526 -0.2117 -0.1087 -0.2503
  838MPD2    C512372   3.113   3.829  11.462  0.0367 -0.2010  0.0315
  838MPD2     H12373   3.187   3.759  11.820 -0.3305  0.5100 -0.1805
  838MPD2    H112374   2.963   3.679  11.469  0.1596 -0.6256 -0.2036
  838MPD2    H212375   3.260   3.969  11.452 -5.1457  3.4416 -0.5237
  838MPD2    H312376   3.103   3.839  11.355 -0.0134  1.9813  0.2242
  838MPD2     N12377   2.982   3.623  11.740  0.7125 -0.2436 -0.2801
  838MPD2    H512378   2.999   3.614  11.839 -0.3458 -0.0642 -0.0923
  838MPD2    N112379   3.348   3.936  11.716  0.6054 -0.2032 -0.4734
  838MPD2    H712380   3.363   3.895  11.808  1.9363 -1.0349 -1.0519
  839MPD2     C12381   3.290   3.382  11.979  0.5588  0.2729  0.3122
  839MPD2    C112382   3.321   3.423  11.852 -0.4296  0.1711  0.0833
  839MPD2    C212383   3.413   3.524  11.836  0.4245  0.6032 -0.3876
  839MPD2    C312384   3.460   3.596  11.948  0.1494  0.4267  0.9187
  839MPD2    C412385   3.433   3.550  12.076  0.6151 -0.1984  0.1097
  839MPD2    C512386   3.353   3.444  12.086  0.4646 -0.6513 -0.0556
  839MPD2     H12387   3.433   3.562  11.737  0.9770 -1.0153 -0.8830
  839MPD2    H112388   3.462   3.607  12.164  0.3375 -0.5609  0.4382
  839MPD2    H212389   3.224   3.296  11.986 -0.3532  1.1331  2.0618
  839MPD2    H312390   3.317   3.404  12.181  1.2893  2.4491  1.5411
  839MPD2     N12391   3.541   3.712  11.930  0.2492  0.2951 -0.3826
  839MPD2    H512392   3.559   3.777  12.006  3.4332  1.2453 -1.9327
  839MPD2    N112393   3.248   3.381  11.735 -0.2978 -0.0327  0.2546
  839MPD2    H712394   3.273   3.441  11.657 -1.2004 -0.2415 -0.1945
  840MPD2     C12395   3.931   2.007  10.304 -0.2599  0.4145  0.3110
  840MPD2    C112396   3.921   1.904  10.396  0.7399  0.2455 -0.4925
  840MPD2    C212397   4.001   1.916  10.511 -0.2762  0.4907  1.1273
  840MPD2    C312398   4.096   2.015  10.527  0.6456 -0.3378  0.0089
  840MPD2    C412399   4.116   2.106  10.428 -0.2288  0.7471 -0.3390
  840MPD2    C512400   4.033   2.098  10.318  0.2512  0.4051  0.1003
  840MPD2     H12401   4.001   1.831  10.578  0.5485 -1.0785 -0.8470
  840MPD2    H112402   4.190   2.185  10.438  1.0840 -0.5183  0.1078
  840MPD2    H212403   3.867   2.017  10.217  2.2258  4.6220 -1.0080
  840MPD2    H312404   4.037   2.175  10.242 -2.7808  1.2325  0.7744
  840MPD2     N12405   4.180   2.025  10.636  0.9409 -0.5669 -0.1201
  840MPD2    H512406   4.246   2.102  10.634  0.3813 -0.0553  1.1641
  840MPD2    N112407   3.826   1.806  10.377  0.0084  0.5127 -0.8676
  840MPD2    H712408   3.758   1.823  10.303  0.4666 -0.3552 -1.4898
  841MPD2     C12409   4.090   1.801  14.324  0.7102  1.0812  0.1283
  841MPD2    C112410   4.013   1.783  14.441 -0.5000  0.2804  0.0931
  841MPD2    C212411   4.056   1.831  14.566  0.1114 -0.1300 -0.1619
  841MPD2    C312412   4.183   1.887  14.567  0.1770 -0.0989  0.0033
  841MPD2    C412413   4.260   1.911  14.454  0.1248  0.5313  0.6313
  841MPD2    C512414   4.212   1.871  14.335 -0.3195  0.4081  0.0894
  841MPD2     H12415   4.007   1.807  14.659  2.7403  0.8169  1.4574
  841MPD2    H112416   4.362   1.945  14.466 -0.1031  1.8124 -1.1182
  841MPD2    H212417   4.061   1.759  14.229  2.0419 -2.3853  1.2545
  841MPD2    H312418   4.267   1.888  14.243  1.8981 -1.9117  0.9939
  841MPD2     N12419   4.232   1.926  14.693  0.4757 -0.3353  0.6960
  841MPD2    H512420   4.166   1.940  14.769  0.2446  1.0723  0.2319
  841MPD2    N112421   3.899   1.698  14.442  0.4336 -0.6525 -0.0792
  841MPD2    H712422   3.869   1.668  14.534 -0.6121 -1.0084 -0.5292
  842MPD2     C12423   4.510   2.921  16.873 -0.5655 -0.4859 -0.2443
  842MPD2    C112424   4.436   2.820  16.932 -0.1200 -0.4748 -0.0790
  842MPD2    C212425   4.488   2.760  17.049 -0.6200  0.3432 -0.2977
  842MPD2    C312426   4.594   2.825  17.114  0.1877  0.2146 -0.9128
  842MPD2    C412427   4.671   2.918  17.056 -0.3399  0.7989  0.1811
  842MPD2    C512428   4.638   2.949  16.927  0.1527 -0.1594  0.1242
  842MPD2     H12429   4.430   2.688  17.106 -1.3848  0.7795 -0.5321
  842MPD2    H112430   0.028   2.961  17.098 -1.0971 -0.0803  2.6831
  842MPD2    H212431   4.479   2.974  16.784 -1.4501 -2.4458 -1.0880
  842MPD2    H312432   4.706   3.020  16.882 -1.0928  0.2895 -1.0369
  842MPD2     N12433   4.634   2.789  17.245  0.2071  0.4427 -0.3876
  842MPD2    H512434   4.704   2.851  17.285 -0.1874  0.3604  0.4328
  842MPD2    N112435   4.312   2.790  16.871  0.3497 -0.4516 -0.1346
  842MPD2    H712436   4.287   2.860  16.803 -0.5875 -0.3054  0.3537
  843MPD2     C12437   1.544   3.730   0.847  0.5017 -0.5034  1.1131
  843MPD2    C112438   1.666   3.681   0.886  0.0732 -0.6852 -0.4844
  843MPD2    C212439   1.777   3.728   0.816  0.3248 -0.1037 -0.7083
  843MPD2    C312440   1.765   3.816   0.706  0.0386  0.1496 -0.1837
  843MPD2    C412441   1.641   3.859   0.667 -0.2296 -0.0327 -0.9186
  843MPD2    C512442   1.532   3.822   0.746 -0.2520 -0.4226  1.0511
  843MPD2     H12443   1.875   3.709   0.857  0.3990  2.3711  0.2684
  843MPD2    H112444   1.628   3.936   0.592 -1.1737 -0.9406 -1.6836
  843MPD2    H212445   1.452   3.695   0.893 -0.3181  1.0319  0.6248
  843MPD2    H312446   1.435   3.865   0.726  0.4811  0.2584 -1.0451
  843MPD2     N12447   1.876   3.865   0.633 -0.2886 -0.2726 -0.1238
  843MPD2    H512448   1.854   3.945   0.575 -0.2928 -1.5018 -1.8183
  843MPD2    N112449   1.673   3.596   0.999  0.1594  0.5708 -0.7865
  843MPD2    H712450   1.585   3.579   1.047 -1.4876  2.7936 -3.0106
  844MPD2     C12451   0.272   2.368  16.521  0.8941 -0.5913  0.5625
  844MPD2    C112452   0.411   2.337  16.519  0.1661 -0.1268  0.0329
  844MPD2    C212453   0.499   2.416  16.586  0.6468 -0.2122 -0.1970
  844MPD2    C312454   0.457   2.531  16.650  0.5326 -0.2075  0.9353
  844MPD2    C412455   0.322   2.555  16.654 -1.0949 -0.2349  0.3782
  844MPD2    C512456   0.227   2.471  16.602  0.6709  0.0724  0.2899
  844MPD2     H12457   0.604   2.389  16.590  0.7570  0.2320 -0.1072
  844MPD2    H112458   0.293   2.640  16.714 -1.4594  0.1093 -0.2841
  844MPD2    H212459   0.194   2.316  16.467  1.8012 -0.0221 -1.3004
  844MPD2    H312460   0.122   2.494  16.616  0.7658  0.3284  0.5900
  844MPD2     N12461   0.560   2.613  16.710 -0.6038 -0.4764 -0.3253
  844MPD2    H512462   0.656   2.591  16.685  0.1116  1.1460  0.9707
  844MPD2    N112463   0.452   2.218  16.448 -0.3028 -0.0896  0.4009
  844MPD2    H712464   0.550   2.190  16.451 -0.8400 -1.8581  1.2790
  845MPD2     C12465   0.546   3.519  17.199  0.6026 -0.6469  0.7811
  845MPD2    C112466   0.471   3.411  17.234 -0.7550 -0.9139 -0.2256
  845MPD2    C212467   0.510   3.285  17.180  0.0346  0.4989 -0.5993
  845MPD2    C312468   0.612   3.279  17.091 -0.2886 -0.3521  0.3011
  845MPD2    C412469   0.691   3.384  17.060  0.2518  0.8898  0.1965
  845MPD2    C512470   0.647   3.507  17.112  0.0396  0.0291  0.1410
  845MPD2     H12471   0.453   3.196  17.203 -0.9838  1.2774 -0.1074
  845MPD2    H112472   0.774   3.388  16.991  0.4866  2.3576  0.5668
  845MPD2    H212473   0.525   3.616  17.242  0.7596  0.2587 -1.2021
  845MPD2    H312474   0.710   3.591  17.086  1.3981 -1.1545 -0.3834
  845MPD2     N12475   0.637   3.151  17.034 -0.2928  0.1634 -0.4584
  845MPD2    H512476   0.566   3.083  17.056  0.8603 -1.4584 -1.7153
  845MPD2    N112477   0.357   3.427  17.319 -0.7471 -0.0946 -0.6669
  845MPD2    H712478   0.328   3.522  17.340 -1.6542 -0.7967  1.2293
  846MPD2     C12479   1.302   3.686  13.836  0.7108  0.0649 -0.4134
  846MPD2    C112480   1.408   3.624  13.904  0.1850 -0.2235  0.0591
  846MPD2    C212481   1.389   3.591  14.041  0.6622 -0.2291 -0.4143
  846MPD2    C312482   1.271   3.620  14.104 -0.2554  0.1729 -0.8025
  846MPD2    C412483   1.166   3.674  14.033 -0.5962 -0.2588 -0.3810
  846MPD2    C512484   1.186   3.715  13.905  0.1595  0.2378 -0.5076
  846MPD2     H12485   1.472   3.541  14.089  0.4025  0.8135  1.1283
  846MPD2    H112486   1.070   3.692  14.080  1.3237  1.1250  3.0021
  846MPD2    H212487   1.310   3.715  13.732 -1.4386 -0.9625 -0.8800
  846MPD2    H312488   1.108   3.773  13.857  1.8660  1.8849 -1.2949
  846MPD2     N12489   1.237   3.576  14.231  0.1756 -0.3696 -0.3075
  846MPD2    H512490   1.146   3.600  14.272  0.1779 -1.6478  0.4373
  846MPD2    N112491   1.530   3.594  13.837  0.2776 -0.1700 -0.1951
  846MPD2    H712492   1.600   3.545  13.891  0.3477  1.3003  1.0220
  847MPD2     C12493   1.628   4.574  14.538  0.2266  0.4404 -0.4721
  847MPD2    C112494   1.707   4.474  14.487  0.7702 -0.3296  0.4354
  847MPD2    C212495   1.669   4.346  14.510  0.3916 -0.7851 -0.5199
  847MPD2    C312496   1.565   4.313  14.598 -0.1970  0.6644  0.2068
  847MPD2    C412497   1.494   4.416  14.652  0.7292  0.6584  0.5304
  847MPD2    C512498   1.528   4.543  14.626  0.0122  0.5790  0.1707
  847MPD2     H12499   1.736   4.268  14.477  1.0111 -0.3048 -0.3862
  847MPD2    H112500   1.419   4.392  14.727  1.0290  1.1637  0.9894
  847MPD2    H212501   1.646   4.678  14.511  1.4417  0.0061 -1.3139
  847MPD2    H312502   1.467   4.623  14.667 -0.8592  0.4841 -0.9472
  847MPD2     N12503   1.558   4.171  14.629  0.0491 -0.2211 -0.5958
  847MPD2    H512504   1.620   4.109  14.579  0.9418  0.2145 -0.0329
  847MPD2    N112505   1.823   4.497  14.410 -0.1804  0.0098 -0.4247
  847MPD2    H712506   1.871   4.411  14.382 -0.0895 -0.5161  1.3678
  848MPD2     C12507   4.463   2.714  16.445  0.3878 -0.1167  0.2264
  848MPD2    C112508   4.555   2.768  16.535  0.6615 -0.7926 -0.4251
  848MPD2    C212509   4.587   2.905  16.512  0.3180 -0.7074 -0.1783
  848MPD2    C312510   4.549   2.973  16.404  0.1591 -0.2531 -0.2712
  848MPD2    C412511   4.467   2.914  16.316  0.8786 -0.1892 -0.5149
  848MPD2    C512512   4.420   2.791  16.337 -0.1218  0.1594  0.7399
  848MPD2     H12513   4.663   2.946  16.578  0.0646 -1.2673  0.4581
  848MPD2    H112514   4.434   2.962  16.224  1.3164 -0.9394 -1.0555
  848MPD2    H212515   4.420   2.615  16.446  1.3089 -0.5062  1.6071
  848MPD2    H312516   4.348   2.755  16.264  0.0928  0.8880  0.1617
  848MPD2     N12517   4.602   3.101  16.363  0.6372 -0.6087  0.2142
  848MPD2    H512518   4.562   3.139  16.278  0.4021  1.8100  1.3824
  848MPD2    N112519   4.613   2.699  16.645  0.0011  0.0160  0.1185
  848MPD2    H712520   4.666   2.758  16.708  1.6015 -0.7844 -0.4921
  849MPD2     C12521   4.089   2.286  14.582  0.4554  0.7943  0.6730
  849MPD2    C112522   4.196   2.289  14.494 -0.5067  0.0861  0.0909
  849MPD2    C212523   4.319   2.325  14.538  0.4062  0.2033 -0.2164
  849MPD2    C312524   4.336   2.360  14.672 -0.2269 -0.0574  0.5279
  849MPD2    C412525   4.232   2.351  14.761  0.0408 -0.7236 -0.3108
  849MPD2    C512526   4.110   2.312  14.715  0.1969 -0.4072 -0.0317
  849MPD2     H12527   4.401   2.320  14.468  0.0213 -1.2360 -0.5479
  849MPD2    H112528   4.240   2.385  14.864 -0.5602  0.0101 -0.5057
  849MPD2    H212529   3.989   2.259  14.551  0.6942 -0.7386  1.2022
  849MPD2    H312530   4.031   2.304  14.789 -0.2555  0.0131 -0.4689
  849MPD2     N12531   4.460   2.404  14.720 -0.1377 -0.1011  0.2937
  849MPD2    H512532   4.461   2.454  14.808 -0.6297  1.1344 -0.3989
  849MPD2    N112533   4.181   2.271  14.356 -0.5311 -0.1104  0.0654
  849MPD2    H712534   4.272   2.286  14.313  0.0394 -1.1153  0.9394
  850MPD2     C12535   1.722   1.060  14.874  0.3578 -0.0375  0.4015
  850MPD2    C112536   1.785   0.945  14.830 -0.4791  0.4250  0.3997
  850MPD2    C212537   1.919   0.947  14.836 -0.0896 -0.4495  0.5680
  850MPD2    C312538   1.991   1.046  14.893  0.1485  0.1757  0.3715
  850MPD2    C412539   1.926   1.147  14.951  0.3396 -0.3326 -0.2925
  850MPD2    C512540   1.789   1.159  14.922 -0.0758 -0.0079 -0.3085
  850MPD2     H12541   1.964   0.867  14.779  0.5731 -1.0172  1.8871
  850MPD2    H112542   1.978   1.226  15.004 -0.2289  0.5536 -1.0507
  850MPD2    H212543   1.615   1.076  14.868  0.3641 -0.0183  0.3411
  850MPD2    H312544   1.728   1.240  14.960 -0.6357 -0.6948  0.2621
  850MPD2     N12545   2.128   1.049  14.909 -0.1802  0.1625 -0.8387
  850MPD2    H512546   2.169   1.126  14.961  1.1423 -1.3977  0.4066
  850MPD2    N112547   1.709   0.840  14.774  0.1815 -0.1276  0.3298
  850MPD2    H712548   1.608   0.848  14.770  0.2981  0.4355 -1.2741
  851MPD2     C12549   2.235   0.224  14.691 -0.2227  0.1608  0.2043
  851MPD2    C112550   2.146   0.232  14.796 -0.2677  0.4543 -0.1278
  851MPD2    C212551   2.105   0.109  14.852 -0.3857 -0.8146 -0.3600
  851MPD2    C312552   2.141   4.720  14.790  0.0407 -0.1740 -0.0495
  851MPD2    C412553   2.237   4.715  14.687 -0.1312 -0.1544 -0.2243
  851MPD2    C512554   2.279   0.108  14.640  0.2568 -0.9466  0.6837
  851MPD2     H12555   2.040   0.112  14.940  0.8102 -1.5036  0.5441
  851MPD2    H112556   2.282   4.621  14.657 -2.3196 -0.5214 -2.2872
  851MPD2    H212557   2.276   0.314  14.646 -0.4663  1.1150  1.8832
  851MPD2    H312558   2.336   0.118  14.548  0.2781 -1.6650  0.6202
  851MPD2     N12559   2.087   4.601  14.854  0.2466  0.0174  0.3883
  851MPD2    H512560   2.038   4.612  14.942 -0.8204 -2.5165  0.1237
  851MPD2    N112561   2.104   0.360  14.837  0.2571 -0.5872  0.5130
  851MPD2    H712562   2.132   0.439  14.780  4.0021 -1.1527  1.6024
  852MPD2     C12563   0.902   1.899   9.633 -0.1461  0.5153 -0.8679
  852MPD2    C112564   1.025   1.932   9.691 -0.2474 -0.0799 -0.0473
  852MPD2    C212565   1.028   2.052   9.767 -0.2644  0.5709  0.2465
  852MPD2    C312566   0.916   2.129   9.785 -0.3198  0.3199 -0.2263
  852MPD2    C412567   0.793   2.091   9.724 -0.7655  0.0422  0.4778
  852MPD2    C512568   0.788   1.972   9.657 -0.3847  0.1312  0.0167
  852MPD2     H12569   1.118   2.074   9.822  1.1172  1.9112 -2.5687
  852MPD2    H112570   0.702   2.150   9.729 -1.0888 -0.5090  1.1820
  852MPD2    H212571   0.887   1.804   9.582 -0.1731  0.6131 -1.0393
  852MPD2    H312572   0.689   1.937   9.633 -0.9987  0.4091  2.1595
  852MPD2     N12573   0.927   2.236   9.874  0.4597  0.2413 -0.3147
  852MPD2    H512574   1.014   2.254   9.922 -0.8538  1.3380  1.6813
  852MPD2    N112575   1.139   1.863   9.662  0.3595  0.2221  0.4813
  852MPD2    H712576   1.221   1.890   9.716 -0.2166  2.7701  0.0570
  853MPD2     C12577   3.505   2.378  12.338 -0.2716 -0.2798 -0.0948
  853MPD2    C112578   3.409   2.483  12.310 -0.5276  0.1999 -0.6270
  853MPD2    C212579   3.400   2.506  12.171  0.6899  0.6583 -0.3783
  853MPD2    C312580   3.477   2.447  12.069 -0.1525  0.9749  0.2513
  853MPD2    C412581   3.569   2.355  12.107 -0.0872  0.0290 -0.2373
  853MPD2    C512582   3.586   2.320  12.236  0.6100  0.3616 -0.5363
  853MPD2     H12583   3.329   2.578  12.131 -0.8532 -0.3390  0.5411
  853MPD2    H112584   3.638   2.315  12.033  1.5993  1.2692  0.6792
  853MPD2    H212585   3.521   2.338  12.437  1.2492 -2.6774 -1.3174
  853MPD2    H312586   3.661   2.252  12.272  1.8172  1.8307 -0.2576
  853MPD2     N12587   3.465   2.487  11.935 -0.2820 -0.1574 -0.8555
  853MPD2    H512588   3.529   2.442  11.871 -0.2956 -0.0242 -0.9641
  853MPD2    N112589   3.349   2.553  12.409  0.1731  0.3915 -0.6755
  853MPD2    H712590   3.362   2.521  12.505  1.9439  0.6983 -0.8218
  854MPD2     C12591   0.472   3.460  13.120 -0.0221 -0.2678 -0.2958
  854MPD2    C112592   0.409   3.333  13.107 -0.0537  0.2854  0.7038
  854MPD2    C212593   0.484   3.218  13.104  0.5280  0.0817  0.1766
  854MPD2    C312594   0.620   3.223  13.128  0.7523 -0.1469  0.3785
  854MPD2    C412595   0.675   3.344  13.149 -0.4620  0.5208 -0.0287
  854MPD2    C512596   0.607   3.464  13.140  0.0997 -0.3193 -0.0864
  854MPD2     H12597   0.436   3.123  13.084  0.1533  0.2973  0.0619
  854MPD2    H112598   0.781   3.357  13.168 -0.2092 -2.3373  0.5319
  854MPD2    H212599   0.407   3.542  13.148 -0.6386 -0.3079 -1.5971
  854MPD2    H312600   0.653   3.562  13.151  0.2364 -0.2835 -1.0047
  854MPD2     N12601   0.707   3.116  13.132 -0.1754 -0.4643  0.5277
  854MPD2    H512602   0.789   3.119  13.192  1.7495 -1.9672 -2.0000
  854MPD2    N112603   0.269   3.333  13.104 -0.6746  0.8824  0.1088
  854MPD2    H712604   0.220   3.421  13.113 -2.1033 -0.0141  1.2885
  855MPD2     C12605   0.998   2.870  13.857  0.3105 -0.3418  0.0290
  855MPD2    C112606   1.003   2.755  13.781  0.6969 -0.1659 -0.1467
  855MPD2    C212607   0.991   2.754  13.644  0.5907 -0.6550 -0.0590
  855MPD2    C312608   0.986   2.872  13.577 -0.1771 -0.6469  0.8627
  855MPD2    C412609   0.989   2.989  13.655 -0.0539  1.0567 -0.8052
  855MPD2    C512610   1.003   2.988  13.788  0.6680  0.1181  0.6244
  855MPD2     H12611   0.995   2.659  13.593 -2.2778  0.1372 -1.7556
  855MPD2    H112612   0.992   3.088  13.612 -1.7807  0.7726 -1.5786
  855MPD2    H212613   0.983   2.870  13.964  0.2124 -1.1365  0.0172
  855MPD2    H312614   1.005   3.085  13.835 -1.1754 -0.3312  1.6515
  855MPD2     N12615   0.975   2.879  13.437 -0.6256 -0.2900 -0.2396
  855MPD2    H512616   0.958   2.972  13.398 -0.8133  0.8620  2.5347
  855MPD2    N112617   1.007   2.622  13.842  0.1194 -0.6473  0.3883
  855MPD2    H712618   1.000   2.538  13.786 -1.8931  0.7991 -1.5601
  856MPD2     C12619   3.457   3.339  14.148  0.6807  0.4264  0.0769
  856MPD2    C112620   3.458   3.458  14.084  0.2757  0.0285  0.4385
  856MPD2    C212621   3.338   3.504  14.030  0.3776 -0.1126 -0.1880
  856MPD2    C312622   3.220   3.433  14.045 -0.4936  0.0330 -0.0488
  856MPD2    C412623   3.221   3.308  14.109  0.1942 -0.4806  0.2595
  856MPD2    C512624   3.344   3.270  14.164 -0.2303 -0.6770  0.0998
  856MPD2     H12625   3.335   3.598  13.977 -3.8222 -2.1789 -3.6758
  856MPD2    H112626   3.130   3.251  14.128  0.5060 -0.9699  0.2979
  856MPD2    H212627   3.549   3.299  14.189 -0.1081  0.6296  2.0468
  856MPD2    H312628   3.342   3.175  14.216 -2.3865 -0.2770  0.7651
  856MPD2     N12629   3.099   3.479  13.998 -0.0220 -0.7128  0.2609
  856MPD2    H512630   3.020   3.417  14.016 -1.3971  0.5392 -1.4053
  856MPD2    N112631   3.577   3.531  14.066  0.3515  0.3942 -0.6385
  856MPD2    H712632   3.571   3.614  14.007  0.2505 -0.0046 -1.1866
  857MPD2     C12633   4.461   0.692  13.225 -0.3874 -0.2786  0.2440
  857MPD2    C112634   4.511   0.768  13.117 -0.2380 -0.6982  0.0541
  857MPD2    C212635   4.575   0.890  13.139  0.3235  0.1302 -0.3604
  857MPD2    C312636   4.588   0.943  13.267  0.1818 -0.4356  0.3973
  857MPD2    C412637   4.558   0.857  13.372 -0.0835 -0.3440  0.2598
  857MPD2    C512638   4.491   0.738  13.353  0.2735  0.3777 -0.7312
  857MPD2     H12639   4.599   0.950  13.052  1.5433 -0.0100 -0.1272
  857MPD2    H112640   4.583   0.881  13.475 -1.9691  3.6548 -0.1919
  857MPD2    H212641   4.420   0.593  13.212 -0.4486  0.1067 -2.4258
  857MPD2    H312642   4.465   0.682  13.442  0.3328  0.5956 -0.5774
  857MPD2     N12643   4.645   1.076  13.286 -0.0583 -0.5462  0.1022
  857MPD2    H512644   4.691   1.123  13.209 -0.5177 -0.5959 -0.2056
  857MPD2    N112645   4.491   0.724  12.983  0.3311  0.2709  0.4930
  857MPD2    H712646   4.451   0.632  12.971  1.5720 -0.7371  3.8180
  858MPD2     C12647   0.440   0.809  16.551  0.3883  0.0286 -0.2824
  858MPD2    C112648   0.431   0.680  16.603  0.8749 -0.0126 -0.3559
  858MPD2    C212649   0.455   0.667  16.738  0.2134  0.6192 -0.4723
  858MPD2    C312650   0.477   0.771  16.823 -0.8233  0.1438  0.2696
  858MPD2    C412651   0.496   0.899  16.771 -0.0997 -0.1578  1.0872
  858MPD2    C512652   0.475   0.916  16.634  0.7535 -0.3816 -0.5580
  858MPD2     H12653   0.443   0.566  16.776 -2.1587  0.6002 -1.2728
  858MPD2    H112654   0.522   0.986  16.830 -1.1350  1.5720 -1.0063
  858MPD2    H212655   0.432   0.824  16.444 -1.6814  0.5907 -0.0486
  858MPD2    H312656   0.492   1.011  16.585 -1.8524  1.2914  1.7801
  858MPD2     N12657   0.488   0.755  16.967  0.1174  0.1209 -0.3637
  858MPD2    H512658   0.482   0.842  17.019 -1.4280 -0.9010  1.1857
  858MPD2    N112659   0.404   0.570  16.520  0.2437 -0.3777 -0.0198
  858MPD2    H712660   0.388   0.604  16.426  1.8490 -1.6200 -0.7392
  859MPD2     C12661   3.574   2.759  15.379  0.3328  0.1376  0.0590
  859MPD2    C112662   3.691   2.687  15.384 -0.1418  0.2893  0.3919
  859MPD2    C212663   3.694   2.562  15.436  0.5383 -0.6477  0.1352
  859MPD2    C312664   3.572   2.501  15.480 -0.1865 -0.0325 -0.4244
  859MPD2    C412665   3.456   2.570  15.480 -0.4147 -0.7440  0.0128
  859MPD2    C512666   3.462   2.701  15.432  0.6453 -0.2477  0.2134
  859MPD2     H12667   3.786   2.505  15.428  1.6416  1.5095 -2.9943
  859MPD2    H112668   3.371   2.528  15.532 -0.5092 -2.7238 -1.7548
  859MPD2    H212669   3.568   2.863  15.350 -1.9302 -0.1608 -0.5032
  859MPD2    H312670   3.368   2.753  15.414  0.0831 -0.6250  2.0588
  859MPD2     N12671   3.570   2.367  15.533 -0.0659 -0.3832 -0.2928
  859MPD2    H512672   3.484   2.330  15.572 -0.3907  0.6096 -0.0767
  859MPD2    N112673   3.805   2.760  15.344  0.5175  0.3006  0.1184
  859MPD2    H712674   3.786   2.851  15.304  1.3652  0.6006  0.4130
  860MPD2     C12675   1.310   2.759  11.735  0.1785  0.5312  0.7714
  860MPD2    C112676   1.286   2.693  11.852  0.6989 -0.3725  0.3795
  860MPD2    C212677   1.161   2.687  11.908 -0.2604 -0.0140 -0.4785
  860MPD2    C312678   1.056   2.762  11.848 -0.4370  0.3386  0.4996
  860MPD2    C412679   1.077   2.816  11.724  0.1890  0.5081 -0.3366
  860MPD2    C512680   1.204   2.823  11.676  0.9077  0.4095 -0.0200
  860MPD2     H12681   1.156   2.650  12.010 -2.8942  1.3795 -0.1003
  860MPD2    H112682   0.999   2.861  11.665  1.7060  1.1149 -1.8702
  860MPD2    H212683   1.404   2.766  11.682 -0.6113  0.4133 -0.6338
  860MPD2    H312684   1.229   2.871  11.582 -0.2280  1.5366  0.2510
  860MPD2     N12685   0.928   2.765  11.912 -0.2208 -0.3531 -0.6556
  860MPD2    H512686   0.917   2.715  12.000  1.9658  1.9075  0.8923
  860MPD2    N112687   1.387   2.620  11.924  0.2261 -0.2068  0.0329
  860MPD2    H712688   1.348   2.575  12.006  1.2556  0.5556  0.9291
  861MPD2     C12689   0.162   0.500  11.091  0.0489  0.3408  0.8807
  861MPD2    C112690   0.030   0.527  11.114  0.8624 -0.4320  0.0996
  861MPD2    C212691   4.692   0.605  11.023  0.2341 -0.6015 -0.1810
  861MPD2    C312692   0.021   0.653  10.909  0.2926  0.0017  0.5207
  861MPD2    C412693   0.150   0.627  10.891  0.3170  0.2281  0.2304
  861MPD2    C512694   0.223   0.558  10.981 -0.6716 -0.5506 -0.6831
  861MPD2     H12695   4.588   0.630  11.043  0.1950 -0.0411 -1.0847
  861MPD2    H112696   0.198   0.659  10.800  0.0183  1.9343  0.6659
  861MPD2    H212697   0.231   0.446  11.155 -0.3940 -0.2889  0.8156
  861MPD2    H312698   0.323   0.530  10.948 -0.2344 -1.2231  1.2465
  861MPD2     N12699   4.681   0.732  10.817  0.3116 -0.0399 -0.2190
  861MPD2    H512700   0.002   0.773  10.742 -0.8210  0.7534 -0.5987
  861MPD2    N112701   4.696   0.489  11.235  0.5588  0.3180 -0.0880
  861MPD2    H712702   4.596   0.505  11.236 -0.1500 -4.0556 -2.2979
  862MPD2     C12703   3.862   0.902  10.626  0.2163  0.3481  0.0116
  862MPD2    C112704   3.952   0.840  10.710 -0.1298 -0.4667 -0.1714
  862MPD2    C212705   3.905   0.738  10.795  0.1334 -0.2449 -0.5867
  862MPD2    C312706   3.773   0.695  10.788 -0.7849  0.2735 -0.7166
  862MPD2    C412707   3.682   0.761  10.707  0.5755  0.0386  0.4078
  862MPD2    C512708   3.724   0.874  10.633 -0.3311  0.3274  0.4832
  862MPD2     H12709   3.983   0.686  10.850  0.7729  0.3359 -0.9335
  862MPD2    H112710   3.580   0.725  10.694 -0.2352  2.4507  0.1111
  862MPD2    H212711   3.882   0.991  10.568  0.1161 -0.4370 -1.2205
  862MPD2    H312712   3.648   0.916  10.567 -0.5016 -1.8652 -0.7256
  862MPD2     N12713   3.720   0.587  10.866  0.2113  0.3872 -0.3979
  862MPD2    H512714   3.619   0.575  10.858  0.2771 -0.5344  0.1405
  862MPD2    N112715   4.095   0.870  10.715  0.0732  0.2051  0.2884
  862MPD2    H712716   4.152   0.808  10.772 -0.1029  0.8297  1.1528
  863MPD2     C12717   3.525   3.708  16.843  0.4200  0.3116 -0.0015
  863MPD2    C112718   3.509   3.838  16.881  0.5188  0.3798 -0.4790
  863MPD2    C212719   3.593   3.893  16.979  0.3322 -0.6410 -0.0289
  863MPD2    C312720   3.686   3.815  17.041 -0.1459 -0.1501 -0.0873
  863MPD2    C412721   3.698   3.688  16.998 -0.0999 -0.3325 -0.2412
  863MPD2    C512722   3.621   3.626  16.901  0.1485 -0.0250  1.1942
  863MPD2     H12723   3.582   3.995  17.015 -0.8989 -0.7540 -0.0918
  863MPD2    H112724   3.767   3.627  17.055 -0.6128 -0.6206  0.0705
  863MPD2    H212725   3.461   3.663  16.769 -1.4653  0.7573  1.3548
  863MPD2    H312726   3.619   3.519  16.881  1.0070  0.4445 -1.3565
  863MPD2     N12727   3.761   3.849  17.156 -0.0613 -0.1881  0.6951
  863MPD2    H512728   3.825   3.783  17.199  3.1663  1.0649 -2.1841
  863MPD2    N112729   3.401   3.900  16.818 -0.5405 -0.4944 -0.1998
  863MPD2    H712730   3.349   3.835  16.760 -1.0878  0.1358 -0.4117
  864MPD2     C12731   4.179   0.343   0.034  0.3539 -0.1450  1.3462
  864MPD2    C112732   4.216   0.302  17.643 -0.3939  0.2186  0.2809
  864MPD2    C212733   4.294   0.394  17.571 -0.6248  0.1150 -0.5197
  864MPD2    C312734   4.324   0.523  17.618 -0.1974 -0.1360  0.1752
  864MPD2    C412735   4.283   0.560   0.015  0.4364  0.6420 -0.1458
  864MPD2    C512736   4.220   0.463   0.086  0.2296  0.3978 -0.4271
  864MPD2     H12737   4.323   0.362  17.471 -0.2614  1.4484 -0.8422
  864MPD2    H112738   4.300   0.648   0.076 -0.3618  0.4351  0.3778
  864MPD2    H212739   4.118   0.284   0.102 -2.7586  1.5488  0.0096
  864MPD2    H312740   4.187   0.488   0.186 -1.7065  0.1025 -0.9866
  864MPD2     N12741   4.405   0.609  17.542 -0.3769 -0.0849 -0.1670
  864MPD2    H512742   4.430   0.695  17.590 -0.7703  0.8077 -1.5872
  864MPD2    N112743   4.158   0.177  17.597 -1.1368  0.0853 -0.1685
  864MPD2    H712744   4.108   0.115  17.659  2.2096 -1.6143  0.8468
  865MPD2     C12745   3.956   0.612  16.906  0.3137 -0.0898  0.7467
  865MPD2    C112746   4.081   0.607  16.848 -0.2612 -0.4685 -0.4920
  865MPD2    C212747   4.183   0.669  16.916  0.3655  0.5349 -0.2270
  865MPD2    C312748   4.163   0.736  17.029  0.3303  0.3287  0.8137
  865MPD2    C412749   4.035   0.747  17.080 -0.7165 -0.3307 -0.3981
  865MPD2    C512750   3.929   0.682  17.024  0.3999  0.2999 -0.0659
  865MPD2     H12751   4.286   0.650  16.889  0.2122  0.0321 -0.4594
  865MPD2    H112752   4.015   0.801  17.172 -1.3769 -2.3023  0.6089
  865MPD2    H212753   3.873   0.563  16.857  0.2301  1.5693 -0.7859
  865MPD2    H312754   3.834   0.676  17.075  0.7879  2.5411  0.9477
  865MPD2     N12755   4.271   0.791  17.091  0.0230 -0.0635  0.3770
  865MPD2    H512756   4.362   0.756  17.060 -0.0507  0.5452 -0.5243
  865MPD2    N112757   4.104   0.533  16.726 -0.6547  0.1235 -0.2866
  865MPD2    H712758   4.032   0.473  16.688  1.3380 -2.1956 -0.4356
  866MPD2     C12759   0.979   1.134  11.174 -0.0177 -0.8130  0.2724
  866MPD2    C112760   0.991   1.164  11.034 -0.7007 -0.7178 -0.1573
  866MPD2    C212761   0.872   1.179  10.958  0.2648 -1.0097 -0.4093
  866MPD2    C312762   0.751   1.167  11.023 -0.3886  0.3733  0.3236
  866MPD2    C412763   0.742   1.180  11.154 -0.3005 -0.4498  0.2456
  866MPD2    C512764   0.857   1.155  11.225 -0.2977  0.3074  0.1915
  866MPD2     H12765   0.876   1.185  10.850  0.1113 -0.9942 -0.4134
  866MPD2    H112766   0.649   1.192  11.209  0.5187 -0.3697  1.6056
  866MPD2    H212767   1.064   1.132  11.242 -0.0586 -0.5503  0.3300
  866MPD2    H312768   0.845   1.151  11.332  0.4855  2.0326  0.3445
  866MPD2     N12769   0.625   1.150  10.952  0.4063  0.0902 -0.3248
  866MPD2    H512770   0.541   1.141  11.010 -0.5404 -1.1356 -1.8915
  866MPD2    N112771   1.123   1.152  10.980  0.4024 -0.2512 -0.0996
  866MPD2    H712772   1.196   1.116  11.042  0.5479  0.2471  0.0219
  867MPD2     C12773   2.625   0.214  17.064 -0.2601  0.5184 -0.2612
  867MPD2    C112774   2.737   0.198  17.148  0.6056 -0.2019  0.1068
  867MPD2    C212775   2.764   0.300  17.234  0.4278  0.2623 -0.5418
  867MPD2    C312776   2.680   0.412  17.237  0.6064  0.7672 -0.2119
  867MPD2    C412777   2.563   0.413  17.170  0.3540 -0.4196 -0.4822
  867MPD2    C512778   2.536   0.316  17.078 -0.9674  0.0620 -0.5395
  867MPD2     H12779   2.855   0.304  17.294 -0.0425 -0.0029  0.1914
  867MPD2    H112780   2.484   0.487  17.184  0.3784  0.0904 -3.0346
  867MPD2    H212781   2.598   0.137  16.993 -2.3886 -0.2151  1.3585
  867MPD2    H312782   2.439   0.314  17.030 -0.3879  0.6707 -1.7349
  867MPD2     N12783   2.713   0.541  17.299  0.1160  0.7166 -0.0908
  867MPD2    H512784   2.646   0.615  17.277  0.2832  0.8858 -0.0273
  867MPD2    N112785   2.813   0.081  17.142  0.3495 -0.0559 -0.0198
  867MPD2    H712786   2.791   0.007  17.076 -0.8013  0.8298 -0.6214
  868MPD2     C12787   0.127   0.091  13.351  0.3102  0.3233  0.3616
  868MPD2    C112788   0.121   4.692  13.374 -0.5847  0.1771 -0.1881
  868MPD2    C212789   0.064   4.636  13.493 -0.4083 -0.6474  0.0035
  868MPD2    C312790   0.013   4.723  13.585 -0.4531  0.0934 -0.5099
  868MPD2    C412791   0.027   0.121  13.563  0.2400  0.0175 -0.1450
  868MPD2    C512792   0.077   0.176  13.447  0.4797 -0.1193 -0.0879
  868MPD2     H12793   0.052   4.529  13.505  0.6904 -0.4310  3.1631
  868MPD2    H112794   0.002   0.187  13.645  1.0919  0.9373 -0.6350
  868MPD2    H212795   0.172   0.140  13.265  1.3128 -0.0118  0.6869
  868MPD2    H312796   0.098   0.281  13.431 -0.7522  0.1470  0.0788
  868MPD2     N12797   4.675   4.664  13.700  0.6259  0.1510  0.2393
  868MPD2    H512798   4.669   4.563  13.706  1.3538  0.1146  0.3900
  868MPD2    N112799   0.173   4.601  13.273 -0.5385  0.0869  0.1058
  868MPD2    H712800   0.228   4.641  13.199 -0.8317 -0.3117 -0.3253
  869MPD2     C12801   1.211   2.827   0.460 -0.3573  0.0329 -0.6158
  869MPD2    C112802   1.114   2.764   0.530  0.3198 -0.7780 -0.2257
  869MPD2    C212803   1.145   2.653   0.610  0.1031  0.0722  0.6362
  869MPD2    C312804   1.271   2.604   0.609  0.2542 -0.2918 -0.0736
  869MPD2    C412805   1.373   2.673   0.548  0.6625  0.1755 -0.4388
  869MPD2    C512806   1.339   2.782   0.476 -0.6418  0.3070 -0.5091
  869MPD2     H12807   1.074   2.614   0.683 -0.4881 -1.9794 -1.0299
  869MPD2    H112808   1.476   2.641   0.549  0.6586  0.1755 -0.0389
  869MPD2    H212809   1.199   2.900   0.380  1.3463 -1.7524 -2.5123
  869MPD2    H312810   1.417   2.837   0.425  0.8593 -0.7152  0.6773
  869MPD2     N12811   1.314   2.492   0.678  0.0492  0.1058  0.4711
  869MPD2    H512812   1.415   2.479   0.682 -0.0265 -0.5806  0.2552
  869MPD2    N112813   0.982   2.802   0.497 -0.8214 -0.2571 -0.4571
  869MPD2    H712814   0.976   2.881   0.433  4.6733  0.3286 -0.2725
  870MPD2     C12815   0.892   1.034   1.866 -0.4192 -0.2209 -0.7315
  870MPD2    C112816   0.985   1.108   1.800  0.5737  0.0835  0.1991
  870MPD2    C212817   0.952   1.230   1.741  0.1238  0.7295 -0.8481
  870MPD2    C312818   0.821   1.278   1.760 -0.5061  0.2917  0.2851
  870MPD2    C412819   0.725   1.205   1.838 -0.0476 -0.5475 -0.4523
  870MPD2    C512820   0.763   1.082   1.889  0.1346 -0.3698  0.3147
  870MPD2     H12821   1.013   1.291   1.676  0.2990  0.4405 -0.9541
  870MPD2    H112822   0.621   1.231   1.856 -0.4116 -2.9303  0.8412
  870MPD2    H212823   0.922   0.946   1.922 -1.0583  0.2159  0.2993
  870MPD2    H312824   0.692   1.028   1.951 -0.8364 -3.0374 -3.1728
  870MPD2     N12825   0.786   1.398   1.690  0.0704 -0.2029 -0.3155
  870MPD2    H512826   0.862   1.441   1.637  1.4407 -0.8714  1.1028
  870MPD2    N112827   1.105   1.049   1.781  0.5333 -0.0685  0.0622
  870MPD2    H712828   1.121   0.952   1.804 -0.4798 -0.3870 -0.5841
  871MPD2     C12829   1.829   0.847  16.385 -0.4194  0.1737 -0.5430
  871MPD2    C112830   1.796   0.795  16.509 -0.0444 -0.2178 -0.5255
  871MPD2    C212831   1.786   0.655  16.510  0.4508  0.4270  0.2803
  871MPD2    C312832   1.800   0.574  16.406 -0.6030  0.4724  0.2891
  871MPD2    C412833   1.830   0.628  16.286 -0.0960  0.1859  0.0021
  871MPD2    C512834   1.845   0.764  16.281 -0.3072 -0.2838 -0.3111
  871MPD2     H12835   1.745   0.598  16.593 -0.3704  2.1192  1.0563
  871MPD2    H112836   1.834   0.565  16.198 -1.6207 -2.1028  1.5570
  871MPD2    H212837   1.849   0.952  16.363 -2.2257  1.3142  3.3299
  871MPD2    H312838   1.874   0.805  16.185  1.6688 -1.6091 -0.2881
  871MPD2     N12839   1.777   0.435  16.421  0.1334  0.3516 -0.0474
  871MPD2    H512840   1.748   0.408  16.515 -0.6218 -1.0176 -0.6963
  871MPD2    N112841   1.773   0.880  16.621 -0.2554  0.4221 -0.4096
  871MPD2    H712842   1.788   0.978  16.601  0.1456  0.2920 -0.7346
  872MPD2     C12843   2.999   2.891  13.823 -0.3048 -0.0253 -0.1432
  872MPD2    C112844   2.982   3.028  13.849 -0.1658  0.6159 -0.6142
  872MPD2    C212845   2.859   3.080  13.890  0.5743 -0.6115 -0.7199
  872MPD2    C312846   2.756   2.985  13.915  0.9652 -0.1135  0.6387
  872MPD2    C412847   2.777   2.848  13.898  0.2603  0.0719  0.4051
  872MPD2    C512848   2.897   2.806  13.853  0.7934  0.5611  0.1391
  872MPD2     H12849   2.847   3.186  13.910 -1.9175 -0.6407 -2.1199
  872MPD2    H112850   2.705   2.767  13.893  0.8262 -0.5059  1.5337
  872MPD2    H212851   3.090   2.848  13.783  0.5245  0.8963  0.7557
  872MPD2    H312852   2.897   2.701  13.826 -0.3073  0.7272 -0.4965
  872MPD2     N12853   2.623   3.021  13.949  0.7113 -0.5607  0.4138
  872MPD2    H512854   2.563   2.941  13.963 -2.9375  2.3558  1.2983
  872MPD2    N112855   3.081   3.126  13.838  0.1956  0.5069 -0.4186
  872MPD2    H712856   3.053   3.223  13.833  0.1613  0.5614  0.9901
  873MPD2     C12857   4.360   3.442   0.824 -0.2937  0.0963 -0.6624
  873MPD2    C112858   4.312   3.325   0.880  0.2658 -0.0324 -0.5474
  873MPD2    C212859   4.276   3.220   0.799 -0.4091  0.6860 -0.6159
  873MPD2    C312860   4.289   3.228   0.667  0.4721  0.5190  0.0939
  873MPD2    C412861   4.332   3.342   0.609  0.7786 -0.2142 -0.2627
  873MPD2    C512862   4.369   3.448   0.688  0.2276 -0.1888 -0.0231
  873MPD2     H12863   4.236   3.129   0.844  2.0698 -0.0429  0.0926
  873MPD2    H112864   4.349   3.358   0.503  1.8096  1.9322  0.2194
  873MPD2    H212865   4.392   3.522   0.888 -3.7613 -0.4860  1.8299
  873MPD2    H312866   4.398   3.542   0.641  1.3307 -0.8724 -0.7000
  873MPD2     N12867   4.279   3.115   0.585 -0.0755  0.7002  0.2284
  873MPD2    H512868   4.274   3.136   0.486 -0.1468 -1.0019 -0.1285
  873MPD2    N112869   4.306   3.327   1.018 -0.3718  0.0410  0.2440
  873MPD2    H712870   4.350   3.408   1.061  2.5264 -0.1503 -2.3243
  874MPD2     C12871   3.973   3.056  16.235  0.3082 -0.1903 -0.5581
  874MPD2    C112872   4.050   3.044  16.347  0.5008 -0.3176  0.0409
  874MPD2    C212873   4.153   3.129  16.364 -0.1791 -0.0764 -0.2080
  874MPD2    C312874   4.194   3.210  16.261 -0.1030 -0.2971  0.4645
  874MPD2    C412875   4.116   3.226  16.147  0.6799  0.2151 -0.1642
  874MPD2    C512876   4.008   3.146  16.141 -1.1159 -0.1614  0.0562
  874MPD2     H12877   4.224   3.106  16.443 -3.1288 -0.1032  2.4261
  874MPD2    H112878   4.141   3.295  16.067 -2.5424 -0.1109 -1.4496
  874MPD2    H212879   3.899   2.981  16.211 -0.8566  0.7019  0.2531
  874MPD2    H312880   3.951   3.141  16.049  0.0578  0.2682 -0.6923
  874MPD2     N12881   4.309   3.289  16.284 -0.6380  0.0950 -0.7250
  874MPD2    H512882   4.341   3.277  16.379  0.6530  1.9099 -0.9254
  874MPD2    N112883   4.017   2.945  16.444 -0.6198 -0.1770  0.0227
  874MPD2    H712884   3.939   2.887  16.415 -2.2565  2.0130 -0.0159
  875MPD2     C12885   0.684   1.469  14.699  0.2378 -0.0423 -0.0929
  875MPD2    C112886   0.572   1.530  14.759 -0.3756  0.2009 -0.0006
  875MPD2    C212887   0.562   1.585  14.887  0.0697  0.6227 -0.2956
  875MPD2    C312888   0.681   1.586  14.959  0.1181 -0.0256  0.6257
  875MPD2    C412889   0.798   1.535  14.894  0.2748 -0.0084 -0.4570
  875MPD2    C512890   0.796   1.473  14.773  0.9246 -0.7785 -0.3026
  875MPD2     H12891   0.471   1.635  14.921 -0.7929 -1.1160 -0.0781
  875MPD2    H112892   0.886   1.518  14.956  0.3440 -1.2365 -0.8897
  875MPD2    H212893   0.686   1.401  14.615  3.2030 -1.8473  1.4510
  875MPD2    H312894   0.893   1.427  14.754 -0.0315 -2.1599 -1.8249
  875MPD2     N12895   0.692   1.640  15.096 -0.4012 -0.2508 -0.2737
  875MPD2    H512896   0.780   1.628  15.146  0.0238  1.9129 -0.4885
  875MPD2    N112897   0.444   1.524  14.700  0.5495 -0.7730 -0.2202
  875MPD2    H712898   0.367   1.575  14.743  0.8193 -1.3981  0.9769
  876MPD2     C12899   3.821   2.763  16.100  0.5112  0.3139 -0.3219
  876MPD2    C112900   3.954   2.731  16.067 -0.5193  0.0522 -0.3025
  876MPD2    C212901   4.016   2.609  16.115 -0.1792  0.0799 -0.0405
  876MPD2    C312902   3.938   2.518  16.182 -0.2039 -0.1601  0.0647
  876MPD2    C412903   3.802   2.547  16.199 -0.9228 -0.4650  0.1010
  876MPD2    C512904   3.750   2.676  16.174 -0.4253  0.2280  0.2770
  876MPD2     H12905   4.120   2.584  16.098 -0.6250 -1.9906  0.2571
  876MPD2    H112906   3.746   2.479  16.262  2.4178 -0.6737  2.8428
  876MPD2    H212907   3.773   2.856  16.073  0.1802  0.3803  0.5203
  876MPD2    H312908   3.651   2.702  16.207  0.2072  0.3193  2.0954
  876MPD2     N12909   3.998   2.402  16.232 -0.4298  0.1748 -0.0140
  876MPD2    H512910   4.099   2.408  16.229 -0.5443  2.3387  0.5513
  876MPD2    N112911   4.026   2.824  15.986  0.2464  0.8313  0.2734
  876MPD2    H712912   3.961   2.891  15.945 -0.9575 -0.5542 -0.0970
  877MPD2     C12913   4.010   3.254  15.349  0.1339 -0.1873 -0.2564
  877MPD2    C112914   4.141   3.269  15.393 -0.0271  0.7677 -0.5688
  877MPD2    C212915   4.230   3.346  15.311 -0.2353 -0.1492 -0.0978
  877MPD2    C312916   4.194   3.394  15.190 -0.8183  0.2514  0.7244
  877MPD2    C412917   4.070   3.368  15.147  0.4907  0.4548  0.4151
  877MPD2    C512918   3.980   3.297  15.222 -0.1328  0.3601  0.6121
  877MPD2     H12919   4.330   3.368  15.347 -0.5712  1.3679 -0.0780
  877MPD2    H112920   4.041   3.392  15.045 -0.6400 -2.2274  0.0992
  877MPD2    H212921   3.929   3.212  15.406  1.4412 -0.6439  1.2673
  877MPD2    H312922   3.889   3.258  15.177 -0.1483  0.9973  0.0891
  877MPD2     N12923   4.282   3.449  15.095  0.0898 -0.2045  0.6303
  877MPD2    H512924   4.237   3.469  15.006 -0.9824  0.4225  1.3107
  877MPD2    N112925   4.184   3.217  15.520 -0.3035  0.4583  0.4638
  877MPD2    H712926   4.278   3.241  15.550 -0.9065  1.9272  1.1792
  878MPD2     C12927   3.936   2.841  13.563 -0.3013  0.2273  0.5797
  878MPD2    C112928   4.049   2.772  13.523 -0.6146 -0.4241 -0.2223
  878MPD2    C212929   4.103   2.671  13.607  0.7517 -0.1722  0.1557
  878MPD2    C312930   4.046   2.657  13.734 -0.3170 -0.5353 -0.1662
  878MPD2    C412931   3.947   2.739  13.782 -0.1414  0.1453 -0.9285
  878MPD2    C512932   3.888   2.831  13.697 -0.0029  0.7993 -1.1897
  878MPD2     H12933   4.190   2.612  13.580  2.3625  1.8221  1.0001
  878MPD2    H112934   3.900   2.732  13.880  1.7224  0.4107 -0.0178
  878MPD2    H212935   3.907   2.931  13.510 -1.7754 -0.9413 -0.5643
  878MPD2    H312936   3.803   2.885  13.735  0.4345 -0.7883  2.0190
  878MPD2     N12937   4.098   2.552  13.809 -0.0892 -1.0068  0.1743
  878MPD2    H512938   4.179   2.501  13.775  0.6565 -0.9145  1.7974
  878MPD2    N112939   4.094   2.796  13.392  0.6354  0.1414 -0.3996
  878MPD2    H712940   4.039   2.862  13.337 -1.0458 -2.1905 -1.5388
  879MPD2     C12941   4.125   4.135  17.057 -0.1012  0.0097 -0.4077
  879MPD2    C112942   4.198   4.049  17.133 -0.3265 -0.2560 -1.0445
  879MPD2    C212943   4.175   3.912  17.109  0.0909 -0.0302  0.0399
  879MPD2    C312944   4.087   3.873  17.009 -0.4271 -0.6431 -0.2273
  879MPD2    C412945   4.005   3.965  16.948  0.5139 -0.2634  0.4008
  879MPD2    C512946   4.021   4.093  16.979 -0.1578  0.0182 -0.3326
  879MPD2     H12947   4.235   3.836  17.159  0.4256 -1.4161 -2.4835
  879MPD2    H112948   3.927   3.933  16.879  0.2526  2.2084 -0.4449
  879MPD2    H212949   4.134   4.242  17.064  2.8539 -0.3113  0.6345
  879MPD2    H312950   3.957   4.167  16.931  0.5700 -0.9112 -2.7400
  879MPD2     N12951   4.088   3.743  16.962  0.1801 -0.3497  0.3908
  879MPD2    H512952   4.032   3.738  16.878  0.5581 -0.6254  0.1524
  879MPD2    N112953   4.299   4.096  17.224 -0.4047 -0.4237 -0.4074
  879MPD2    H712954   4.326   4.194  17.215 -0.4652 -0.2465  1.2667
  880MPD2     C12955   0.601   0.835   0.465  0.1616 -0.4646  0.8522
  880MPD2    C112956   0.674   0.909   0.560 -0.8909 -0.4311 -1.3635
  880MPD2    C212957   0.735   0.835   0.665 -0.4139  0.6408  0.5846
  880MPD2    C312958   0.725   0.701   0.678  0.1699 -0.1625 -0.4471
  880MPD2    C412959   0.652   0.630   0.591 -0.6446 -0.5240  0.2495
  880MPD2    C512960   0.591   0.701   0.489  0.2519  0.6834 -0.4287
  880MPD2     H12961   0.776   0.900   0.742  1.0821 -0.4590  0.7082
  880MPD2    H112962   0.631   0.524   0.602  2.5866 -1.1256  0.5380
  880MPD2    H212963   0.555   0.890   0.384  0.7661 -0.0541  0.7859
  880MPD2    H312964   0.535   0.639   0.420  1.3189  0.3335 -0.9737
  880MPD2     N12965   0.799   0.650   0.789 -0.5468 -0.1185 -0.0091
  880MPD2    H512966   0.851   0.717   0.844  0.0863 -0.0919 -0.6364
  880MPD2    N112967   0.699   1.049   0.528  0.0078  0.0717  0.5516
  880MPD2    H712968   0.642   1.094   0.457 -1.2689 -2.1456  0.1656
  881MPD2     C12969   0.765   1.863  17.655  0.0909 -0.5641 -0.4390
  881MPD2    C112970   0.832   1.745  17.665 -0.8656 -0.5288  0.0855
  881MPD2    C212971   0.808   1.665   0.041 -0.1924  0.2092  0.0473
  881MPD2    C312972   0.732   1.707   0.147 -0.3958  0.0312 -0.7850
  881MPD2    C412973   0.672   1.834   0.137  0.3190  0.0868  0.0700
  881MPD2    C512974   0.691   1.909   0.028 -0.2575  0.3509 -0.1387
  881MPD2     H12975   0.851   1.566   0.035  0.4507  0.5281 -0.6196
  881MPD2    H112976   0.611   1.868   0.220  0.5121 -0.2420  0.3501
  881MPD2    H212977   0.787   1.927  17.570 -0.4698 -0.9420 -0.8621
  881MPD2    H312978   0.647   2.008   0.026  1.5640  1.1823  0.4881
  881MPD2     N12979   0.712   1.636   0.272  0.0279 -0.4325  0.1156
  881MPD2    H512980   0.664   1.682   0.349  0.4550  0.4697 -0.1576
  881MPD2    N112981   0.879   1.700  17.538  0.4847  0.1160 -0.4008
  881MPD2    H712982   0.889   1.764  17.460  0.6396  2.5337  1.5971
  882MPD2     C12983   4.490   3.090  14.547  0.7989  0.1964  0.3010
  882MPD2    C112984   4.407   3.195  14.573  1.0171  0.0976  0.0446
  882MPD2    C212985   4.274   3.178  14.548  0.0582  0.4230  0.1863
  882MPD2    C312986   4.220   3.051  14.517 -0.0379  0.4657  0.1639
  882MPD2    C412987   4.307   2.940  14.507 -0.0738 -0.4102  0.5233
  882MPD2    C512988   4.438   2.966  14.524  0.2631 -0.3395  0.7466
  882MPD2     H12989   4.213   3.267  14.557 -0.7697 -0.1124 -0.1493
  882MPD2    H112990   4.272   2.843  14.475 -1.2032  0.9912 -2.5068
  882MPD2    H212991   4.596   3.086  14.569  1.2044 -1.2607 -1.9869
  882MPD2    H312992   4.505   2.883  14.507  1.5208  0.4247  2.0068
  882MPD2     N12993   4.081   3.036  14.502  0.2817 -0.3963 -0.0813
  882MPD2    H512994   4.045   2.942  14.510 -0.4499 -0.1846 -0.8252
  882MPD2    N112995   4.454   3.311  14.638 -0.5240  0.1139 -0.2328
  882MPD2    H712996   4.553   3.317  14.657 -0.4162  1.2542 -1.1856
  883MPD2     C12997   1.270   3.136  16.289 -0.0079 -1.0513 -0.4340
  883MPD2    C112998   1.337   3.212  16.194  0.0674  0.4930 -0.3223
  883MPD2    C212999   1.438   3.299  16.232  0.7295 -0.5179  0.1358
  883MPD2    C313000   1.470   3.324  16.364  0.0823 -0.2314  0.9694
  883MPD2    C413001   1.414   3.241  16.460 -0.1431  0.2872 -0.1032
  883MPD2    C513002   1.315   3.151  16.422  0.3471  1.0637 -0.3353
  883MPD2     H13003   1.477   3.366  16.156 -0.9962 -0.6261 -0.8601
  883MPD2    H113004   1.445   3.253  16.564 -0.6886 -0.2772  0.1218
  883MPD2    H213005   1.200   3.056  16.269  0.6750 -1.5737 -0.7489
  883MPD2    H313006   1.276   3.088  16.501 -3.3364  1.3431 -1.9029
  883MPD2     N13007   1.582   3.411  16.386  0.0607 -0.3943 -0.4383
  883MPD2    H513008   1.626   3.466  16.313 -1.0710 -0.5846 -1.2667
  883MPD2    N113009   1.320   3.203  16.060 -0.5099 -0.5212  0.6621
  883MPD2    H713010   1.389   3.246  15.999 -0.0171 -1.3878  0.5937
  884MPD2     C13011   3.383   3.790  15.282  0.0429  0.2943  1.2092
  884MPD2    C113012   3.315   3.759  15.166  0.4165 -0.1549  1.1925
  884MPD2    C213013   3.190   3.806  15.141 -0.7528  0.3803  0.0282
  884MPD2    C313014   3.117   3.876  15.236 -0.0013  0.1323 -0.1329
  884MPD2    C413015   3.187   3.917  15.351  0.6558 -0.5620 -0.0168
  884MPD2    C513016   3.319   3.868  15.375  0.3812  0.0368  0.1532
  884MPD2     H13017   3.142   3.782  15.047  0.6088 -0.7550 -0.3755
  884MPD2    H113018   3.145   3.969  15.436 -2.8839 -2.6194 -0.4636
  884MPD2    H213019   3.483   3.762  15.314 -0.4966 -1.0671  1.7510
  884MPD2    H313020   3.372   3.890  15.467 -0.6954  2.9460  0.0819
  884MPD2     N13021   2.981   3.909  15.216  0.0646  0.4810 -0.2416
  884MPD2    H513022   2.942   3.910  15.122 -3.0627 -2.0737  1.0304
  884MPD2    N113023   3.378   3.683  15.068 -0.3591  0.0102 -0.2907
  884MPD2    H713024   3.338   3.679  14.975 -0.5750  1.8375 -0.2861
  885MPD2     C13025   1.365   4.142   0.632 -0.1156  1.0251 -0.6147
  885MPD2    C113026   1.497   4.181   0.601  0.6104  0.3494 -0.0408
  885MPD2    C213027   1.541   4.197   0.467  0.1877 -0.4306  0.2700
  885MPD2    C313028   1.453   4.202   0.363  0.5522  0.1661 -0.3117
  885MPD2    C413029   1.325   4.175   0.398  0.4405 -0.5756  0.1959
  885MPD2    C513030   1.282   4.135   0.525 -0.6060 -0.3060 -0.1866
  885MPD2     H13031   1.647   4.207   0.447  0.2213 -0.8568  0.2288
  885MPD2    H113032   1.245   4.170   0.325 -1.4937 -2.5853  2.4741
  885MPD2    H213033   1.331   4.122   0.733  2.1494  1.1188  0.1669
  885MPD2    H313034   1.176   4.110   0.530 -0.8062  0.6410  0.3071
  885MPD2     N13035   1.507   4.225   0.231 -0.1618 -0.4459  0.8506
  885MPD2    H513036   1.606   4.246   0.224 -0.2712 -0.3283 -0.2803
  885MPD2    N113037   1.584   4.198   0.707  0.5709  0.3912  0.3646
  885MPD2    H713038   1.530   4.204   0.793 -1.4699  3.1472 -1.0732
  886MPD2     C13039   2.700   2.725  15.399 -0.2360 -0.1155 -0.0910
  886MPD2    C113040   2.836   2.718  15.422 -0.8409  0.5726  0.6760
  886MPD2    C213041   2.915   2.788  15.334 -0.5408  0.1498  0.0053
  886MPD2    C313042   2.870   2.866  15.229  0.6416  0.0220  0.2948
  886MPD2    C413043   2.730   2.863  15.204 -0.3565 -0.8360 -0.3249
  886MPD2    C513044   2.650   2.798  15.293  0.1056  0.4759 -0.1374
  886MPD2     H13045   3.021   2.791  15.357 -0.7840  1.4694  0.9038
  886MPD2    H113046   2.676   2.910  15.123  0.2221 -1.1262 -0.8817
  886MPD2    H213047   2.630   2.667  15.457  1.0561  0.3717  1.9772
  886MPD2    H313048   2.543   2.801  15.276  0.2930  0.5451 -1.3069
  886MPD2     N13049   2.945   2.941  15.131 -0.1987  0.3909  0.3486
  886MPD2    H513050   2.888   2.986  15.061 -0.4701  1.2177  1.1029
  886MPD2    N113051   2.894   2.650  15.531  0.2687  0.1179 -0.4690
  886MPD2    H713052   2.995   2.662  15.538 -0.1943  2.8567  1.6519
  887MPD2     C13053   3.549   2.591  15.828 -0.9000 -0.7004  0.7945
  887MPD2    C113054   3.443   2.674  15.803 -0.4329 -0.0014 -0.5241
  887MPD2    C213055   3.465   2.803  15.775  0.3211 -0.1383  0.0097
  887MPD2    C313056   3.587   2.860  15.789 -0.5172  0.5814  0.3826
  887MPD2    C413057   3.689   2.777  15.779 -0.1293  0.2274 -0.2341
  887MPD2    C513058   3.671   2.642  15.802  0.0614  0.7192 -0.3266
  887MPD2     H13059   3.383   2.867  15.743  0.7669 -0.0842 -1.0333
  887MPD2    H113060   3.792   2.811  15.771  0.2443 -0.2999  2.3697
  887MPD2    H213061   3.546   2.483  15.838  1.0603 -0.8513 -0.2226
  887MPD2    H313062   3.761   2.582  15.799 -0.2588  0.2472 -0.4158
  887MPD2     N13063   3.607   2.999  15.765  0.6467 -0.3453  0.0746
  887MPD2    H513064   3.529   3.057  15.738  1.2200  0.8020  0.8665
  887MPD2    N113065   3.310   2.621  15.794  0.5594 -0.7318 -0.5716
  887MPD2    H713066   3.238   2.676  15.748  1.8827  1.3131 -0.2125
  888MPD2     C13067   0.560   2.492  15.398  0.6797  1.0463 -0.3307
  888MPD2    C113068   0.651   2.552  15.483  0.9190  0.1285  0.5436
  888MPD2    C213069   0.653   2.691  15.483  0.2733  0.2279  0.4107
  888MPD2    C313070   0.570   2.768  15.406 -0.3887  0.2541 -0.1322
  888MPD2    C413071   0.476   2.706  15.334  0.0627 -0.1846  0.2591
  888MPD2    C513072   0.465   2.565  15.338  0.5142 -0.5459 -0.1907
  888MPD2     H13073   0.730   2.746  15.536  1.8151 -0.2235 -1.3245
  888MPD2    H113074   0.401   2.757  15.275 -0.3653 -0.2800  0.7148
  888MPD2    H213075   0.538   2.387  15.407  1.2075  1.1135  1.7653
  888MPD2    H313076   0.388   2.515  15.281 -0.1677 -0.6229  0.7875
  888MPD2     N13077   0.571   2.914  15.412  0.0761  0.0881  0.4164
  888MPD2    H513078   0.623   2.948  15.492 -0.0245  1.9059 -0.3151
  888MPD2    N113079   0.733   2.471  15.567 -0.1393 -0.1317 -0.7064
  888MPD2    H713080   0.786   2.527  15.634 -1.1130 -0.1250  0.0568
  889MPD2     C13081   4.452   1.823  13.519 -0.1474 -0.0342 -1.0603
  889MPD2    C113082   4.578   1.836  13.477  0.3403  0.7467  0.4052
  889MPD2    C213083   4.621   1.955  13.418  0.4171  0.0952  0.5466
  889MPD2    C313084   4.548   2.068  13.425  0.2280 -0.0468  0.5417
  889MPD2    C413085   4.425   2.058  13.473  0.1135  0.8230 -0.4785
  889MPD2    C513086   4.376   1.938  13.511 -0.3771 -0.2676 -0.3389
  889MPD2     H13087   4.726   1.975  13.402  1.0735 -1.4528  2.8624
  889MPD2    H113088   4.356   2.141  13.487  0.4335  0.6346  2.2296
  889MPD2    H213089   4.400   1.729  13.533  1.8329 -0.9166  0.4043
  889MPD2    H313090   4.272   1.931  13.543 -0.0352 -1.4991  0.4670
  889MPD2     N13091   4.605   2.194  13.388 -0.0335 -0.0200  0.3012
  889MPD2    H513092   4.695   2.189  13.339 -0.1708 -1.8783  0.2383
  889MPD2    N113093   4.654   1.724  13.452  0.5691 -0.7091  0.6786
  889MPD2    H713094   4.728   1.732  13.383  1.2495 -1.4452  1.3120
  890MPD2     C13095   4.111   4.091  14.682  1.0896 -0.0439  0.4000
  890MPD2    C113096   4.190   4.187  14.742 -0.4496  0.0314  0.4763
  890MPD2    C213097   4.284   4.144  14.837  0.5118  0.1745 -0.1988
  890MPD2    C313098   4.293   4.014  14.881  0.2597  0.1535  0.0315
  890MPD2    C413099   4.204   3.916  14.831  0.0086 -0.6830  0.6066
  890MPD2    C513100   4.117   3.959  14.728 -0.3049 -0.0324 -0.6833
  890MPD2     H13101   4.357   4.213  14.878  0.4342  0.6329 -0.8270
  890MPD2    H113102   4.218   3.811  14.852 -2.6579 -0.9120  1.1651
  890MPD2    H213103   4.035   4.104  14.605  1.4520  0.7186  0.1685
  890MPD2    H313104   4.066   3.878  14.678 -0.4250  0.4392 -1.3334
  890MPD2     N13105   4.392   3.996  14.977 -0.7680 -0.5090  0.1178
  890MPD2    H513106   4.454   4.073  15.001 -0.0016 -0.8552 -0.7723
  890MPD2    N113107   4.155   4.321  14.713 -0.3211 -0.0448 -0.1772
  890MPD2    H713108   4.076   4.333  14.650  1.4741  0.8404 -2.2389
  891MPD2     C13109   2.286   2.679  16.641  0.5622  0.2984 -0.0998
  891MPD2    C113110   2.212   2.730  16.748  0.1817  0.0039 -0.2357
  891MPD2    C213111   2.275   2.724  16.873 -0.8745 -0.1437 -0.2227
  891MPD2    C313112   2.395   2.649  16.893 -0.7712  0.5714  0.2798
  891MPD2    C413113   2.460   2.597  16.781  0.4382 -0.0794 -0.8087
  891MPD2    C513114   2.408   2.625  16.657 -0.3036 -0.3796 -0.7618
  891MPD2     H13115   2.227   2.777  16.954 -2.0324  0.5611 -1.3795
  891MPD2    H113116   2.550   2.539  16.794  1.8188  2.1227 -0.5007
  891MPD2    H213117   2.260   2.693  16.537 -2.5298 -1.6882  0.4166
  891MPD2    H313118   2.474   2.598  16.575 -0.6585 -1.3653 -0.7321
  891MPD2     N13119   2.450   2.636  17.027  0.6523 -0.5499  0.1359
  891MPD2    H513120   2.396   2.688  17.097  3.1088  1.5115  0.5034
  891MPD2    N113121   2.098   2.815  16.720 -0.0914 -0.0408 -0.2308
  891MPD2    H713122   2.068   2.809  16.623  1.6731  1.3784 -0.8774
  892MPD2     C13123   3.378   3.795  14.480  0.6521  0.1680 -0.4632
  892MPD2    C113124   3.354   3.694  14.577 -0.7374  0.4476 -0.8829
  892MPD2    C213125   3.421   3.575  14.565 -0.7281  0.9020  0.1628
  892MPD2    C313126   3.525   3.553  14.472  0.5168  0.3283 -0.1672
  892MPD2    C413127   3.557   3.661  14.388  0.6107 -0.0452 -0.6026
  892MPD2    C513128   3.489   3.777  14.401  0.6388  0.1807  0.1333
  892MPD2     H13129   3.394   3.495  14.632  0.5945  0.4990  0.2036
  892MPD2    H113130   3.634   3.664  14.312 -1.1232  0.7175 -2.3056
  892MPD2    H213131   3.336   3.894  14.494  0.3064  0.2384 -2.0808
  892MPD2    H313132   3.527   3.867  14.354  1.1327 -0.2984 -0.3825
  892MPD2     N13133   3.585   3.423  14.451 -0.0509 -0.1943 -0.0726
  892MPD2    H513134   3.662   3.423  14.384 -2.3596  1.3208 -2.7254
  892MPD2    N113135   3.241   3.708  14.663  0.2151  0.4554 -0.2879
  892MPD2    H713136   3.173   3.777  14.633 -1.4231 -1.5199 -1.1742
  893MPD2     C13137   4.448   2.047   1.495  0.9326 -0.0785 -0.4051
  893MPD2    C113138   4.471   2.086   1.365  0.6608  0.5706 -0.1279
  893MPD2    C213139   4.377   2.042   1.267  0.5714 -0.6975  0.1519
  893MPD2    C313140   4.265   1.974   1.308 -0.5513 -0.0298 -0.7211
  893MPD2    C413141   4.246   1.941   1.439 -0.1709  0.0973 -0.6191
  893MPD2    C513142   4.335   1.981   1.530 -0.1244 -0.2368 -0.5043
  893MPD2     H13143   4.377   2.065   1.161  2.4579  2.0922  0.7489
  893MPD2    H113144   4.165   1.883   1.482  0.0510 -0.4156 -0.8927
  893MPD2    H213145   4.523   2.065   1.570  1.3362  0.3071 -0.9052
  893MPD2    H313146   4.328   1.936   1.628 -2.8449 -0.0498 -0.6015
  893MPD2     N13147   4.166   1.923   1.225 -0.1409  0.4567  0.1930
  893MPD2    H513148   4.093   1.876   1.278 -0.5802  0.2934 -0.5553
  893MPD2    N113149   4.588   2.157   1.339 -0.0621 -0.2693 -0.3023
  893MPD2    H713150   4.663   2.156   1.408 -1.3240  0.1262  1.0925
  894MPD2     C13151   3.282   4.187   1.697 -0.6914  0.3079 -0.1208
  894MPD2    C113152   3.190   4.300   1.697 -0.2116 -0.2408  0.8494
  894MPD2    C213153   3.238   4.428   1.659 -0.1068 -0.2349  0.0276
  894MPD2    C313154   3.364   4.446   1.608 -0.4808 -0.2738  0.1755
  894MPD2    C413155   3.446   4.330   1.598 -0.0141  0.0603  0.7669
  894MPD2    C513156   3.408   4.209   1.644  0.1677 -0.1746 -0.5171
  894MPD2     H13157   3.179   4.519   1.661  0.4134  0.1047  0.0536
  894MPD2    H113158   3.549   4.333   1.564 -0.7565  0.8274 -1.4292
  894MPD2    H213159   3.260   4.096   1.751 -0.8691  1.4284  1.7005
  894MPD2    H313160   3.470   4.120   1.637 -1.7134 -1.4979 -0.3800
  894MPD2     N13161   3.403   4.578   1.579  0.5164 -0.6124 -0.0079
  894MPD2    H513162   3.339   4.656   1.586  2.6475  1.1220  0.3024
  894MPD2    N113163   3.050   4.295   1.740  0.0533 -0.6022  0.0364
  894MPD2    H713164   2.986   4.373   1.733  0.9317  0.3801  2.8661
  895MPD2     C13165   2.726   2.073  13.683 -0.4880  0.1980 -0.0389
  895MPD2    C113166   2.591   2.044  13.673  0.2111 -0.5481  0.1239
  895MPD2    C213167   2.546   1.920  13.700 -0.5315  0.2900 -0.5554
  895MPD2    C313168   2.634   1.813  13.727 -0.7416 -0.7934 -0.2909
  895MPD2    C413169   2.766   1.840  13.728  0.2257 -0.4206 -0.1963
  895MPD2    C513170   2.812   1.967  13.705 -0.5661 -0.1505  0.4454
  895MPD2     H13171   2.441   1.903  13.675 -1.1199  0.9857  1.4672
  895MPD2    H113172   2.833   1.763  13.763  0.2959 -0.7682 -1.1082
  895MPD2    H213173   2.769   2.171  13.666  1.7082 -0.3436  2.3776
  895MPD2    H313174   2.919   1.982  13.712 -1.0539  3.3048  0.2394
  895MPD2     N13175   2.610   1.682  13.750  0.6891  0.5633  0.4486
  895MPD2    H513176   2.675   1.626  13.803  0.3911  0.2178  0.4537
  895MPD2    N113177   2.491   2.136  13.633  0.8912  0.3380 -0.3781
  895MPD2    H713178   2.399   2.094  13.639  0.9173  0.5969  1.7588
  896MPD2     C13179   0.346   0.488   1.806 -0.2366 -0.4886 -0.0051
  896MPD2    C113180   0.315   0.417   1.697 -0.2517 -1.0643  0.3811
  896MPD2    C213181   0.182   0.396   1.660  0.1915 -0.2389  0.5802
  896MPD2    C313182   0.081   0.452   1.736  0.4351 -0.1890 -0.4249
  896MPD2    C413183   0.112   0.536   1.845  0.6004 -0.3914 -0.2798
  896MPD2    C513184   0.243   0.538   1.883  0.0244 -0.6316  0.1309
  896MPD2     H13185   0.148   0.328   1.583 -0.7044 -1.4214  2.0106
  896MPD2    H113186   0.040   0.594   1.902 -0.6106 -2.2412  0.0629
  896MPD2    H213187   0.446   0.504   1.845  0.9589 -1.7486 -2.5716
  896MPD2    H313188   0.267   0.585   1.978 -2.6802 -1.4982  1.2247
  896MPD2     N13189   4.678   0.440   1.697 -0.0552 -0.7273 -0.0532
  896MPD2    H513190   4.667   0.373   1.621  1.7959 -1.2658  0.1663
  896MPD2    N113191   0.427   0.369   1.622  0.5278  0.4733  0.1207
  896MPD2    H713192   0.520   0.389   1.657 -0.0552  1.0322  1.3523
  897MPD2     C13193   1.154   1.672  10.684 -0.5568 -0.0222 -0.3695
  897MPD2    C113194   1.022   1.693  10.637  0.2358  0.4649  0.7390
  897MPD2    C213195   0.922   1.637  10.712  0.4572  0.5495 -0.0098
  897MPD2    C313196   0.950   1.573  10.834  0.7260  0.3662 -0.3094
  897MPD2    C413197   1.077   1.544  10.870  0.0019 -0.3094 -0.4951
  897MPD2    C513198   1.175   1.583  10.790 -0.0143 -0.4810 -0.5181
  897MPD2     H13199   0.821   1.669  10.688 -0.1998 -0.9819  0.6742
  897MPD2    H113200   1.101   1.477  10.952 -1.2286 -0.9459 -0.6575
  897MPD2    H213201   1.244   1.704  10.634 -1.4788  1.8738 -0.7994
  897MPD2    H313202   1.274   1.555  10.823 -0.8668 -1.9188  0.8349
  897MPD2     N13203   0.838   1.555  10.924 -0.6144  0.3236 -0.0721
  897MPD2    H513204   0.746   1.572  10.887 -1.4660 -0.7382  1.5648
  897MPD2    N113205   0.981   1.768  10.527 -0.0425  0.0662 -0.7724
  897MPD2    H713206   0.885   1.755  10.497 -0.5661  1.6531  0.2058
  898MPD2     C13207   2.819   2.577   0.191 -0.1548  0.5739 -0.1376
  898MPD2    C113208   2.946   2.582   0.248 -0.2327 -0.0201 -0.7230
  898MPD2    C213209   3.022   2.698   0.223  0.1971  0.0057 -0.1829
  898MPD2    C313210   2.969   2.809   0.176 -0.0956  0.5481 -0.0560
  898MPD2    C413211   2.843   2.796   0.117 -0.2676 -0.1386 -0.0043
  898MPD2    C513212   2.770   2.683   0.123 -0.3187 -0.9601  0.2652
  898MPD2     H13213   3.125   2.698   0.258 -0.1969 -0.7997  0.9511
  898MPD2    H113214   2.811   2.876   0.052 -0.9171 -0.0845  0.3820
  898MPD2    H213215   2.753   2.495   0.218  0.0360  0.1795 -0.8667
  898MPD2    H313216   2.672   2.681   0.079 -0.1737  0.0802 -0.1146
  898MPD2     N13217   3.044   2.925   0.178 -0.1033 -0.3743  0.1126
  898MPD2    H513218   3.143   2.913   0.200  0.6977  1.3325 -2.5454
  898MPD2    N113219   3.011   2.473   0.317  0.0249  0.0642 -0.2780
  898MPD2    H713220   3.109   2.486   0.342  0.3768 -0.8505 -1.1640
  899MPD2     C13221   3.872   3.659   0.165  0.4287 -0.0725  0.5456
  899MPD2    C113222   3.811   3.780   0.174 -0.6256  0.0474  0.0665
  899MPD2    C213223   3.761   3.823   0.298  0.1068 -0.7086 -0.5523
  899MPD2    C313224   3.771   3.743   0.407  0.1103  0.4526  0.3601
  899MPD2    C413225   3.816   3.612   0.386  0.7537  0.0622 -0.2788
  899MPD2    C513226   3.863   3.574   0.265  0.6627 -0.0259 -0.8670
  899MPD2     H13227   3.708   3.918   0.310  0.3017 -0.6978  0.2691
  899MPD2    H113228   3.812   3.530   0.457 -0.3333 -0.6956 -1.2131
  899MPD2    H213229   3.930   3.627   0.079 -0.1387 -1.4533  0.6832
  899MPD2    H313230   3.907   3.475   0.254 -1.0992 -1.1673  2.1615
  899MPD2     N13231   3.726   3.770   0.538  0.4113  0.0439  0.4788
  899MPD2    H513232   3.732   3.691   0.601  0.0749  1.2490  2.0240
  899MPD2    N113233   3.808   3.861   0.055 -0.3758  1.1154 -0.8375
  899MPD2    H713234   3.796   3.960   0.075 -0.4375  1.1406 -0.9976
  900MPD2     C13235   3.250   0.178  12.441  0.2827  0.7254  0.6002
  900MPD2    C113236   3.167   0.095  12.369  0.2363  0.1106 -0.7094
  900MPD2    C213237   3.068   0.154  12.294  0.3732  0.1236 -0.8177
  900MPD2    C313238   3.050   0.288  12.306 -0.5267  0.2602  0.1121
  900MPD2    C413239   3.135   0.368  12.380 -0.0424  0.0272  0.4380
  900MPD2    C513240   3.238   0.316  12.445 -0.1393  0.4701 -0.4461
  900MPD2     H13241   2.994   0.096  12.240  1.3329 -1.7014 -0.1823
  900MPD2    H113242   3.124   0.475  12.395 -0.7304 -0.1655  1.3433
  900MPD2    H213243   3.337   0.142  12.494  1.3068  0.5197 -1.2227
  900MPD2    H313244   3.299   0.375  12.512  2.4001  0.9578 -3.1599
  900MPD2     N13245   2.945   0.348  12.232  0.3940 -0.6646 -0.1159
  900MPD2    H513246   2.899   0.284  12.169 -0.2118 -0.0598 -0.2905
  900MPD2    N113247   3.204   4.691  12.350 -0.2048 -0.1499 -0.3066
  900MPD2    H713248   3.282   4.653  12.403  0.9007  0.0387 -1.7937
  901MPD2     C13249   2.852   3.696  12.545 -0.3526 -0.0326 -0.0140
  901MPD2    C113250   2.979   3.726  12.585 -0.1585  0.1153  0.0785
  901MPD2    C213251   3.038   3.842  12.537 -0.2504  0.0126  0.1220
  901MPD2    C313252   2.973   3.917  12.445 -0.6095 -0.0779 -0.2835
  901MPD2    C413253   2.845   3.882  12.396 -0.2116 -0.4208  0.3375
  901MPD2    C513254   2.788   3.766  12.451 -0.4020 -0.0944  0.2105
  901MPD2     H13255   3.137   3.872  12.569 -0.5901  0.9565  0.3137
  901MPD2    H113256   2.796   3.950  12.328  1.3140  2.2870  1.9383
  901MPD2    H213257   2.797   3.612  12.585  0.5697 -0.0536  1.1768
  901MPD2    H313258   2.694   3.720  12.422  0.5106 -1.4713 -0.5839
  901MPD2     N13259   3.036   4.037  12.412  0.7663 -0.4483  0.9960
  901MPD2    H513260   3.130   4.046  12.449  0.6562  2.7883  0.4996
  901MPD2    N113261   3.048   3.639  12.678  0.4298  0.1284 -0.0443
  901MPD2    H713262   3.002   3.554  12.709 -0.0524 -0.1300 -1.4638
  902MPD2     C13263   2.533   2.457  13.121  0.5275 -0.0260  0.6676
  902MPD2    C113264   2.471   2.497  13.002  0.9086 -0.1174  0.5117
  902MPD2    C213265   2.498   2.431  12.882  0.1043  0.1262  0.2684
  902MPD2    C313266   2.582   2.319  12.886  0.1572  1.0061  0.1487
  902MPD2    C413267   2.626   2.266  13.009 -0.0253  0.5871 -0.9550
  902MPD2    C513268   2.605   2.340  13.125 -0.5292 -0.2608  0.5034
  902MPD2     H13269   2.460   2.462  12.785 -1.6214  4.1032  2.2048
  902MPD2    H113270   2.684   2.174  13.010  2.2408  2.0258  1.3437
  902MPD2    H213271   2.515   2.514  13.212  0.8313  0.7616  0.2297
  902MPD2    H313272   2.651   2.298  13.214 -0.9087 -0.9793  0.3655
  902MPD2     N13273   2.608   2.260  12.761 -0.3324 -0.3026 -0.1343
  902MPD2    H513274   2.548   2.287  12.683  0.0554 -0.3718 -0.4558
  902MPD2    N113275   2.404   2.621  13.009 -0.7721  0.6194 -0.8645
  902MPD2    H713276   2.431   2.696  13.071  0.6604 -1.3880  0.9439
  903MPD2     C13277   2.367   2.138  11.968  0.2132 -0.0658  0.6601
  903MPD2    C113278   2.355   2.192  12.092  1.0952  0.3417 -0.0486
  903MPD2    C213279   2.247   2.271  12.123  0.8161 -0.2713  0.1876
  903MPD2    C313280   2.152   2.303  12.026 -0.4975  0.0192  0.9871
  903MPD2    C413281   2.173   2.244  11.898  0.7139  0.2358 -0.0479
  903MPD2    C513282   2.279   2.165  11.868 -0.1752 -0.1424 -0.0305
  903MPD2     H13283   2.230   2.316  12.220  1.2370  1.2205 -0.4305
  903MPD2    H113284   2.109   2.271  11.816 -1.4160  1.3122  1.9596
  903MPD2    H213285   2.451   2.077  11.937  0.2866 -0.4688  1.6626
  903MPD2    H313286   2.301   2.129  11.768  1.3103 -2.0645  0.9937
  903MPD2     N13287   2.043   2.390  12.065 -0.1365 -0.3910  0.4860
  903MPD2    H513288   2.035   2.418  12.163  0.9323  1.6234 -0.0004
  903MPD2    N113289   2.450   2.164  12.184  0.8051 -0.3586 -0.1718
  903MPD2    H713290   2.516   2.090  12.162  0.4179 -1.0600  1.0036
  904MPD2     C13291   2.432   1.901  14.664  0.3717 -0.8462  0.3218
  904MPD2    C113292   2.487   1.951  14.549  0.3333 -0.0640  0.0724
  904MPD2    C213293   2.624   1.937  14.525  0.2971  0.2064  0.8560
  904MPD2    C313294   2.699   1.887  14.631 -0.0074  0.7841 -0.4660
  904MPD2    C413295   2.649   1.836  14.750 -0.3474  0.0591  1.1288
  904MPD2    C513296   2.508   1.837  14.750  0.0784  0.0626  0.1602
  904MPD2     H13297   2.678   1.975  14.439  0.6451 -1.4062  0.3628
  904MPD2    H113298   2.711   1.797  14.830  0.4697 -1.4066 -0.2260
  904MPD2    H213299   2.331   1.923  14.695  0.5719 -1.9186  1.7579
  904MPD2    H313300   2.461   1.817  14.846 -1.0093 -1.1764 -0.6244
  904MPD2     N13301   2.838   1.902  14.608  0.1872  0.1579 -0.2453
  904MPD2    H513302   2.867   1.935  14.516  0.2435 -0.0753 -0.3099
  904MPD2    N113303   2.422   2.024  14.453 -0.4500  0.5440 -1.0706
  904MPD2    H713304   2.476   2.054  14.372 -0.4378  3.8566  0.1693
  905MPD2     C13305   1.909   1.782  13.967  0.1919 -0.1365  0.0384
  905MPD2    C113306   2.030   1.828  13.924 -0.1144  0.8867  0.2927
  905MPD2    C213307   2.100   1.753  13.834  0.1044  1.0915  0.0878
  905MPD2    C313308   2.052   1.632  13.791  0.3850  0.1527  0.5285
  905MPD2    C413309   1.923   1.596  13.821  0.1934  0.4533  0.3470
  905MPD2    C513310   1.846   1.684  13.898 -0.4316 -0.4968 -0.5032
  905MPD2     H13311   2.200   1.789  13.808  0.8591 -0.9440  0.2132
  905MPD2    H113312   1.862   1.521  13.772 -0.9736 -0.0578  2.5788
  905MPD2    H213313   1.862   1.829  14.053  0.2435 -2.8647  1.5628
  905MPD2    H313314   1.743   1.660  13.922 -0.2755  2.5241  3.2785
  905MPD2     N13315   2.143   1.548  13.726  0.4940  0.2034 -0.4000
  905MPD2    H513316   2.228   1.595  13.696  0.0943  1.4610  0.4479
  905MPD2    N113317   2.080   1.939  14.003 -0.1955  0.2127  0.4199
  905MPD2    H713318   2.009   1.977  14.065  0.2341  0.4423  0.7782
  906MPD2     C13319   4.241   1.953  11.473  0.1649 -0.4166  0.4486
  906MPD2    C113320   4.198   1.892  11.354  0.6307 -0.1073 -0.4293
  906MPD2    C213321   4.115   1.779  11.352 -0.0724  0.5716  0.1749
  906MPD2    C313322   4.070   1.728  11.469 -0.1242 -0.0470 -0.0142
  906MPD2    C413323   4.101   1.793  11.584  0.2462 -0.0867  0.7317
  906MPD2    C513324   4.181   1.902  11.584  0.3606 -0.1857 -0.1646
  906MPD2     H13325   4.081   1.735  11.259 -0.1299 -0.2005  0.5621
  906MPD2    H113326   4.059   1.770  11.681 -0.0511 -0.0136  0.6221
  906MPD2    H213327   4.309   2.038  11.474 -0.9269  0.4721 -1.1554
  906MPD2    H313328   4.200   1.940  11.684 -2.1753 -0.5614  0.4588
  906MPD2     N13329   3.982   1.617  11.461  0.5543  0.4114 -0.4033
  906MPD2    H513330   3.957   1.581  11.369 -0.2373 -3.4697  1.3403
  906MPD2    N113331   4.238   1.930  11.228  0.0001  0.1613 -0.3965
  906MPD2    H713332   4.205   1.868  11.155  0.5289 -0.7090  0.1023
  907MPD2     C13333   2.808   1.389  16.091  0.4947 -0.0856  0.4426
  907MPD2    C113334   2.905   1.311  16.042 -0.3203 -0.0369 -0.5435
  907MPD2    C213335   2.996   1.266  16.135  0.0933  0.2266 -0.5374
  907MPD2    C313336   2.994   1.296  16.272 -0.4129 -0.1538  0.2812
  907MPD2    C413337   2.898   1.381  16.315  0.8011 -0.0463  0.6947
  907MPD2    C513338   2.815   1.433  16.217  0.0136  0.5818  0.1767
  907MPD2     H13339   3.053   1.181  16.099 -2.2888 -1.3517 -0.5629
  907MPD2    H113340   2.864   1.388  16.418 -4.0802 -0.7994 -0.8698
  907MPD2    H213341   2.723   1.423  16.032  0.4983  0.4566  0.7457
  907MPD2    H313342   2.741   1.498  16.263  0.5364  1.0800  0.3238
  907MPD2     N13343   3.075   1.224  16.364  0.1751  0.8420 -0.3734
  907MPD2    H513344   3.129   1.155  16.313 -1.7931 -0.7122 -0.3091
  907MPD2    N113345   2.895   1.257  15.909 -0.5479  0.8957 -0.0271
  907MPD2    H713346   2.966   1.189  15.885 -1.9019 -0.9737  1.3237
  908MPD2     C13347   0.853   1.513   9.620 -0.2703 -0.9817  0.2352
  908MPD2    C113348   0.971   1.503   9.700 -0.0161  0.0710  0.5668
  908MPD2    C213349   0.979   1.571   9.824  0.3950 -0.2627  0.0592
  908MPD2    C313350   0.876   1.648   9.869 -0.0056 -0.0235  0.9845
  908MPD2    C413351   0.766   1.661   9.788  0.2197 -0.0818  0.5082
  908MPD2    C513352   0.748   1.586   9.667  0.4631 -0.3118  0.5627
  908MPD2     H13353   1.065   1.551   9.886  0.2629  2.5050  1.1164
  908MPD2    H113354   0.678   1.721   9.808 -0.4126 -0.5778 -0.7902
  908MPD2    H213355   0.843   1.454   9.529  1.7135 -1.6869  0.4636
  908MPD2    H313356   0.653   1.581   9.615  0.2556 -1.4366  1.0701
  908MPD2     N13357   0.894   1.730   9.983  0.0982  0.1910 -0.2594
  908MPD2    H513358   0.989   1.736  10.019  0.5059  2.9924 -1.7485
  908MPD2    N113359   1.060   1.414   9.649  0.4627  0.6869  0.6928
  908MPD2    H713360   1.033   1.370   9.561  0.5545 -0.2722  1.1513
  909MPD2     C13361   1.408   4.379  11.688 -0.5325 -0.6428  0.8155
  909MPD2    C113362   1.393   4.520  11.661  0.3215 -0.0560  0.1776
  909MPD2    C213363   1.321   4.601  11.748 -0.5230  0.1283  0.4103
  909MPD2    C313364   1.255   4.544  11.858 -0.0893 -0.2043  0.4952
  909MPD2    C413365   1.281   4.413  11.891 -0.3278  0.1037 -0.4607
  909MPD2    C513366   1.345   4.334  11.804  0.5091  0.6167  0.0467
  909MPD2     H13367   1.315   4.708  11.733  0.3444  0.2444  0.8912
  909MPD2    H113368   1.227   4.360  11.969 -0.6700  0.6036 -0.3611
  909MPD2    H213369   1.465   4.309  11.628 -0.4280 -0.2104  0.4070
  909MPD2    H313370   1.345   4.229  11.830  0.7322  0.8414  0.9725
  909MPD2     N13371   1.172   4.636  11.929  0.2848  0.5080 -0.3592
  909MPD2    H513372   1.159   4.732  11.899  0.1046  0.4721 -0.3976
  909MPD2    N113373   1.442   4.575  11.541  0.3064  0.2243 -0.0186
  909MPD2    H713374   1.424   4.673  11.525  2.1291  0.5360 -0.1995
  910MPD2     C13375   2.666   2.118  16.583 -0.0809  0.0011  0.0948
  910MPD2    C113376   2.649   2.009  16.496 -0.1765  0.4482 -0.3087
  910MPD2    C213377   2.588   2.036  16.371  0.5503 -0.0883  0.0613
  910MPD2    C313378   2.550   2.164  16.343  0.0437 -0.2817  1.1795
  910MPD2    C413379   2.558   2.266  16.441  0.6265  0.7269  0.0201
  910MPD2    C513380   2.612   2.243  16.559  0.1977  0.8469  0.5394
  910MPD2     H13381   2.583   1.956  16.298  0.0143 -0.1391  0.1538
  910MPD2    H113382   2.537   2.366  16.405 -2.4919 -0.8806 -2.6436
  910MPD2    H213383   2.728   2.113  16.672  0.6951 -0.0999 -0.4449
  910MPD2    H313384   2.617   2.325  16.629 -1.5544  2.3142 -1.0559
  910MPD2     N13385   2.481   2.198  16.225 -0.0610 -0.3030  0.0085
  910MPD2    H513386   2.452   2.295  16.228  0.1756 -0.2631  0.8917
  910MPD2    N113387   2.695   1.884  16.528 -0.0251 -0.1622 -0.1144
  910MPD2    H713388   2.684   1.813  16.457 -1.3412 -1.0335  0.9648
  911MPD2     C13389   0.722   2.432  16.164  0.1424  0.3113  0.3521
  911MPD2    C113390   0.729   2.484  16.295 -0.1199  1.1803 -0.2197
  911MPD2    C213391   0.639   2.582  16.331  1.1505  0.1402  0.9961
  911MPD2    C313392   0.522   2.604  16.256  0.0696  0.2123  0.4762
  911MPD2    C413393   0.508   2.545  16.129  0.1002 -0.9109  0.0375
  911MPD2    C513394   0.608   2.466  16.091 -0.1504 -0.5092 -0.0911
  911MPD2     H13395   0.646   2.639  16.422  0.1093  2.1230 -0.1719
  911MPD2    H113396   0.426   2.574  16.065  0.2163 -0.2552  0.1918
  911MPD2    H213397   0.795   2.363  16.124  0.7382  0.1344  1.7356
  911MPD2    H313398   0.603   2.423  15.991 -0.1965 -0.1168 -0.2571
  911MPD2     N13399   0.419   2.690  16.292  0.0375 -0.2605  0.0285
  911MPD2    H513400   0.340   2.672  16.231 -1.7999  1.7890  1.8475
  911MPD2    N113401   0.826   2.436  16.376  0.0713 -0.0703 -0.5798
  911MPD2    H713402   0.889   2.366  16.336 -0.6688 -2.0378  1.7026
  912MPD2     C13403   0.176   2.617  15.852 -0.0863 -0.6836  0.1754
  912MPD2    C113404   0.160   2.585  15.983  0.3572  0.4271  0.6817
  912MPD2    C213405   0.189   2.459  16.026  0.6781  0.2537  0.2641
  912MPD2    C313406   0.254   2.371  15.951  0.0701 -0.7058 -0.2319
  912MPD2    C413407   0.286   2.402  15.819 -0.9670 -0.5687 -0.8725
  912MPD2    C513408   0.234   2.524  15.771 -0.5362 -0.4976 -0.2308
  912MPD2     H13409   0.168   2.435  16.130 -0.3037  2.0971  0.4988
  912MPD2    H113410   0.361   2.346  15.764 -0.2764  0.7097 -1.2185
  912MPD2    H213411   0.141   2.713  15.815  3.5779  1.0163  1.1740
  912MPD2    H313412   0.257   2.547  15.667 -0.7135 -0.1912 -0.2005
  912MPD2     N13413   0.296   2.253  16.010 -0.4146  0.0447 -0.0184
  912MPD2    H513414   0.283   2.241  16.110 -1.1790  2.2880  0.1363
  912MPD2    N113415   0.114   2.691  16.065  0.1385  0.1151 -0.1262
  912MPD2    H713416   0.106   2.784  16.023 -0.9901 -0.2316 -0.6799
  913MPD2     C13417   0.621   3.070  11.258  0.2167 -0.5302 -0.0723
  913MPD2    C113418   0.710   3.176  11.231 -0.8658 -0.0829 -0.0450
  913MPD2    C213419   0.705   3.235  11.108 -0.2439  0.0362 -0.5043
  913MPD2    C313420   0.622   3.178  11.008  1.1432 -0.4724 -0.6743
  913MPD2    C413421   0.539   3.069  11.034  0.2442 -0.8847  0.2453
  913MPD2    C513422   0.538   3.015  11.163  0.1916 -0.3669  0.5105
  913MPD2     H13423   0.764   3.325  11.098  1.6269 -1.2065 -0.6605
  913MPD2    H113424   0.469   3.036  10.958  0.0870  0.1557 -0.0640
  913MPD2    H213425   0.634   3.019  11.352  5.2118 -2.2657 -1.6930
  913MPD2    H313426   0.479   2.926  11.179 -0.8760  0.6146  2.0121
  913MPD2     N13427   0.609   3.240  10.884 -0.2283 -0.5643 -0.4135
  913MPD2    H513428   0.577   3.190  10.802  1.3491 -0.0952 -1.3257
  913MPD2    N113429   0.797   3.215  11.328 -0.5905 -0.2513  0.3468
  913MPD2    H713430   0.793   3.158  11.411  2.0220  1.2755  1.5412
  914MPD2     C13431   3.102   3.158  12.138 -0.3355  0.2959 -0.0687
  914MPD2    C113432   3.038   3.267  12.193  0.1439  0.4275  0.0971
  914MPD2    C213433   3.068   3.302  12.322 -0.1272 -0.1013 -0.5608
  914MPD2    C313434   3.160   3.233  12.395 -0.4216  0.1612 -0.0492
  914MPD2    C413435   3.227   3.123  12.339  0.3791  1.1365  0.2283
  914MPD2    C513436   3.192   3.085  12.214 -0.0003  0.1585  0.3636
  914MPD2     H13437   3.022   3.387  12.372 -0.7202  0.2312 -1.6908
  914MPD2    H113438   3.314   3.076  12.383 -0.6767  0.5193  1.6424
  914MPD2    H213439   3.083   3.136  12.034 -2.1170 -0.9643  0.5047
  914MPD2    H313440   3.233   3.002  12.158 -2.1926 -1.9722  1.9474
  914MPD2     N13441   3.184   3.277  12.524  0.0940 -0.0546  0.0613
  914MPD2    H513442   3.136   3.363  12.547  1.0859 -0.4447  3.5877
  914MPD2    N113443   2.944   3.338  12.106 -0.3271  0.6842  0.1161
  914MPD2    H713444   2.930   3.295  12.015  2.0133 -0.6960  0.4238
  915MPD2     C13445   1.831   3.771  15.808  0.6841  0.2714  0.6982
  915MPD2    C113446   1.694   3.773  15.775  0.2129 -0.7378  0.5904
  915MPD2    C213447   1.598   3.839  15.852 -0.0995  0.3638  0.5744
  915MPD2    C313448   1.629   3.917  15.961 -0.3403  0.4466 -0.3610
  915MPD2    C413449   1.765   3.917  15.988  0.3145 -0.3907 -0.5478
  915MPD2    C513450   1.866   3.858  15.915 -0.3631 -0.3948  0.0463
  915MPD2     H13451   1.492   3.844  15.831 -0.2408 -1.3036  0.8576
  915MPD2    H113452   1.808   3.972  16.072  2.9250 -1.8631 -0.9081
  915MPD2    H213453   1.901   3.716  15.747 -0.8238  0.2926 -1.0778
  915MPD2    H313454   1.968   3.868  15.951 -0.9303  1.8754  1.0356
  915MPD2     N13455   1.532   3.984  16.043 -0.0437  0.6248 -0.0363
  915MPD2    H513456   1.435   3.980  16.012 -0.1625  0.4870  0.3620
  915MPD2    N113457   1.663   3.699  15.662  0.2638  0.1634  0.0655
  915MPD2    H713458   1.736   3.678  15.595  0.9985 -0.4362  1.0553
  916MPD2     C13459   4.566   2.253  16.010 -0.0979 -0.7238 -0.5955
  916MPD2    C113460   4.510   2.133  16.061 -0.1021  0.1139 -0.2356
  916MPD2    C213461   4.559   2.012  16.008 -0.4711  0.1961  0.1920
  916MPD2    C313462   4.654   2.016  15.903 -0.2102 -0.0069  0.0626
  916MPD2    C413463   4.710   2.133  15.864  0.6257  0.5896  0.5115
  916MPD2    C513464   4.667   2.251  15.920 -0.4745 -0.7336 -0.2753
  916MPD2     H13465   4.532   1.922  16.062  0.9173  0.3547  1.1351
  916MPD2    H113466   0.060   2.136  15.794  0.2954  0.5293  0.1191
  916MPD2    H213467   4.532   2.351  16.043 -0.1537 -0.6439 -0.8961
  916MPD2    H313468   4.713   2.342  15.885  1.4302 -1.7589 -0.4197
  916MPD2     N13469   4.690   1.892  15.848 -0.5463 -0.3307 -0.2020
  916MPD2    H513470   4.642   1.810  15.883  0.5094 -1.5107 -1.4953
  916MPD2    N113471   4.395   2.146  16.148  0.7066 -0.0152 -0.3867
  916MPD2    H713472   4.369   2.242  16.169 -1.7252 -0.2065 -2.5079
  917MPD2     C13473   4.636   3.998  11.373 -0.5929 -0.6514 -0.4075
  917MPD2    C113474   4.543   4.097  11.398  0.4711  0.6955 -0.2802
  917MPD2    C213475   4.566   4.223  11.349  0.1967  0.1835  0.0135
  917MPD2    C313476   4.686   4.258  11.295  0.3800 -0.1127  0.1330
  917MPD2    C413477   0.048   4.161  11.271 -0.5462  0.5714  0.0622
  917MPD2    C513478   0.020   4.030  11.319  0.0873  0.6142 -0.2769
  917MPD2     H13479   4.495   4.304  11.364 -0.8665 -0.6933 -0.3405
  917MPD2    H113480   0.137   4.183  11.214 -0.1648 -0.2584  0.3321
  917MPD2    H213481   4.625   3.898  11.414  1.6268 -0.7440 -0.0597
  917MPD2    H313482   0.094   3.954  11.299 -1.9732 -0.9674 -1.9070
  917MPD2     N13483   4.710   4.397  11.264 -0.1795 -0.3700  0.3378
  917MPD2    H513484   4.629   4.458  11.269 -0.0575  0.0915 -3.0453
  917MPD2    N113485   4.439   4.063  11.484 -0.8366 -0.7227  0.4838
  917MPD2    H713486   4.436   3.964  11.502  1.1345 -0.8455  0.1678
  918MPD2     C13487   4.418   4.489  12.312  0.3207  0.0491  0.2575
  918MPD2    C113488   4.489   4.475  12.196  0.0359 -0.0674 -0.1013
  918MPD2    C213489   4.448   4.390  12.097 -0.2192 -0.2372  0.3279
  918MPD2    C313490   4.348   4.295  12.127  0.0700  0.2808 -0.0101
  918MPD2    C413491   4.280   4.307  12.250 -0.4885  0.1953 -0.3583
  918MPD2    C513492   4.316   4.405  12.339  0.2970  0.2512 -0.6311
  918MPD2     H13493   4.499   4.379  12.002 -0.5509  0.4395  0.0695
  918MPD2    H113494   4.198   4.240  12.274 -1.0970  1.6377  1.5981
  918MPD2    H213495   4.439   4.564  12.387  0.9516  1.5189 -1.3945
  918MPD2    H313496   4.251   4.425  12.424  0.7390 -1.6232  0.1415
  918MPD2     N13497   4.312   4.214  12.017  0.0614 -0.4480 -0.6596
  918MPD2    H513498   4.374   4.214  11.937  0.6744 -1.3138 -0.1952
  918MPD2    N113499   4.605   4.552  12.189 -0.4305  0.1776  0.0492
  918MPD2    H713500   4.628   4.596  12.277 -0.1803  1.8807 -0.8584
  919MPD2     C13501   4.558   3.128  11.413 -0.5042  0.1138  0.0132
  919MPD2    C113502   4.662   3.039  11.412 -0.8600 -0.1647 -0.0216
  919MPD2    C213503   0.005   3.024  11.299  1.2124  0.4716  0.1102
  919MPD2    C313504   4.716   3.099  11.187  0.9831 -0.1486  0.3068
  919MPD2    C413505   4.614   3.193  11.188 -0.2720  0.1436 -0.1383
  919MPD2    C513506   4.537   3.208  11.304 -1.1046  0.1147  0.2668
  919MPD2     H13507   0.087   2.953  11.304 -2.1414 -3.5700 -1.4726
  919MPD2    H113508   4.591   3.258  11.104 -2.9802  0.4932  0.8474
  919MPD2    H213509   4.487   3.140  11.494  2.4484 -0.1278  2.6455
  919MPD2    H313510   4.446   3.266  11.291  0.3422  1.9906 -1.5562
  919MPD2     N13511   0.050   3.082  11.060 -0.4957  0.5210  0.2235
  919MPD2    H513512   0.025   3.150  10.989  1.1533  0.0717 -0.7849
  919MPD2    N113513   4.696   2.970  11.529  0.1994 -0.1057  0.2676
  919MPD2    H713514   0.044   2.911  11.517 -1.4833 -2.2107 -0.7445
  920MPD2     C13515   4.563   3.407  10.256 -0.6307  0.0345 -0.1674
  920MPD2    C113516   4.600   3.281  10.226  0.2427  0.3647  0.1044
  920MPD2    C213517   4.676   3.213  10.314  0.2656  0.2271 -0.2003
  920MPD2    C313518   4.724   3.271  10.432 -0.5805 -0.3019  0.1598
  920MPD2    C413519   4.676   3.394  10.466 -0.0912  0.4048  0.6810
  920MPD2    C513520   4.604   3.464  10.375  0.7616  0.0450  0.1193
  920MPD2     H13521   4.693   3.107  10.296 -0.5433 -0.0757  0.8015
  920MPD2    H113522   4.680   3.443  10.563  1.4883  0.6211  0.5040
  920MPD2    H213523   4.496   3.466  10.194 -0.5036  0.8362  0.4569
  920MPD2    H313524   4.572   3.561  10.409  1.4312  0.2452  0.1779
  920MPD2     N13525   0.073   3.188  10.514 -0.2733  0.1621  0.1482
  920MPD2    H513526   0.077   3.089  10.492 -0.5967 -0.0535  1.0249
  920MPD2    N113527   4.549   3.208  10.113 -0.2678  0.6169  0.3820
  920MPD2    H713528   4.579   3.112  10.100 -1.1188  0.6024 -1.5147
  921MPD2     C13529   1.455   2.824  17.101 -0.4320  0.2904 -0.0070
  921MPD2    C113530   1.456   2.837  16.963 -0.0755 -0.3882  0.6565
  921MPD2    C213531   1.367   2.773  16.882  0.5219  0.3512  0.2446
  921MPD2    C313532   1.284   2.682  16.940 -0.0096 -0.0101 -0.0085
  921MPD2    C413533   1.291   2.660  17.072 -0.2225  0.4061 -0.3013
  921MPD2    C513534   1.373   2.734  17.161 -0.2904 -0.4483  0.4647
  921MPD2     H13535   1.377   2.793  16.776  0.2149 -1.1981 -0.0777
  921MPD2    H113536   1.214   2.592  17.105  0.3136 -0.7404 -1.4173
  921MPD2    H213537   1.528   2.873  17.164 -0.6008 -2.2570  2.1669
  921MPD2    H313538   1.371   2.713  17.267 -0.4657  1.5658  0.8657
  921MPD2     N13539   1.201   2.603  16.856 -0.2533  0.2921  0.2989
  921MPD2    H513540   1.131   2.547  16.905  0.8923 -0.2044  1.3578
  921MPD2    N113541   1.567   2.911  16.907  0.0823  0.3838 -0.0279
  921MPD2    H713542   1.646   2.938  16.964 -0.6498  0.7312  0.8142
  922MPD2     C13543   2.302   0.074  17.195 -0.0283  0.2857  0.5950
  922MPD2    C113544   2.268   0.147  17.307  0.7292 -0.0318  0.4547
  922MPD2    C213545   2.137   0.159  17.340 -0.2209 -0.4571 -0.2657
  922MPD2    C313546   2.046   0.100  17.257 -0.3390 -0.1744  0.5896
  922MPD2    C413547   2.080   0.040  17.139 -0.7743 -0.4409  0.0525
  922MPD2    C513548   2.208   0.027  17.105  0.0340  0.2653  0.2187
  922MPD2     H13549   2.106   0.212  17.429 -0.4656 -0.2123 -0.4945
  922MPD2    H113550   2.008   4.721  17.077  0.6761 -0.8893 -1.2709
  922MPD2    H213551   2.407   0.068  17.167 -0.8350 -0.4634 -2.3712
  922MPD2    H313552   2.241   4.714  17.014  0.5374 -0.4222  0.7530
  922MPD2     N13553   1.914   0.119  17.304  0.7542 -0.6819  0.0205
  922MPD2    H513554   1.898   0.154  17.399 -2.6649  0.7701 -1.0874
  922MPD2    N113555   2.361   0.206  17.392  0.4003 -0.5974  0.3973
  922MPD2    H713556   2.333   0.285  17.450  1.6553 -1.5019  2.2538
  923MPD2     C13557   3.285   2.399   9.051 -0.1038 -0.0779 -0.2869
  923MPD2    C113558   3.306   2.490   9.159 -0.2069 -0.4854  0.7553
  923MPD2    C213559   3.362   2.442   9.283 -0.1343  0.9967 -0.0251
  923MPD2    C313560   3.401   2.307   9.291  0.5190 -0.2789  0.1158
  923MPD2    C413561   3.387   2.222   9.180  0.1658 -0.0047 -0.2905
  923MPD2    C513562   3.334   2.269   9.065  0.5277  0.6007 -0.1304
  923MPD2     H13563   3.378   2.507   9.368  0.5952  0.5768  0.1636
  923MPD2    H113564   3.412   2.117   9.189  2.0746  0.9640  5.6946
  923MPD2    H213565   3.256   2.427   8.950  1.1285  2.0311 -0.0594
  923MPD2    H313566   3.317   2.204   8.981  1.2529  0.9489 -0.5406
  923MPD2     N13567   3.438   2.244   9.411  0.2539  0.2692  0.2856
  923MPD2    H513568   3.493   2.159   9.400  0.6109  0.5502 -0.0942
  923MPD2    N113569   3.274   2.625   9.131 -0.2500  0.2952 -0.8282
  923MPD2    H713570   3.243   2.655   9.039  0.6357  0.9952 -0.9055
  924MPD2     C13571   3.116   0.376  16.798 -0.3852  0.5768 -0.1430
  924MPD2    C113572   3.052   0.435  16.688 -0.9060 -0.0230 -0.3376
  924MPD2    C213573   3.111   0.549  16.632  0.5281  0.3206 -0.5130
  924MPD2    C313574   3.228   0.601  16.672 -0.5182  0.5264  0.0429
  924MPD2    C413575   3.298   0.533  16.769  0.9231  0.7038  0.7130
  924MPD2    C513576   3.238   0.427  16.827 -0.6217  0.1455  0.4240
  924MPD2     H13577   3.051   0.602  16.559  2.2062  1.5722 -0.9997
  924MPD2    H113578   3.396   0.567  16.801  0.9167  0.6180  0.8260
  924MPD2    H213579   3.077   0.287  16.847 -0.5917  0.4600 -0.5175
  924MPD2    H313580   3.290   0.386  16.913  0.9446  2.1207  0.4258
  924MPD2     N13581   3.287   0.722  16.628  0.1848 -0.1104 -0.2505
  924MPD2    H513582   3.382   0.735  16.662  0.5444 -0.6455 -1.0443
  924MPD2    N113583   2.925   0.388  16.648 -0.3216 -0.2703  0.0468
  924MPD2    H713584   2.890   0.311  16.704 -0.1075 -0.5735 -0.2344
  925MPD2     C13585   1.982   3.290  14.508 -0.3769 -0.1074 -0.1851
  925MPD2    C113586   2.118   3.260  14.516  0.2189 -0.3339  1.1789
  925MPD2    C213587   2.170   3.254  14.645  0.0635 -0.1430 -0.2952
  925MPD2    C313588   2.092   3.274  14.756  0.4125  0.1107 -0.0681
  925MPD2    C413589   1.954   3.308  14.748  0.6317  0.0628  0.5293
  925MPD2    C513590   1.910   3.324  14.623  0.2367  0.0051  0.1596
  925MPD2     H13591   2.275   3.230  14.653  0.4703  0.9574 -2.1870
  925MPD2    H113592   1.883   3.326  14.827  0.5812 -0.4702  0.6014
  925MPD2    H213593   1.929   3.303  14.414  0.3741 -1.0141 -0.7335
  925MPD2    H313594   1.809   3.358  14.608  0.8654  1.4573 -0.8391
  925MPD2     N13595   2.131   3.249  14.888  0.6307  0.8099 -0.2902
  925MPD2    H513596   2.067   3.272  14.962  0.5197 -1.4029  0.3190
  925MPD2    N113597   2.207   3.219  14.405 -0.1510  0.6557 -0.2998
  925MPD2    H713598   2.302   3.193  14.427 -0.4508 -0.0605  0.1277
  926MPD2     C13599   1.207   1.329  13.477 -0.7455 -0.6310 -0.0291
  926MPD2    C113600   1.122   1.435  13.460  0.1114 -0.3192 -0.3205
  926MPD2    C213601   1.143   1.522  13.352 -0.5582 -0.1770  0.0612
  926MPD2    C313602   1.251   1.504  13.267 -0.1248  0.2528 -0.6879
  926MPD2    C413603   1.337   1.402  13.288  0.2415  0.8670  0.0741
  926MPD2    C513604   1.317   1.318  13.394  0.3396 -0.3460  0.7363
  926MPD2     H13605   1.085   1.613  13.348 -0.1725  0.0522 -0.3395
  926MPD2    H113606   1.423   1.391  13.223  0.6020 -0.6547  0.8127
  926MPD2    H213607   1.189   1.254  13.554 -0.0906 -1.6406 -0.8488
  926MPD2    H313608   1.386   1.237  13.415 -1.9706 -1.8375  2.5424
  926MPD2     N13609   1.278   1.604  13.165 -0.4153 -0.4688  0.3578
  926MPD2    H513610   1.369   1.605  13.120 -1.3649  1.7345 -1.4724
  926MPD2    N113611   1.009   1.466  13.539 -0.1949  0.2867  0.1053
  926MPD2    H713612   0.965   1.556  13.522  0.1932  0.7336  1.5068
  927MPD2     C13613   0.529   4.097   0.502  0.3775  0.0915  0.3797
  927MPD2    C113614   0.580   3.972   0.545 -0.7322 -0.1432  0.3672
  927MPD2    C213615   0.714   3.938   0.515  0.1303 -0.5227 -0.0183
  927MPD2    C313616   0.795   4.015   0.434  0.1518  0.0767 -0.4682
  927MPD2    C413617   0.741   4.131   0.377 -0.8918  0.4823  0.0812
  927MPD2    C513618   0.613   4.170   0.419 -0.5188 -0.0409 -0.9320
  927MPD2     H13619   0.757   3.855   0.569 -0.3216 -0.1346  0.9431
  927MPD2    H113620   0.797   4.199   0.313 -1.4207 -0.1946 -1.1083
  927MPD2    H213621   0.430   4.140   0.514 -0.1783 -0.4487 -2.2823
  927MPD2    H313622   0.576   4.266   0.386  1.3219  0.5292 -1.3346
  927MPD2     N13623   0.920   3.958   0.397 -0.4492 -0.3337  0.4323
  927MPD2    H513624   0.945   3.873   0.446  0.5694 -0.7825 -0.8806
  927MPD2    N113625   0.498   3.892   0.626  0.4369 -0.1624  0.0736
  927MPD2    H713626   0.413   3.934   0.661 -0.2741 -0.8632 -0.7832
  928MPD2     C13627   3.275   1.829   0.698  1.0630  0.1159  0.6219
  928MPD2    C113628   3.350   1.885   0.800 -0.8145  0.3231  0.1533
  928MPD2    C213629   3.458   1.957   0.759  0.1152 -0.1174 -0.5572
  928MPD2    C313630   3.487   1.984   0.626 -0.4153  0.5970 -0.9629
  928MPD2    C413631   3.411   1.930   0.528  0.6880 -0.0706 -0.0077
  928MPD2    C513632   3.309   1.841   0.559 -0.1838  0.0168  0.3136
  928MPD2     H13633   3.517   2.016   0.828 -1.8223 -1.4787  2.2844
  928MPD2    H113634   3.430   1.955   0.424 -0.8687 -2.4392 -0.8543
  928MPD2    H213635   3.196   1.761   0.729  0.4475  0.4238 -0.2763
  928MPD2    H313636   3.251   1.794   0.481  0.2967  0.8738 -0.5567
  928MPD2     N13637   3.585   2.077   0.575  0.1880  0.8530 -0.8805
  928MPD2    H513638   3.579   2.107   0.479 -2.9195  0.0647 -0.9174
  928MPD2    N113639   3.316   1.857   0.937  0.3241  0.0595  0.0073
  928MPD2    H713640   3.239   1.792   0.951  0.3237 -0.4927 -2.5397
  929MPD2     C13641   3.090   2.099   9.313  0.1727 -0.4482 -0.4159
  929MPD2    C113642   3.043   2.130   9.433 -0.4804  0.3228 -1.1491
  929MPD2    C213643   2.937   2.217   9.452  0.0148 -0.1672 -0.2630
  929MPD2    C313644   2.876   2.260   9.340 -0.4829  0.2192  0.4470
  929MPD2    C413645   2.928   2.226   9.215  0.1526  0.0892 -0.3489
  929MPD2    C513646   3.034   2.145   9.202  0.1913  0.1431 -0.0922
  929MPD2     H13647   2.899   2.237   9.551 -0.9460  0.2038 -0.7119
  929MPD2    H113648   2.870   2.253   9.127  0.9130 -2.0141 -1.4969
  929MPD2    H213649   3.177   2.036   9.302  0.7169 -0.2009  2.4231
  929MPD2    H313650   3.065   2.105   9.106 -0.4949  2.3116 -1.2224
  929MPD2     N13651   2.758   2.332   9.339  0.2140 -0.0696  1.3297
  929MPD2    H513652   2.705   2.342   9.253  1.7384 -2.4355  0.1108
  929MPD2    N113653   3.106   2.072   9.546  0.1186  0.1389 -0.0995
  929MPD2    H713654   3.081   2.108   9.638 -0.8080  1.0387 -0.7016
  930MPD2     C13655   0.266   4.556  13.952 -1.1540 -0.7933  0.9685
  930MPD2    C113656   0.397   4.527  13.894 -1.0768 -0.1853 -0.7875
  930MPD2    C213657   0.398   4.427  13.799  0.1226  0.2242  0.0189
  930MPD2    C313658   0.289   4.351  13.760  0.3725  0.3497  0.9429
  930MPD2    C413659   0.167   4.384  13.819  0.3799  0.0239  0.5808
  930MPD2    C513660   0.158   4.484  13.918 -0.2031  0.3997 -0.2915
  930MPD2     H13661   0.494   4.408  13.754  0.1161 -0.6887  0.3758
  930MPD2    H113662   0.072   4.338  13.794  0.5822 -0.5247  0.8290
  930MPD2    H213663   0.256   4.640  14.021  0.7575  0.9014 -0.8081
  930MPD2    H313664   0.068   4.525  13.963 -0.7760  0.2865 -1.3177
  930MPD2     N13665   0.285   4.250  13.662  0.1642 -0.4405 -0.0939
  930MPD2    H513666   0.215   4.178  13.672  1.3370 -1.3848  1.2891
  930MPD2    N113667   0.514   4.610  13.917 -0.0889  0.5521 -0.1859
  930MPD2    H713668   0.506   4.678  13.992  0.0302  1.8007 -1.3025
  931MPD2     C13669   0.659   3.201   0.816 -1.0871 -0.4935 -0.3359
  931MPD2    C113670   0.557   3.231   0.904 -0.1192  0.0159 -0.4576
  931MPD2    C213671   0.520   3.141   1.005  0.5108  0.4168  0.3634
  931MPD2    C313672   0.596   3.020   1.009  0.4393 -0.2639  0.3090
  931MPD2    C413673   0.702   3.006   0.927 -0.5000  0.4164 -0.2107
  931MPD2    C513674   0.732   3.088   0.827  0.9356 -0.2804  0.0524
  931MPD2     H13675   0.427   3.158   1.057  0.7193 -0.8530  1.1430
  931MPD2    H113676   0.764   2.920   0.950 -2.8405 -1.3724 -0.5531
  931MPD2    H213677   0.692   3.275   0.744  1.0476 -0.0218  1.1338
  931MPD2    H313678   0.824   3.067   0.774  2.0633 -1.0734  2.3322
  931MPD2     N13679   0.574   2.923   1.107  0.2920  0.3980 -0.5963
  931MPD2    H513680   0.640   2.847   1.102 -0.6108 -0.5334  1.7928
  931MPD2    N113681   0.493   3.357   0.876  1.1545 -0.0575 -0.4429
  931MPD2    H713682   0.535   3.414   0.803  0.2807  0.8162 -0.2581
  932MPD2     C13683   2.498   2.268  11.232 -0.2630 -0.1737  0.3568
  932MPD2    C113684   2.493   2.257  11.374  0.2841  0.3336 -0.4143
  932MPD2    C213685   2.553   2.152  11.430 -0.0774 -0.7023 -1.1119
  932MPD2    C313686   2.600   2.045  11.350 -0.2201 -0.0050 -0.0545
  932MPD2    C413687   2.605   2.066  11.213 -0.0800  0.0153  0.0136
  932MPD2    C513688   2.559   2.177  11.157  0.1380  0.4152 -1.0010
  932MPD2     H13689   2.543   2.136  11.537  0.6065 -0.5306 -1.0209
  932MPD2    H113690   2.642   1.988  11.146  1.9162  1.0440 -0.1090
  932MPD2    H213691   2.445   2.347  11.180 -0.2115 -1.0319 -0.9811
  932MPD2    H313692   2.564   2.197  11.051 -4.8488  0.7546 -1.2018
  932MPD2     N13693   2.641   1.925  11.412  0.2114 -0.0320  0.1933
  932MPD2    H513694   2.633   1.922  11.513  1.1793 -1.4926  0.2240
  932MPD2    N113695   2.429   2.360  11.447 -0.7430  0.5072  0.2538
  932MPD2    H713696   2.379   2.430  11.392  0.1506  1.5927  0.8051
  933MPD2     C13697   2.749   2.087   1.486  0.0998 -0.3543 -0.3476
  933MPD2    C113698   2.847   2.134   1.399  0.1300  0.6927 -0.5829
  933MPD2    C213699   2.827   2.247   1.325 -0.0426 -0.6781 -0.3978
  933MPD2    C313700   2.706   2.316   1.328 -0.0219 -0.4154 -0.0951
  933MPD2    C413701   2.603   2.267   1.405  0.1520 -0.2539  0.6003
  933MPD2    C513702   2.630   2.158   1.490 -0.1181 -0.5122 -0.1144
  933MPD2     H13703   2.902   2.280   1.254 -0.3430 -0.3729 -0.5690
  933MPD2    H113704   2.503   2.309   1.405  0.5146  0.5821 -1.2447
  933MPD2    H213705   2.758   1.999   1.548 -0.1964  0.2628  0.5800
  933MPD2    H313706   2.548   2.113   1.546 -0.7684  2.4745  1.3375
  933MPD2     N13707   2.694   2.417   1.231  0.0808  0.0007 -0.4937
  933MPD2    H513708   2.772   2.460   1.181  0.2785  2.2802  1.7606
  933MPD2    N113709   2.959   2.049   1.380 -0.1757  0.1379 -0.4971
  933MPD2    H713710   2.979   1.974   1.445 -1.2394 -1.4922 -2.0684
  934MPD2     C13711   0.145   0.537   2.355  0.4455  0.1929 -0.1407
  934MPD2    C113712   0.216   0.450   2.266 -0.8440 -0.0136 -0.4373
  934MPD2    C213713   0.145   0.370   2.182  0.0992  0.5625  0.0705
  934MPD2    C313714   0.007   0.353   2.188  0.3928  0.4873 -0.2114
  934MPD2    C413715   4.678   0.429   2.284  1.2835 -0.6988 -0.6833
  934MPD2    C513716   0.014   0.521   2.368  0.1661  0.4189  0.0646
  934MPD2     H13717   0.205   0.297   2.129 -1.0439 -1.3792  1.4585
  934MPD2    H113718   4.571   0.417   2.297  1.7053 -1.4521  2.0838
  934MPD2    H213719   0.182   0.611   2.425 -1.1822  0.3353  0.5582
  934MPD2    H313720   4.684   0.574   2.440 -0.0439 -1.5855  1.3555
  934MPD2     N13721   4.665   0.266   2.116 -1.2410  0.4449 -0.3733
  934MPD2    H513722   4.574   0.249   2.158 -3.1821  4.4418 -2.9933
  934MPD2    N113723   0.356   0.450   2.258  0.0256 -0.4202  0.6283
  934MPD2    H713724   0.410   0.399   2.190 -2.7246 -1.4455 -0.7965
  935MPD2     C13725   0.150   4.181   1.530  1.0926  0.1070 -0.1928
  935MPD2    C113726   0.013   4.193   1.522 -0.3219  0.0250  0.0779
  935MPD2    C213727   4.689   4.298   1.593  0.5395  0.3681 -0.3589
  935MPD2    C313728   0.024   4.392   1.670  0.4328  0.3199 -0.2574
  935MPD2    C413729   0.159   4.382   1.673 -0.0810  0.4364 -0.2694
  935MPD2    C513730   0.219   4.280   1.603  0.6284 -0.1567 -0.7354
  935MPD2     H13731   4.582   4.310   1.576  0.3567  1.0889  1.2151
  935MPD2    H113732   0.221   4.455   1.723 -1.3354  1.6892 -0.5252
  935MPD2    H213733   0.212   4.108   1.480 -0.6988 -0.3554 -1.7265
  935MPD2    H313734   0.327   4.271   1.609  0.6755  0.0477 -1.3705
  935MPD2     N13735   4.695   4.496   1.736  0.1889 -0.1670 -0.2607
  935MPD2    H513736   0.027   4.553   1.788 -1.2140  0.7115  0.5358
  935MPD2    N113737   4.668   4.099   1.452 -0.3630 -0.4454 -0.2100
  935MPD2    H713738   4.573   4.132   1.442  0.3709  2.7151  3.1933
  936MPD2     C13739   2.640   1.503  12.669  0.5807 -0.4740  0.4849
  936MPD2    C113740   2.703   1.429  12.766 -0.2754  0.1066  0.5070
  936MPD2    C213741   2.783   1.499  12.855  0.4683  0.2752  0.5770
  936MPD2    C313742   2.788   1.635  12.865 -0.9839 -0.1987  0.8167
  936MPD2    C413743   2.715   1.707  12.771 -0.3061 -0.5848 -0.0998
  936MPD2    C513744   2.647   1.639  12.667 -0.2515 -0.3213  0.6580
  936MPD2     H13745   2.832   1.438  12.930 -0.0184 -0.0180  0.6568
  936MPD2    H113746   2.731   1.813  12.758  0.6552 -0.9195 -1.6567
  936MPD2    H213747   2.596   1.462  12.578 -1.5184 -1.4213  1.9293
  936MPD2    H313748   2.617   1.692  12.577 -0.9619 -0.3510  0.8773
  936MPD2     N13749   2.874   1.702  12.954  0.1512  0.5456  0.5069
  936MPD2    H513750   2.877   1.802  12.937  0.4455  0.3992 -0.2812
  936MPD2    N113751   2.699   1.287  12.772  0.1374  0.6909  0.4259
  936MPD2    H713752   2.773   1.256  12.835 -0.1347  0.1179  0.4662
  937MPD2     C13753   0.296   2.354  11.585 -0.6788  0.3731  0.4305
  937MPD2    C113754   0.301   2.491  11.591  0.3139 -0.3156 -0.2430
  937MPD2    C213755   0.381   2.557  11.495  0.2394  0.3555 -0.4311
  937MPD2    C313756   0.477   2.483  11.420  0.3828 -0.9131 -0.1259
  937MPD2    C413757   0.485   2.344  11.434  0.3978 -0.3637  0.9166
  937MPD2    C513758   0.381   2.283  11.512  0.3160  0.6442 -0.4835
  937MPD2     H13759   0.366   2.663  11.480 -2.0575  0.1212  0.1729
  937MPD2    H113760   0.564   2.287  11.388  0.5367  0.8834 -0.4040
  937MPD2    H213761   0.219   2.301  11.638 -0.3026 -0.0983  0.5044
  937MPD2    H313762   0.385   2.175  11.524  0.4076  0.7461  0.3695
  937MPD2     N13763   0.574   2.550  11.333  0.2264  0.0925 -0.0685
  937MPD2    H513764   0.588   2.649  11.348 -0.7905  0.1704  0.4150
  937MPD2    N113765   0.189   2.572  11.638 -0.2731  0.1347 -0.5957
  937MPD2    H713766   0.209   2.672  11.640 -0.8634  0.2737 -2.4102
  938MPD2     C13767   3.155   4.496   1.269 -0.2019 -0.1670 -0.1558
  938MPD2    C113768   3.276   4.449   1.222 -0.3871  0.3232  0.1638
  938MPD2    C213769   3.311   4.313   1.246 -0.3224  0.1001 -0.8240
  938MPD2    C313770   3.228   4.231   1.319  0.4191 -0.1902  0.7003
  938MPD2    C413771   3.118   4.292   1.383  0.8004 -0.1576 -0.6881
  938MPD2    C513772   3.089   4.419   1.357 -0.1226  0.8784  0.0774
  938MPD2     H13773   3.396   4.271   1.192  0.4263 -0.9803  1.2070
  938MPD2    H113774   3.056   4.231   1.447  3.1084  1.4623  3.1163
  938MPD2    H213775   3.125   4.600   1.266 -1.8595 -0.6818 -1.1480
  938MPD2    H313776   3.008   4.464   1.413 -1.5403 -2.0677  0.4385
  938MPD2     N13777   3.266   4.100   1.341  0.0521  0.7019 -0.1242
  938MPD2    H513778   3.208   4.051   1.408 -1.8518  0.1690 -2.1510
  938MPD2    N113779   3.357   4.526   1.134  0.1596 -0.0002 -0.5670
  938MPD2    H713780   3.433   4.484   1.081  1.1509  1.8670 -0.6201
  939MPD2     C13781   0.308   0.106   1.088  0.5565  1.0614  0.6632
  939MPD2    C113782   0.227   0.215   1.054  0.6611  0.0590  0.2463
  939MPD2    C213783   0.171   0.218   0.925  0.2341 -0.1127 -0.6068
  939MPD2    C313784   0.184   0.108   0.838 -0.8340  0.1761 -0.3325
  939MPD2    C413785   0.253   4.728   0.880 -0.4762 -0.3677  0.4521
  939MPD2    C513786   0.321   4.730   1.001 -0.0617 -0.1919 -0.3361
  939MPD2     H13787   0.125   0.308   0.885  0.9501  0.4529 -0.1779
  939MPD2    H113788   0.272   4.637   0.824 -0.4192 -0.5079  0.7004
  939MPD2    H213789   0.362   0.101   1.182  0.1010 -1.6316  0.7956
  939MPD2    H313790   0.369   4.641   1.040 -0.6362 -0.8048 -1.0240
  939MPD2     N13791   0.131   0.118   0.706 -0.0477  0.4330  0.0247
  939MPD2    H513792   0.078   0.200   0.678 -1.5862  0.6341  3.5633
  939MPD2    N113793   0.205   0.330   1.138 -0.7913  0.3434 -0.3231
  939MPD2    H713794   0.241   0.328   1.233  0.0425 -1.6271 -0.6618
  940MPD2     C13795   3.706   1.218  13.311 -0.0923  0.0846 -0.6781
  940MPD2    C113796   3.660   1.097  13.263  0.4031 -0.2504 -0.4644
  940MPD2    C213797   3.685   1.062  13.134  0.0061 -0.7530  0.5598
  940MPD2    C313798   3.771   1.147  13.058  1.0456 -0.3490  0.0115
  940MPD2    C413799   3.829   1.253  13.119 -0.1982  0.0508 -0.8777
  940MPD2    C513800   3.792   1.299  13.246 -0.0521 -0.7697 -0.2531
  940MPD2     H13801   3.646   0.969  13.096 -0.7257 -1.2352  2.5030
  940MPD2    H113802   3.899   1.315  13.063  1.6747 -0.1519  1.2412
  940MPD2    H213803   3.684   1.242  13.414  1.0282 -0.4922 -0.3023
  940MPD2    H313804   3.834   1.387  13.293  1.4276 -2.2963  1.2506
  940MPD2     N13805   3.806   1.120  12.925 -0.3579  0.0686  0.4039
  940MPD2    H513806   3.879   1.168  12.873 -0.1801  0.7558  1.2917
  940MPD2    N113807   3.578   1.006  13.339  0.3457 -0.4189  0.3954
  940MPD2    H713808   3.554   0.920  13.291  2.4033 -1.0123  0.4205
  941MPD2     C13809   2.991   0.267  10.563 -0.4586 -0.8454  0.2586
  941MPD2    C113810   2.974   0.301  10.433 -0.2920 -0.5750 -0.2001
  941MPD2    C213811   2.849   0.298  10.375 -0.0662 -0.7625 -0.0367
  941MPD2    C313812   2.740   0.270  10.449  0.2308  0.0364 -0.1977
  941MPD2    C413813   2.757   0.220  10.577 -0.1510 -0.4954  0.4192
  941MPD2    C513814   2.882   0.222  10.632  0.2137  0.8763 -0.5173
  941MPD2     H13815   2.834   0.342  10.277 -0.5091 -1.1130 -0.1276
  941MPD2    H113816   2.672   0.177  10.629 -1.5958 -0.7756 -2.1588
  941MPD2    H213817   3.085   0.261  10.616 -0.2493  2.0489  0.1938
  941MPD2    H313818   2.897   0.181  10.731  1.4272 -0.1528 -1.1358
  941MPD2     N13819   2.612   0.256  10.389  0.1937 -0.8577  0.8716
  941MPD2    H513820   2.540   0.204  10.438 -0.3972  2.0779  3.1018
  941MPD2    N113821   3.079   0.349  10.352  0.1475 -0.2865  0.0669
  941MPD2    H713822   3.052   0.372  10.257  2.3799  0.7403 -0.3188
  942MPD2     C13823   0.318   1.172   8.878 -0.0816  0.0688 -0.1044
  942MPD2    C113824   0.356   1.040   8.903  0.2460 -0.3630 -0.3539
  942MPD2    C213825   0.259   0.942   8.946  0.4121 -0.4526 -0.0766
  942MPD2    C313826   0.133   0.988   8.981 -0.6353 -0.0125  0.0309
  942MPD2    C413827   0.099   1.120   8.953 -0.2271  0.5429  0.1429
  942MPD2    C513828   0.188   1.211   8.901  0.0927 -0.1134 -0.6512
  942MPD2     H13829   0.279   0.835   8.949  2.0650 -0.1565 -0.1724
  942MPD2    H113830   4.731   1.158   8.960 -0.3407  0.7499 -2.6899
  942MPD2    H213831   0.393   1.240   8.840 -0.3415  0.8432  0.7556
  942MPD2    H313832   0.163   1.313   8.876 -1.6404  0.4084  3.2896
  942MPD2     N13833   0.034   0.902   9.030 -0.2036  0.2792 -0.3122
  942MPD2    H513834   4.676   0.946   9.039  0.5910  2.0328 -0.8518
  942MPD2    N113835   0.491   0.997   8.883  0.5536  0.8007  0.7602
  942MPD2    H713836   0.508   0.900   8.908  1.9652  0.3876 -1.8027
  943MPD2     C13837   1.214   0.214  10.066  0.0333 -0.1191 -0.1512
  943MPD2    C113838   1.152   0.135  10.169 -0.2451 -1.1830  0.3962
  943MPD2    C213839   1.141   0.181  10.300 -0.6894 -0.1824 -0.8887
  943MPD2    C313840   1.186   0.308  10.334 -0.1982  0.0290 -1.1031
  943MPD2    C413841   1.242   0.386  10.236  0.3710 -0.3762 -0.2406
  943MPD2    C513842   1.252   0.337  10.105 -0.1269 -0.0623 -0.1145
  943MPD2     H13843   1.103   0.113  10.375  2.3724  0.8743  1.6321
  943MPD2    H113844   1.302   0.474  10.257 -0.6026 -0.0921  1.4528
  943MPD2    H213845   1.221   0.183   9.963 -0.7568  2.0437 -0.8540
  943MPD2    H313846   1.286   0.403  10.026  0.4473  0.1788  0.3299
  943MPD2     N13847   1.195   0.359  10.466 -0.0468  0.8751  1.1250
  943MPD2    H513848   1.252   0.442  10.475 -0.1289  0.8866  1.5623
  943MPD2    N113849   1.093   0.009  10.129 -0.1007  0.1477  0.1281
  943MPD2    H713850   1.086   4.727  10.029 -0.9270  1.1905  0.0156
  944MPD2     C13851   1.289   0.055  10.917 -0.2065 -0.4207 -0.0455
  944MPD2    C113852   1.279   4.648  10.920  0.2795 -0.1637  0.2031
  944MPD2    C213853   1.244   4.586  11.038  0.2571 -0.6501 -0.1287
  944MPD2    C313854   1.218   4.661  11.149  0.0763 -0.7783 -0.2484
  944MPD2    C413855   1.228   0.063  11.148 -0.2199  0.1287 -0.0270
  944MPD2    C513856   1.255   0.128  11.037 -0.0034  0.3759  0.8085
  944MPD2     H13857   1.229   4.480  11.050  1.6333 -0.9078 -0.6319
  944MPD2    H113858   1.199   0.120  11.236  0.9760 -1.2219  1.2303
  944MPD2    H213859   1.306   0.114  10.828  0.0519  0.0896  0.3412
  944MPD2    H313860   1.260   0.235  11.048  0.0109  0.2402  2.1567
  944MPD2     N13861   1.173   4.590  11.260 -1.1422  0.3822  0.5764
  944MPD2    H513862   1.163   4.489  11.251 -2.5425  0.5294  0.4901
  944MPD2    N113863   1.307   4.584  10.799 -0.2329  0.3268  0.2764
  944MPD2    H713864   1.331   4.637  10.716  3.2331 -2.0288 -0.2655
    1TMC1    C113865   4.590   0.355  15.017  0.2326  0.4202 -0.4897
    1TMC1    C213866   4.515   0.273  14.942 -0.0756 -0.4788  0.1998
    1TMC1    C313867   4.567   0.149  14.914  0.2243  0.5036 -0.3493
    1TMC1    C413868   4.716   0.319  15.059  0.3260  0.2837 -0.0142
    1TMC1    C513869   0.035   0.206  15.010 -0.6254 -0.3237 -0.2369
    1TMC1    C613870   4.699   0.121  14.932 -0.1060 -0.0181 -0.4172
    1TMC1     C13871   4.537   0.474  15.084 -0.3361 -0.0507  0.3260
    1TMC1     O13872   4.603   0.511  15.179  0.1978 -0.7227 -0.5309
    1TMC1     H13873   4.411   0.291  14.917 -0.4046  0.4543  2.2680
    1TMC1    H113874   0.040   0.380  15.127 -0.8286  2.1284 -0.7066
    1TMC1    H213875   0.005   0.022  14.912 -0.6672  0.1823 -2.5164
    1TMC1    C713876   0.175   0.171  15.039  0.4151 -0.3671  0.5078
    1TMC1    C813877   4.488   0.042  14.851  0.1593  0.2898 -0.5952
    1TMC1    O113878   0.207   0.146  15.155  0.2536  0.3117 -0.0304
    1TMC1    O213879   4.496   4.658  14.888  0.3804 -0.3150  0.3467
    1TMC1    O313880   0.234   0.129  14.922 -0.1358 -0.0198  0.3358
    1TMC1    H313881   0.185   0.175  14.850  1.7672  1.0026 -0.2936
    1TMC1    O513882   4.396   0.091  14.769  0.8069 -0.0291  0.0509
    1TMC1    H513883   4.428   0.180  14.744  0.6938  0.3077  1.0806
    2MPD2     C13884   4.267   0.896  15.089  0.5870 -0.5977 -0.3957
    2MPD2    C113885   4.229   0.829  14.973 -0.2451  0.0424  0.3792
    2MPD2    C213886   4.288   0.706  14.948  0.0386  0.3907 -1.0542
    2MPD2    C313887   4.376   0.653  15.044  0.2258  0.4546  0.0903
    2MPD2    C413888   4.397   0.718  15.163 -0.2593  0.4665 -0.3943
    2MPD2    C513889   4.337   0.843  15.184  0.0946  0.6143  0.3259
    2MPD2     H13890   4.269   0.646  14.860  0.6223  2.9459 -2.9202
    2MPD2    H113891   4.455   0.674  15.243  0.4144  2.5727  0.2988
    2MPD2    H213892   4.214   0.985  15.121 -0.2843 -0.8735 -1.0765
    2MPD2    H313893   4.351   0.898  15.277 -0.2909  0.9465  0.1865
    2MPD2     N13894   4.435   0.532  15.015  0.2226 -0.1723 -0.2499
    2MPD2    H513895   4.399   0.491  14.930 -1.6151  1.8495 -0.4643
    2MPD2    N113896   4.138   0.903  14.893  0.3781 -0.2677  0.4579
    2MPD2    H713897   4.114   0.999  14.916 -0.1920 -0.9609  2.7278
    3TMC2    C113898   4.067   0.966  14.672  0.4288 -0.8593  0.4367
    3TMC2    C213899   4.040   1.092  14.719 -0.4988 -0.3052 -0.7113
    3TMC2    C313900   4.073   1.201  14.644  0.8443 -0.2495  0.6790
    3TMC2    C413901   4.120   0.944  14.550 -0.4146  0.2027  0.4368
    3TMC2    C513902   4.149   1.055  14.476  0.3722 -0.0819 -0.7290
    3TMC2    C613903   4.124   1.184  14.520 -1.0012  0.0700 -0.4362
    3TMC2     C13904   4.096   0.858  14.770  0.7050  0.1009  0.0025
    3TMC2     O13905   4.111   0.744  14.726  0.2689  0.4226 -0.4756
    3TMC2     H13906   4.007   1.100  14.822 -2.1859  0.8375 -1.3410
    3TMC2    H113907   4.148   0.845  14.515  1.5855  0.8383  0.2155
    3TMC2    H213908   4.165   1.279  14.485 -2.4285  0.6024 -0.6564
    3TMC2    C713909   4.224   1.034  14.353 -0.0562  0.0432  0.3954
    3TMC2    C813910   4.046   1.333  14.688 -0.0399 -0.2774  0.1015
    3TMC2    O113911   4.235   0.917  14.316  0.1824 -0.3047 -0.1563
    3TMC2    O213912   3.945   1.391  14.646  0.2966  0.1146  0.3001
    3TMC2    O513913   4.124   1.373  14.789  0.0698 -0.4240 -0.4532
    3TMC2    H513914   4.190   1.305  14.811  0.6176 -0.6555 -2.8150
    4TMC2    C113915   4.513   1.867  13.914  0.4405  0.1694 -0.8235
    4TMC2    C213916   4.623   1.853  13.831  0.2657 -0.1963  0.2682
    4TMC2    C313917   4.710   1.751  13.843  0.0634  0.7445  0.0698
    4TMC2    C413918   4.480   1.763  13.997  0.3398 -0.6378  0.4255
    4TMC2    C513919   4.573   1.665  14.010  0.0167 -0.8422  1.1347
    4TMC2    C613920   4.689   1.651  13.934 -0.0842 -0.0629 -0.2013
    4TMC2     C13921   4.406   1.965  13.874  0.1577 -0.2974  0.6310
    4TMC2     O13922   4.446   2.074  13.840  0.1757 -0.0260 -0.3265
    4TMC2     H13923   4.656   1.941  13.777 -1.0930 -0.7986 -1.5809
    4TMC2    H113924   4.383   1.761  14.046  0.1388  1.0310  0.1143
    4TMC2    H213925   0.032   1.575  13.951 -1.2253 -1.2244 -0.3440
    4TMC2    C713926   4.535   1.557  14.097 -0.1078  0.1606  0.4013
    4TMC2    C813927   0.093   1.754  13.758  0.4432 -0.0732  0.0517
    4TMC2    O113928   4.451   1.582  14.181 -0.2695  0.4167 -0.0558
    4TMC2    O213929   0.128   1.863  13.719 -0.2928 -0.2203 -0.1732
    4TMC2    O513930   0.159   1.639  13.746  0.0504 -0.0777  0.4863
    4TMC2    H513931   0.097   1.564  13.748 -1.8331  1.4510 -0.8724
    5MPD2     C13932   3.953   2.072  13.657 -0.1438  1.1120  0.0347
    5MPD2    C113933   3.955   1.938  13.688  0.3904  0.1299 -0.2149
    5MPD2    C213934   4.071   1.886  13.751  0.1134  0.4228 -0.0485
    5MPD2    C313935   4.172   1.972  13.793 -0.2524 -0.0266 -0.2985
    5MPD2    C413936   4.172   2.106  13.759  0.7157  0.1997  0.5828
    5MPD2    C513937   4.060   2.150  13.693 -0.6803 -0.2959 -0.1989
    5MPD2     H13938   4.073   1.781  13.780 -1.5741 -0.4201 -2.9392
    5MPD2    H113939   4.254   2.172  13.783 -1.1387  1.7508  2.6817
    5MPD2    H213940   3.876   2.116  13.594  0.3053  0.8126 -0.7169
    5MPD2    H313941   4.054   2.253  13.661  2.0234  0.3710  1.4472
    5MPD2     N13942   4.278   1.910  13.862 -0.1416  0.6560 -0.3575
    5MPD2    H513943   4.266   1.812  13.883 -3.5234  1.0365 -0.4886
    5MPD2    N113944   3.845   1.858  13.638  0.3863  0.1820  0.2589
    5MPD2    H713945   3.790   1.910  13.570  0.6540  0.6694  0.4206
    6MPD1     C13946   1.982   1.960  13.403 -0.2309 -0.3571 -0.5085
    6MPD1    C113947   2.069   2.053  13.350  0.0109  0.5270 -0.0906
    6MPD1    C213948   2.206   2.029  13.344  0.0140  0.2603  0.4854
    6MPD1    C313949   2.258   1.916  13.401 -0.4133 -0.3853  0.1961
    6MPD1    C413950   2.170   1.823  13.465  0.7051 -0.2670  0.1462
    6MPD1    C513951   2.036   1.854  13.466  0.1445  0.0505 -0.9055
    6MPD1     H13952   2.260   2.111  13.299  0.7076  0.2010  1.2075
    6MPD1    H113953   2.185   1.728  13.513 -0.0520 -0.4470  0.0264
    6MPD1    H213954   1.874   1.970  13.405 -0.0373  1.6664 -0.3674
    6MPD1    H313955   1.968   1.776  13.500  0.8219 -0.9697 -1.8746
    6MPD1     N13956   2.395   1.879  13.396  0.0396 -0.2177 -0.2231
    6MPD1    H513957   2.411   1.803  13.461  0.2228 -1.3845 -1.6216
    6MPD1    N113958   2.023   2.174  13.289  0.3350  0.4397 -0.1039
    6MPD1    H613959   2.093   2.248  13.279  1.3588 -0.3140  1.3848
    6MPD1    H713960   1.948   2.221  13.340  2.3448  3.1681  0.3104
    7MPD2     C13961   2.989   1.352  13.424  0.0032 -0.4312  0.2775
    7MPD2    C113962   3.028   1.469  13.480 -0.1975  0.4438  0.4609
    7MPD2    C213963   3.153   1.466  13.545 -0.1431  0.6508 -0.4203
    7MPD2    C313964   3.238   1.354  13.537 -0.0815 -0.2123 -0.1002
    7MPD2    C413965   3.196   1.241  13.476  0.0763  1.0410  0.0414
    7MPD2    C513966   3.070   1.246  13.427  0.1022 -0.1674  0.1033
    7MPD2     H13967   3.202   1.559  13.573  0.1954 -0.4622  2.6951
    7MPD2    H113968   3.256   1.151  13.468  0.6835  1.3772  0.8311
    7MPD2    H213969   2.893   1.334  13.376  0.3358  0.1945 -0.6099
    7MPD2    H313970   3.030   1.154  13.385  0.9648 -0.5674  0.1415
    7MPD2     N13971   3.376   1.357  13.576  0.1990 -0.4779 -0.5212
    7MPD2    H513972   3.428   1.276  13.543 -2.2540 -1.4212 -2.0643
    7MPD2    N113973   2.956   1.582  13.464  0.1758  0.2839  0.0245
    7MPD2    H713974   2.995   1.669  13.499  0.2119 -0.9893  3.1415
    8TMC3    C113975   3.564   1.492  13.563  0.4463  0.6020 -0.3369
    8TMC3    C213976   3.647   1.567  13.643  0.0064  0.2622 -0.8968
    8TMC3    C313977   3.703   1.678  13.592 -0.2030  0.9250 -0.1866
    8TMC3    C413978   3.549   1.524  13.432  0.0279 -0.7125 -0.2259
    8TMC3    C513979   3.604   1.639  13.386 -0.4544 -1.0668 -0.7092
    8TMC3    C613980   3.692   1.711  13.462 -0.2748 -0.2643 -0.5152
    8TMC3     C13981   3.435   1.467  13.634 -0.3337  0.3687 -0.1337
    8TMC3     O13982   3.391   1.557  13.707  0.5626  0.0840  0.2619
    8TMC3     H13983   3.653   1.541  13.748 -0.0330 -0.6062 -1.1103
    8TMC3    H113984   3.474   1.467  13.377 -1.9149 -0.7766  2.5140
    8TMC3    H213985   3.750   1.794  13.424 -1.0786  0.2123 -0.7045
    8TMC3    C713986   3.495   1.722  13.346  0.0544  0.0409 -0.2805
    8TMC3    C813987   3.813   1.726  13.666  1.0259 -0.4821 -0.1418
    8TMC3    O113988   3.384   1.680  13.380  0.2014  0.3932 -0.5840
    8TMC3    O213989   3.859   1.657  13.756  0.6718  0.3595  0.6582
    9TMC3    C113990   2.633   1.896  13.371  0.3430  0.1344  0.0559
    9TMC3    C213991   2.731   1.996  13.370  0.0986 -0.3638  0.7015
    9TMC3    C313992   2.859   1.952  13.367  0.4180  0.1022 -0.4734
    9TMC3    C413993   2.660   1.767  13.385 -0.1187 -0.0880 -0.2784
    9TMC3    C513994   2.791   1.737  13.388 -0.1503  0.1028 -0.0568
    9TMC3    C613995   2.889   1.823  13.369  0.0288 -0.5803 -0.3923
    9TMC3     C13996   2.500   1.947  13.341 -0.2727  0.6963 -0.4998
    9TMC3     O13997   2.497   2.060  13.289 -0.2670 -0.0476  0.2213
    9TMC3     H13998   2.708   2.102  13.364 -2.6534 -1.1191 -2.4693
    9TMC3    H113999   2.585   1.689  13.392  0.5614 -0.7520 -0.3689
    9TMC3    H214000   2.983   1.784  13.332 -0.0571  0.1033 -1.3294
    9TMC3    C714001   2.826   1.597  13.419 -0.2991 -0.3722 -0.3196
    9TMC3    C814002   2.967   2.042  13.319 -0.2993 -0.4312  0.2645
    9TMC3    O114003   2.740   1.511  13.409  0.4140 -0.3325  0.5329
    9TMC3    O214004   2.934   2.139  13.253  0.0985  0.2375  0.8700
   10MPD2     C14005   3.444   1.992  13.118 -0.9359 -0.0882  0.4444
   10MPD2    C114006   3.437   1.914  13.229  0.2933 -0.6817  0.9282
   10MPD2    C214007   3.316   1.927  13.298  0.2087 -0.4263  0.4248
   10MPD2    C314008   3.215   2.006  13.259  0.1096  0.4277  0.1452
   10MPD2    C414009   3.226   2.096  13.155 -0.3384 -0.5224  0.3248
   10MPD2    C514010   3.339   2.083  13.083  0.7195  0.6745 -0.4971
   10MPD2     H14011   3.295   1.875  13.391  1.5429 -0.5998  0.6260
   10MPD2    H114012   3.143   2.155  13.120  0.5151 -0.6727 -1.9678
   10MPD2    H214013   3.534   1.985  13.058 -0.0507  2.5591  1.4651
   10MPD2    H314014   3.354   2.133  12.988  0.0832  1.6712 -0.0717
   10MPD2     N14015   3.091   1.984  13.329 -0.2459 -0.0158  0.0576
   10MPD2    H514016   3.096   1.910  13.398  0.3797  1.3763  1.5085
   10MPD2    N114017   3.537   1.826  13.269  0.2828 -0.1848 -0.5270
   10MPD2    H714018   3.630   1.828  13.229  0.1026 -1.8028 -1.0161
   11MPD2     C14019   4.458   1.053  14.154 -0.4542 -0.1096  0.7254
   11MPD2    C114020   4.400   1.160  14.217 -0.3784  0.0636 -0.2487
   11MPD2    C214021   4.442   1.291  14.184 -0.0560 -0.6155  0.5832
   11MPD2    C314022   4.544   1.313  14.096  0.4702  0.5107 -0.6236
   11MPD2    C414023   4.602   1.204  14.032  0.3706 -0.8607  0.1054
   11MPD2    C514024   4.555   1.073  14.056  0.0283  0.3692 -0.4021
   11MPD2     H14025   4.405   1.384  14.227  2.4185  1.6041 -2.0984
   11MPD2    H114026   4.676   1.217  13.954  1.6752  0.6032  1.5691
   11MPD2    H214027   4.432   0.952  14.183  0.3420  0.4946  3.5064
   11MPD2    H314028   4.602   0.990  14.006 -1.6031  0.0422 -1.3899
   11MPD2     N14029   4.588   1.440  14.059 -0.9547  0.3422  0.3151
   11MPD2    H514030   4.651   1.434  13.980  0.6827  3.3467  1.4073
   11MPD2    N114031   4.294   1.146  14.307  0.2100  0.0338 -0.1846
   11MPD2    H714032   4.269   1.230  14.359 -1.4039  0.4446 -1.5917
    1MPD1     C14033   2.582   2.815  16.402  0.2811 -0.2099 -0.1074
    1MPD1    C114034   2.463   2.889  16.394 -0.5993  0.1312 -0.2444
    1MPD1    C214035   2.420   2.959  16.505  0.1348 -0.1464  0.5168
    1MPD1    C314036   2.501   2.959  16.618 -0.1888 -0.4795 -0.2549
    1MPD1    C414037   2.612   2.886  16.629  0.1032  0.6785  0.4809
    1MPD1    C514038   2.656   2.813  16.521 -0.4345  0.8599  0.7375
    1MPD1     H14039   2.324   3.008  16.493 -0.2231 -0.9717  0.0074
    1MPD1    H114040   2.671   2.885  16.720 -1.7800 -0.2787  1.6792
    1MPD1    H214041   2.618   2.748  16.325  0.4847 -1.5341  1.1244
    1MPD1    H314042   2.750   2.759  16.529 -0.8543  0.0178 -0.0567
    1MPD1     N14043   2.464   3.028  16.733  0.0581 -0.8075 -0.0509
    1MPD1    H514044   2.523   3.028  16.816 -0.0703  1.8912  0.0234
    1MPD1    N114045   2.388   2.882  16.276 -0.3825  0.3896  0.0573
    1MPD1    H614046   2.442   2.890  16.190 -1.9165 -1.7037 -1.1230
    1MPD1    H714047   2.329   2.965  16.277 -3.1794 -1.5673 -0.3396
    2MPD1     C14048   1.552   3.250  17.082 -0.0896  0.3172  0.3728
    2MPD1    C114049   1.605   3.281  16.956  0.0288  0.3804  0.1441
    2MPD1    C214050   1.743   3.281  16.942 -0.9227  0.1387  0.7437
    2MPD1    C314051   1.829   3.258  17.050 -0.0820  0.0447  0.0484
    2MPD1    C414052   1.776   3.223  17.175  0.3516  0.4531  0.3212
    2MPD1    C514053   1.638   3.226  17.189 -0.7414  0.1487  0.8836
    2MPD1     H14054   1.782   3.293  16.841 -1.7263  0.1036  0.4235
    2MPD1    H114055   1.827   3.194  17.266 -0.9821  0.4958  1.0838
    2MPD1    H214056   1.447   3.231  17.098  0.3646 -0.6510  2.2495
    2MPD1    H314057   1.597   3.216  17.289 -0.2297 -2.0094  0.8804
    2MPD1     N14058   1.966   3.257  17.018  0.1218  0.1897  0.4861
    2MPD1    H514059   1.988   3.285  16.923  2.4310 -0.4642  0.8382
    2MPD1    N114060   1.520   3.289  16.847 -0.4936 -0.7847 -0.0621
    2MPD1    H614061   1.567   3.333  16.768  0.1876 -1.3807  0.0059
    2MPD1    H714062   1.432   3.337  16.866  0.0139 -0.3476  1.1625
    3TMC3    C114063   2.195   3.235  17.052  0.2857 -0.7293  0.9826
    3TMC3    C214064   2.304   3.239  17.137  0.5929  0.9767  0.6567
    3TMC3    C314065   2.428   3.208  17.081 -0.1429 -0.1397  0.3892
    3TMC3    C414066   2.208   3.171  16.930 -0.2462 -0.7325  0.2012
    3TMC3    C514067   2.336   3.160  16.876  0.2160  0.0691  0.1357
    3TMC3    C614068   2.447   3.184  16.952 -0.2191  0.1441 -0.2126
    3TMC3     C14069   2.064   3.233  17.114 -0.5483  0.8627 -0.1229
    3TMC3     O14070   2.059   3.211  17.239 -0.1031 -0.3414 -0.0885
    3TMC3     H14071   2.312   3.296  17.229 -1.1379  2.9256 -0.4124
    3TMC3    H114072   2.126   3.148  16.864  0.5909  3.1201 -2.1426
    3TMC3    H214073   2.546   3.187  16.908  0.4813 -1.6057  1.2386
    3TMC3    C714074   2.348   3.101  16.746 -0.3702  0.3822 -0.4678
    3TMC3    C814075   2.535   3.230  17.171  0.5988 -0.0891  0.5271
    3TMC3    O114076   2.243   3.106  16.680 -0.2856  0.2447  0.0737
    3TMC3    O214077   2.516   3.223  17.293 -0.0044  0.1293  0.2329
    4MPD1     C14078   3.000   3.425  17.296  0.0828  0.3469  0.2240
    4MPD1    C114079   2.982   3.445  17.163 -0.5003  0.1181 -0.0023
    4MPD1    C214080   2.853   3.412  17.113 -0.5989 -0.2457  0.8725
    4MPD1    C314081   2.763   3.332  17.180  0.7767 -0.4378  0.1311
    4MPD1    C414082   2.800   3.295  17.307 -0.2142 -0.0791  0.0649
    4MPD1    C514083   2.912   3.346  17.367 -0.9337  0.1074  0.2670
    4MPD1     H14084   2.837   3.437  17.009  0.8539  3.0012  1.3999
    4MPD1    H114085   2.738   3.230  17.368  1.6924 -1.9998 -0.0532
    4MPD1    H214086   3.096   3.443  17.343  0.6962 -1.2081 -0.4385
    4MPD1    H314087   2.918   3.315  17.471 -1.5314  0.0769  0.2956
    4MPD1     N14088   2.642   3.298  17.111 -0.2259 -0.1899  0.8384
    4MPD1    H514089   2.623   3.333  17.018  1.1921 -1.3450  0.1251
    4MPD1    N114090   3.068   3.519  17.084 -0.3441  0.7666 -0.1118
    4MPD1    H614091   3.161   3.508  17.125 -0.6174 -1.4090 -0.0713
    4MPD1    H714092   3.074   3.489  16.986 -1.5174 -0.4369  0.1787
    1TCq1    O114093   2.923   2.378  12.392 -0.4162 -0.1336 -0.0912
    1TCq1    C114094   2.821   2.466  12.362 -0.0727  0.3013 -0.5425
    1TCq1    O214095   2.760   2.535  12.445 -0.1495  0.0899  0.5816
    1TCq1    C214096   2.778   2.431  12.226 -0.1694  0.2065 -0.5341
    1TCq1    C314097   2.792   2.304  12.177 -0.2512  1.2465  0.6898
    1TCq1    C414098   2.760   2.290  12.043  0.4249  0.0811  0.3678
    1TCq1    C514099   2.699   2.386  11.970 -0.0769 -0.1785 -0.0135
    1TCq1    C614100   2.677   2.508  12.029 -0.6625  0.5923  0.2519
    1TCq1    C714101   2.718   2.530  12.154 -0.5345  0.5612 -0.6984
    1TCq1    C814102   2.647   2.628  11.951  0.0050  0.1251  0.5644
    1TCq1    O414103   2.613   2.727  12.015  0.2331 -0.2073  0.0055
    1TCq1    C914104   2.751   2.157  11.987  0.4900  0.2062  0.8136
    1TCq1    O514105   2.765   2.052  12.056 -0.2518 -0.3251  0.2953
    1TCq1    O614106   2.755   2.158  11.861  0.1105  0.0585 -0.3598
    1TCq1    H114107   2.972   2.349  12.312  1.5867 -2.7423  2.0436
    1TCq1    H214108   2.841   2.218  12.221  1.3574  3.0621  2.4449
    1TCq1    H314109   2.652   2.360  11.876  0.7010 -1.8254  0.0586
    1TCq1    H414110   2.720   2.628  12.199  0.2202  0.3498 -0.2792
    2MPD1     C14111   2.464   2.838  11.522  0.3857  0.3755  0.9834
    2MPD1    C114112   2.554   2.742  11.485 -0.3758  0.1744 -0.1282
    2MPD1    C214113   2.600   2.660  11.587 -0.5096  0.0955 -0.3924
    2MPD1    C314114   2.581   2.688  11.724 -0.5470  0.1772 -0.1501
    2MPD1    C414115   2.499   2.799  11.758 -0.3604  0.5355 -0.3906
    2MPD1    C514116   2.437   2.862  11.655  0.1327  0.3364 -0.0396
    2MPD1     H14117   2.670   2.581  11.565 -1.8967 -0.8277 -1.5006
    2MPD1    H114118   2.469   2.832  11.857 -0.0929 -4.0650  1.2381
    2MPD1    H214119   2.413   2.904  11.452  1.0307 -0.3732 -0.1924
    2MPD1    H314120   2.375   2.950  11.674 -0.0260  0.1914  0.1089
    2MPD1     N14121   2.644   2.603  11.814 -0.4779 -0.3480  0.2817
    2MPD1    H514122   2.686   2.519  11.774 -2.0326 -0.1453 -1.7987
    2MPD1    N114123   2.578   2.706  11.352 -0.2870 -0.4734  0.0376
    2MPD1    H614124   2.551   2.765  11.273 -0.7645 -0.8223 -0.0587
    2MPD1    H714125   2.672   2.673  11.331 -0.2878 -0.5653  0.1762
    1TMC1    C114126   2.156   2.918  17.340 -0.2061 -0.2962  0.4995
    1TMC1    C214127   2.050   2.870  17.262  0.3401  0.4879  0.6642
    1TMC1    C314128   1.926   2.904  17.303  0.2328 -0.0185 -0.6160
    1TMC1    C414129   2.133   2.980  17.456 -0.4436  0.3172  0.7135
    1TMC1    C514130   2.008   3.002  17.492 -0.3195 -0.0340 -0.0657
    1TMC1    C614131   1.900   2.965  17.420  0.9097  0.4137 -0.6934
    1TMC1     C14132   2.288   2.880  17.293 -1.2288  0.5546  0.0994
    1TMC1     O14133   2.298   2.817  17.190  0.1351 -0.2386 -0.1078
    1TMC1     H14134   2.065   2.798  17.183 -0.5066 -1.9586  2.7399
    1TMC1    H114135   2.213   3.019  17.518 -0.2542  1.1543 -0.0430
    1TMC1    H214136   1.798   2.994  17.445  1.4000  2.1839 -0.7691
    1TMC1    C714137   1.986   3.113  17.574 -0.1632 -0.5131  0.0621
    1TMC1    C814138   1.817   2.829  17.254  0.9598  0.5904  1.1064
    1TMC1    O114139   1.874   3.129  17.627  0.2977  0.1751 -0.1111
    1TMC1    O214140   1.712   2.823  17.315 -0.8375 -0.1860 -0.0956
    1TMC1    O314141   2.054   3.218  17.524  0.3652  0.9995 -0.2733
    1TMC1    H314142   2.140   3.184  17.490  0.7211 -0.3731  2.0284
    1TMC1    O514143   1.839   2.812  17.122 -0.3578  0.1722  0.0662
    1TMC1    H514144   1.926   2.834  17.083 -1.2642  2.7289 -0.4962
    2MPD1     C14145   2.814   2.941  17.306 -0.2952 -0.5094 -0.2338
    2MPD1    C114146   2.758   2.977  17.427  0.0095  0.4093  0.1820
    2MPD1    C214147   2.618   2.963  17.452 -0.8127 -0.0247 -0.1790
    2MPD1    C314148   2.532   2.930  17.348 -0.4836  0.4772  0.1878
    2MPD1    C414149   2.591   2.905  17.230  0.5588 -0.4868  0.6002
    2MPD1    C514150   2.725   2.909  17.207  0.4056  0.4813  0.1526
    2MPD1     H14151   2.577   2.989  17.549 -0.3357  0.0621 -0.0014
    2MPD1    H114152   2.531   2.877  17.144  1.6766 -0.1359 -0.2965
    2MPD1    H214153   2.920   2.935  17.287 -0.1892  0.5917 -0.0115
    2MPD1    H314154   2.762   2.879  17.109 -1.5062  0.0817 -0.4407
    2MPD1     N14155   2.386   2.916  17.379 -0.9407 -0.0497 -0.3790
    2MPD1    H514156   2.363   2.953  17.471  1.7113 -1.7791  0.9760
    2MPD1    N114157   2.849   3.023  17.522  0.3394  0.0653 -0.3345
    2MPD1    H614158   2.938   3.047  17.478  0.6720  0.2299  0.4406
    2MPD1    H714159   2.814   3.088  17.592 -1.3688 -0.6780 -0.5015
    1MPD1     C14160   3.921   2.130  11.690 -0.1448 -0.2165  0.0655
    1MPD1    C114161   3.908   2.250  11.759  0.0926  1.0080  0.2578
    1MPD1    C214162   3.927   2.368  11.686  0.0058 -0.1767  0.0428
    1MPD1    C314163   3.994   2.363  11.564 -0.5699 -0.6682  0.8724
    1MPD1    C414164   4.016   2.240  11.501 -0.8062  0.6178  0.3092
    1MPD1    C514165   3.965   2.128  11.558  0.3056 -0.5503  0.9282
    1MPD1     H14166   3.911   2.469  11.724  2.1841  2.2244 -5.4704
    1MPD1    H114167   4.058   2.244  11.401 -2.3614  1.3059 -0.3117
    1MPD1    H214168   3.889   2.040  11.741  2.0779 -0.1666  1.5328
    1MPD1    H314169   3.961   2.040  11.494 -1.3960 -0.2203  0.5664
    1MPD1     N14170   4.047   2.484  11.511  0.4817  0.3285  0.2513
    1MPD1    H514171   4.018   2.575  11.544  0.4339 -0.6343  2.8816
    1MPD1    N114172   3.849   2.241  11.881 -0.0385 -0.1753  0.3331
    1MPD1    H614173   3.886   2.157  11.926  1.2530  0.2734  0.1085
    1MPD1    H714174   3.870   2.314  11.950  2.5163  0.5241 -1.1761
    2MPD1     C14175   3.980   2.762   9.152 -0.1930 -0.4910  0.1204
    2MPD1    C114176   4.029   2.632   9.159 -0.4393  0.1290  0.2445
    2MPD1    C214177   4.077   2.593   9.283  0.4744  0.6291  0.1791
    2MPD1    C314178   4.079   2.674   9.396  0.1474  0.6581 -0.3866
    2MPD1    C414179   4.013   2.797   9.385 -0.9744  0.5935  0.0872
    2MPD1    C514180   3.970   2.838   9.262 -0.0796 -1.4432 -0.4776
    2MPD1     H14181   4.129   2.497   9.287 -0.3643  0.1598 -0.1887
    2MPD1    H114182   4.003   2.862   9.471 -0.3233  1.0957 -0.2119
    2MPD1    H214183   3.950   2.804   9.058 -1.0268 -0.7250  0.2821
    2MPD1    H314184   3.922   2.934   9.253 -0.2244 -1.4943 -0.2387
    2MPD1     N14185   4.140   2.630   9.517 -0.8855 -0.0923 -0.1158
    2MPD1    H514186   4.098   2.662   9.604  0.3183  1.5750 -0.1496
    2MPD1    N114187   4.042   2.560   9.038 -0.8589 -0.1273  0.2109
    2MPD1    H614188   3.983   2.593   8.962 -1.3411 -1.4956 -0.0189
    2MPD1    H714189   4.018   2.463   9.061  0.4537 -0.4227  0.3296
    3MPD1     C14190   0.109   2.067  10.145 -0.0567  0.6550 -0.4561
    3MPD1    C114191   0.087   2.191  10.205  0.4833 -0.3388  0.2784
    3MPD1    C214192   0.017   2.293  10.147  0.2201 -0.4896 -0.1558
    3MPD1    C314193   4.696   2.265  10.022  0.1190  0.0959  0.2605
    3MPD1    C414194   4.705   2.141   9.971  0.2967  0.1430  0.2376
    3MPD1    C514195   0.053   2.037  10.023 -0.2030 -0.2860 -0.4913
    3MPD1     H14196   0.006   2.389  10.195  0.5489 -1.3692  1.7105
    3MPD1    H114197   4.641   2.116   9.887 -0.1041 -3.3789  1.6184
    3MPD1    H214198   0.146   1.988  10.210 -1.4535 -0.0478 -0.5263
    3MPD1    H314199   0.037   1.934   9.994  0.2279 -0.4472 -0.1472
    3MPD1     N14200   4.617   2.366   9.969 -0.5010  0.0237 -0.4512
    3MPD1    H514201   4.611   2.454  10.019 -2.1667 -1.1878  1.5225
    3MPD1    N114202   0.143   2.213  10.331  0.0442  0.5341 -0.6350
    3MPD1    H614203   0.145   2.125  10.382 -0.8068  0.3668 -0.8909
    3MPD1    H714204   0.087   2.286  10.374 -0.2900  0.7868 -1.4984
    4MPD2     C14205   3.957   3.143  11.143 -0.3905  0.9525 -0.7059
    4MPD2    C114206   4.093   3.103  11.148 -0.3319  0.5395 -0.3333
    4MPD2    C214207   4.182   3.156  11.061  0.0697 -0.0512  0.7243
    4MPD2    C314208   4.142   3.239  10.958  0.3896  0.4206 -0.1626
    4MPD2    C414209   4.008   3.274  10.949 -0.3490 -0.9546  0.3861
    4MPD2    C514210   3.915   3.234  11.047 -0.0168 -0.0464 -0.0064
    4MPD2     H14211   4.286   3.124  11.060 -0.0978 -0.5407 -0.2380
    4MPD2    H114212   3.974   3.336  10.866 -0.6565 -1.4498  0.1431
    4MPD2    H214213   3.875   3.102  11.201  1.6432 -1.1385  0.7249
    4MPD2    H314214   3.810   3.259  11.039 -0.3611 -0.6656  2.6053
    4MPD2     N14215   4.245   3.265  10.862  0.4144  0.5706  0.2273
    4MPD2    H514216   4.326   3.204  10.872  1.5270  1.6330 -2.1990
    4MPD2    N114217   4.141   3.017  11.249 -0.7193  0.0407  0.1648
    4MPD2    H714218   4.240   2.993  11.257 -0.8413  0.3386  2.4354
    5TMC3    C114219   4.149   2.850  11.411 -0.8281 -0.2127  0.4235
    5TMC3    C214220   4.106   2.718  11.402  0.8744 -0.1248  0.0169
    5TMC3    C314221   4.194   2.622  11.395  0.2760  0.0579  0.3901
    5TMC3    C414222   4.279   2.882  11.410  0.4791 -0.6827  0.6244
    5TMC3    C514223   4.370   2.784  11.387  0.4457 -0.4442 -0.5823
    5TMC3    C614224   4.325   2.656  11.375 -0.3264 -0.1888 -0.4915
    5TMC3     C14225   4.062   2.944  11.334  0.0914 -0.2995 -0.8290
    5TMC3     O14226   3.941   2.926  11.336  0.2536 -0.1816 -0.5705
    5TMC3     H14227   4.001   2.693  11.401  0.2186  2.5145  2.0966
    5TMC3    H114228   4.319   2.980  11.436  1.2255 -0.1969 -2.3341
    5TMC3    H214229   4.395   2.575  11.357  0.8219  0.5828  0.4421
    5TMC3    C714230   4.423   2.816  11.260 -0.1034 -0.0298 -0.6325
    5TMC3    C814231   4.151   2.488  11.420 -0.0704  0.3401 -0.1418
    5TMC3    O114232   4.381   2.918  11.202 -0.2046 -0.8705  0.5214
    5TMC3    O214233   4.225   2.400  11.376  0.7368 -0.4496  0.0520
    6TMC3    C114234   4.307   2.559   9.665 -0.1469  0.6663 -0.2806
    6TMC3    C214235   4.401   2.467   9.701 -0.2209  0.8409  0.8127
    6TMC3    C314236   4.456   2.461   9.823  0.2143 -0.0998 -0.4729
    6TMC3    C414237   4.254   2.644   9.758 -0.1360 -0.3541 -0.8720
    6TMC3    C514238   4.310   2.628   9.884 -0.1293  0.2565 -0.6519
    6TMC3    C614239   4.406   2.541   9.917 -0.4393  0.3309 -0.4055
    6TMC3     C14240   4.259   2.549   9.527 -0.6793  0.5512 -0.3795
    6TMC3     O14241   4.316   2.492   9.437 -0.3732  0.4648 -0.6334
    6TMC3     H14242   4.447   2.408   9.623 -2.5150 -1.0089  0.8681
    6TMC3    H114243   4.221   2.738   9.714  0.7883  0.3350 -0.0807
    6TMC3    H214244   4.437   2.549  10.021 -0.1622 -1.8484 -0.3247
    6TMC3    C714245   4.296   2.742   9.973  0.1040  0.7544 -0.5872
    6TMC3    C814246   4.555   2.356   9.849  0.9102  0.1395  0.1148
    6TMC3    O114247   4.392   2.772  10.040  0.1476 -0.3953  0.1882
    6TMC3    O214248   4.561   2.270   9.758  0.2182  0.6025  0.2153
    7MPD2     C14249   4.675   2.718  10.825  0.0163 -0.4421  0.3074
    7MPD2    C114250   4.608   2.826  10.863 -0.8399  0.1330 -0.3006
    7MPD2    C214251   4.559   2.822  10.994 -0.8466  0.2197 -0.4403
    7MPD2    C314252   4.565   2.712  11.080  0.8808 -0.2220  0.2028
    7MPD2    C414253   4.630   2.599  11.039  0.3103 -0.5092 -0.2787
    7MPD2    C514254   4.689   2.614  10.915 -0.0978 -0.5033  0.2210
    7MPD2     H14255   4.525   2.916  11.036  1.7636  2.1829 -2.6592
    7MPD2    H114256   4.666   2.527  11.111  1.2916 -1.8268 -2.0754
    7MPD2    H214257   4.728   2.704  10.732  1.5521  2.6148  0.7237
    7MPD2    H314258   0.018   2.531  10.883  1.0461 -0.3104  1.9316
    7MPD2     N14259   4.511   2.719  11.210 -0.0972  0.1223  0.4285
    7MPD2    H514260   4.529   2.642  11.274  1.5916 -0.3189 -0.5694
    7MPD2    N114261   4.591   2.937  10.776 -0.1449 -0.7343 -0.2253
    7MPD2    H714262   4.623   2.926  10.680 -0.9421 -0.9301 -0.4756
    8TMC3    C114263   4.507   3.148  10.691 -0.4336  0.7323 -0.6402
    8TMC3    C214264   4.460   3.086  10.577  0.4320 -0.5940 -0.4878
    8TMC3    C314265   4.358   3.155  10.515  0.4241  0.0024  0.5096
    8TMC3    C414266   4.454   3.270  10.730 -0.4487  0.4973 -0.6070
    8TMC3    C514267   4.354   3.323  10.665  0.2045  0.1065 -0.5375
    8TMC3    C614268   4.308   3.271  10.546  0.5251  0.1607  0.3821
    8TMC3     C14269   4.542   3.062  10.807 -0.8064  0.7417  0.0454
    8TMC3     O14270   4.502   3.105  10.915  0.2828  0.3639 -0.5167
    8TMC3     H14271   4.481   2.983  10.551  1.2547 -0.2637 -1.1252
    8TMC3    H114272   4.488   3.306  10.826 -0.3134 -2.7366  0.5681
    8TMC3    H214273   4.226   3.311  10.489  0.8724  0.5166  0.1326
    8TMC3    C714274   4.235   3.345  10.751 -0.1283 -0.1814 -0.3579
    8TMC3    C814275   4.315   3.089  10.393 -0.3536 -0.3095  0.3942
    8TMC3    O114276   4.130   3.394  10.702  0.4218 -0.3715  0.1648
    8TMC3    O214277   4.406   3.023  10.344  0.0502 -0.1743  0.1258
    9MPD2     C14278   4.000   3.094  10.206 -0.0746  0.5759  0.2424
    9MPD2    C114279   4.131   3.060  10.231 -0.4802  0.1520  0.2012
    9MPD2    C214280   4.194   2.962  10.154 -0.1357  0.1215  0.5811
    9MPD2    C314281   4.130   2.899  10.048  0.3921 -1.1507 -0.0302
    9MPD2    C414282   4.003   2.952  10.023 -0.5037  0.9874  0.5385
    9MPD2    C514283   3.946   3.051  10.094 -1.5037  0.2018  0.6240
    9MPD2     H14284   4.291   2.929  10.190 -0.1153  0.5739  0.9381
    9MPD2    H114285   3.949   2.905   9.942  0.1573  0.0501  0.6257
    9MPD2    H214286   3.948   3.160  10.274 -1.6856 -0.5587  0.1134
    9MPD2    H314287   3.841   3.075  10.078 -2.1337 -1.4855  2.1495
    9MPD2     N14288   4.176   2.797   9.969 -0.4822  0.3802 -0.1815
    9MPD2    H514289   4.115   2.765   9.895 -1.3753 -0.1591  0.7989
    9MPD2    N114290   4.187   3.115  10.351  0.6057  0.1452 -0.0800
    9MPD2    H714291   4.124   3.176  10.403  1.9601  3.2230 -2.0583
    1MPD1     C14292   3.561   4.145  14.494  0.3150  0.3373 -0.1456
    1MPD1    C114293   3.616   4.200  14.611  0.1381  0.1834 -0.5812
    1MPD1    C214294   3.541   4.281  14.690  0.7414 -0.3335 -0.2226
    1MPD1    C314295   3.406   4.281  14.683 -0.4028  0.4985 -0.0334
    1MPD1    C414296   3.352   4.223  14.572 -0.3969 -0.1273  0.0578
    1MPD1    C514297   3.425   4.161  14.473 -0.3775 -0.6365  0.2528
    1MPD1     H14298   3.600   4.338  14.760  1.9574  0.3641 -1.7989
    1MPD1    H114299   3.245   4.218  14.556 -0.3443 -2.2091  0.3306
    1MPD1    H214300   3.622   4.090  14.423 -0.5435  1.0925 -1.4662
    1MPD1    H314301   3.377   4.102  14.396  0.8932  0.6713 -1.5692
    1MPD1     N14302   3.316   4.322  14.783 -0.0192 -0.3649  0.1032
    1MPD1    H514303   3.219   4.333  14.757  0.7186 -0.3035 -2.5706
    1MPD1    N114304   3.749   4.205  14.628 -0.4584 -0.5057 -0.0850
    1MPD1    H614305   3.770   4.221  14.727 -0.5292  2.5646 -0.5609
    1MPD1    H714306   3.798   4.122  14.593 -1.8246 -1.9875  1.5393
    2TMC2    C114307   3.233   4.658  15.108  0.2008 -0.2457  0.6469
    2TMC2    C214308   3.100   4.671  15.073 -0.0781 -0.3218 -0.0812
    2TMC2    C314309   3.052   4.572  14.988 -0.5538  0.1989  0.3560
    2TMC2    C414310   3.310   4.563  15.060 -0.0149 -0.4207 -0.4963
    2TMC2    C514311   3.264   4.475  14.962 -0.5084 -0.3020  0.2523
    2TMC2    C614312   3.130   4.476  14.928  0.6637  0.4781  0.5760
    2TMC2     C14313   3.297   0.031  15.185 -0.0695 -0.1715 -0.2471
    2TMC2     O14314   3.400   4.731  15.237  0.2384  0.4388  0.3318
    2TMC2     H14315   3.036   0.015  15.112  2.0429  1.5918 -0.3866
    2TMC2    H114316   3.411   4.548  15.094  0.1260  0.2750 -0.6096
    2TMC2    H214317   3.093   4.415  14.846 -0.6389  0.7442  0.9695
    2TMC2    C714318   3.359   4.375  14.904 -1.0133 -0.5679  0.3649
    2TMC2    C814319   2.929   4.596  14.919  0.2085  0.5585 -0.8083
    2TMC2    O114320   3.469   4.364  14.952  0.0475 -1.0417  0.1835
    2TMC2    O214321   2.883   4.711  14.906  0.4030  0.5249  0.2627
    2TMC2    O514322   2.869   4.481  14.879 -0.8816  0.0428 -0.1557
    2TMC2    H514323   2.899   4.398  14.921  2.2853  0.7682 -1.0361
    3MPD1     C14324   3.406   0.488  15.364  0.6022  0.2946  0.5395
    3MPD1    C114325   3.273   0.492  15.324 -0.9199  0.4060 -0.2406
    3MPD1    C214326   3.218   0.387  15.253 -0.3253  0.0299  0.1360
    3MPD1    C314327   3.289   0.268  15.229  0.5832  0.1035  0.7600
    3MPD1    C414328   3.424   0.280  15.252  0.4992 -0.1261 -0.6410
    3MPD1    C514329   3.479   0.384  15.322  0.0798 -0.3992 -0.2462
    3MPD1     H14330   3.112   0.383  15.230  0.0166  3.2631 -1.9744
    3MPD1    H114331   3.491   0.195  15.248 -2.3756 -2.3914 -0.4084
    3MPD1    H214332   3.457   0.565  15.420 -0.7391  0.8092  1.0516
    3MPD1    H314333   3.587   0.381  15.329  0.0304  1.8037  1.6669
    3MPD1     N14334   3.234   0.153  15.178 -0.3102 -0.0686  0.7507
    3MPD1    H514335   3.145   0.165  15.131  0.0132 -0.8589 -0.0531
    3MPD1    N114336   3.204   0.608  15.341 -0.0857 -0.3192 -0.0561
    3MPD1    H614337   3.105   0.585  15.341 -0.1813  0.1047  1.6076
    3MPD1    H714338   3.218   0.669  15.422  1.2821 -0.1177 -0.4349
    1TMC1    C114339   2.340   0.243  13.146 -0.6679 -0.0989  0.3840
    1TMC1    C214340   2.390   0.357  13.200 -0.3073  0.3849  0.2533
    1TMC1    C314341   2.300   0.454  13.227  0.0903 -0.8297 -0.0167
    1TMC1    C414342   2.213   0.238  13.098  1.1657 -0.2985  0.9445
    1TMC1    C514343   2.127   0.337  13.128  0.4513  0.1183  0.1763
    1TMC1    C614344   2.170   0.451  13.187  0.0522  0.2757 -0.1843
    1TMC1     C14345   2.432   0.175  13.058  0.2379 -0.5040 -0.5056
    1TMC1     O14346   2.395   0.151  12.949  0.2386 -0.0035 -0.6263
    1TMC1     H14347   2.490   0.366  13.242 -0.5500 -1.3712  1.2133
    1TMC1    H114348   2.170   0.146  13.061 -0.8176  1.3884 -0.9665
    1TMC1    H214349   2.103   0.533  13.208  1.5079  0.6995  2.9069
    1TMC1    C714350   1.988   0.320  13.114  0.8213 -0.1849 -0.2845
    1TMC1    C814351   2.354   0.567  13.299  0.8968 -0.3450 -0.0617
    1TMC1    O114352   1.897   0.350  13.193 -0.5356 -0.4987 -0.4647
    1TMC1    O214353   2.340   0.578  13.421  0.1862 -0.0535  0.0983
    1TMC1    O314354   1.975   0.322  12.989 -0.1141  0.0607  0.2120
    1TMC1    H314355   2.060   0.326  12.942  0.0081 -4.2016  0.0411
    1TMC1    O514356   2.462   0.599  13.231  0.1569  0.0166  0.1635
    1TMC1    H514357   2.471   0.565  13.140  2.7410 -0.4880  0.6060
    2MPD2     C14358   2.678   0.062  12.921 -0.1986 -0.7959 -0.6130
    2MPD2    C114359   2.665   0.101  13.055 -0.5351  0.0102  0.1563
    2MPD2    C214360   2.779   0.080  13.136  0.7331 -0.5848  0.4465
    2MPD2    C314361   2.887   0.007  13.094 -0.6130 -0.0419 -0.5290
    2MPD2    C414362   2.893   4.704  12.955 -0.8032 -0.1185  0.0546
    2MPD2    C514363   2.793   0.004  12.872 -0.4316  0.0669  0.3814
    2MPD2     H14364   2.784   0.114  13.239 -0.9057  0.0332  0.3187
    2MPD2    H114365   2.984   4.665  12.910  0.3105  3.8264 -1.1627
    2MPD2    H214366   2.602   0.070  12.844  1.6941 -0.7373 -2.4768
    2MPD2    H314367   2.799   4.716  12.766  1.5510  1.6400  0.1731
    2MPD2     N14368   2.985   4.709  13.187 -0.7877  0.1021 -0.4221
    2MPD2    H514369   2.969   0.007  13.282  1.4124  1.9777 -0.6754
    2MPD2    N114370   2.553   0.157  13.116  0.7463 -0.5325 -0.2730
    2MPD2    H714371   2.552   0.178  13.216  0.6735 -0.3067 -0.3217
    3TCq1    O114372   3.535   4.396  13.471 -0.2440  0.6193  0.4400
    3TCq1    C114373   3.456   4.399  13.360 -0.0716 -0.1276 -0.2475
    3TCq1    O214374   3.496   4.402  13.241 -0.2712  0.2550  0.8992
    3TCq1    C214375   3.351   4.498  13.386 -0.2809 -0.0365  1.1916
    3TCq1    C314376   3.339   4.581  13.503  0.2557  0.4693  0.4175
    3TCq1    C414377   3.252   4.688  13.498  0.4314  0.5236  0.1521
    3TCq1    C514378   3.167   4.702  13.391  0.5819 -0.6629 -0.1221
    3TCq1    C614379   3.181   4.627  13.281 -0.4329  0.5506 -0.4156
    3TCq1    C714380   3.277   4.527  13.275  0.0903 -0.0691 -0.4326
    3TCq1    C814381   3.101   4.641  13.160 -0.5815  0.0103  0.2377
    3TCq1    O414382   3.147   4.595  13.056  0.0363 -0.0556  0.3993
    3TCq1    C914383   3.223   0.036  13.614 -0.4918 -0.1088 -0.5028
    3TCq1    O514384   3.118   0.104  13.613 -0.3276  0.4862 -0.2802
    3TCq1    O614385   3.316   0.048  13.700  0.4936 -0.2339 -0.3543
    3TCq1    H114386   3.485   4.387  13.556 -1.0324  2.5851  0.1628
    3TCq1    H214387   3.403   4.574  13.590  2.4055  0.6434 -1.1439
    3TCq1    H314388   3.086   0.040  13.399  3.1807  2.3428 -0.3116
    3TCq1    H414389   3.282   4.461  13.189 -0.1626 -1.6717  0.7864
    1MPD2     C14390   2.492   2.225  14.925  0.0650  0.0439 -0.4583
    1MPD2    C114391   2.382   2.139  14.925  0.7834 -0.2839  0.0342
    1MPD2    C214392   2.383   2.030  15.013  0.7328 -0.3634 -0.2776
    1MPD2    C314393   2.495   1.989  15.076 -0.0357 -0.4197 -1.2784
    1MPD2    C414394   2.598   2.077  15.083  0.2733  0.0544  0.6016
    1MPD2    C514395   2.595   2.189  15.006 -0.7821 -0.9279  0.4842
    1MPD2     H14396   2.295   1.966  15.022  2.3636 -2.5576  0.1431
    1MPD2    H114397   2.689   2.065  15.141  0.9555  2.1881 -0.0363
    1MPD2    H214398   2.487   2.317  14.867 -0.6432  0.2231 -0.1219
    1MPD2    H314399   2.686   2.245  14.991 -0.8215 -0.7238  1.0033
    1MPD2     N14400   2.511   1.864  15.135 -0.7186  0.3571  0.1546
    1MPD2    H514401   2.601   1.848  15.178  0.1118  0.4624 -1.5536
    1MPD2    N114402   2.270   2.175  14.841 -0.2127  0.0225 -0.5624
    1MPD2    H714403   2.275   2.262  14.789 -0.1978  0.2826 -0.1242
    2TMC3    C114404   2.035   2.170  14.777 -0.3746 -0.4810 -0.5782
    2TMC3    C214405   1.936   2.076  14.778  0.4589 -0.2428 -0.2079
    2TMC3    C314406   1.864   2.046  14.666  0.1692 -0.2229 -1.0240
    2TMC3    C414407   2.056   2.258  14.673 -0.4261 -0.1344  0.3854
    2TMC3    C514408   1.976   2.241  14.569 -0.2694  0.0677 -0.4336
    2TMC3    C614409   1.880   2.141  14.564 -0.1555  0.3280 -0.0333
    2TMC3     C14410   2.150   2.105  14.840 -0.2915  0.2600  0.1508
    2TMC3     O14411   2.126   1.990  14.879 -0.0972  0.1921 -0.4008
    2TMC3     H14412   1.919   2.015  14.866 -0.4280 -0.4410 -0.5239
    2TMC3    H114413   2.135   2.332  14.677  0.6379 -1.2461 -0.5225
    2TMC3    H214414   1.811   2.128  14.481 -0.0103  0.2871 -0.1474
    2TMC3    C714415   2.009   2.304  14.439  0.0830  0.1946  0.1116
    2TMC3    C814416   1.882   1.909  14.624 -0.2976  0.2631  0.2646
    2TMC3    O114417   1.947   2.266  14.338 -0.6155 -0.2164  0.2490
    2TMC3    O214418   1.816   1.865  14.527 -0.4838  0.2968  0.0240
    3TCq1    O114419   2.982   2.991  14.419 -0.0067  0.3998 -0.9636
    3TCq1    C114420   2.949   2.967  14.289 -0.4141  0.3992 -0.6460
    3TCq1    O214421   3.015   2.901  14.207  0.3496  0.3776 -0.0429
    3TCq1    C214422   2.809   2.984  14.285  0.4049  0.4773 -0.2989
    3TCq1    C314423   2.754   3.077  14.369 -0.1015 -0.0934 -0.4360
    3TCq1    C414424   2.623   3.072  14.403  0.4586  0.5283  0.1675
    3TCq1    C514425   2.546   2.978  14.350  0.1460  0.8852  0.7143
    3TCq1    C614426   2.604   2.877  14.274 -0.6927 -0.3171  0.0526
    3TCq1    C714427   2.735   2.879  14.234  0.2533  0.1072  0.4940
    3TCq1    C814428   2.510   2.792  14.202  0.1810 -0.1306  0.7377
    3TCq1    O414429   2.531   2.778  14.082 -0.1868  0.2770  0.1976
    3TCq1    C914430   2.564   3.186  14.474 -0.2210  0.0233 -0.2654
    3TCq1    O514431   2.442   3.179  14.494  0.0491 -0.2879  0.1298
    3TCq1    O614432   2.634   3.280  14.508 -0.3619 -0.8916 -0.0858
    3TCq1    H114433   2.907   3.038  14.463  0.5447 -0.0857  0.4676
    3TCq1    H214434   2.809   3.162  14.407 -1.3658  0.4178  0.2416
    3TCq1    H314435   2.440   2.977  14.373 -0.3915  1.8337 -1.7554
    3TCq1    H414436   2.770   2.797  14.173  1.2138  1.1608 -0.3782
    4MPD2     C14437   2.255   2.633  14.128 -0.1736  0.2006 -0.7941
    4MPD2    C114438   2.296   2.664  14.253 -0.3848  0.4250  0.7235
    4MPD2    C214439   2.237   2.589  14.359  0.6815 -0.3908 -0.4192
    4MPD2    C314440   2.142   2.492  14.333 -0.4607 -0.0300  0.1140
    4MPD2    C414441   2.116   2.458  14.203  0.1956 -0.7019  0.2874
    4MPD2    C514442   2.163   2.536  14.102 -0.3136 -0.5744 -0.3524
    4MPD2     H14443   2.260   2.617  14.461 -2.1946 -2.4236  0.8081
    4MPD2    H114444   2.063   2.371  14.165  0.8114 -1.2377  0.6625
    4MPD2    H214445   2.305   2.677  14.043  1.2418 -0.8077 -0.4836
    4MPD2    H314446   2.145   2.503  14.000 -2.2205  0.8560 -0.4661
    4MPD2     N14447   2.094   2.412  14.445  0.0192  0.4183  0.0019
    4MPD2    H514448   2.117   2.448  14.537 -0.7629  0.9656 -0.0162
    4MPD2    N114449   2.406   2.747  14.287 -0.2654  0.5860  0.2626
    4MPD2    H714450   2.418   2.770  14.386  0.3834 -1.7151  0.7007
    5TMC2    C114451   2.370   1.442  15.099  0.6647 -0.2454  0.5533
    5TMC2    C214452   2.352   1.412  15.229 -0.6181  0.3042 -0.0253
    5TMC2    C314453   2.409   1.498  15.319  0.2816 -0.9456 -0.1615
    5TMC2    C414454   2.454   1.540  15.048  0.1837  0.1640 -0.2369
    5TMC2    C514455   2.496   1.630  15.141  0.3622  0.5047  0.3908
    5TMC2    C614456   2.479   1.612  15.277  0.3293  0.2757  0.2821
    5TMC2     C14457   2.256   1.410  15.010 -0.2635  0.1633 -0.7259
    5TMC2     O14458   2.196   1.307  15.022  0.1365  0.2228 -0.4100
    5TMC2     H14459   2.281   1.335  15.259 -0.6811 -0.1483 -1.3575
    5TMC2    H114460   2.484   1.540  14.944  2.4517  0.5965  0.4194
    5TMC2    H214461   2.494   1.694  15.346  1.5262  0.3815 -0.1101
    5TMC2    C714462   2.428   1.754  15.114 -1.1527  0.0819 -0.2872
    5TMC2    C814463   2.408   1.461  15.458 -0.4668 -0.4152  0.2611
    5TMC2    O114464   2.332   1.742  15.040 -0.1971  0.1945  0.2330
    5TMC2    O214465   2.509   1.447  15.524 -0.7564 -0.2627  0.3695
    5TMC2    O514466   2.286   1.406  15.479 -0.1398  0.1286  0.2002
    5TMC2    H514467   2.222   1.440  15.413 -1.5507 -0.0898  1.4606
    6MPD2     C14468   1.921   1.602  14.653  0.4614 -0.1479 -0.6223
    6MPD2    C114469   1.982   1.702  14.730 -0.3189  0.2530 -0.0272
    6MPD2    C214470   2.083   1.671  14.815  0.2718 -0.0543 -0.0568
    6MPD2    C314471   2.112   1.538  14.843  0.1438  0.0005 -0.8344
    6MPD2    C414472   2.045   1.431  14.777  0.0978 -0.7813  0.2921
    6MPD2    C514473   1.950   1.472  14.682 -0.4545  0.2156 -0.3056
    6MPD2     H14474   2.136   1.751  14.865  0.0361 -0.0573  0.1996
    6MPD2    H114475   2.071   1.326  14.789  0.3202 -0.7543  0.0538
    6MPD2    H214476   1.860   1.640  14.572  0.7802  0.8486 -0.3982
    6MPD2    H314477   1.901   1.399  14.619  2.2667 -1.8275 -0.0326
    6MPD2     N14478   2.212   1.516  14.937 -0.0359 -0.1256  0.4272
    6MPD2    H514479   2.249   1.604  14.971  1.4021 -0.2496 -0.8447
    6MPD2    N114480   1.963   1.838  14.710 -0.4043 -0.3856 -0.0426
    6MPD2    H714481   2.018   1.889  14.778  1.2964 -1.2428 -0.7851
  945NH4     N114482   2.511   0.830   8.263  0.0090 -0.3743  0.1952
  945NH4     H214483   2.506   0.844   8.160  2.1732 -0.0237  0.1342
  945NH4     H314484   2.418   0.847   8.307 -0.1427 -1.5412  0.3306
  945NH4     H414485   2.567   0.912   8.295  0.1185  0.0707 -1.1426
  945NH4     H514486   2.550   0.739   8.296 -2.7990 -1.0302  1.7414
  946SOD     NA14487   2.709   4.127  11.801  0.5410 -0.4388 -0.1453
  947SOD     NA14488   0.247   1.789   3.523 -0.0510 -0.0136 -0.5038
  948SOD     NA14489   2.084   2.460  12.697 -0.3836 -0.2953  0.2226
  949SOD     NA14490   3.324   3.827  13.832 -0.1570 -0.2587  0.1475
  950SOD     NA14491   3.242   4.726  13.946 -0.1261  0.4008  0.0388
  951SOD     NA14492   3.168   0.175   3.368 -0.1105  0.2527 -0.1006
  952SOD     NA14493   4.708   1.720  16.831  0.3559 -0.1184 -0.2872
  953SOL     OW14494   2.477   0.073  11.299 -0.5254 -0.4284  0.2754
  953SOL    HW114495   2.463   0.044  11.208 -1.6814 -0.8226  0.5727
  953SOL    HW214496   2.390   0.086  11.338  0.4961  0.5288  2.1946
  954SOL     OW14497   4.005   2.922   8.016 -0.2067  0.2295  0.3689
  954SOL    HW114498   4.001   2.957   7.927 -1.5198 -1.4712 -0.2367
  954SOL    HW214499   3.960   2.839   8.007 -0.9432  0.8595 -1.5673
  955SOL     OW14500   2.822   2.547   6.103 -0.0472  0.3040  0.1835
  955SOL    HW114501   2.864   2.462   6.092  0.7549  0.5544  1.2298
  955SOL    HW214502   2.791   2.545   6.193 -3.7149 -2.4273 -1.1539
  956SOL     OW14503   0.039   3.616   7.628 -0.1113 -0.5080  0.1359
  956SOL    HW114504   0.087   3.694   7.601  0.7094 -0.9258  0.3843
  956SOL    HW214505   4.716   3.643   7.700  2.2168 -1.7388  2.4466
  957SOL     OW14506   2.773   0.673   8.318  0.3803  0.7415 -0.4558
  957SOL    HW114507   2.808   0.691   8.231 -0.1852  0.3321 -0.7689
  957SOL    HW214508   2.850   0.644   8.367 -2.0794 -0.1573  2.9136
  958SOL     OW14509   3.724   1.073   6.627 -0.8868 -0.4870 -0.1953
  958SOL    HW114510   3.754   0.984   6.607 -0.4591 -0.3791 -0.0200
  958SOL    HW214511   3.799   1.128   6.605  1.2149 -2.8816  0.9652
  959SOL     OW14512   0.874   0.027   5.976 -0.4314 -0.4026 -0.4526
  959SOL    HW114513   0.840   0.002   6.062  0.7483 -0.2853  0.0464
  959SOL    HW214514   0.969   0.027   5.985 -0.5863 -0.0850  1.2326
  960SOL     OW14515   2.296   0.637   7.259 -0.2795 -0.3764  0.3827
  960SOL    HW114516   2.229   0.696   7.294 -1.4741 -1.1408 -0.6014
  960SOL    HW214517   2.361   0.704   7.241 -1.1706  0.6071  0.8661
  961SOL     OW14518   4.166   2.840  10.909 -0.2926 -0.1366 -0.0877
  961SOL    HW114519   4.207   2.885  10.983  3.3149 -3.6821  0.0541
  961SOL    HW214520   4.219   2.760  10.913  0.4461  0.3236 -0.6315
  962SOL     OW14521   0.208   3.110   2.922 -0.0489 -0.0915  0.4847
  962SOL    HW114522   0.207   3.041   2.988 -0.9379  0.0212  0.5863
  962SOL    HW214523   0.296   3.149   2.926  0.5180 -1.2376 -0.8719
  963SOL     OW14524   4.183   0.720   8.684  0.3656 -0.0045 -0.2386
  963SOL    HW114525   4.257   0.774   8.656  0.8361 -1.2585 -1.3945
  963SOL    HW214526   4.110   0.780   8.668  1.6384  1.7759  0.6446
  964SOL     OW14527   2.438   2.853   2.331 -0.0323 -0.1294  0.4362
  964SOL    HW114528   2.390   2.790   2.385 -0.3112  1.5245  2.1013
  964SOL    HW214529   2.502   2.795   2.289 -0.3505 -0.3878  0.3178
  965SOL     OW14530   3.466   3.119  15.332 -0.2072  0.1243 -0.1490
  965SOL    HW114531   3.463   3.204  15.376  2.1902  0.2640 -0.2339
  965SOL    HW214532   3.480   3.130  15.238  2.8851  1.2384  0.4255
  966SOL     OW14533   4.154   0.699   5.294 -0.1701  0.5903 -0.5533
  966SOL    HW114534   4.061   0.717   5.311 -1.4280 -5.0442 -1.4793
  966SOL    HW214535   4.145   0.620   5.241  0.4014  0.6126 -0.6843
  967SOL     OW14536   1.441   0.869   5.188 -0.0386 -0.3477  0.1312
  967SOL    HW114537   1.459   0.827   5.105 -3.7492 -0.6660 -0.5338
  967SOL    HW214538   1.522   0.918   5.203  1.3466 -2.2797 -1.0691
  968SOL     OW14539   2.320   4.669   2.833 -0.4396 -0.7153  0.2667
  968SOL    HW114540   2.409   4.659   2.800 -0.9531 -3.9824 -0.1614
  968SOL    HW214541   2.323   4.711   2.919 -1.2308  0.6481 -0.3560
  969SOL     OW14542   4.106   0.954   0.656 -0.1022  0.0356  0.3247
  969SOL    HW114543   4.082   0.953   0.563 -0.3000  1.3740  0.3569
  969SOL    HW214544   4.043   1.012   0.700  1.7885  1.2132  1.5072
  970SOL     OW14545   0.179   1.503  15.087 -0.3938 -0.0019 -0.2237
  970SOL    HW114546   0.181   1.544  15.173  0.3025 -0.7677  0.1370
  970SOL    HW214547   0.224   1.569  15.034  1.9684 -1.0029  0.5199
  971SOL     OW14548   1.282   2.351   6.497 -0.1415 -0.4563 -0.0538
  971SOL    HW114549   1.215   2.345   6.565  0.1220  0.4811  0.2917
  971SOL    HW214550   1.285   2.445   6.482  0.8142 -0.5236 -0.2455
  972SOL     OW14551   2.199   2.693   3.365 -0.0216 -0.2138 -0.7197
  972SOL    HW114552   2.160   2.707   3.451  1.5797  1.0929 -0.2103
  972SOL    HW214553   2.162   2.770   3.323  0.2170 -0.7797 -1.9646
  973SOL     OW14554   0.150   0.908   3.145  0.3695  0.1082 -0.6086
  973SOL    HW114555   0.176   0.832   3.093  0.6308  0.1460 -0.5293
  973SOL    HW214556   0.227   0.938   3.193  0.7952 -0.2915 -1.0392
  974SOL     OW14557   0.794   2.226  16.721  0.3220 -0.2353 -0.0495
  974SOL    HW114558   0.850   2.235  16.799  0.2202  1.2330 -0.1538
  974SOL    HW214559   0.721   2.179  16.761  1.3250 -0.6887  1.2811
  975SOL     OW14560   3.969   2.085   3.841 -0.7749 -0.0882  0.0031
  975SOL    HW114561   3.903   2.108   3.776  0.1171  2.7448  0.1299
  975SOL    HW214562   4.011   2.170   3.854 -0.3104 -0.5915  1.8184
  976SOL     OW14563   0.754   1.814   3.424  0.1993  0.5662 -0.0481
  976SOL    HW114564   0.788   1.885   3.479 -1.0219  2.0788 -1.2186
  976SOL    HW214565   0.735   1.853   3.338 -0.8283 -2.0700 -1.0112
  977SOL     OW14566   3.912   4.610  11.227  0.2093 -0.3395 -0.0496
  977SOL    HW114567   3.997   4.633  11.190  0.6620  0.6071  1.5882
  977SOL    HW214568   3.859   4.594  11.149 -1.1569  0.7288  0.6581
  978SOL     OW14569   2.909   4.722  12.557 -0.0409  0.2485 -0.1072
  978SOL    HW114570   2.959   0.009  12.636  0.1902  2.0719 -0.7232
  978SOL    HW214571   2.940   0.059  12.500  0.3013  2.1935  2.4841
  979SOL     OW14572   2.559   3.585   1.626 -0.2931 -0.4699 -0.1762
  979SOL    HW114573   2.620   3.626   1.565 -0.3492 -2.0037 -1.2556
  979SOL    HW214574   2.481   3.641   1.618 -0.4999 -0.5360  1.3183
  980SOL     OW14575   3.482   3.353   7.708  0.1205 -0.1701  0.2453
  980SOL    HW114576   3.544   3.281   7.693  0.0412 -0.4455  1.2115
  980SOL    HW214577   3.422   3.324   7.777  3.0830  2.0778  3.8325
  981SOL     OW14578   4.256   0.593   4.910  0.6848 -0.8227 -0.2431
  981SOL    HW114579   4.220   0.677   4.881 -1.0530 -2.2270 -2.1899
  981SOL    HW214580   4.281   0.549   4.828 -0.0906  0.2112 -1.0358
  982SOL     OW14581   0.077   3.352   9.074  0.4531 -0.5278 -0.1805
  982SOL    HW114582   0.152   3.306   9.111  2.8015  0.8209 -3.2005
  982SOL    HW214583   0.085   3.444   9.099 -0.4228  0.0519 -1.9779
  983SOL     OW14584   2.169   3.565   3.295  0.4647  0.0307 -0.1122
  983SOL    HW114585   2.100   3.622   3.263 -0.7160 -1.2099  0.2181
  983SOL    HW214586   2.112   3.502   3.340  0.6420  0.3014  0.4917
  984SOL     OW14587   1.458   3.535   7.264  0.2545 -0.0529  0.2546
  984SOL    HW114588   1.497   3.473   7.203  2.2672  3.0164 -1.5934
  984SOL    HW214589   1.533   3.559   7.319 -0.4998 -0.8959  1.6632
  985SOL     OW14590   0.716   0.369   3.611 -0.3684 -0.1838  0.1125
  985SOL    HW114591   0.775   0.351   3.538 -0.7416  1.0249 -0.4854
  985SOL    HW214592   0.652   0.426   3.568  0.2863  1.7001  1.6387
  986SOL     OW14593   0.744   0.521   2.875 -0.2953 -0.3670  0.0904
  986SOL    HW114594   0.707   0.609   2.881 -0.0453 -0.2498 -0.0759
  986SOL    HW214595   0.819   0.545   2.930 -1.5247  1.1910  1.0855
  987SOL     OW14596   0.837   3.367   6.042 -0.1185 -0.5402 -0.7485
  987SOL    HW114597   0.792   3.339   6.122  0.2063  0.7452 -0.1193
  987SOL    HW214598   0.772   3.377   5.973 -1.4175  1.2172  0.6993
  988SOL     OW14599   0.067   2.277  12.363 -0.4318 -0.3468  0.0206
  988SOL    HW114600   4.715   2.248  12.396  0.0803  0.8139  2.3401
  988SOL    HW214601   0.118   2.255  12.441  1.6909 -0.0146 -1.2637
  989SOL     OW14602   0.295   1.998   4.205 -0.5195  0.1971 -0.5536
  989SOL    HW114603   0.204   2.005   4.232 -0.3111 -0.0186  0.1958
  989SOL    HW214604   0.328   2.082   4.237  0.5601 -0.3600 -0.2329
  990SOL     OW14605   3.889   2.410   3.652  0.2142 -0.1218  0.7703
  990SOL    HW114606   3.911   2.493   3.694 -0.9285  0.1303  0.8630
  990SOL    HW214607   3.908   2.425   3.559  2.3329  3.1991  1.7484
  991SOL     OW14608   4.339   4.260   8.612  0.1315 -0.3475 -0.1750
  991SOL    HW114609   4.361   4.270   8.705  3.5424 -2.4468 -0.7436
  991SOL    HW214610   4.258   4.210   8.621 -0.7958  0.8336 -1.9186
  992SOL     OW14611   1.684   4.324   5.323 -0.4928  0.4974  0.2356
  992SOL    HW114612   1.731   4.407   5.331 -1.1551  0.8507  0.3772
  992SOL    HW214613   1.757   4.262   5.332  1.0124  1.8018 -3.0295
  993SOL     OW14614   4.541   1.504   5.063  0.3824  0.6085  0.3402
  993SOL    HW114615   4.539   1.410   5.076 -2.2608  0.3603 -1.7999
  993SOL    HW214616   4.633   1.529   5.071  0.3720  0.4410  1.0062
  994SOL     OW14617   3.191   4.635   5.865 -0.6277 -0.0480 -0.0582
  994SOL    HW114618   3.119   4.575   5.882 -1.3907  0.4058 -1.6866
  994SOL    HW214619   3.255   4.582   5.817  0.6943  1.0364  0.5237
  995SOL     OW14620   3.468   1.207  14.584 -0.0280  0.1375  0.2602
  995SOL    HW114621   3.444   1.124  14.626  0.2505 -0.5835 -1.0173
  995SOL    HW214622   3.478   1.264  14.660 -1.7068 -2.0938  2.1649
  996SOL     OW14623   3.963   0.775   1.051 -0.1180  0.0490  0.4282
  996SOL    HW114624   4.017   0.699   1.075 -0.9796 -0.1949  1.6205
  996SOL    HW214625   4.027   0.841   1.025  0.2946 -0.5543 -0.0944
  997SOL     OW14626   1.302   2.658   1.407 -0.2214  0.0773  0.0406
  997SOL    HW114627   1.231   2.634   1.347 -0.7584  0.6441  0.4564
  997SOL    HW214628   1.379   2.646   1.352  0.3049  0.9913  0.6021
  998SOL     OW14629   4.615   0.445   4.131 -0.0449 -0.4935  0.7306
  998SOL    HW114630   4.571   0.512   4.183 -1.7113 -2.0742  1.3623
  998SOL    HW214631   4.700   0.483   4.106 -0.3027  0.0646  0.7213
  999SOL     OW14632   4.507   3.369   5.686 -0.3823  0.6524  0.1723
  999SOL    HW114633   4.437   3.339   5.629  0.1905  3.1864 -1.8393
  999SOL    HW214634   4.496   3.320   5.767 -1.5380  0.5141 -0.0770
 1000SOL     OW14635   1.853   0.403   6.566  0.6032  0.5616 -0.0467
 1000SOL    HW114636   1.949   0.401   6.559  0.6290  0.3014  0.3695
 1000SOL    HW214637   1.826   0.459   6.493  0.7985 -0.3526 -0.8073
 1001SOL     OW14638   3.800   4.623   8.060  0.1974  0.7197 -0.5816
 1001SOL    HW114639   3.746   4.548   8.035  0.2000  1.0686 -1.6494
 1001SOL    HW214640   3.889   4.588   8.057 -1.2733 -3.1221  0.9074
 1002SOL     OW14641   0.595   4.458   3.841 -0.0004 -0.2270 -0.1214
 1002SOL    HW114642   0.596   4.446   3.746 -1.9810 -0.6753 -0.0907
 1002SOL    HW214643   0.500   4.466   3.848 -0.2905 -1.4237 -2.6328
 1003SOL     OW14644   3.828   1.889   5.873 -0.3985  1.0187 -0.1602
 1003SOL    HW114645   3.742   1.918   5.845 -0.8208  1.1806  1.3071
 1003SOL    HW214646   3.867   1.864   5.789  2.2251  2.0219  0.7646
 1004SOL     OW14647   0.624   1.498   7.349  0.3262  0.1312  0.3224
 1004SOL    HW114648   0.613   1.467   7.259 -0.3534  1.6726 -0.1242
 1004SOL    HW214649   0.658   1.424   7.399  1.1911  1.1609  1.2684
 1005SOL     OW14650   2.410   4.044   5.156  0.2490 -0.3727  0.5667
 1005SOL    HW114651   2.487   4.086   5.117 -0.8195  0.3353 -0.7679
 1005SOL    HW214652   2.436   4.040   5.248 -0.3005 -1.7286  0.6644
 1006SOL     OW14653   3.032   0.029  13.855 -0.2791  0.2727  0.4246
 1006SOL    HW114654   2.956   4.710  13.830  1.2166 -1.5965 -0.1426
 1006SOL    HW214655   3.060   0.067  13.773 -2.8058 -0.0315 -0.5980
 1007SOL     OW14656   1.007   1.125   4.963 -0.0832  0.1673 -0.6806
 1007SOL    HW114657   1.031   1.217   4.957 -0.0046  0.3647  2.7433
 1007SOL    HW214658   1.088   1.093   4.922 -0.2452 -0.0085 -0.8665
 1008SOL     OW14659   1.373   3.279   4.883  0.2944 -0.3928  0.1470
 1008SOL    HW114660   1.347   3.342   4.815  1.7753  1.2665  1.1261
 1008SOL    HW214661   1.353   3.198   4.835  2.7017 -1.3647  0.8139
 1009SOL     OW14662   2.452   3.209   9.320  0.2124  0.1417 -0.0859
 1009SOL    HW114663   2.424   3.296   9.349  1.0860  0.5122 -0.3495
 1009SOL    HW214664   2.369   3.168   9.299  2.2569 -3.1595 -1.7536
 1010SOL     OW14665   3.060   4.414   4.562  0.1298  0.4604 -0.2051
 1010SOL    HW114666   2.968   4.419   4.586 -0.1300 -2.5299 -0.5984
 1010SOL    HW214667   3.095   4.441   4.647 -0.7035  0.5780  0.0948
 1011SOL     OW14668   4.618   4.618   7.605  0.2032  0.4825  0.0511
 1011SOL    HW114669   4.528   4.587   7.594 -0.1819  1.2690  0.9320
 1011SOL    HW214670   4.624   4.679   7.531 -0.7366  0.3971 -0.0981
 1012SOL     OW14671   0.475   4.120   4.459  0.5026  0.2030  0.2352
 1012SOL    HW114672   0.441   4.048   4.511 -3.1572  1.1279 -0.8372
 1012SOL    HW214673   0.519   4.171   4.528  0.7106 -0.2792  0.4563
 1013SOL     OW14674   4.303   1.200  14.907 -0.4932  0.2046 -0.3050
 1013SOL    HW114675   4.364   1.130  14.884  1.9992  2.2272  0.1309
 1013SOL    HW214676   4.312   1.207  15.002  1.7752 -1.3887 -0.4222
 1014SOL     OW14677   2.411   3.018   7.738  0.0798 -0.0662  0.1556
 1014SOL    HW114678   2.468   2.984   7.807  1.7128  0.8460 -0.7246
 1014SOL    HW214679   2.328   3.022   7.784 -0.6652 -0.1520 -1.1584
 1015SOL     OW14680   4.485   3.932  14.187 -0.4344  0.3671 -0.1104
 1015SOL    HW114681   4.462   3.916  14.278  0.4847 -2.4359 -0.3809
 1015SOL    HW214682   4.424   4.004  14.168  0.2933  0.2253 -3.0549
 1016SOL     OW14683   0.602   1.110  13.451  0.1395 -0.1772 -0.5648
 1016SOL    HW114684   0.594   1.084  13.543  1.6097 -0.3658 -0.5007
 1016SOL    HW214685   0.689   1.075  13.434  0.6961 -0.5638  3.0663
 1017SOL     OW14686   2.242   0.141   7.292  0.1671  0.0250  0.5315
 1017SOL    HW114687   2.226   0.227   7.253  0.6443 -0.3202 -0.4301
 1017SOL    HW214688   2.289   0.170   7.370 -0.5624  2.1527  0.1904
 1018SOL     OW14689   3.305   4.604   3.101 -0.2438  0.6306  0.5129
 1018SOL    HW114690   3.245   4.532   3.081 -0.6029  0.6957  1.3637
 1018SOL    HW214691   3.357   4.572   3.174  1.7434 -0.0269 -1.2110
 1019SOL     OW14692   3.573   4.614   5.927  0.1510 -0.1507  0.8115
 1019SOL    HW114693   3.484   4.641   5.904 -0.8833 -1.7546  2.9513
 1019SOL    HW214694   3.608   4.566   5.852  0.7252  1.2873  0.1735
 1020SOL     OW14695   4.723   0.799  14.050 -0.1878  0.1395  0.2428
 1020SOL    HW114696   0.051   0.727  14.041 -0.9606 -0.3906 -0.8180
 1020SOL    HW214697   0.043   0.871  14.083  0.9972 -0.4440 -0.3920
 1021SOL     OW14698   1.339   4.429   4.882 -0.2631  0.0474  0.5151
 1021SOL    HW114699   1.268   4.438   4.945 -0.9116  0.7046 -0.3140
 1021SOL    HW214700   1.405   4.381   4.932  0.9071  2.5774  1.3731
 1022SOL     OW14701   1.194   0.679  16.725 -0.2133 -0.0963  0.3492
 1022SOL    HW114702   1.133   0.624  16.676  1.3923 -0.0528 -1.6907
 1022SOL    HW214703   1.275   0.644  16.688  0.1394 -2.0282  2.9349
 1023SOL     OW14704   0.458   3.981  12.009 -0.2305 -0.0900  0.1544
 1023SOL    HW114705   0.507   4.035  11.948  0.1021 -0.0127  0.4907
 1023SOL    HW214706   0.477   3.893  11.977  1.3027  0.2953  0.0520
 1024SOL     OW14707   3.798   0.939  10.278 -0.4827  0.1942 -0.4188
 1024SOL    HW114708   3.825   0.968  10.191 -0.3237 -1.0889 -0.7937
 1024SOL    HW214709   3.853   0.868  10.311  0.0606 -0.2799 -2.3333
 1025SOL     OW14710   4.405   4.090   4.259 -0.5919 -0.1099 -0.4532
 1025SOL    HW114711   4.445   4.009   4.230 -0.1905 -1.1293  2.9801
 1025SOL    HW214712   4.456   4.110   4.337  0.4536 -2.9896 -0.4431
 1026SOL     OW14713   4.431   0.178   8.742  0.5630 -0.2514  0.2654
 1026SOL    HW114714   4.404   0.161   8.652 -1.5507  1.3061  0.6017
 1026SOL    HW214715   4.526   0.173   8.728  0.6480 -0.6756  1.0077
 1027SOL     OW14716   0.629   4.336   6.356  0.0510  0.3498  0.4985
 1027SOL    HW114717   0.661   4.305   6.272 -0.0229 -0.3295  0.7238
 1027SOL    HW214718   0.716   4.338   6.397  0.0005  0.1494  0.6133
 1028SOL     OW14719   4.073   0.375   6.769 -0.0589  0.6204  0.0614
 1028SOL    HW114720   4.086   0.374   6.674 -0.0748 -1.9659  0.0951
 1028SOL    HW214721   4.034   0.289   6.785  2.3821 -0.4845  0.1444
 1029SOL     OW14722   2.807   3.767   0.947 -0.3391  0.6666 -0.1915
 1029SOL    HW114723   2.754   3.785   1.024  0.0063  0.2435  0.1476
 1029SOL    HW214724   2.826   3.674   0.952  0.2030  0.7705 -0.2750
 1030SOL     OW14725   4.096   3.255   0.133  0.2600  0.0252 -0.5450
 1030SOL    HW114726   4.145   3.239   0.052  0.3941  0.4612 -0.5466
 1030SOL    HW214727   4.012   3.283   0.097  0.0210  1.5398  1.2275
 1031SOL     OW14728   4.064   0.085  12.115 -0.4719 -0.0149 -0.2285
 1031SOL    HW114729   3.982   0.045  12.145  1.0995 -2.5911  0.5868
 1031SOL    HW214730   4.135   0.029  12.146  0.0286 -0.0282 -1.3896
 1032SOL     OW14731   1.421   1.420   7.133  0.3382  0.5344 -0.1452
 1032SOL    HW114732   1.489   1.407   7.066  0.0270 -1.4494 -0.0677
 1032SOL    HW214733   1.474   1.405   7.211 -2.0309  0.2049  1.3877
 1033SOL     OW14734   2.355   2.656   2.500  0.2068 -0.4827  0.1061
 1033SOL    HW114735   2.263   2.652   2.524  0.1781  3.2910  0.6224
 1033SOL    HW214736   2.365   2.584   2.437  0.1059 -1.2062  0.9248
 1034SOL     OW14737   2.317   0.482   1.920  0.0236 -0.4070 -0.3909
 1034SOL    HW114738   2.322   0.543   1.993  0.8191  1.1762 -1.7760
 1034SOL    HW214739   2.357   0.400   1.950  0.1759 -0.8843 -1.8955
 1035SOL     OW14740   2.591   3.262   7.079 -0.6894  0.5415  0.2365
 1035SOL    HW114741   2.593   3.319   7.002  2.2457  0.6544  0.4026
 1035SOL    HW214742   2.628   3.326   7.140  2.2313 -1.2022  0.2838
 1036SOL     OW14743   0.110   4.456   2.872 -0.0044 -0.3772 -0.4010
 1036SOL    HW114744   0.049   4.492   2.808 -1.4790  1.6276  2.1230
 1036SOL    HW214745   0.098   4.514   2.948 -0.9182 -2.0189  0.7094
 1037SOL     OW14746   4.521   1.242  12.258 -0.1283  0.3423 -0.0650
 1037SOL    HW114747   4.515   1.147  12.265 -0.5752  0.3546 -0.3462
 1037SOL    HW214748   4.556   1.266  12.344 -0.0672 -1.1346  0.3173
 1038SOL     OW14749   3.924   0.633   3.913 -0.3210 -0.2876  0.1848
 1038SOL    HW114750   3.957   0.544   3.923 -2.2747 -0.9264  0.8750
 1038SOL    HW214751   4.009   0.678   3.916 -1.4157  2.0599 -3.7899
 1039SOL     OW14752   2.963   0.753   9.561  0.1708 -0.5143 -0.9521
 1039SOL    HW114753   2.994   0.820   9.623 -0.6701 -0.5520 -0.5013
 1039SOL    HW214754   2.879   0.743   9.605  0.0914 -2.4748 -1.5760
 1040SOL     OW14755   0.324   2.115   4.894 -0.2516 -0.5999  0.3772
 1040SOL    HW114756   0.389   2.063   4.942 -1.3786 -4.3919 -2.2728
 1040SOL    HW214757   0.290   2.042   4.843  1.2958 -2.6533  2.3144
 1041SOL     OW14758   1.962   4.585   8.153 -0.0955  0.2120  0.3353
 1041SOL    HW114759   2.010   4.668   8.142 -2.7324  1.9094  1.6246
 1041SOL    HW214760   1.917   4.610   8.233  0.8592  1.6274  0.4424
 1042SOL     OW14761   1.402   0.281   5.818  0.4256  0.3578 -0.1169
 1042SOL    HW114762   1.404   0.286   5.722  0.7216 -0.4213 -0.1509
 1042SOL    HW214763   1.424   0.189   5.834 -1.6432 -0.0326  0.5408
 1043SOL     OW14764   4.155   1.878   7.194 -0.0232 -0.9409 -0.2685
 1043SOL    HW114765   4.186   1.789   7.180 -0.3484 -1.4633  2.3240
 1043SOL    HW214766   4.062   1.871   7.216  0.0361  0.2497  0.3587
 1044SOL     OW14767   1.812   3.819   1.187 -0.1094 -0.0485 -0.2429
 1044SOL    HW114768   1.881   3.761   1.156  1.1631  1.3004  0.0710
 1044SOL    HW214769   1.861   3.857   1.259 -1.5962  0.2100  0.6251
 1045SOL     OW14770   3.460   4.234   5.504  0.2124 -0.2439 -0.3170
 1045SOL    HW114771   3.367   4.210   5.498 -0.0895  0.8741  0.0092
 1045SOL    HW214772   3.467   4.320   5.464  1.1238  0.6343  1.7225
 1046SOL     OW14773   1.182   4.341   3.368  0.9230  0.2948  0.1925
 1046SOL    HW114774   1.174   4.424   3.416 -1.7699 -0.0313  0.2924
 1046SOL    HW214775   1.213   4.367   3.281 -2.5424  1.8658 -0.5525
 1047SOL     OW14776   3.359   1.552   1.849 -0.5495 -0.8902  0.1749
 1047SOL    HW114777   3.327   1.500   1.922 -0.9769 -0.0287  0.6036
 1047SOL    HW214778   3.435   1.583   1.898 -1.5047  2.0176 -0.1718
 1048SOL     OW14779   2.206   0.571   5.733 -0.8414 -0.2706 -0.0005
 1048SOL    HW114780   2.239   0.627   5.803 -1.0178  1.1697 -1.0629
 1048SOL    HW214781   2.254   0.600   5.656  1.0782 -0.6594  1.0593
 1049SOL     OW14782   1.159   3.365   6.579 -0.5873  0.1124 -0.0314
 1049SOL    HW114783   1.181   3.284   6.624  0.6386  0.8093  0.6319
 1049SOL    HW214784   1.200   3.354   6.493  0.0616  0.2379  0.2615
 1050SOL     OW14785   4.135   0.317  12.419 -0.2626  0.5922  0.7076
 1050SOL    HW114786   4.188   0.289  12.495 -0.9996  2.4822  1.9069
 1050SOL    HW214787   4.186   0.387  12.379  2.0378 -2.3614 -1.5144
 1051SOL     OW14788   4.414   4.121   2.588 -0.3780  0.1298  0.2347
 1051SOL    HW114789   4.489   4.116   2.646  0.0181  1.3144 -0.1818
 1051SOL    HW214790   4.345   4.162   2.639 -0.5691  0.6294 -0.4234
 1052SOL     OW14791   4.630   4.416  10.123  0.4540  0.2476  0.1398
 1052SOL    HW114792   4.665   4.474  10.191  0.6300 -0.8724  1.0094
 1052SOL    HW214793   4.703   4.360  10.099 -1.9156 -2.9322  0.3245
 1053SOL     OW14794   0.977   4.327   4.280  0.5141  0.0080  0.1969
 1053SOL    HW114795   0.893   4.281   4.290  2.1777 -2.9037  0.7977
 1053SOL    HW214796   1.030   4.295   4.353 -0.2969 -1.2127  0.2721
 1054SOL     OW14797   3.970   3.401   4.355  0.4256  0.9307  0.5327
 1054SOL    HW114798   4.055   3.446   4.352 -0.3402  2.4182  1.3231
 1054SOL    HW214799   3.995   3.330   4.414 -0.2797  1.1877  1.1315
 1055SOL     OW14800   1.148   0.506   8.607  0.4782 -0.5744  0.0085
 1055SOL    HW114801   1.199   0.505   8.689  0.6832  1.2604 -0.0861
 1055SOL    HW214802   1.163   0.598   8.584  0.1750 -0.0923  1.7400
 1056SOL     OW14803   0.630   2.121   0.290 -0.3168  0.4211 -0.0204
 1056SOL    HW114804   0.558   2.080   0.338 -0.9609 -0.1884 -1.5366
 1056SOL    HW214805   0.659   2.182   0.358  1.3010  1.0896 -1.3243
 1057SOL     OW14806   0.641   1.345   6.347 -0.2664 -0.0885 -0.4011
 1057SOL    HW114807   0.632   1.323   6.440 -0.7153  0.6067 -0.2799
 1057SOL    HW214808   0.561   1.298   6.321 -1.8050  1.7300  1.0222
 1058SOL     OW14809   2.866   2.896   3.141 -0.7706  0.0776  0.1958
 1058SOL    HW114810   2.798   2.942   3.093 -0.0278  2.6148  1.5491
 1058SOL    HW214811   2.938   2.895   3.078 -1.0627 -0.0463 -0.1329
 1059SOL     OW14812   2.948   3.552   5.963 -0.5436  0.2428 -0.0301
 1059SOL    HW114813   2.961   3.645   5.945  1.5006  0.0953  0.6309
 1059SOL    HW214814   2.867   3.560   6.013  0.9176  1.7623  2.1092
 1060SOL     OW14815   4.218   3.659  13.615 -0.0875 -0.4097  0.6521
 1060SOL    HW114816   4.205   3.636  13.523  2.0394 -0.1001  0.2590
 1060SOL    HW214817   4.262   3.744  13.607 -0.8267 -0.2154 -1.3653
 1061SOL     OW14818   0.395   1.401   6.733 -0.4387  0.0045 -0.4379
 1061SOL    HW114819   0.381   1.440   6.647 -1.0926  1.2983  0.2639
 1061SOL    HW214820   0.444   1.473   6.773 -0.5071 -0.3174  0.2284
 1062SOL     OW14821   0.378   3.363   8.833  0.1486 -0.0574  0.0548
 1062SOL    HW114822   0.299   3.316   8.808  1.0510 -0.1707 -2.5146
 1062SOL    HW214823   0.428   3.344   8.754 -0.8197  0.8248 -0.7715
 1063SOL     OW14824   1.221   4.693  10.525  0.0311 -0.0969  0.4236
 1063SOL    HW114825   1.176   0.043  10.539  1.5584  0.6401  0.9960
 1063SOL    HW214826   1.176   4.668  10.445  1.9002 -2.1771  0.0103
 1064SOL     OW14827   1.913   2.341  12.619 -0.0003  0.0947 -0.5059
 1064SOL    HW114828   1.868   2.370  12.540 -1.8935 -1.9231 -0.1493
 1064SOL    HW214829   1.921   2.247  12.605  2.9882  0.4529 -1.2046
 1065SOL     OW14830   4.702   3.163  12.733 -0.5244 -0.2113 -0.4367
 1065SOL    HW114831   4.620   3.212  12.738 -0.9250 -0.7889 -1.3593
 1065SOL    HW214832   0.023   3.205  12.666  0.5509 -0.1241  0.4833
 1066SOL     OW14833   2.248   3.613   4.019  0.0208 -0.1041  0.6914
 1066SOL    HW114834   2.317   3.566   3.973 -1.0343 -0.1054 -0.8947
 1066SOL    HW214835   2.169   3.562   3.999 -0.2740  0.4927  0.3033
 1067SOL     OW14836   3.113   2.788   1.977  0.0203  0.0005  0.1747
 1067SOL    HW114837   3.140   2.809   2.066  3.2088 -2.9119 -0.1153
 1067SOL    HW214838   3.186   2.803   1.917  0.2755  1.3880  0.8230
 1068SOL     OW14839   3.326   4.515   5.442  0.0279 -0.6045  0.1863
 1068SOL    HW114840   3.372   4.583   5.392  2.7424 -1.0264  2.1428
 1068SOL    HW214841   3.277   4.469   5.373  0.8266 -1.6736  0.3292
 1069SOL     OW14842   3.657   4.370   9.343 -0.3130 -0.1568 -0.4377
 1069SOL    HW114843   3.625   4.460   9.352  0.2017  0.1574 -1.7637
 1069SOL    HW214844   3.590   4.318   9.388  0.0648  0.4995  0.8930
 1070SOL     OW14845   0.573   2.471   7.472  0.3445 -0.4982  0.0895
 1070SOL    HW114846   0.589   2.382   7.441  0.0532 -0.0847 -1.2444
 1070SOL    HW214847   0.652   2.515   7.441 -0.0822  0.7410  0.7570
 1071SOL     OW14848   1.161   3.825   0.563  0.2753  0.2413  0.1377
 1071SOL    HW114849   1.239   3.849   0.512 -1.1063 -2.1212 -2.9926
 1071SOL    HW214850   1.157   3.732   0.541  0.2854 -0.0356  1.3010
 1072SOL     OW14851   1.030   4.413   8.327  0.3711 -0.3428  0.1208
 1072SOL    HW114852   1.046   4.325   8.292  5.5497  0.9131 -0.6465
 1072SOL    HW214853   0.970   4.445   8.260  0.5958  0.9377  0.5385
 1073SOL     OW14854   2.542   1.676  16.261  0.3376 -0.3034 -0.7589
 1073SOL    HW114855   2.453   1.711  16.268  0.9183  0.8487  0.8871
 1073SOL    HW214856   2.535   1.590  16.303  0.9216  0.2112  0.3939
 1074SOL     OW14857   3.832   0.282   6.183  0.2871  0.3370 -0.4618
 1074SOL    HW114858   3.894   0.244   6.245  0.0064  1.0199  0.2295
 1074SOL    HW214859   3.882   0.344   6.128 -2.8508  2.1270 -1.2765
 1075SOL     OW14860   3.075   0.993   6.918  0.2395 -0.5808 -0.3117
 1075SOL    HW114861   3.160   1.001   6.962  0.8028 -0.0521 -1.4989
 1075SOL    HW214862   3.077   1.060   6.850 -3.0819  1.5243  1.6282
 1076SOL     OW14863   1.754   4.048   8.427  0.0647  0.0755  0.2170
 1076SOL    HW114864   1.696   3.971   8.425  0.9814 -0.6547  2.0808
 1076SOL    HW214865   1.833   4.022   8.474 -1.4241 -1.2750  2.0214
 1077SOL     OW14866   1.823   2.773  15.521  0.2953 -0.2700 -0.2548
 1077SOL    HW114867   1.904   2.730  15.493  0.4281 -1.0155  1.2753
 1077SOL    HW214868   1.811   2.738  15.609 -0.5951  0.6242 -0.0232
 1078SOL     OW14869   4.304   4.330  10.572  0.2848 -0.0722 -0.2028
 1078SOL    HW114870   4.361   4.279  10.630  0.7765 -0.5512 -1.1062
 1078SOL    HW214871   4.359   4.330  10.493 -0.4263 -1.2809 -0.6892
 1079SOL     OW14872   0.070   3.219  17.132  0.1368 -0.1362 -0.5759
 1079SOL    HW114873   4.730   3.277  17.113  0.6680  0.7194  0.0361
 1079SOL    HW214874   0.105   3.186  17.048 -0.4837  1.3907 -1.4257
 1080SOL     OW14875   2.891   0.324   7.194  0.1746 -0.2768  0.2489
 1080SOL    HW114876   2.961   0.287   7.248  2.9000  2.5432 -1.3635
 1080SOL    HW214877   2.825   0.257   7.209 -1.5744  0.8955 -2.2464
 1081SOL     OW14878   1.704   2.821  12.694  0.1011 -0.1588 -0.1773
 1081SOL    HW114879   1.784   2.864  12.723  0.4086 -1.8742  1.4625
 1081SOL    HW214880   1.740   2.765  12.625  0.5313  0.5094 -0.4954
 1082SOL     OW14881   3.424   2.561  10.733 -0.2704  0.0769 -0.0969
 1082SOL    HW114882   3.346   2.511  10.758 -0.2571  0.5124  0.8335
 1082SOL    HW214883   3.387   2.649  10.736  0.3520  0.3481 -0.3939
 1083SOL     OW14884   4.492   1.482   7.842 -0.3007 -0.2544  0.0247
 1083SOL    HW114885   4.462   1.524   7.762 -0.2987  1.9425  1.1898
 1083SOL    HW214886   4.572   1.450   7.799 -0.4508 -0.1171 -0.3534
 1084SOL     OW14887   4.107   3.099   3.349 -0.4082  0.3729 -0.5497
 1084SOL    HW114888   4.163   3.077   3.274  2.1983  0.3954  1.4014
 1084SOL    HW214889   4.158   3.173   3.381 -1.0903  0.5053  0.2116
 1085SOL     OW14890   2.040   2.711   8.113  0.8134  0.2328 -0.5049
 1085SOL    HW114891   2.127   2.725   8.077  1.3118 -1.1997  0.1687
 1085SOL    HW214892   2.003   2.664   8.038  2.0356  0.0445 -0.9815
 1086SOL     OW14893   4.079   1.818   7.956 -0.2105  0.8115 -0.2976
 1086SOL    HW114894   4.165   1.859   7.967  0.0378  0.3976 -0.6628
 1086SOL    HW214895   4.021   1.894   7.954  0.9744  1.7430  1.0364
 1087SOL     OW14896   1.010   0.367   5.375  0.0349 -0.9759  0.1395
 1087SOL    HW114897   1.086   0.385   5.319  0.0054  0.2592  0.4843
 1087SOL    HW214898   1.045   0.392   5.461 -0.5475  0.5040 -0.0531
 1088SOL     OW14899   3.614   1.006   8.881  0.1561  0.5723 -0.2968
 1088SOL    HW114900   3.613   0.984   8.974  0.2232  6.2235  1.0857
 1088SOL    HW214901   3.662   1.088   8.899  0.9656 -0.2300  1.1901
 1089SOL     OW14902   3.893   0.300   4.310 -0.4763 -0.1579  0.3685
 1089SOL    HW114903   3.962   0.344   4.259  0.0015  1.1608  2.1259
 1089SOL    HW214904   3.921   0.303   4.401  1.1994  2.4511 -0.2108
 1090SOL     OW14905   1.808   1.661   7.749  0.1165  0.4016  0.3984
 1090SOL    HW114906   1.871   1.644   7.819  2.8558  4.1656 -1.1757
 1090SOL    HW214907   1.745   1.708   7.803 -0.6883  0.9165 -0.9720
 1091SOL     OW14908   2.795   4.504   6.378 -0.3970  0.5056  0.2659
 1091SOL    HW114909   2.855   4.545   6.316  1.3087 -2.0039  0.2734
 1091SOL    HW214910   2.788   4.574   6.443 -0.5599  0.5935  0.1555
 1092SOL     OW14911   0.762   4.077  14.659 -0.3389  0.4859 -0.0731
 1092SOL    HW114912   0.699   4.111  14.723 -0.4870 -0.9387  0.5415
 1092SOL    HW214913   0.738   3.989  14.631  2.4356 -0.6273  1.0163
 1093SOL     OW14914   0.857   4.106   7.800  0.1723  0.2781 -0.4679
 1093SOL    HW114915   0.930   4.044   7.798  1.3707  1.7484 -2.1364
 1093SOL    HW214916   0.886   4.163   7.871 -2.0121 -0.4299  0.9836
 1094SOL     OW14917   2.386   3.872   3.964  0.0554 -0.1249 -0.4367
 1094SOL    HW114918   2.469   3.908   3.995 -0.1054  1.1331 -1.4495
 1094SOL    HW214919   2.414   3.782   3.948  0.5697 -0.0475  0.0033
 1095SOL     OW14920   3.409   4.193  10.044 -0.1721 -0.0978 -0.4288
 1095SOL    HW114921   3.410   4.140  10.124  2.4454 -1.5518 -1.4561
 1095SOL    HW214922   3.332   4.157  10.001 -0.4533  1.3646 -1.1624
 1096SOL     OW14923   0.018   4.198   8.742 -0.3329  0.0589 -0.2068
 1096SOL    HW114924   4.688   4.195   8.814 -0.3041 -2.8027 -0.3024
 1096SOL    HW214925   0.060   4.112   8.754 -0.7754 -0.3274 -1.3699
 1097SOL     OW14926   4.643   0.296   4.624 -0.2871  0.5451 -0.9263
 1097SOL    HW114927   4.713   0.335   4.677 -0.8271  1.1785 -0.6741
 1097SOL    HW214928   4.610   0.372   4.575 -0.9954  1.5431  1.0722
 1098SOL     OW14929   2.801   2.260   5.694  0.2766 -0.0392 -0.1391
 1098SOL    HW114930   2.817   2.279   5.601 -1.4904  2.2094  0.0209
 1098SOL    HW214931   2.743   2.185   5.681 -1.8257  1.2834  1.6393
 1099SOL     OW14932   3.277   3.563   2.930  0.5689 -0.6360  0.6493
 1099SOL    HW114933   3.245   3.538   2.844 -0.9573 -0.0055  1.0190
 1099SOL    HW214934   3.366   3.592   2.912  1.1896 -2.4633  0.7875
 1100SOL     OW14935   4.068   1.770   1.709  0.3286 -0.0824 -0.0697
 1100SOL    HW114936   4.010   1.829   1.661 -2.2852 -0.4877  2.5361
 1100SOL    HW214937   4.005   1.706   1.744 -0.7912  1.7510  1.2418
 1101SOL     OW14938   2.822   4.336   3.030 -0.6588 -0.3741  0.2566
 1101SOL    HW114939   2.831   4.242   3.045 -0.0435 -0.0363  2.0329
 1101SOL    HW214940   2.729   4.341   3.011 -0.9224 -2.0466  1.1444
 1102SOL     OW14941   0.416   0.491  14.704  0.2916  0.0689 -0.0956
 1102SOL    HW114942   0.431   0.400  14.731 -3.8085 -0.8247 -0.7226
 1102SOL    HW214943   0.333   0.509  14.749  0.8949  0.5607  0.8170
 1103SOL     OW14944   0.792   1.858   4.960  0.5395  0.0062  0.1823
 1103SOL    HW114945   0.861   1.923   4.970 -0.8031  1.3734  0.5400
 1103SOL    HW214946   0.762   1.855   5.051 -2.5171  0.4373 -0.8048
 1104SOL     OW14947   2.239   1.625   6.685 -0.0616  0.7404 -0.0977
 1104SOL    HW114948   2.273   1.542   6.719  1.1213  1.3054  0.1095
 1104SOL    HW214949   2.154   1.588   6.662 -0.0510 -0.0129  1.0106
 1105SOL     OW14950   1.762   2.490   7.660  0.1472 -0.1508 -0.2465
 1105SOL    HW114951   1.820   2.413   7.655 -2.5030 -2.2520  1.0203
 1105SOL    HW214952   1.788   2.534   7.579 -1.1098 -0.3966 -0.7714
 1106SOL     OW14953   4.319   0.791   0.692  0.4805  0.4527 -1.0374
 1106SOL    HW114954   4.236   0.795   0.644 -0.4117  0.9594  0.5230
 1106SOL    HW214955   4.349   0.880   0.671 -0.3436  1.1809  0.8298
 1107SOL     OW14956   0.076   3.030   8.379 -0.2050 -0.1525  0.0144
 1107SOL    HW114957   0.081   2.935   8.385 -1.3316 -0.1365  1.3756
 1107SOL    HW214958   0.040   3.056   8.464 -2.3606  1.1318 -1.3031
 1108SOL     OW14959   1.936   4.539   6.597 -0.3997  0.2889  0.7886
 1108SOL    HW114960   1.923   4.630   6.624 -0.8592  0.0421  1.4018
 1108SOL    HW214961   1.887   4.527   6.516  1.1627 -2.1129  0.1833
 1109SOL     OW14962   2.219   1.450   9.631 -0.4948 -0.4720 -0.6195
 1109SOL    HW114963   2.220   1.424   9.539  1.0528 -4.6127  0.5817
 1109SOL    HW214964   2.188   1.373   9.677 -0.4420  1.0185  1.9536
 1110SOL     OW14965   1.809   2.288   2.255 -0.1557 -0.0010  0.1975
 1110SOL    HW114966   1.792   2.281   2.349 -0.9174 -1.3906 -0.0291
 1110SOL    HW214967   1.892   2.243   2.240 -0.0381  0.9509 -1.9811
 1111SOL     OW14968   1.841   0.858   1.710  0.3152 -0.0224  0.2648
 1111SOL    HW114969   1.916   0.816   1.753  2.1406  2.0155 -0.9290
 1111SOL    HW214970   1.780   0.812   1.769 -0.6511 -0.2041 -0.8820
 1112SOL     OW14971   0.693   0.530   4.695 -0.0758  0.4542 -0.0474
 1112SOL    HW114972   0.708   0.446   4.737 -0.9011  1.1158  1.5391
 1112SOL    HW214973   0.743   0.529   4.613  0.9433 -0.7972  0.5993
 1113SOL     OW14974   4.374   0.865   3.030 -0.4488 -0.3260  0.0357
 1113SOL    HW114975   4.318   0.921   3.085 -0.8496 -1.4366  0.7526
 1113SOL    HW214976   4.436   0.930   2.997 -0.0018  0.2704  2.0417
 1114SOL     OW14977   0.240   0.833   7.459 -0.5783 -0.5245 -0.4207
 1114SOL    HW114978   0.268   0.835   7.367 -1.1915 -1.0578 -0.6248
 1114SOL    HW214979   0.146   0.833   7.441 -0.3118  1.0493 -1.8362
 1115SOL     OW14980   1.244   0.560   9.222  0.4178 -0.3554  0.8602
 1115SOL    HW114981   1.230   0.467   9.238 -0.7964 -0.5538 -1.3130
 1115SOL    HW214982   1.339   0.563   9.239  0.9090  0.1990 -1.9548
 1116SOL     OW14983   4.446   0.817   8.363 -0.0799  0.3640 -0.1328
 1116SOL    HW114984   4.533   0.854   8.350  0.0200  0.4093  0.6692
 1116SOL    HW214985   4.421   0.772   8.282 -2.4567 -1.6537  1.7119
 1117SOL     OW14986   3.321   2.797   1.533  0.0521 -0.2470 -0.0839
 1117SOL    HW114987   3.353   2.707   1.545 -0.9939 -0.5528  0.4147
 1117SOL    HW214988   3.291   2.784   1.444  1.1141  0.0496 -0.4868
 1118SOL     OW14989   4.331   4.325  13.734 -0.4164 -0.0185 -0.0701
 1118SOL    HW114990   4.272   4.401  13.735  0.0540  0.3495 -1.4755
 1118SOL    HW214991   4.326   4.293  13.645  0.7208 -0.7406  0.1356
 1119SOL     OW14992   1.734   3.635   7.300  0.4079  0.1793  0.0077
 1119SOL    HW114993   1.787   3.617   7.222  0.4487 -0.2213  0.1311
 1119SOL    HW214994   1.806   3.624   7.362  0.6241  0.8887 -0.1225
 1120SOL     OW14995   3.901   0.264  16.945  0.6277 -0.6884  0.3097
 1120SOL    HW114996   3.986   0.222  16.961 -0.4350 -2.1176  2.2092
 1120SOL    HW214997   3.852   0.193  16.904 -0.0746  1.3282 -2.3051
 1121SOL     OW14998   1.429   2.494   5.946 -0.1724 -0.1980  0.2379
 1121SOL    HW114999   1.372   2.417   5.957 -1.9052  1.1607  0.8172
 1121SOL    HW215000   1.479   2.479   6.026 -0.3218 -1.1660  0.1563
 1122SOL     OW15001   4.221   2.933   2.953 -0.4225 -0.5927 -0.6197
 1122SOL    HW115002   4.183   2.952   2.868  0.1907 -0.6922 -0.9121
 1122SOL    HW215003   4.302   2.983   2.944 -1.2687  0.4858 -2.2346
 1123SOL     OW15004   3.177   1.026   5.994  0.2479 -0.1869 -0.5804
 1123SOL    HW115005   3.259   1.070   5.971 -0.7362  1.3077 -1.2442
 1123SOL    HW215006   3.201   0.953   6.051 -2.6278 -0.4086  0.3590
 1124SOL     OW15007   4.732   2.064  15.465  0.0706 -0.2777 -0.0148
 1124SOL    HW115008   0.073   2.120  15.444  0.0454  0.3680  1.6062
 1124SOL    HW215009   0.037   2.023  15.542 -0.6867 -0.8644  0.0465
 1125SOL     OW15010   2.246   2.370   5.100  0.6632  0.1917 -0.1275
 1125SOL    HW115011   2.158   2.337   5.079  0.6395 -0.5892  1.1908
 1125SOL    HW215012   2.223   2.463   5.095 -0.9891 -0.2114 -0.0020
 1126SOL     OW15013   3.470   1.826   0.137 -0.4160 -0.1521 -0.4940
 1126SOL    HW115014   3.526   1.857   0.065  0.2949  0.0379  0.1450
 1126SOL    HW215015   3.524   1.857   0.209 -2.3373 -0.3055  1.0240
 1127SOL     OW15016   0.713   1.600   4.274  0.1593  0.6047 -0.0137
 1127SOL    HW115017   0.642   1.642   4.324  0.2794  0.8033 -0.0094
 1127SOL    HW215018   0.680   1.631   4.190 -1.4485 -1.4538 -0.1466
 1128SOL     OW15019   0.768   3.160   6.970  0.0519 -0.4927  0.6435
 1128SOL    HW115020   0.707   3.107   7.021 -1.2599  2.7922  2.4567
 1128SOL    HW215021   0.752   3.124   6.883 -2.1231  0.9105  0.4745
 1129SOL     OW15022   4.312   4.565   9.745 -0.1478 -0.5595  0.0341
 1129SOL    HW115023   4.313   4.656   9.716 -0.7113 -1.0662 -1.5606
 1129SOL    HW215024   4.348   4.560   9.834 -1.2309  1.2945  0.5850
 1130SOL     OW15025   3.948   4.545   6.028  0.6913 -0.3633 -0.1710
 1130SOL    HW115026   3.988   4.632   6.028  0.7743 -0.3988  1.8686
 1130SOL    HW215027   4.018   4.484   6.003  0.1813 -0.9202 -0.2517
 1131SOL     OW15028   1.053   3.832  15.339 -0.0379  0.4461  0.6763
 1131SOL    HW115029   1.065   3.924  15.317 -0.5089  0.1740 -0.7335
 1131SOL    HW215030   0.965   3.823  15.376 -0.7873  1.9665 -0.7249
 1132SOL     OW15031   1.514   3.517   8.718  0.3772 -0.3339  0.0998
 1132SOL    HW115032   1.443   3.477   8.769 -1.0740 -0.1262 -1.7718
 1132SOL    HW215033   1.476   3.604   8.709  0.9737  0.1733  2.3722
 1133SOL     OW15034   2.710   3.728   9.384  0.2996  0.1240  0.8481
 1133SOL    HW115035   2.784   3.785   9.365  0.3347  0.0098  0.6365
 1133SOL    HW215036   2.713   3.673   9.306 -4.4582 -0.9201  1.3520
 1134SOL     OW15037   0.422   3.538   8.357  0.5496 -0.3394 -0.1783
 1134SOL    HW115038   0.506   3.560   8.317  1.1869 -1.1261  0.7100
 1134SOL    HW215039   0.436   3.486   8.437  1.7285  0.7588  0.3454
 1135SOL     OW15040   2.079   2.180   4.351 -0.5410 -0.0830 -0.0638
 1135SOL    HW115041   2.037   2.234   4.418 -1.8530 -0.7775 -0.3142
 1135SOL    HW215042   2.088   2.242   4.278  0.1424  0.8052  0.7699
 1136SOL     OW15043   1.372   1.499   2.750 -0.4061 -0.5777  0.2278
 1136SOL    HW115044   1.376   1.407   2.725 -1.1203 -0.6954  0.5542
 1136SOL    HW215045   1.374   1.495   2.845 -0.2461  1.9295  0.3188
 1137SOL     OW15046   1.556   1.766  10.594 -0.5029  0.1090  0.3389
 1137SOL    HW115047   1.630   1.826  10.590 -1.4012  1.0911 -1.5361
 1137SOL    HW215048   1.504   1.798  10.520 -2.3287 -0.4343  1.4102
 1138SOL     OW15049   2.256   3.254   5.139 -0.2620 -0.4554  0.3012
 1138SOL    HW115050   2.249   3.171   5.091 -2.6231 -2.1547  3.5369
 1138SOL    HW215051   2.349   3.275   5.136 -0.2131 -0.2566  3.2072
 1139SOL     OW15052   4.553   4.584   6.554  0.1278 -0.4880  0.1551
 1139SOL    HW115053   4.460   4.602   6.565  0.1155 -0.5607  0.1740
 1139SOL    HW215054   4.592   4.652   6.609 -0.0192 -0.5647  0.3545
 1140SOL     OW15055   0.610   0.914   4.213  0.3313 -0.0409  0.0372
 1140SOL    HW115056   0.556   0.873   4.280 -0.6557  2.2175  0.6092
 1140SOL    HW215057   0.674   0.955   4.271  1.0737 -0.1296 -0.7120
 1141SOL     OW15058   3.627   3.254  10.293  0.3092  0.1522  0.0582
 1141SOL    HW115059   3.589   3.171  10.322 -0.0849 -0.3931 -2.0098
 1141SOL    HW215060   3.585   3.305  10.363 -0.2427  1.1266 -0.9699
 1142SOL     OW15061   4.241   2.024   2.157 -0.6236  0.5352 -0.0593
 1142SOL    HW115062   4.228   2.082   2.083  0.6540 -0.2571 -0.9132
 1142SOL    HW215063   4.313   2.069   2.203 -0.7626  0.5754  0.1189
 1143SOL     OW15064   1.267   3.235   1.830  0.1107 -0.0689  0.0748
 1143SOL    HW115065   1.262   3.195   1.917  0.0662 -0.3722 -0.0670
 1143SOL    HW215066   1.201   3.185   1.783  1.1836 -0.2512 -1.2462
 1144SOL     OW15067   2.690   0.298  15.045  0.6512 -0.5143  0.1416
 1144SOL    HW115068   2.596   0.290  15.063  0.5051  3.7616  1.3023
 1144SOL    HW215069   2.690   0.352  14.966  2.3916 -2.4120 -1.1440
 1145SOL     OW15070   0.970   3.345  16.771 -0.3308  0.5147  0.0738
 1145SOL    HW115071   0.908   3.414  16.746  0.4328  0.3798 -2.2134
 1145SOL    HW215072   0.938   3.294  16.845 -0.5303 -1.4456 -1.3791
 1146SOL     OW15073   2.393   0.882  13.289  0.4493 -0.1420  0.4881
 1146SOL    HW115074   2.420   0.856  13.201  0.6867  1.1498  0.1722
 1146SOL    HW215075   2.299   0.864  13.296  0.4480 -1.3825 -3.1808
 1147SOL     OW15076   3.383   2.578   8.625 -0.1849  0.3571 -0.1273
 1147SOL    HW115077   3.476   2.581   8.606  0.3131 -1.2603  2.0108
 1147SOL    HW215078   3.353   2.526   8.550  1.5469 -0.5292 -0.2032
 1148SOL     OW15079   4.037   3.152   7.574  0.0725  0.1051 -0.1015
 1148SOL    HW115080   3.995   3.067   7.568  0.4226 -0.0554 -0.3080
 1148SOL    HW215081   4.098   3.137   7.646 -0.9033 -0.0914  0.6849
 1149SOL     OW15082   0.094   1.881   9.690  0.3527  0.3621  0.6354
 1149SOL    HW115083   0.119   1.817   9.757 -1.8419 -1.3990 -0.2321
 1149SOL    HW215084   0.139   1.957   9.727 -0.1473  1.2639 -0.6403
 1150SOL     OW15085   2.363   1.106   3.616  0.4306 -0.5654  0.5818
 1150SOL    HW115086   2.448   1.073   3.645  0.8450  0.5770  0.6576
 1150SOL    HW215087   2.326   1.050   3.547 -0.2378 -2.2461  2.3017
 1151SOL     OW15088   2.811   2.333   6.994  0.1815  0.0672  0.3098
 1151SOL    HW115089   2.852   2.420   6.992 -3.0860  1.5356 -2.5483
 1151SOL    HW215090   2.816   2.312   7.087 -0.1251 -2.3583 -0.2376
 1152SOL     OW15091   2.973   4.219   5.185 -0.2162 -0.1213  0.1125
 1152SOL    HW115092   2.882   4.206   5.211 -0.2362 -1.4359 -0.6007
 1152SOL    HW215093   3.020   4.149   5.231  0.9768  0.3558 -0.3679
 1153SOL     OW15094   0.389   0.662   8.747 -0.3785 -0.0477  0.4860
 1153SOL    HW115095   0.311   0.610   8.762 -0.6951  0.8049  1.7756
 1153SOL    HW215096   0.439   0.607   8.687  0.7661  0.5922  0.8486
 1154SOL     OW15097   2.928   3.747   1.715 -0.2411 -0.2911 -0.1564
 1154SOL    HW115098   2.918   3.655   1.739 -3.5666 -0.3368 -1.7868
 1154SOL    HW215099   2.841   3.772   1.686 -0.3793  0.8947  1.2862
 1155SOL     OW15100   3.144   1.823   3.792 -0.2387  0.3382  0.3269
 1155SOL    HW115101   3.160   1.899   3.736 -1.4564 -0.6293 -1.3438
 1155SOL    HW215102   3.057   1.846   3.825 -0.1110 -0.8792  1.5358
 1156SOL     OW15103   4.572   4.422  13.352 -0.2478 -0.3692 -0.0756
 1156SOL    HW115104   4.541   4.496  13.301 -1.0408  1.4494  3.0806
 1156SOL    HW215105   4.668   4.428  13.347 -0.1867 -1.2169  0.1475
 1157SOL     OW15106   3.747   2.259   8.228 -0.0790  0.8711  0.1746
 1157SOL    HW115107   3.759   2.292   8.317 -0.0227 -1.4589  1.0496
 1157SOL    HW215108   3.787   2.329   8.176 -2.4975  1.4853 -0.8228
 1158SOL     OW15109   2.528   0.363   0.398 -0.4036  0.5564  0.1403
 1158SOL    HW115110   2.554   0.319   0.479  1.8058  1.0146 -0.3198
 1158SOL    HW215111   2.512   0.292   0.336  0.2173  0.0747  0.5335
 1159SOL     OW15112   0.263   1.552   2.161 -0.3601 -0.0515 -0.1803
 1159SOL    HW115113   0.304   1.608   2.095  1.0468 -1.2681 -0.3449
 1159SOL    HW215114   0.206   1.496   2.108 -0.9405 -0.2432  0.6450
 1160SOL     OW15115   1.146   4.591   9.530 -0.3638 -0.1322 -0.7866
 1160SOL    HW115116   1.073   4.649   9.510  0.6090  1.4753  0.2611
 1160SOL    HW215117   1.098   4.509   9.543  1.6300 -1.0868  0.7637
 1161SOL     OW15118   0.351   1.314  12.311 -0.1396 -0.7545  0.1476
 1161SOL    HW115119   0.387   1.364  12.384  0.6861 -1.4404  0.2013
 1161SOL    HW215120   0.425   1.316  12.250 -0.1668 -0.4885  0.1253
 1162SOL     OW15121   2.894   4.531   1.648  0.4167 -0.1632 -0.0108
 1162SOL    HW115122   2.830   4.598   1.674  2.0191  0.7535  1.5265
 1162SOL    HW215123   2.964   4.583   1.608  0.1723 -0.5275 -0.9110
 1163SOL     OW15124   0.138   0.866  16.371 -0.1562 -0.2494 -0.2051
 1163SOL    HW115125   0.101   0.926  16.436 -0.1978 -0.9519  0.4211
 1163SOL    HW215126   0.060   0.820  16.341 -0.1174 -0.5451  0.1412
 1164SOL     OW15127   2.508   1.713   9.390  0.0963 -0.6146 -0.3880
 1164SOL    HW115128   2.524   1.808   9.388  0.2489 -0.6105  1.2938
 1164SOL    HW215129   2.593   1.684   9.357 -0.8457 -0.7064 -2.7968
 1165SOL     OW15130   3.030   0.250   5.236 -0.3355  0.7397 -0.2031
 1165SOL    HW115131   3.076   0.167   5.252 -1.6802  0.2403  1.1479
 1165SOL    HW215132   2.979   0.226   5.159 -0.3719 -1.4194  0.4775
 1166SOL     OW15133   0.328   1.488   7.204  0.0821 -0.2897  0.0265
 1166SOL    HW115134   0.406   1.512   7.155  1.3699 -2.2677  1.0774
 1166SOL    HW215135   0.257   1.509   7.144  0.3969  1.0093  0.0985
 1167SOL     OW15136   4.250   1.496   6.687  0.3312 -0.5356 -0.0907
 1167SOL    HW115137   4.250   1.408   6.649  0.8049 -0.7522  0.4093
 1167SOL    HW215138   4.299   1.474   6.766 -2.0854 -0.9215  1.3203
 1168SOL     OW15139   3.721   1.517   5.833 -0.0541 -0.0853  0.7088
 1168SOL    HW115140   3.714   1.424   5.856  1.0141 -0.2095  0.5048
 1168SOL    HW215141   3.639   1.530   5.785  0.3296  0.9197  0.3220
 1169SOL     OW15142   2.307   0.522   6.157 -0.3645 -0.8035  0.0084
 1169SOL    HW115143   2.390   0.566   6.137  0.1148 -2.3679 -1.5080
 1169SOL    HW215144   2.335   0.430   6.156 -0.8248 -0.9254 -1.8536
 1170SOL     OW15145   3.615   1.084  16.067  0.0205 -0.0041 -0.3893
 1170SOL    HW115146   3.552   1.042  16.008 -0.2876 -0.8193  0.5162
 1170SOL    HW215147   3.583   1.174  16.071 -1.3698 -0.4660 -1.1735
 1171SOL     OW15148   2.182   4.334   3.181  0.1925  0.5738  0.2369
 1171SOL    HW115149   2.167   4.328   3.275  0.3738  1.9162  0.3424
 1171SOL    HW215150   2.278   4.340   3.178  0.2802 -2.2707 -2.5140
 1172SOL     OW15151   0.396   0.093   8.536  0.2982 -0.0128 -0.0598
 1172SOL    HW115152   0.331   0.104   8.606  1.1317 -0.4569  0.7919
 1172SOL    HW215153   0.370   0.010   8.497  3.7426 -1.6176  1.0702
 1173SOL     OW15154   1.992   4.612   0.836  0.1061  0.0153  0.0867
 1173SOL    HW115155   2.049   4.687   0.855 -0.9407  0.6866  0.5558
 1173SOL    HW215156   1.911   4.650   0.870  1.1807  1.8075  0.6556
 1174SOL     OW15157   4.183   1.495   4.186  0.0211 -0.0125  0.2495
 1174SOL    HW115158   4.195   1.553   4.262 -0.7426  0.6122 -0.0992
 1174SOL    HW215159   4.245   1.425   4.205 -1.8536 -1.8045 -0.2965
 1175SOL     OW15160   2.563   3.181   3.722  0.5251  0.1912 -0.0824
 1175SOL    HW115161   2.588   3.245   3.788 -2.0623  0.5202  0.5851
 1175SOL    HW215162   2.642   3.140   3.688 -0.5438 -0.7048 -1.5347
 1176SOL     OW15163   2.499   0.473  15.630  0.1301  0.8797 -0.4321
 1176SOL    HW115164   2.551   0.526  15.570  0.9113 -0.8808 -1.2886
 1176SOL    HW215165   2.439   0.425  15.575 -0.9422  3.5474 -1.5865
 1177SOL     OW15166   2.722   3.703   3.430 -0.2705  0.3047  0.0948
 1177SOL    HW115167   2.696   3.620   3.470 -1.8597  0.6672 -0.1821
 1177SOL    HW215168   2.668   3.701   3.350  0.1828  0.9245 -0.2219
 1178SOL     OW15169   0.806   3.541   9.530 -0.4927 -0.6758 -0.0932
 1178SOL    HW115170   0.900   3.526   9.537 -0.2875  1.0551  0.6626
 1178SOL    HW215171   0.796   3.613   9.468 -0.0119  0.0415  0.6673
 1179SOL     OW15172   1.828   3.346   1.850 -0.3850 -0.7552  0.0129
 1179SOL    HW115173   1.768   3.326   1.922  0.0389  0.8093  0.7902
 1179SOL    HW215174   1.771   3.382   1.782  0.2009 -0.3835 -0.2811
 1180SOL     OW15175   2.067   0.248   3.609  0.0640  0.5201  0.3368
 1180SOL    HW115176   2.119   0.267   3.531 -2.3186  1.5413 -1.0123
 1180SOL    HW215177   2.132   0.215   3.670  0.2192  0.2268  0.0162
 1181SOL     OW15178   3.135   1.597   6.865 -0.0440 -0.1364  0.0350
 1181SOL    HW115179   3.114   1.505   6.846  2.7557 -0.2033 -2.6786
 1181SOL    HW215180   3.230   1.585   6.862 -0.3555 -2.1116 -2.6144
 1182SOL     OW15181   1.751   0.524   1.587  0.4032 -0.1595  0.2503
 1182SOL    HW115182   1.696   0.601   1.601  0.4172 -0.0448 -0.3514
 1182SOL    HW215183   1.802   0.564   1.517 -1.0318 -1.4839 -1.5462
 1183SOL     OW15184   1.049   0.645   6.990  0.4449  0.3579  0.2327
 1183SOL    HW115185   0.959   0.614   7.000  0.2910  0.8661  0.4526
 1183SOL    HW215186   1.099   0.595   7.055  0.6467  0.7919  0.4096
 1184SOL     OW15187   0.491   3.873   4.232  0.6112  0.1744  0.1237
 1184SOL    HW115188   0.487   3.817   4.310  3.5588  1.3953  1.1318
 1184SOL    HW215189   0.441   3.949   4.261 -0.9708 -1.0357  0.6014
 1185SOL     OW15190   2.153   0.331  10.818  0.2289  0.5180 -0.1794
 1185SOL    HW115191   2.237   0.297  10.785  1.6973  0.3448  3.7411
 1185SOL    HW215192   2.163   0.361  10.908  0.9492  0.4374 -0.2308
 1186SOL     OW15193   4.127   4.595  15.810 -0.0799 -0.2955 -0.7005
 1186SOL    HW115194   4.120   4.687  15.783  0.7306 -0.2224 -0.6692
 1186SOL    HW215195   4.063   4.572  15.743 -0.2520 -1.3694 -0.1577
 1187SOL     OW15196   0.887   0.431  15.082 -0.0221  0.6907 -0.0053
 1187SOL    HW115197   0.975   0.453  15.053  0.2527  0.6003  0.7585
 1187SOL    HW215198   0.871   0.474  15.166  1.6207  0.8315  0.2319
 1188SOL     OW15199   3.395   3.454   5.490 -0.3028  0.9477  0.4658
 1188SOL    HW115200   3.323   3.403   5.526 -0.0911  1.1772  1.2113
 1188SOL    HW215201   3.475   3.409   5.516 -0.0353  1.2663  0.1869
 1189SOL     OW15202   3.154   3.665  13.344 -0.3424  0.0578  0.1722
 1189SOL    HW115203   3.133   3.756  13.366 -1.4705  0.7414 -3.7241
 1189SOL    HW215204   3.186   3.688  13.256 -1.0177  4.5326  1.1118
 1190SOL     OW15205   2.432   3.724   5.772 -0.3903 -0.5402 -0.5126
 1190SOL    HW115206   2.525   3.702   5.766  0.0194  0.3633  2.7196
 1190SOL    HW215207   2.441   3.795   5.836  2.4434 -1.3057 -0.0985
 1191SOL     OW15208   1.348   0.136   3.663 -0.1133  0.6413  0.7165
 1191SOL    HW115209   1.384   0.066   3.608  0.2779 -0.0952  1.9023
 1191SOL    HW215210   1.293   0.074   3.711 -0.3895 -0.0653 -0.5126
 1192SOL     OW15211   0.672   3.080   4.383  0.4061  1.0180 -0.2591
 1192SOL    HW115212   0.736   3.009   4.390  1.9140  2.5733  1.6043
 1192SOL    HW215213   0.674   3.106   4.475  0.0740 -0.3362  0.1382
 1193SOL     OW15214   0.467   0.815   5.711  0.2623  1.0663  0.2178
 1193SOL    HW115215   0.562   0.814   5.720  0.1194  3.4106  1.8257
 1193SOL    HW215216   0.454   0.903   5.676  1.3863  1.9038  1.9203
 1194SOL     OW15217   2.160   0.525   7.740 -0.3361 -0.4419 -0.0841
 1194SOL    HW115218   2.239   0.573   7.765 -0.4486 -0.7545  0.8581
 1194SOL    HW215219   2.174   0.521   7.646  1.0960 -1.3360  0.1759
 1195SOL     OW15220   2.005   1.347   7.407  0.3417  0.1206 -0.1286
 1195SOL    HW115221   1.999   1.258   7.373  0.3955 -1.3334  3.7009
 1195SOL    HW215222   1.956   1.394   7.339  0.3656  2.1251  1.2302
 1196SOL     OW15223   4.599   4.130   3.370  0.2078  0.2582  0.0356
 1196SOL    HW115224   4.605   4.148   3.276  0.1648  1.2946  0.2293
 1196SOL    HW215225   4.575   4.038   3.381 -0.6121  0.3647 -0.9347
 1197SOL     OW15226   2.228   2.895   6.626 -0.2886 -0.5313  0.4537
 1197SOL    HW115227   2.206   2.824   6.686 -0.8525  0.2265  1.1499
 1197SOL    HW215228   2.213   2.856   6.540 -0.3460 -0.9129  0.6351
 1198SOL     OW15229   2.383   4.407   5.235  0.4967  0.5424 -0.4949
 1198SOL    HW115230   2.352   4.336   5.179  0.4342  1.5537 -1.7404
 1198SOL    HW215231   2.454   4.374   5.290  1.1509  1.0935 -1.0128
 1199SOL     OW15232   0.615   1.788   4.727  0.6055  0.3728  0.0092
 1199SOL    HW115233   0.617   1.735   4.807  0.5623 -0.4173 -0.5180
 1199SOL    HW215234   0.626   1.878   4.759  1.2266  0.6002 -0.8592
 1200SOL     OW15235   3.542   3.855   3.222 -0.3091  0.3599  0.2314
 1200SOL    HW115236   3.546   3.927   3.159 -2.3799  1.6002  1.5354
 1200SOL    HW215237   3.454   3.819   3.211 -0.1943 -0.1949  1.0517
 1201SOL     OW15238   0.788   2.949   4.958 -0.2150 -0.5431  0.3082
 1201SOL    HW115239   0.792   3.007   5.035 -1.1641 -0.4707  0.3024
 1201SOL    HW215240   0.758   2.876   5.012 -2.2434 -0.5410 -0.8280
 1202SOL     OW15241   4.423   4.099  15.379 -0.2935 -0.2140 -0.7019
 1202SOL    HW115242   4.393   4.166  15.439 -1.3294 -2.1548  0.9397
 1202SOL    HW215243   4.425   4.024  15.439 -3.9808 -1.2417 -1.9038
 1203SOL     OW15244   2.359   1.654   4.511  0.1809  0.0327 -0.3745
 1203SOL    HW115245   2.406   1.610   4.439  0.0743  0.0892 -0.4772
 1203SOL    HW215246   2.362   1.744   4.478  0.0011  0.1397 -0.0903
 1204SOL     OW15247   4.695   0.319   3.023  0.2114 -0.2956 -0.4231
 1204SOL    HW115248   4.682   0.225   3.034  0.9502 -0.0951  2.1436
 1204SOL    HW215249   4.686   0.353   3.112  1.4855  2.0827 -1.1756
 1205SOL     OW15250   3.069   2.880   2.960 -0.8001 -0.3705  0.0772
 1205SOL    HW115251   3.144   2.825   2.937  0.6570  0.8582  1.9120
 1205SOL    HW215252   3.098   2.967   2.929 -1.0774 -0.7703 -1.3343
 1206SOL     OW15253   3.340   0.498   6.499 -0.6049 -0.1998  0.5820
 1206SOL    HW115254   3.393   0.426   6.532 -1.0357 -0.5810  0.4356
 1206SOL    HW215255   3.280   0.522   6.569  1.8420  0.8763  2.2940
 1207SOL     OW15256   2.777   0.692   4.870  0.0062 -0.1941  0.1408
 1207SOL    HW115257   2.757   0.711   4.779  0.7211  0.3078  0.0892
 1207SOL    HW215258   2.858   0.642   4.860 -0.0077 -0.4008  1.0532
 1208SOL     OW15259   2.419   2.548   8.389  0.0927  0.7499 -0.0854
 1208SOL    HW115260   2.397   2.619   8.449 -1.0194 -0.5262  1.0357
 1208SOL    HW215261   2.329   2.522   8.371  0.3091  0.1786 -0.3622
 1209SOL     OW15262   0.141   3.115   2.610  0.1335 -0.1405  0.0804
 1209SOL    HW115263   0.160   3.087   2.700  1.0152  1.2472  0.3235
 1209SOL    HW215264   0.226   3.095   2.570  0.1202 -2.1997  1.1016
 1210SOL     OW15265   3.348   2.397   2.229  0.1127  0.1629  0.2224
 1210SOL    HW115266   3.321   2.486   2.251 -0.2499  0.2069 -0.4308
 1210SOL    HW215267   3.263   2.355   2.232 -0.0831  0.7137  2.6348
 1211SOL     OW15268   2.283   0.766   2.581 -0.3146  0.3023  0.1183
 1211SOL    HW115269   2.238   0.686   2.553 -0.6613  0.9103 -1.0812
 1211SOL    HW215270   2.292   0.803   2.493  1.4425  0.5684  0.4259
 1212SOL     OW15271   1.009   1.007   6.039  0.3597  0.1510  0.0308
 1212SOL    HW115272   1.048   1.091   6.017  0.4251  0.5970  1.8325
 1212SOL    HW215273   1.026   0.989   6.131 -3.6521  0.1245  0.7519
 1213SOL     OW15274   4.458   1.888   8.366  0.6017  0.4152 -0.1737
 1213SOL    HW115275   4.487   1.938   8.442 -0.1202  0.8421 -0.1827
 1213SOL    HW215276   4.391   1.943   8.326 -0.3439 -0.3717  0.3180
 1214SOL     OW15277   3.589   4.063   8.400 -0.1769  0.6863  0.7594
 1214SOL    HW115278   3.582   4.019   8.484  0.3320  0.5084  0.7116
 1214SOL    HW215279   3.621   4.148   8.430 -1.5666  1.9585 -1.2944
 1215SOL     OW15280   4.482   3.536   4.038  0.5446 -0.2591  0.3859
 1215SOL    HW115281   4.482   3.516   3.944 -1.6370  1.3980  0.0526
 1215SOL    HW215282   4.409   3.597   4.037 -1.7184 -3.0300 -2.2993
 1216SOL     OW15283   1.185   2.066   2.911  0.1739 -0.0320  0.2253
 1216SOL    HW115284   1.166   2.076   2.817  1.4130 -2.6127 -0.3090
 1216SOL    HW215285   1.212   1.974   2.914 -2.8944 -1.0083 -1.3756
 1217SOL     OW15286   1.582   2.121   7.046 -0.1990  0.1571 -0.7849
 1217SOL    HW115287   1.648   2.070   6.999  1.2953 -0.6110  2.1340
 1217SOL    HW215288   1.534   2.059   7.101 -0.8333 -0.3796 -1.9527
 1218SOL     OW15289   4.581   0.713   5.786  0.1925 -0.2721 -0.4062
 1218SOL    HW115290   4.661   0.662   5.777  0.2011 -0.3110 -0.1267
 1218SOL    HW215291   4.605   0.789   5.838  4.6677 -1.1120 -1.2609
 1219SOL     OW15292   3.691   0.399   3.261  0.0104  0.1739  0.1717
 1219SOL    HW115293   3.659   0.431   3.345  0.5011  1.9554 -0.3239
 1219SOL    HW215294   3.717   0.483   3.223 -0.3706 -0.3017 -1.1472
 1220SOL     OW15295   0.936   3.540   6.506 -0.2808 -0.2199 -0.0123
 1220SOL    HW115296   1.008   3.478   6.504  0.1651  0.3335 -0.9721
 1220SOL    HW215297   0.928   3.553   6.601  0.5982 -0.1196  0.0478
 1221SOL     OW15298   1.604   2.163  10.909  0.8083  0.3140  0.5448
 1221SOL    HW115299   1.593   2.098  10.839  1.1834  1.4512 -0.5563
 1221SOL    HW215300   1.683   2.126  10.948  0.9640  0.0531 -0.0132
 1222SOL     OW15301   4.470   0.900   4.750  0.8255 -0.5972 -0.0028
 1222SOL    HW115302   4.558   0.883   4.783  1.2750 -0.9040 -1.3773
 1222SOL    HW215303   4.430   0.949   4.822 -0.7411 -2.5834  0.4732
 1223SOL     OW15304   3.709   2.502   3.925  0.2388 -0.5987 -0.2503
 1223SOL    HW115305   3.709   2.427   3.984  2.1855  0.4064  1.0152
 1223SOL    HW215306   3.697   2.452   3.844  0.8277 -3.6881  1.5858
 1224SOL     OW15307   4.365   4.065   6.628 -0.2085 -0.2695  0.1369
 1224SOL    HW115308   4.316   4.066   6.711 -1.9233  2.8403 -0.9099
 1224SOL    HW215309   4.299   4.111   6.576 -1.4546 -0.0064  1.9073
 1225SOL     OW15310   1.412   0.861   3.748  0.0248  0.3576 -0.3393
 1225SOL    HW115311   1.393   0.908   3.666 -0.1455  0.8416 -0.0245
 1225SOL    HW215312   1.328   0.824   3.774  0.1460 -0.4391 -1.0933
 1226SOL     OW15313   3.483   3.969   8.994 -0.0573  0.2928 -0.3387
 1226SOL    HW115314   3.393   3.992   8.971 -1.2996 -2.0209  2.1819
 1226SOL    HW215315   3.492   4.032   9.066 -1.8437  0.5770 -0.3503
 1227SOL     OW15316   3.363   0.959  12.777 -0.1102 -0.1030 -0.1041
 1227SOL    HW115317   3.374   1.048  12.809  0.1112 -1.6391  4.2260
 1227SOL    HW215318   3.448   0.934  12.814  1.0947  0.4279 -2.5520
 1228SOL     OW15319   1.140   2.676   3.143 -0.4179 -0.0149  0.2464
 1228SOL    HW115320   1.049   2.697   3.122  0.0280  0.7647 -0.8649
 1228SOL    HW215321   1.128   2.583   3.164 -0.1416 -0.2791 -0.8098
 1229SOL     OW15322   3.198   2.549  13.713  0.3149  0.3410 -0.1025
 1229SOL    HW115323   3.155   2.622  13.669 -0.8475  0.3059  0.9777
 1229SOL    HW215324   3.289   2.559  13.684  0.9261 -1.8715  0.9856
 1230SOL     OW15325   1.946   0.491   2.255 -0.0187  0.3745  0.4072
 1230SOL    HW115326   1.904   0.463   2.337  0.0587  0.7248  0.5632
 1230SOL    HW215327   1.880   0.554   2.229 -0.4376 -0.3665 -0.3484
 1231SOL     OW15328   1.122   2.393   3.220 -0.5812  0.5170 -0.2594
 1231SOL    HW115329   1.141   2.300   3.222  0.7260  0.8636  2.7416
 1231SOL    HW215330   1.114   2.410   3.314  4.0536 -1.7915  0.5084
 1232SOL     OW15331   0.995   1.570  15.837 -0.3599 -0.4159 -0.1606
 1232SOL    HW115332   0.900   1.582  15.844 -0.2616  0.4274 -0.2579
 1232SOL    HW215333   1.050   1.648  15.842  0.0292 -0.4518 -3.6790
 1233SOL     OW15334   0.014   1.847  16.282 -0.3601 -0.3794  0.2192
 1233SOL    HW115335   0.078   1.806  16.224 -0.7546  1.0849 -1.2283
 1233SOL    HW215336   4.732   1.933  16.244  2.2790  1.0322  2.3601
 1234SOL     OW15337   3.359   3.928  12.506 -0.4860 -0.6300  0.2585
 1234SOL    HW115338   3.451   3.952  12.515 -0.4029 -0.6779 -0.5051
 1234SOL    HW215339   3.356   3.844  12.553 -1.6385  1.3319  3.7298
 1235SOL     OW15340   1.128   3.843   1.821 -0.1301 -0.0739 -0.1750
 1235SOL    HW115341   1.073   3.806   1.752  0.9647  0.8519 -1.5600
 1235SOL    HW215342   1.079   3.909   1.871 -1.0066 -2.4781  2.1435
 1236SOL     OW15343   1.348   3.223   0.596 -0.1367  0.2829  0.1427
 1236SOL    HW115344   1.262   3.182   0.583  1.9968 -4.5829  1.4369
 1236SOL    HW215345   1.363   3.191   0.685  1.0092 -0.5479 -0.3442
 1237SOL     OW15346   0.108   3.965   9.676 -0.0555  0.3470 -0.1727
 1237SOL    HW115347   0.121   4.002   9.763 -0.8578 -0.8526  0.4747
 1237SOL    HW215348   0.023   4.002   9.651 -0.3088 -0.7086 -0.9358
 1238SOL     OW15349   3.178   2.187   5.156 -0.0278 -0.2031 -0.1305
 1238SOL    HW115350   3.192   2.135   5.234 -0.5545 -1.6011 -0.9713
 1238SOL    HW215351   3.083   2.195   5.158 -0.0955 -0.9179 -0.6796
 1239SOL     OW15352   2.072   2.299  10.995 -0.1662 -0.5465 -0.0446
 1239SOL    HW115353   2.114   2.212  10.994 -3.3908 -2.1416  2.0515
 1239SOL    HW215354   2.146   2.350  10.962  0.1285 -0.4655  0.7336
 1240SOL     OW15355   2.263   1.392   7.474 -0.1871  0.5883  0.4470
 1240SOL    HW115356   2.245   1.480   7.507  0.5091  0.4956  1.0629
 1240SOL    HW215357   2.174   1.373   7.442 -0.1661 -2.2702  2.0322
 1241SOL     OW15358   3.764   4.319   4.439  0.0801  0.2834  0.0770
 1241SOL    HW115359   3.681   4.317   4.391  0.2240 -0.7366 -0.1262
 1241SOL    HW215360   3.804   4.235   4.415 -0.5613  0.0654 -0.2427
 1242SOL     OW15361   0.030   3.119  11.918  0.1186  0.1191 -0.6212
 1242SOL    HW115362   4.698   3.110  11.987  0.8464 -1.2702 -0.1056
 1242SOL    HW215363   4.704   3.157  11.852 -0.1193  1.5014  0.3953
 1243SOL     OW15364   3.940   2.259   2.325  0.4541 -0.0984 -0.3721
 1243SOL    HW115365   4.019   2.299   2.288  1.2856 -1.7562 -0.4277
 1243SOL    HW215366   3.875   2.244   2.257  1.4202  2.5447 -1.8895
 1244SOL     OW15367   2.897   3.707   2.095  0.3801  0.4963 -0.2443
 1244SOL    HW115368   2.985   3.692   2.062  0.4303  1.5460 -0.6007
 1244SOL    HW215369   2.863   3.620   2.114 -0.5544  1.0618  0.7002
 1245SOL     OW15370   4.710   1.128   3.150  0.4145 -0.0189  0.3620
 1245SOL    HW115371   4.724   1.034   3.164  1.1289  0.3801  2.3419
 1245SOL    HW215372   4.694   1.156   3.241  1.1127  1.4013  0.0507
 1246SOL     OW15373   1.219   1.515   5.255  0.0564  0.0357  0.1615
 1246SOL    HW115374   1.132   1.477   5.266  0.3897 -0.2591  1.7862
 1246SOL    HW215375   1.243   1.554   5.339  0.0091 -0.1944  0.2832
 1247SOL     OW15376   3.241   0.500   8.120  0.2840  0.2527 -0.2103
 1247SOL    HW115377   3.190   0.433   8.074 -1.3403  0.3824  1.4151
 1247SOL    HW215378   3.330   0.478   8.091  0.6465  0.8425  0.4648
 1248SOL     OW15379   3.758   0.758   2.917 -0.5287  0.5377 -0.3747
 1248SOL    HW115380   3.698   0.830   2.896 -0.2257  0.7752 -0.4200
 1248SOL    HW215381   3.821   0.806   2.970  0.2472 -0.3446 -0.4959
 1249SOL     OW15382   2.535   3.646   2.921  0.2438  0.3840 -0.5269
 1249SOL    HW115383   2.572   3.657   3.009  0.9844 -1.8054 -0.5416
 1249SOL    HW215384   2.504   3.734   2.902 -1.9182 -0.1646  0.4883
 1250SOL     OW15385   1.974   3.949   4.013  0.7330 -0.4806 -0.1723
 1250SOL    HW115386   2.034   3.904   4.073  0.5213 -1.2863 -0.5539
 1250SOL    HW215387   2.032   3.982   3.945 -1.8894  1.8218 -1.2797
 1251SOL     OW15388   4.175   0.004  13.525  0.2121  0.3903  0.4174
 1251SOL    HW115389   4.097   0.003  13.469  0.4608 -4.1636  0.1358
 1251SOL    HW215390   4.152   0.090  13.560  1.1108  1.2491 -1.0963
 1252SOL     OW15391   3.610   0.820   8.416  0.2075 -0.0925 -0.4594
 1252SOL    HW115392   3.533   0.791   8.366  0.7989 -1.1403 -0.7766
 1252SOL    HW215393   3.579   0.844   8.503  2.2066  1.3647 -0.1650
 1253SOL     OW15394   4.445   1.052   7.615  0.6530  0.2474 -0.1336
 1253SOL    HW115395   4.472   1.129   7.563 -1.2189 -0.0920 -1.6207
 1253SOL    HW215396   4.403   1.102   7.685 -1.6932 -2.4383  0.3445
 1254SOL     OW15397   3.479   2.518   5.927  0.2190  0.4202 -0.1950
 1254SOL    HW115398   3.532   2.477   5.858 -1.2013 -0.4637 -0.7580
 1254SOL    HW215399   3.545   2.554   5.987 -0.5039 -1.7473  1.8884
 1255SOL     OW15400   0.203   2.362   9.261 -0.0338  0.1572 -0.6114
 1255SOL    HW115401   0.292   2.332   9.278  0.7862  1.2796 -2.8144
 1255SOL    HW215402   0.153   2.334   9.337  0.2475  1.7938  0.1880
 1256SOL     OW15403   2.107   2.450   1.911  0.3717  0.0567  0.3924
 1256SOL    HW115404   2.151   2.443   1.826  1.7841 -0.8204  1.1847
 1256SOL    HW215405   2.182   2.456   1.970 -0.2243 -0.3941  1.1919
 1257SOL     OW15406   0.870   4.588   4.668  0.3860  0.1732  0.2828
 1257SOL    HW115407   0.859   4.630   4.582  0.3556  0.0420  0.2226
 1257SOL    HW215408   0.947   4.531   4.657 -0.0675 -0.5323  0.7956
 1258SOL     OW15409   2.231   3.395   5.805  0.8791  0.1904 -0.3618
 1258SOL    HW115410   2.238   3.302   5.784 -0.1067 -0.1978  0.9805
 1258SOL    HW215411   2.302   3.403   5.868  0.9105 -2.6263 -0.0287
 1259SOL     OW15412   3.705   3.983  15.344 -0.5830 -0.6846  0.2440
 1259SOL    HW115413   3.673   3.904  15.387  1.3908 -0.9267  1.2733
 1259SOL    HW215414   3.676   3.969  15.254  0.4945  1.3643 -0.4201
 1260SOL     OW15415   4.106   0.592  11.154  0.4877  0.1233  0.4703
 1260SOL    HW115416   4.021   0.567  11.116 -0.0712  1.0235  1.1289
 1260SOL    HW215417   4.133   0.509  11.194 -1.9130 -0.8931 -0.0183
 1261SOL     OW15418   2.421   3.427   4.915  0.6564 -0.3220 -0.1330
 1261SOL    HW115419   2.345   3.420   4.858 -1.0310  1.7228  1.8408
 1261SOL    HW215420   2.417   3.520   4.936 -1.4611 -0.4450  0.0093
 1262SOL     OW15421   1.038   1.222  14.791  0.6049 -0.2866  0.3012
 1262SOL    HW115422   1.004   1.165  14.861  0.7595 -1.8480 -0.8898
 1262SOL    HW215423   1.062   1.289  14.856  2.9479 -2.4933  1.7254
 1263SOL     OW15424   4.008   3.424  10.037 -0.1631 -0.6193 -0.5300
 1263SOL    HW115425   3.943   3.408   9.968 -1.4827 -0.2732  0.6282
 1263SOL    HW215426   3.951   3.406  10.111  1.0313 -0.0651  0.5164
 1264SOL     OW15427   3.680   2.533  12.609 -0.0249 -0.0943  0.2475
 1264SOL    HW115428   3.699   2.530  12.515  0.8742 -1.9097  0.4835
 1264SOL    HW215429   3.681   2.629  12.617 -1.9513 -0.1619  1.2844
 1265SOL     OW15430   0.314   1.575   3.026  0.1473  0.3598 -0.2494
 1265SOL    HW115431   0.354   1.586   2.940 -0.0730 -0.9602 -0.5192
 1265SOL    HW215432   0.309   1.481   3.041 -0.5656  0.4305 -0.0395
 1266SOL     OW15433   3.494   0.732  17.577 -0.0229  0.0299  0.0027
 1266SOL    HW115434   3.569   0.719  17.521 -0.7772  0.4493 -1.1007
 1266SOL    HW215435   3.533   0.740  17.664  0.2526 -0.7949 -0.0449
 1267SOL     OW15436   1.703   2.532  10.750 -0.0942 -0.4714  0.0409
 1267SOL    HW115437   1.779   2.493  10.792  0.6058  0.0023 -0.8056
 1267SOL    HW215438   1.737   2.618  10.729 -0.0604 -0.5564 -0.2670
 1268SOL     OW15439   4.581   2.723   2.961  0.2292  0.3163  0.4491
 1268SOL    HW115440   4.581   2.773   3.042 -0.2358 -1.7912  1.7568
 1268SOL    HW215441   4.514   2.658   2.982 -0.3520  0.4565 -0.9850
 1269SOL     OW15442   4.230   2.433   6.060 -0.1661 -0.2653 -0.2316
 1269SOL    HW115443   4.188   2.511   6.097  1.0886  0.8646 -1.1676
 1269SOL    HW215444   4.171   2.364   6.090  1.2489 -0.7606  1.4482
 1270SOL     OW15445   0.860   2.451  13.622  0.3208 -0.5928  0.2359
 1270SOL    HW115446   0.774   2.491  13.635  1.3908  1.9270 -0.4363
 1270SOL    HW215447   0.886   2.462  13.530  0.4862  0.1594  0.3770
 1271SOL     OW15448   4.153   0.262  13.635 -0.4878 -0.1875 -0.3598
 1271SOL    HW115449   4.140   0.353  13.611 -0.9611  0.0143  0.6850
 1271SOL    HW215450   4.233   0.270  13.686  0.8174 -1.9318 -2.1201
 1272SOL     OW15451   4.534   4.246   9.805 -0.2391 -0.4895 -0.0354
 1272SOL    HW115452   4.555   4.337   9.828  0.0623 -0.4298 -0.5493
 1272SOL    HW215453   4.472   4.263   9.734 -2.6208 -1.0751  1.9047
 1273SOL     OW15454   1.146   3.509   0.516 -0.1184 -0.4128  0.0832
 1273SOL    HW115455   1.222   3.461   0.483 -1.0050 -1.7688  0.0403
 1273SOL    HW215456   1.079   3.482   0.454  1.5213 -0.0377 -1.8601
 1274SOL     OW15457   2.490   0.353  14.503  0.1870 -0.3295 -0.1238
 1274SOL    HW115458   2.586   0.353  14.511  0.1789 -0.7926 -0.0501
 1274SOL    HW215459   2.478   0.444  14.476  0.9049 -1.3330 -3.8765
 1275SOL     OW15460   3.778   1.891   5.126  0.2909 -0.1661  0.2917
 1275SOL    HW115461   3.838   1.844   5.068 -0.6110  0.9931 -1.5531
 1275SOL    HW215462   3.801   1.982   5.108  3.3131 -0.2465  3.5511
 1276SOL     OW15463   1.688   0.977   5.230 -0.1009 -0.2860  0.1042
 1276SOL    HW115464   1.710   1.031   5.155  1.1962  1.9512  2.1011
 1276SOL    HW215465   1.769   0.928   5.246 -0.5282 -1.5737 -1.6627
 1277SOL     OW15466   4.221   2.882   6.710 -0.6797  0.0275 -0.3982
 1277SOL    HW115467   4.309   2.891   6.674  1.4884 -2.7534  4.2165
 1277SOL    HW215468   4.178   2.964   6.686 -2.2184 -0.4402  0.7773
 1278SOL     OW15469   4.303   0.007  10.150  0.5766 -0.0393  0.2977
 1278SOL    HW115470   4.356   4.693  10.085  1.5161 -0.3191  1.2701
 1278SOL    HW215471   4.239   0.048  10.092  0.3711  0.5264  0.9356
 1279SOL     OW15472   2.930   4.711   2.776  0.3495 -0.1358  0.0244
 1279SOL    HW115473   2.925   4.618   2.799  2.3633  0.0302  1.1592
 1279SOL    HW215474   2.924   4.706   2.680  1.2879  0.0074 -0.0388
 1280SOL     OW15475   3.531   0.678   7.501  0.2627 -0.0517  0.3032
 1280SOL    HW115476   3.532   0.749   7.437  0.0794 -2.0493 -1.9300
 1280SOL    HW215477   3.523   0.719   7.587 -0.0862  1.2182 -0.3265
 1281SOL     OW15478   3.821   2.620  11.902  0.3311  0.2616  0.2244
 1281SOL    HW115479   3.798   2.648  11.991 -0.6758  1.8951 -0.5458
 1281SOL    HW215480   3.875   2.545  11.927  2.3266  1.0826 -1.5575
 1282SOL     OW15481   1.106   2.974  12.285 -0.3121 -0.0223 -0.0652
 1282SOL    HW115482   1.185   2.953  12.334  0.7118 -1.1995 -2.2623
 1282SOL    HW215483   1.135   2.974  12.194 -1.4475 -1.6788 -0.4257
 1283SOL     OW15484   2.864   0.346   0.537  0.3498  0.0955 -0.2724
 1283SOL    HW115485   2.791   0.357   0.598 -0.5842 -0.4485 -1.3046
 1283SOL    HW215486   2.934   0.396   0.578  0.4454 -0.6144  0.4290
 1284SOL     OW15487   2.846   1.866   1.816 -0.1883 -0.4597 -0.4954
 1284SOL    HW115488   2.789   1.797   1.780  0.3080 -0.5750 -1.0571
 1284SOL    HW215489   2.912   1.863   1.747  1.1285  1.0346  0.6892
 1285SOL     OW15490   3.039   4.396   9.014  0.1316 -0.9465 -0.0912
 1285SOL    HW115491   3.049   4.321   9.073  2.0732  0.1603  0.9959
 1285SOL    HW215492   3.005   4.466   9.071 -0.0315 -1.2871  0.2271
 1286SOL     OW15493   1.896   0.184   7.341 -0.1894 -0.0518 -0.4942
 1286SOL    HW115494   1.880   0.278   7.336 -0.8552  0.0180  2.8483
 1286SOL    HW215495   1.805   0.155   7.336 -0.7512  1.6470  0.1563
 1287SOL     OW15496   1.109   1.652   2.254  0.1199 -0.5891 -0.1823
 1287SOL    HW115497   1.189   1.619   2.295  1.0360  3.0214  0.9933
 1287SOL    HW215498   1.146   1.692   2.176  1.4209 -1.6442 -0.1072
 1288SOL     OW15499   3.147   0.373   1.779 -0.1892 -0.0893 -0.4297
 1288SOL    HW115500   3.175   0.426   1.705  0.9356 -0.7815 -0.5150
 1288SOL    HW215501   3.174   0.428   1.853 -0.7877  0.1404 -0.3806
 1289SOL     OW15502   4.376   3.980  11.165 -0.0419  0.3324  0.3086
 1289SOL    HW115503   4.444   4.010  11.226  0.8488 -0.5624 -0.2533
 1289SOL    HW215504   4.302   3.954  11.219 -0.8717  1.1055 -0.4609
 1290SOL     OW15505   2.757   4.452   9.275  0.3628 -0.1377 -0.4988
 1290SOL    HW115506   2.765   4.379   9.337  1.3266  2.6898  2.6810
 1290SOL    HW215507   2.690   4.416   9.216 -0.8319  1.0793  0.1012
 1291SOL     OW15508   2.607   4.547   3.061 -0.0691  0.3166 -0.0975
 1291SOL    HW115509   2.604   4.605   2.984 -2.9831 -0.8520 -0.8839
 1291SOL    HW215510   2.635   4.602   3.134  1.0032 -0.7188  0.2488
 1292SOL     OW15511   4.246   0.481  13.022  0.0285 -0.3231 -0.1123
 1292SOL    HW115512   4.260   0.429  13.101  0.9935  0.0876 -0.0176
 1292SOL    HW215513   4.179   0.541  13.055 -0.6509 -1.2639  0.2305
 1293SOL     OW15514   4.030   1.149   6.864  0.0751  0.6086  0.5160
 1293SOL    HW115515   3.941   1.126   6.889 -0.0419 -0.1817 -0.6669
 1293SOL    HW215516   4.078   1.115   6.940  2.8823  1.7517 -0.7422
 1294SOL     OW15517   3.397   3.265   1.041  0.3086 -0.3049 -0.0037
 1294SOL    HW115518   3.308   3.278   1.011  0.3173  2.5672  1.2084
 1294SOL    HW215519   3.378   3.245   1.133  1.5489  2.2028  0.8076
 1295SOL     OW15520   3.356   2.769   8.190  0.0024 -0.0787  0.0675
 1295SOL    HW115521   3.389   2.689   8.150  2.4558  1.0932 -0.2476
 1295SOL    HW215522   3.431   2.826   8.173  0.3954 -0.6078  0.0267
 1296SOL     OW15523   2.187   4.386  11.767  0.5394 -0.2096 -0.3750
 1296SOL    HW115524   2.243   4.387  11.690  0.4264 -0.7375 -0.4639
 1296SOL    HW215525   2.252   4.420  11.828 -0.7662  1.2108  0.2222
 1297SOL     OW15526   3.925   2.504   6.019 -0.1917  0.5275 -0.0208
 1297SOL    HW115527   3.973   2.585   6.037 -2.2291  1.5808  0.7531
 1297SOL    HW215528   3.840   2.532   6.052  0.3607  1.8353  0.2789
 1298SOL     OW15529   2.977   2.606   2.122 -0.4877  0.0901  0.4832
 1298SOL    HW115530   2.937   2.668   2.183 -0.3244  2.1950 -1.5400
 1298SOL    HW215531   3.044   2.657   2.076 -0.8717  0.7105  0.6086
 1299SOL     OW15532   1.186   0.038   8.376 -0.2744 -0.0892 -0.3170
 1299SOL    HW115533   1.195   0.133   8.381  2.0785 -0.4383  2.1612
 1299SOL    HW215534   1.116   0.017   8.438 -0.2440  1.2724  0.1814
 1300SOL     OW15535   3.769   3.047   3.431 -0.2882 -0.4278  0.4113
 1300SOL    HW115536   3.688   3.082   3.469 -0.9555 -0.2105 -1.2308
 1300SOL    HW215537   3.809   3.024   3.515  0.5190 -1.5762 -0.2836
 1301SOL     OW15538   1.955   1.353   4.405 -0.1700 -0.1303  0.2860
 1301SOL    HW115539   1.919   1.417   4.344  0.1045 -1.0214 -0.8155
 1301SOL    HW215540   1.985   1.418   4.468 -0.2096 -0.0681  0.2414
 1302SOL     OW15541   1.126   4.264  12.208  0.2996 -0.7129  0.0873
 1302SOL    HW115542   1.120   4.351  12.167  0.3407 -0.9246 -0.3630
 1302SOL    HW215543   1.115   4.291  12.299  0.5254 -2.3355  0.5929
 1303SOL     OW15544   2.299   3.308   0.992 -0.0158 -0.3619  0.0151
 1303SOL    HW115545   2.245   3.373   0.947 -0.6185 -0.5511  0.4665
 1303SOL    HW215546   2.265   3.223   0.963 -1.5418  0.6894 -1.3009
 1304SOL     OW15547   3.507   4.489   4.595 -0.1541  0.2225 -0.3669
 1304SOL    HW115548   3.526   4.433   4.520 -1.2769  0.1372 -0.5812
 1304SOL    HW215549   3.503   4.578   4.559  0.2215  1.8314  3.6018
 1305SOL     OW15550   2.232   4.398   1.362  0.1913  0.1771  0.6571
 1305SOL    HW115551   2.235   4.398   1.266  1.1482 -0.7091  0.6891
 1305SOL    HW215552   2.246   4.490   1.384 -1.7841  0.6263  0.0660
 1306SOL     OW15553   2.261   2.332  12.592  0.5453 -0.6538  0.9101
 1306SOL    HW115554   2.275   2.249  12.638  1.1331 -0.4833  1.0397
 1306SOL    HW215555   2.313   2.317  12.512 -0.7463  1.3547 -0.3062
 1307SOL     OW15556   2.523   3.098  11.248 -0.0403 -0.0484 -0.0143
 1307SOL    HW115557   2.588   3.150  11.294  2.4431 -2.9060 -0.3029
 1307SOL    HW215558   2.476   3.171  11.206  1.6144  0.6264 -0.6676
 1308SOL     OW15559   2.890   2.709   2.793 -0.5299  0.2735 -0.1537
 1308SOL    HW115560   2.944   2.720   2.871 -0.2370  0.1106 -0.3318
 1308SOL    HW215561   2.888   2.613   2.783 -2.5181  0.0267  2.6877
 1309SOL     OW15562   1.541   1.958   4.126  0.4482  0.3017 -0.3375
 1309SOL    HW115563   1.479   1.897   4.166 -1.5810  1.3519 -1.8843
 1309SOL    HW215564   1.611   1.898   4.098 -1.2120 -1.4968 -0.6519
 1310SOL     OW15565   4.468   2.394   5.772 -0.4818  0.4779  0.6030
 1310SOL    HW115566   4.461   2.324   5.708  0.1120  0.8260  0.1568
 1310SOL    HW215567   4.394   2.451   5.752  0.2169  0.9239 -0.7227
 1311SOL     OW15568   3.247   3.207  10.859  0.4375 -0.6329 -0.8456
 1311SOL    HW115569   3.210   3.254  10.934  1.2127  1.1922 -1.6207
 1311SOL    HW215570   3.232   3.116  10.885  0.7957 -0.9586 -1.7967
 1312SOL     OW15571   1.306   4.200   7.521 -0.4018 -0.2859  0.4209
 1312SOL    HW115572   1.349   4.118   7.542 -0.8685 -0.6737 -0.1317
 1312SOL    HW215573   1.340   4.250   7.595  1.2663 -0.3882 -0.2808
 1313SOL     OW15574   4.324   1.794   4.137 -0.0326  0.0906  0.0746
 1313SOL    HW115575   4.342   1.806   4.230  0.3166 -2.7827  0.3910
 1313SOL    HW215576   4.229   1.803   4.137  0.1053  1.5052  0.6962
 1314SOL     OW15577   4.562   2.049  12.945 -0.0917 -0.1569 -0.6687
 1314SOL    HW115578   4.491   2.089  12.896  0.6681 -0.2533 -1.8491
 1314SOL    HW215579   4.523   1.977  12.995 -0.1530 -1.0564 -2.0169
 1315SOL     OW15580   2.159   3.155   8.104 -0.3266 -0.3624  0.1210
 1315SOL    HW115581   2.075   3.193   8.079  0.4615  1.1985 -0.1075
 1315SOL    HW215582   2.164   3.068   8.065  2.0389 -0.8430  1.5077
 1316SOL     OW15583   0.180   0.284  14.293 -0.0781 -0.1816  0.2756
 1316SOL    HW115584   0.145   0.203  14.255  1.5183 -0.7674  0.0562
 1316SOL    HW215585   0.102   0.333  14.322  0.5088  0.8308  0.1289
 1317SOL     OW15586   0.136   1.323   6.888  0.5924 -0.5000  0.4706
 1317SOL    HW115587   0.208   1.274   6.929  2.1904  0.0913 -1.6170
 1317SOL    HW215588   0.187   1.362   6.817 -0.1129  1.0785  0.8490
 1318SOL     OW15589   1.128   1.434   5.621 -0.1190 -0.4218  0.5886
 1318SOL    HW115590   1.178   1.471   5.549 -0.3931 -0.4440  0.3877
 1318SOL    HW215591   1.113   1.341   5.605 -2.5060  0.1807 -0.7608
 1319SOL     OW15592   0.118   4.327   2.448  0.0138 -0.2113 -0.1190
 1319SOL    HW115593   0.104   4.408   2.400 -1.2771  0.8395  2.0524
 1319SOL    HW215594   0.213   4.323   2.458  0.3891  2.4019 -2.7272
 1320SOL     OW15595   0.358   4.256   8.419  0.5801  0.5346 -0.3424
 1320SOL    HW115596   0.336   4.309   8.494  1.1056  1.2483 -0.6916
 1320SOL    HW215597   0.285   4.194   8.418  1.9766 -1.1434 -0.8062
 1321SOL     OW15598   1.101   4.232   0.865 -0.3095 -0.6236  0.2224
 1321SOL    HW115599   1.150   4.274   0.794 -1.5888  4.1782  2.2063
 1321SOL    HW215600   1.126   4.140   0.850  0.3881 -0.2307 -1.0195
 1322SOL     OW15601   0.198   1.609   3.332  1.0361 -0.0624 -0.1259
 1322SOL    HW115602   0.123   1.550   3.318  0.4583  0.4954  0.6492
 1322SOL    HW215603   0.253   1.581   3.258  0.0701  1.6661 -1.5208
 1323SOL     OW15604   4.311   2.167  15.734  0.1689  0.0587  0.3566
 1323SOL    HW115605   4.269   2.171  15.649  1.1748  0.2754 -0.1253
 1323SOL    HW215606   4.405   2.164  15.714  0.5058 -0.1955  1.9049
 1324SOL     OW15607   0.142   3.662  14.186  0.3029 -0.2789  0.4414
 1324SOL    HW115608   0.101   3.576  14.188  1.1182 -0.6853 -0.3970
 1324SOL    HW215609   0.061   3.711  14.196  1.2665  2.0933 -3.4296
 1325SOL     OW15610   0.755   3.915  12.034 -0.3897  0.3957 -0.0581
 1325SOL    HW115611   0.702   3.961  12.100 -1.4279  0.1601 -0.7293
 1325SOL    HW215612   0.834   3.881  12.075 -0.5210  1.6098  1.1978
 1326SOL     OW15613   1.233   4.174  12.921  0.1987  0.1780  0.1488
 1326SOL    HW115614   1.323   4.207  12.917 -0.1128  1.2934  2.2838
 1326SOL    HW215615   1.262   4.086  12.946  0.2781  0.2213  0.2100
 1327SOL     OW15616   0.670   3.132  15.814 -0.2127  0.3427  0.0290
 1327SOL    HW115617   0.598   3.085  15.855  0.6035  1.6793  2.9729
 1327SOL    HW215618   0.711   3.176  15.888 -0.5543  2.4053 -1.0023
 1328SOL     OW15619   3.766   3.270   6.396  0.2577  0.1907 -0.6600
 1328SOL    HW115620   3.696   3.230   6.344 -2.3981  1.2176  2.1054
 1328SOL    HW215621   3.788   3.349   6.346  2.2758 -0.1589 -0.3021
 1329SOL     OW15622   0.729   2.144  11.169  0.4407 -0.0720 -0.4647
 1329SOL    HW115623   0.815   2.184  11.177  0.4842  0.1703 -2.1951
 1329SOL    HW215624   0.669   2.217  11.183  1.3082  0.3744  0.8461
 1330SOL     OW15625   3.414   1.192   5.931  0.2496 -0.0177 -0.1995
 1330SOL    HW115626   3.466   1.126   5.975 -1.4660 -0.5217  1.0597
 1330SOL    HW215627   3.466   1.271   5.946  0.9908 -0.6623  0.5909
 1331SOL     OW15628   1.752   0.869   6.473  0.3682 -0.2944 -0.0777
 1331SOL    HW115629   1.778   0.907   6.388  1.4775 -2.5854 -0.7737
 1331SOL    HW215630   1.754   0.774   6.458  0.9388 -0.2611 -0.2279
 1332SOL     OW15631   0.975   2.777   4.852  0.0739  0.3021 -0.7802
 1332SOL    HW115632   1.029   2.795   4.929 -0.5309  0.8737 -0.4904
 1332SOL    HW215633   0.898   2.824   4.884  1.0259 -0.6312  2.9823
 1333SOL     OW15634   1.534   0.205   3.184  0.0914  0.1799 -0.3352
 1333SOL    HW115635   1.445   0.172   3.197 -0.3027  1.3598 -0.0633
 1333SOL    HW215636   1.525   0.300   3.184  1.4008  0.3068 -0.2865
 1334SOL     OW15637   4.213   2.556   2.782  0.1464  0.3936 -0.2113
 1334SOL    HW115638   4.235   2.577   2.692 -1.5436  1.1717 -0.4408
 1334SOL    HW215639   4.167   2.474   2.765  0.5679 -0.1053  1.0834
 1335SOL     OW15640   3.157   2.521   1.437 -0.0809  0.0457  0.2815
 1335SOL    HW115641   3.247   2.538   1.464 -0.4654 -0.3726  1.8501
 1335SOL    HW215642   3.126   2.607   1.410  0.3631  0.3118  0.6226
 1336SOL     OW15643   1.634   2.302  10.646 -0.0205  0.0170 -0.4891
 1336SOL    HW115644   1.710   2.278  10.699  1.0723  1.8344 -1.2260
 1336SOL    HW215645   1.650   2.396  10.635 -1.6271  0.3748  0.2776
 1337SOL     OW15646   2.294   2.010   0.467 -0.0767  0.7340 -0.0135
 1337SOL    HW115647   2.362   1.942   0.475  1.1396  1.9787  0.2060
 1337SOL    HW215648   2.332   2.058   0.393  1.3426 -2.0535 -1.1244
 1338SOL     OW15649   4.574   1.540   3.497 -0.5342  0.0336 -0.4905
 1338SOL    HW115650   4.487   1.555   3.534  0.9715  0.5061  2.8782
 1338SOL    HW215651   4.607   1.464   3.545 -1.3895  0.4410  0.7208
 1339SOL     OW15652   1.831   0.163   4.338  1.0090 -0.2064 -0.7145
 1339SOL    HW115653   1.873   0.090   4.382 -1.5801 -0.0737  1.9915
 1339SOL    HW215654   1.762   0.114   4.293 -0.2265 -0.1521  1.1083
 1340SOL     OW15655   2.845   0.797   1.796  0.0867 -0.0906  0.0731
 1340SOL    HW115656   2.897   0.788   1.716  1.9975  0.5454  1.2210
 1340SOL    HW215657   2.869   0.719   1.847 -0.1660  0.3866  0.9127
 1341SOL     OW15658   3.295   4.003   6.065  0.1840 -0.1812 -0.2821
 1341SOL    HW115659   3.281   3.950   6.144 -0.5236  0.5863  0.1178
 1341SOL    HW215660   3.331   3.928   6.018 -0.3262 -1.4191  1.3087
 1342SOL     OW15661   1.615   2.153   2.070 -0.3370 -0.0139 -0.7099
 1342SOL    HW115662   1.692   2.108   2.036 -0.2846 -0.3753 -0.1085
 1342SOL    HW215663   1.659   2.238   2.075  0.8138 -0.7186  1.1223
 1343SOL     OW15664   2.655   2.787   1.435 -0.5053  0.3403 -0.4366
 1343SOL    HW115665   2.615   2.866   1.399 -1.4888 -0.6403 -1.4791
 1343SOL    HW215666   2.575   2.750   1.472  2.0389 -4.4794  0.2086
 1344SOL     OW15667   3.537   3.409   1.359  0.7542 -0.0397 -0.1970
 1344SOL    HW115668   3.580   3.335   1.317  0.3215  0.8354 -2.1976
 1344SOL    HW215669   3.446   3.379   1.353  0.9381 -0.1677 -2.1285
 1345SOL     OW15670   1.180   0.628  12.316  0.2317 -0.4887 -0.3146
 1345SOL    HW115671   1.244   0.571  12.360  0.2830  0.8504  1.3303
 1345SOL    HW215672   1.243   0.682  12.267 -1.1716 -0.8523 -2.5435
 1346SOL     OW15673   2.199   1.430   8.122 -0.0314 -0.9518 -1.0957
 1346SOL    HW115674   2.130   1.395   8.177  2.2701  0.4102  2.6675
 1346SOL    HW215675   2.154   1.511   8.098  0.1010 -0.8561 -1.0203
 1347SOL     OW15676   3.799   1.392  15.594 -0.1275  0.0332  0.2679
 1347SOL    HW115677   3.840   1.478  15.608 -0.1995 -0.2309  2.2231
 1347SOL    HW215678   3.754   1.380  15.678 -1.1190 -0.8500 -0.4005
 1348SOL     OW15679   0.900   2.282   0.004  0.2781  0.1400  0.4344
 1348SOL    HW115680   0.941   2.359   0.043  1.1802 -1.4385  2.5970
 1348SOL    HW215681   0.811   2.276   0.038  0.1933  1.1613  0.3942
 1349SOL     OW15682   1.611   3.053   6.979 -0.1896 -0.0086 -0.6295
 1349SOL    HW115683   1.674   3.090   6.917  0.0137  1.0426  0.1921
 1349SOL    HW215684   1.535   3.112   6.978  0.0633  0.3462  1.7101
 1350SOL     OW15685   3.752   2.800   3.046  0.7006 -0.2614 -0.1036
 1350SOL    HW115686   3.814   2.825   3.115  1.0394 -0.1783 -0.4393
 1350SOL    HW215687   3.824   2.771   2.991  0.0200 -1.2447 -0.4748
 1351SOL     OW15688   0.396   4.113   7.656 -0.2685  0.0609 -0.0935
 1351SOL    HW115689   0.315   4.075   7.689  0.7347 -1.8891  0.0997
 1351SOL    HW215690   0.361   4.147   7.573 -0.4542  1.1638  0.4425
 1352SOL     OW15691   3.147   2.810  15.606  0.2514 -0.0836  0.2918
 1352SOL    HW115692   3.079   2.871  15.635  0.1756  0.1334 -0.3451
 1352SOL    HW215693   3.205   2.881  15.579 -1.5678  0.5440 -1.9176
 1353SOL     OW15694   4.191   2.363   5.621 -0.1068 -0.4687 -0.3347
 1353SOL    HW115695   4.233   2.301   5.681 -1.5878 -2.7721 -1.6771
 1353SOL    HW215696   4.121   2.403   5.672 -0.3682  0.3616 -1.3399
 1354SOL     OW15697   3.350   0.891   4.252 -0.3667  0.4525  0.3398
 1354SOL    HW115698   3.340   0.975   4.297 -4.8841  0.8822 -1.4747
 1354SOL    HW215699   3.441   0.896   4.222 -0.6785 -0.7076 -0.8032
 1355SOL     OW15700   0.798   3.373   3.656  0.3369  0.6881  0.4880
 1355SOL    HW115701   0.736   3.396   3.586  0.2995  0.9905  0.6224
 1355SOL    HW215702   0.879   3.412   3.622  0.0902  1.1802  0.4652
 1356SOL     OW15703   3.226   2.397   3.394  0.4561  0.1102 -0.3265
 1356SOL    HW115704   3.297   2.450   3.431 -0.2058 -0.3205  1.5892
 1356SOL    HW215705   3.282   2.339   3.343  0.2452  0.3036 -0.7790
 1357SOL     OW15706   2.085   2.309   4.089  0.4298 -0.7773  0.6438
 1357SOL    HW115707   2.145   2.338   4.021 -2.5338 -0.6421 -1.9152
 1357SOL    HW215708   2.074   2.394   4.132  2.0356 -0.1801 -0.1091
 1358SOL     OW15709   4.388   0.487  13.652  0.0878  0.0338  0.2852
 1358SOL    HW115710   4.303   0.498  13.609  0.6987 -1.0353 -1.2177
 1358SOL    HW215711   4.367   0.529  13.736 -2.1496 -0.5627  0.0308
 1359SOL     OW15712   4.349   1.259   8.435 -0.2860 -0.1432  0.2066
 1359SOL    HW115713   4.307   1.332   8.390  1.6370  0.7196 -0.1995
 1359SOL    HW215714   4.429   1.238   8.386 -0.1448  0.0509  0.3489
 1360SOL     OW15715   2.661   0.979   7.837 -0.6075 -0.3461  0.1368
 1360SOL    HW115716   2.695   1.037   7.769 -0.1975  0.3589  0.9351
 1360SOL    HW215717   2.601   0.924   7.788 -1.3705 -0.8189  1.5947
 1361SOL     OW15718   4.257   3.714  14.484 -0.1337 -0.4738  0.1746
 1361SOL    HW115719   4.217   3.700  14.570  0.7659  0.4061  0.7378
 1361SOL    HW215720   4.232   3.632  14.441 -2.0129  0.4379 -0.4912
 1362SOL     OW15721   1.012   0.885  14.906  0.3741 -0.2422  0.5732
 1362SOL    HW115722   1.033   0.849  14.992  1.7396 -1.6976 -0.3685
 1362SOL    HW215723   0.966   0.964  14.936 -0.0084 -0.3586  0.2998
 1363SOL     OW15724   1.151   2.338   4.289  0.8156  0.5581 -0.5187
 1363SOL    HW115725   1.091   2.373   4.356 -0.4907 -2.3774 -0.1705
 1363SOL    HW215726   1.169   2.420   4.244  0.2377  0.6027 -0.6723
 1364SOL     OW15727   1.919   2.997   7.366  0.1456  0.0094  0.4316
 1364SOL    HW115728   1.904   3.091   7.356 -0.4593  0.1070  2.2385
 1364SOL    HW215729   2.007   3.000   7.329 -0.2318  1.2431 -0.3715
 1365SOL     OW15730   1.948   3.019  11.159 -0.7342 -0.3730 -0.0304
 1365SOL    HW115731   1.954   2.987  11.249  1.3707  0.0668 -0.0100
 1365SOL    HW215732   1.899   3.099  11.179  0.8080  0.3414  0.9645
 1366SOL     OW15733   4.360   2.720   4.098 -0.0409  0.4352 -0.0060
 1366SOL    HW115734   4.415   2.642   4.087  0.4619  0.7000  0.6451
 1366SOL    HW215735   4.419   2.789   4.067 -1.2715  2.3821  2.0377
 1367SOL     OW15736   3.571   0.985   3.184  0.4027  0.7715 -0.1242
 1367SOL    HW115737   3.565   0.999   3.089 -0.1308  1.7572  0.0582
 1367SOL    HW215738   3.590   1.071   3.221 -2.4639  1.0792  0.5898
 1368SOL     OW15739   3.922   3.972  12.205 -0.7009 -0.1713 -0.2942
 1368SOL    HW115740   4.005   3.992  12.162 -1.1308  0.2256 -0.9383
 1368SOL    HW215741   3.892   3.901  12.148  0.5872  0.0971 -1.3127
 1369SOL     OW15742   0.460   0.172  15.263  0.2540  0.2468  0.6141
 1369SOL    HW115743   0.507   0.179  15.179 -0.0486 -1.5676  0.2799
 1369SOL    HW215744   0.372   0.168  15.226  0.4169  0.1209  0.2370
 1370SOL     OW15745   1.929   1.014  17.670  0.1601  0.3681  0.3990
 1370SOL    HW115746   1.895   1.028   0.026  1.1476  0.2717  0.8004
 1370SOL    HW215747   1.930   1.103  17.634  2.8863 -0.2359 -1.0520
 1371SOL     OW15748   3.504   1.536  12.584 -0.7773  0.0691 -0.7602
 1371SOL    HW115749   3.516   1.631  12.586 -1.4943  0.1221  0.5340
 1371SOL    HW215750   3.501   1.508  12.675  0.4964  0.9511 -0.4524
 1372SOL     OW15751   4.057   2.500   2.492 -0.5486  0.2108 -0.0711
 1372SOL    HW115752   4.143   2.495   2.450 -0.1179 -2.4830  1.1210
 1372SOL    HW215753   4.004   2.439   2.441 -1.1506  0.3035  0.4509
 1373SOL     OW15754   0.238   1.142  12.534 -0.3369  0.3007 -0.3686
 1373SOL    HW115755   0.276   1.092  12.462  0.1519  1.7748 -1.1266
 1373SOL    HW215756   0.227   1.230  12.499 -1.2699  0.6599  0.8224
 1374SOL     OW15757   0.127   1.359   5.480  0.0843 -0.3094 -0.4822
 1374SOL    HW115758   0.136   1.328   5.570 -1.4164  2.2453  0.5555
 1374SOL    HW215759   0.061   1.304   5.438 -1.0015  0.6758 -0.0575
 1375SOL     OW15760   2.527   0.618   9.578  0.2703  0.3947  0.5368
 1375SOL    HW115761   2.574   0.674   9.517 -0.0155 -0.1618 -0.1989
 1375SOL    HW215762   2.560   0.654   9.660 -1.1125 -3.0564  2.6012
 1376SOL     OW15763   4.409   4.243   1.439 -0.4770 -0.1370 -0.0453
 1376SOL    HW115764   4.418   4.335   1.414 -3.6142  0.4483  0.8908
 1376SOL    HW215765   4.364   4.248   1.524 -1.8849  2.8871 -0.9604
 1377SOL     OW15766   2.950   3.082   1.562  0.3829 -0.2382 -0.5679
 1377SOL    HW115767   2.950   3.022   1.636 -1.1028  1.0157  0.4436
 1377SOL    HW215768   2.855   3.095   1.559  0.3891 -0.5692 -2.5504
 1378SOL     OW15769   1.906   2.334  11.616  0.2736  0.5290  0.3032
 1378SOL    HW115770   1.905   2.371  11.705  1.2653  1.0525  0.0921
 1378SOL    HW215771   1.885   2.243  11.637  2.5097  0.6645  3.2163
 1379SOL     OW15772   1.522   1.131   2.930 -0.1617  0.1825  0.2743
 1379SOL    HW115773   1.466   1.138   2.853  0.3533 -1.3582 -0.2534
 1379SOL    HW215774   1.601   1.175   2.899  0.8321 -1.5429  0.3541
 1380SOL     OW15775   4.195   0.995   1.822  0.6332  0.6799 -0.8958
 1380SOL    HW115776   4.232   0.916   1.861  0.1513 -0.1063 -2.0362
 1380SOL    HW215777   4.273   1.047   1.799  0.5669  1.5621  0.9038
 1381SOL     OW15778   4.233   4.681   8.771 -0.1330  0.0277  0.1281
 1381SOL    HW115779   4.328   4.685   8.786 -0.4713 -0.0322  2.1613
 1381SOL    HW215780   4.210   4.588   8.782  0.2281 -0.1691 -0.7044
 1382SOL     OW15781   2.024   3.683   5.463  0.0646 -0.2144  0.9514
 1382SOL    HW115782   2.073   3.720   5.536  1.0506  0.1653  0.0953
 1382SOL    HW215783   2.059   3.594   5.457 -0.5519 -0.5296  1.9130
 1383SOL     OW15784   3.746   0.101   2.914 -0.0478 -0.5139 -0.6339
 1383SOL    HW115785   3.664   0.058   2.890 -1.6265  2.3429 -0.3707
 1383SOL    HW215786   3.733   0.099   3.008  0.6306 -1.3557 -0.5567
 1384SOL     OW15787   0.134   3.759   7.023  0.1258  0.1909 -0.1383
 1384SOL    HW115788   0.098   3.797   7.103  1.2114 -0.0206  0.4544
 1384SOL    HW215789   0.106   3.824   6.959 -0.1978 -1.7835 -2.0058
 1385SOL     OW15790   0.567   4.123   2.085  0.2403 -0.0351 -0.7177
 1385SOL    HW115791   0.655   4.146   2.053  0.6194 -0.8246 -0.2179
 1385SOL    HW215792   0.557   4.038   2.043  0.3507 -0.1320 -0.5464
 1386SOL     OW15793   4.545   0.710  13.854  0.2031  0.8596  0.3602
 1386SOL    HW115794   4.500   0.784  13.812  0.7637 -0.5845 -2.7921
 1386SOL    HW215795   4.612   0.752  13.909  0.0559  0.6365  0.7038
 1387SOL     OW15796   4.225   0.557   7.738  0.0272  0.0218  0.3318
 1387SOL    HW115797   4.220   0.497   7.663  1.2720 -0.3214  0.5246
 1387SOL    HW215798   4.142   0.599   7.717 -0.7515 -1.6590  0.0432
 1388SOL     OW15799   1.816   0.426  17.267  0.5062 -0.4567 -0.2514
 1388SOL    HW115800   1.907   0.423  17.238  0.6105 -2.9757  0.2927
 1388SOL    HW215801   1.770   0.394  17.190 -1.1678 -1.0318  0.9652
 1389SOL     OW15802   0.214   1.292   3.359 -0.1017 -0.2216  0.2749
 1389SOL    HW115803   0.257   1.323   3.439 -0.7636 -1.3794  1.0830
 1389SOL    HW215804   0.272   1.226   3.323  0.9379  0.3452  0.9154
 1390SOL     OW15805   3.517   3.263   7.994  1.4130 -0.5108 -0.8571
 1390SOL    HW115806   3.450   3.216   7.944  1.7475 -2.1292  0.2255
 1390SOL    HW215807   3.575   3.195   8.028 -3.4504 -4.6967 -0.8750
 1391SOL     OW15808   2.142   0.525   9.218  0.2854 -0.1100 -0.0353
 1391SOL    HW115809   2.205   0.531   9.290 -1.8530  2.1027  1.6460
 1391SOL    HW215810   2.124   0.619   9.222  0.3049 -0.1853  1.6300
 1392SOL     OW15811   4.607   0.544  15.449  0.5895 -0.2554 -0.4620
 1392SOL    HW115812   4.581   0.532  15.358  1.7620  1.4425 -1.0264
 1392SOL    HW215813   4.614   0.639  15.456  0.5636 -0.2495 -0.5202
 1393SOL     OW15814   3.786   3.657   3.198  0.5013  0.0091  0.4427
 1393SOL    HW115815   3.709   3.711   3.218  0.1764 -0.2221 -0.1896
 1393SOL    HW215816   3.850   3.707   3.249 -0.2539  2.3939 -0.9172
 1394SOL     OW15817   0.072   0.897   1.053 -0.1210  0.4802  0.6975
 1394SOL    HW115818   0.088   0.985   1.088  0.2151  0.8014 -0.2804
 1394SOL    HW215819   0.160   0.876   1.022 -0.6583 -0.4610 -0.1881
 1395SOL     OW15820   2.049   3.111   6.694 -0.0752  0.4534  0.0505
 1395SOL    HW115821   1.970   3.087   6.646 -0.2630  1.4357 -0.1313
 1395SOL    HW215822   2.117   3.050   6.666 -0.0233  0.6577 -0.2741
 1396SOL     OW15823   1.509   2.650  14.683  0.0941  0.1520 -0.1131
 1396SOL    HW115824   1.480   2.735  14.717  1.1086  1.2938 -2.0914
 1396SOL    HW215825   1.473   2.649  14.595  2.3702 -0.6052 -1.0251
 1397SOL     OW15826   4.494   0.071   9.442  1.2675 -0.4042 -0.1483
 1397SOL    HW115827   4.481   0.163   9.418 -2.6384 -0.4678  1.7415
 1397SOL    HW215828   4.427   0.060   9.510  0.4170  1.4572 -0.6735
 1398SOL     OW15829   4.235   1.477   5.900 -0.1808  0.6268  0.6336
 1398SOL    HW115830   4.140   1.480   5.890 -0.4932 -0.7058  3.0047
 1398SOL    HW215831   4.254   1.556   5.951 -0.7213  0.3773  1.2327
 1399SOL     OW15832   2.531   0.726   3.578  0.1884  0.3106  0.1947
 1399SOL    HW115833   2.446   0.740   3.538  0.4295 -1.1791 -0.8381
 1399SOL    HW215834   2.513   0.689   3.664 -1.6423  0.4843 -0.1312
 1400SOL     OW15835   0.653   3.422   2.391 -0.6989  0.4276 -0.1339
 1400SOL    HW115836   0.710   3.493   2.421  0.6546 -0.2495 -1.1096
 1400SOL    HW215837   0.582   3.431   2.454  0.7135  1.3823  1.3307
 1401SOL     OW15838   0.085   4.043   3.808 -0.2664  0.5294  0.6774
 1401SOL    HW115839   0.171   4.013   3.837  0.2681  1.1082 -0.3313
 1401SOL    HW215840   0.036   4.006   3.882 -0.0732 -0.5006  0.2905
 1402SOL     OW15841   0.293   1.649   3.719  0.3934  0.1364 -0.3670
 1402SOL    HW115842   0.241   1.622   3.795  0.2467  1.9647  0.1973
 1402SOL    HW215843   0.362   1.583   3.720  0.6576  0.4562  2.6526
 1403SOL     OW15844   4.152   1.110  17.434  0.1840  0.1099 -0.4030
 1403SOL    HW115845   4.150   1.035  17.494 -1.0082 -0.8456 -1.6375
 1403SOL    HW215846   4.161   1.051  17.359  2.7839 -0.5934  0.4793
 1404SOL     OW15847   1.725   0.746  17.647  0.2404 -0.0369  0.0070
 1404SOL    HW115848   1.731   0.748   0.011 -1.1920  1.7628  0.0404
 1404SOL    HW215849   1.634   0.720  17.635  0.2453 -0.3965  0.7353
 1405SOL     OW15850   1.572   0.752   4.949  0.2159 -0.2361  0.4300
 1405SOL    HW115851   1.655   0.777   4.908 -0.9198  2.2880 -0.3198
 1405SOL    HW215852   1.508   0.782   4.884  0.4851 -0.1684  0.1942
 1406SOL     OW15853   2.961   1.288   8.811 -0.2009 -0.5736  0.1203
 1406SOL    HW115854   2.926   1.313   8.726  0.3249  0.5175  0.2319
 1406SOL    HW215855   2.887   1.301   8.870  0.8695  0.6552  1.1823
 1407SOL     OW15856   1.414   2.908   5.779  0.1712 -0.0802 -0.1194
 1407SOL    HW115857   1.467   2.985   5.798  2.3648 -1.3907 -0.9065
 1407SOL    HW215858   1.338   2.956   5.745  0.5838  1.5706  1.2427
 1408SOL     OW15859   0.557   0.445   3.092 -0.0816  0.6836  0.1386
 1408SOL    HW115860   0.631   0.434   3.031 -1.5207 -0.6723 -1.3573
 1408SOL    HW215861   0.568   0.369   3.148 -1.0668  1.0466  0.8178
 1409SOL     OW15862   4.097   3.962   2.948 -0.3545 -0.2488 -0.6116
 1409SOL    HW115863   4.182   3.921   2.934 -0.6902 -0.5752 -1.7028
 1409SOL    HW215864   4.041   3.888   2.924 -1.1207 -0.0735  0.6061
 1410SOL     OW15865   3.466   0.516  10.618  0.1867 -0.5313  0.1569
 1410SOL    HW115866   3.422   0.442  10.575 -1.1287 -0.0481  0.6539
 1410SOL    HW215867   3.439   0.523  10.709 -1.4603  2.9777 -0.6031
 1411SOL     OW15868   0.947   0.132   7.476 -0.1263  0.3322 -0.5854
 1411SOL    HW115869   0.916   0.045   7.449  0.3130  0.8510 -2.7810
 1411SOL    HW215870   0.880   0.152   7.541  0.1636 -1.6802  0.3182
 1412SOL     OW15871   1.700   0.671   4.606  0.3763 -0.0524 -0.3765
 1412SOL    HW115872   1.753   0.636   4.678 -1.9580 -2.9746 -0.0583
 1412SOL    HW215873   1.735   0.759   4.594  0.3440 -0.2816 -2.1905
 1413SOL     OW15874   0.670   4.235   4.058  0.1293 -0.7208 -0.3310
 1413SOL    HW115875   0.663   4.293   3.982  0.5461 -0.4519 -0.1653
 1413SOL    HW215876   0.604   4.272   4.117  0.9301 -1.1351  0.8111
 1414SOL     OW15877   2.465   0.306   5.668 -0.1281 -0.7292 -0.1144
 1414SOL    HW115878   2.548   0.264   5.688  1.0409  2.8643  2.5571
 1414SOL    HW215879   2.487   0.335   5.579  0.9132 -0.7199  0.1465
 1415SOL     OW15880   4.665   4.506  14.555  0.5056 -0.2142 -0.8518
 1415SOL    HW115881   4.602   4.575  14.535  0.1423 -0.1850  0.3942
 1415SOL    HW215882   4.642   4.495  14.647  0.9731  1.0358 -0.5739
 1416SOL     OW15883   4.250   0.980   4.315 -0.9702  0.0487  0.3739
 1416SOL    HW115884   4.265   0.914   4.247  2.2851  0.3928  0.7631
 1416SOL    HW215885   4.253   0.932   4.398  0.9052 -1.6225 -0.6682
 1417SOL     OW15886   3.492   4.397  10.214  0.0268  0.1608  0.4579
 1417SOL    HW115887   3.440   4.345  10.153 -1.1604  1.2986  0.5107
 1417SOL    HW215888   3.475   4.350  10.296 -0.0630 -0.4206  0.1096
 1418SOL     OW15889   1.474   2.497   6.222 -0.2853  0.6987 -1.0117
 1418SOL    HW115890   1.538   2.431   6.250 -1.7647 -0.2348  0.1676
 1418SOL    HW215891   1.493   2.570   6.280  0.7954 -0.0088 -0.4816
 1419SOL     OW15892   0.538   3.415   9.036 -0.0394 -0.4229  0.6403
 1419SOL    HW115893   0.510   3.402   8.945 -1.3051 -2.2178  1.2915
 1419SOL    HW215894   0.453   3.410   9.080 -0.1345 -0.9636  0.3883
 1420SOL     OW15895   3.119   0.851  15.773  0.2421 -0.6694 -0.9033
 1420SOL    HW115896   3.169   0.802  15.838 -2.0288 -2.4818 -0.5303
 1420SOL    HW215897   3.032   0.814  15.787  1.4407 -2.5309  1.5845
 1421SOL     OW15898   2.197   3.639   2.196  0.3675 -0.3857 -0.4148
 1421SOL    HW115899   2.247   3.579   2.141 -1.5497 -1.6623 -0.7545
 1421SOL    HW215900   2.262   3.709   2.201  0.0052 -0.1444  0.9891
 1422SOL     OW15901   4.256   3.342   3.346 -0.6225 -0.7987 -0.6220
 1422SOL    HW115902   4.232   3.365   3.256 -0.9757  1.7288  0.1298
 1422SOL    HW215903   4.202   3.407   3.392 -0.2913  0.6653 -2.2868
 1423SOL     OW15904   2.278   1.092  13.037 -0.1216 -0.1758  0.0121
 1423SOL    HW115905   2.230   1.047  13.106 -0.4747 -0.3380 -0.3397
 1423SOL    HW215906   2.291   1.021  12.974  3.2118  1.8145 -1.5724
 1424SOL     OW15907   0.276   0.676   3.058  0.0994  0.5147 -0.0500
 1424SOL    HW115908   0.357   0.694   3.105  0.3947 -2.0386  0.4544
 1424SOL    HW215909   0.291   0.586   3.028 -0.9396  0.1482  0.5287
 1425SOL     OW15910   3.030   2.569   8.748  0.2006 -0.0806 -0.3125
 1425SOL    HW115911   3.105   2.608   8.793 -1.0303 -0.3265  1.9584
 1425SOL    HW215912   2.996   2.638   8.692 -1.8912 -0.4417  0.4716
 1426SOL     OW15913   1.009   1.716   8.503 -0.6400 -0.4207 -0.0359
 1426SOL    HW115914   1.051   1.647   8.452 -2.6334 -1.2962 -0.4974
 1426SOL    HW215915   1.046   1.800   8.473  0.6331 -1.8494 -2.4891
 1427SOL     OW15916   3.251   2.187  15.052 -0.1672 -0.4471 -0.6124
 1427SOL    HW115917   3.265   2.186  14.957 -1.5519 -0.8803 -0.8153
 1427SOL    HW215918   3.156   2.199  15.060  0.2479  1.8454  0.6738
 1428SOL     OW15919   4.042   0.099   6.325  0.5828 -0.6655  0.3797
 1428SOL    HW115920   3.996   0.016   6.320 -3.9649  1.8220  0.8834
 1428SOL    HW215921   4.133   0.088   6.297  0.3873  0.1756 -0.6116
 1429SOL     OW15922   1.824   3.700   8.521  0.0188 -0.2835 -0.1532
 1429SOL    HW115923   1.781   3.665   8.599  2.2536 -0.2179  1.1087
 1429SOL    HW215924   1.895   3.636   8.520 -0.5636 -0.9335  0.1247
 1430SOL     OW15925   4.144   0.031   3.553  0.0475  0.8880 -0.0211
 1430SOL    HW115926   4.083   0.105   3.555 -0.7622  0.2037  0.6421
 1430SOL    HW215927   4.215   0.063   3.497  0.5634  1.1155  0.7638
 1431SOL     OW15928   4.033   3.106   6.931  0.8111  0.4866 -0.1216
 1431SOL    HW115929   3.976   3.153   6.992 -0.8624  0.9745 -2.0277
 1431SOL    HW215930   4.009   3.013   6.939  0.0610  0.5848 -1.1186
 1432SOL     OW15931   0.002   2.358   7.093 -0.2199  0.1352 -0.5923
 1432SOL    HW115932   4.650   2.397   7.071 -0.6227  0.7891  2.1720
 1432SOL    HW215933   0.033   2.333   7.005 -1.8148 -0.6480 -0.9346
 1433SOL     OW15934   0.688   2.377   8.095  0.1430  0.0006 -0.2340
 1433SOL    HW115935   0.669   2.317   8.168 -0.4558  0.2292 -0.2009
 1433SOL    HW215936   0.783   2.366   8.091  0.4586  2.0447  1.6423
 1434SOL     OW15937   4.051   1.417   6.975 -0.2534 -0.1564  0.0703
 1434SOL    HW115938   4.136   1.442   6.940 -1.3620  2.4389 -0.8576
 1434SOL    HW215939   4.039   1.329   6.942  1.8359 -0.1514 -0.6462
 1435SOL     OW15940   3.092   2.786   8.041 -0.5186  0.2559  0.5915
 1435SOL    HW115941   3.183   2.772   8.066 -0.3849  2.9178  1.5800
 1435SOL    HW215942   3.061   2.866   8.084  1.2844 -0.1063  2.4920
 1436SOL     OW15943   0.370   4.304   8.036 -1.1132 -0.2484 -0.2763
 1436SOL    HW115944   0.417   4.354   7.969 -1.8915  0.7857 -0.0600
 1436SOL    HW215945   0.379   4.212   8.010  1.6517  0.3802 -1.5342
 1437SOL     OW15946   0.875   1.283   2.913 -0.2761  0.0843  0.1842
 1437SOL    HW115947   0.929   1.343   2.965  2.1876 -0.2809 -1.9093
 1437SOL    HW215948   0.833   1.249   2.991 -1.8732  3.1262  0.6631
 1438SOL     OW15949   0.857   0.682  11.412  0.0508 -0.2800 -0.2077
 1438SOL    HW115950   0.909   0.602  11.423 -0.2818 -0.7054 -1.6820
 1438SOL    HW215951   0.783   0.652  11.360 -0.5101 -0.8637  0.9236
 1439SOL     OW15952   0.757   1.507   8.512  0.2346 -0.1008 -0.1934
 1439SOL    HW115953   0.690   1.467   8.568  0.4574  1.2273  1.0097
 1439SOL    HW215954   0.750   1.600   8.533 -1.1080 -0.0612 -0.7991
 1440SOL     OW15955   3.015   3.278   2.634  0.0688  0.1626  0.4079
 1440SOL    HW115956   2.995   3.203   2.690 -1.3166 -0.0272 -0.3353
 1440SOL    HW215957   3.065   3.228   2.569  2.1587  1.1857  1.2473
 1441SOL     OW15958   1.053   3.886   5.754 -0.0218 -0.4797 -0.4715
 1441SOL    HW115959   0.973   3.843   5.725 -1.6887  0.9577  2.0581
 1441SOL    HW215960   1.079   3.934   5.675 -1.9402  1.2271 -0.0507
 1442SOL     OW15961   4.378   2.522  10.604  0.3576 -0.0005 -0.0621
 1442SOL    HW115962   4.448   2.505  10.541 -0.3738  0.5696 -1.0313
 1442SOL    HW215963   4.357   2.431  10.625  0.7415 -0.0748  0.0129
 1443SOL     OW15964   3.516   1.252   5.232  0.1248  0.3510 -0.3165
 1443SOL    HW115965   3.510   1.347   5.221 -1.1625  0.4094  0.8576
 1443SOL    HW215966   3.431   1.245   5.274  0.4611  0.9978  0.4821
 1444SOL     OW15967   0.881   2.687   3.970 -0.4046 -0.5764  0.5388
 1444SOL    HW115968   0.811   2.748   3.950  0.4281 -0.0813 -0.9116
 1444SOL    HW215969   0.940   2.732   3.909 -2.1004 -1.9844 -2.1616
 1445SOL     OW15970   4.659   4.683   8.415  0.6282 -0.1192  0.0712
 1445SOL    HW115971   4.595   4.615   8.436 -1.1571  2.0433  1.6607
 1445SOL    HW215972   4.696   4.654   8.332 -2.2696  0.8354 -1.5508
 1446SOL     OW15973   4.087   3.688   8.164  0.5474 -0.7169 -0.1647
 1446SOL    HW115974   4.135   3.612   8.198  0.7516  0.2814  1.7406
 1446SOL    HW215975   3.995   3.665   8.178  0.2108 -0.7920 -2.5149
 1447SOL     OW15976   4.156   4.211   5.417 -0.4752  0.1619 -0.1250
 1447SOL    HW115977   4.112   4.215   5.502  0.7509  2.2865  0.3938
 1447SOL    HW215978   4.245   4.220   5.451  0.4212 -3.6396 -1.4040
 1448SOL     OW15979   1.151   2.332  10.440  0.2242 -0.1629 -0.9365
 1448SOL    HW115980   1.240   2.363  10.426  1.4118 -2.9284  0.6381
 1448SOL    HW215981   1.146   2.282  10.358 -0.8664  0.4233 -1.2315
 1449SOL     OW15982   0.233   1.776   7.432 -0.0450  0.3822  0.2519
 1449SOL    HW115983   0.242   1.850   7.493  1.3212 -0.8223  1.5156
 1449SOL    HW215984   0.313   1.795   7.384  2.2043 -2.6752  2.7862
 1450SOL     OW15985   0.541   1.226   1.001  0.0604  0.2343 -0.5710
 1450SOL    HW115986   0.581   1.226   0.915  2.8119  0.0161  0.7121
 1450SOL    HW215987   0.470   1.289   0.990 -1.0638 -0.6392  1.5378
 1451SOL     OW15988   3.038   1.249   7.831  0.2088  0.0426 -0.3047
 1451SOL    HW115989   3.023   1.330   7.880 -1.9626 -1.0985  0.9396
 1451SOL    HW215990   3.038   1.182   7.900  1.0507  0.4114  0.0423
 1452SOL     OW15991   0.270   0.679   7.684  0.5381 -0.2665 -0.5764
 1452SOL    HW115992   0.269   0.755   7.626  1.3370  1.1473  1.2631
 1452SOL    HW215993   0.205   0.622   7.643  1.6818 -2.9426  1.3419
 1453SOL     OW15994   3.324   3.318   7.297  0.0243  0.3327  0.2878
 1453SOL    HW115995   3.398   3.266   7.265  0.0858 -0.5041  1.8060
 1453SOL    HW215996   3.366   3.382   7.354 -0.9298  0.9372  0.3105
 1454SOL     OW15997   0.562   1.849   2.840 -0.0771 -0.0320 -0.0857
 1454SOL    HW115998   0.559   1.753   2.832  0.7558 -0.0967  0.3478
 1454SOL    HW215999   0.656   1.864   2.849  0.2487 -1.2272 -1.3366
 1455SOL     OW16000   3.096   4.729   8.138  0.1257 -0.0096 -0.1460
 1455SOL    HW116001   3.176   0.035   8.173  1.8621 -3.0436 -0.6905
 1455SOL    HW216002   3.137   4.693   8.060  1.1998  1.6708 -0.3670
 1456SOL     OW16003   2.835   1.342   0.003  0.2558 -0.0333 -0.1957
 1456SOL    HW116004   2.875   1.428   0.019 -3.0045  1.7182 -1.6752
 1456SOL    HW216005   2.905   1.277  17.725 -2.3701 -3.3169  2.9542
 1457SOL     OW16006   1.293   0.338  14.379 -0.1753  0.2340  0.0894
 1457SOL    HW116007   1.357   0.340  14.307  1.1210  1.2312  1.2745
 1457SOL    HW216008   1.352   0.286  14.433 -0.9735  0.7773  1.4711
 1458SOL     OW16009   1.266   2.085   8.232 -0.0417  0.4557 -0.2043
 1458SOL    HW116010   1.358   2.095   8.209 -0.7864 -0.2201 -3.4440
 1458SOL    HW216011   1.227   2.158   8.184  1.8147  1.3691 -0.2910
 1459SOL     OW16012   4.460   4.313  10.344 -0.4023 -0.7680  0.7179
 1459SOL    HW116013   4.385   4.288  10.291  1.7722 -1.9065 -1.8396
 1459SOL    HW216014   4.515   4.374  10.294  0.4115 -1.2111  1.0704
 1460SOL     OW16015   2.207   2.251   6.142  0.1044  0.0381  0.0509
 1460SOL    HW116016   2.116   2.246   6.113 -0.3492  0.5213  1.3661
 1460SOL    HW216017   2.205   2.195   6.220  0.9732 -1.3917 -0.9488
 1461SOL     OW16018   2.450   1.163   1.660  0.3053 -0.5593 -0.3573
 1461SOL    HW116019   2.374   1.107   1.677  0.3748 -0.5902 -0.1484
 1461SOL    HW216020   2.417   1.238   1.611 -0.7763 -1.2869 -0.7477
 1462SOL     OW16021   3.064   1.720  11.291 -0.0409 -0.3468 -0.2790
 1462SOL    HW116022   3.049   1.777  11.216  1.0528 -1.1635 -1.1330
 1462SOL    HW216023   3.050   1.777  11.366  2.4380  0.2967 -0.3044
 1463SOL     OW16024   0.999   2.903   4.147  0.0303  0.0787  0.0211
 1463SOL    HW116025   1.080   2.877   4.103  0.2215  1.3394 -0.3706
 1463SOL    HW216026   0.969   2.985   4.110 -0.3250 -0.1619 -0.2198
 1464SOL     OW16027   1.214   2.040  10.742  0.7015  0.3558  0.2342
 1464SOL    HW116028   1.291   1.983  10.735  0.2818 -0.4029  1.7887
 1464SOL    HW216029   1.191   2.037  10.649 -0.3809  2.2087  0.4523
 1465SOL     OW16030   3.190   3.042  17.329  0.3710  0.3843  0.5129
 1465SOL    HW116031   3.263   3.042  17.267 -0.8025  0.6127 -0.8724
 1465SOL    HW216032   3.229   3.001  17.407  0.8445 -0.3246 -0.1013
 1466SOL     OW16033   3.738   3.314   5.241  0.6040  0.1372  0.0671
 1466SOL    HW116034   3.699   3.359   5.166  0.6071 -1.3817 -0.8284
 1466SOL    HW216035   3.669   3.252   5.266 -0.0270 -0.0895 -2.2197
 1467SOL     OW16036   2.895   3.018   4.132  0.3202 -0.1295  0.1971
 1467SOL    HW116037   2.891   2.922   4.136  0.0628 -0.0690  1.5387
 1467SOL    HW216038   2.895   3.028   4.227  1.3788  0.6381  0.1063
 1468SOL     OW16039   2.725   3.058   2.717  0.7252 -0.5306  0.3661
 1468SOL    HW116040   2.799   3.001   2.699  0.3193 -1.3737  1.3570
 1468SOL    HW216041   2.655   3.018   2.665  2.2425 -1.0079 -1.2917
 1469SOL     OW16042   3.408   3.723   1.832  0.1954 -0.2930 -0.0458
 1469SOL    HW116043   3.327   3.770   1.813 -0.2142 -0.9654  0.0271
 1469SOL    HW216044   3.470   3.791   1.808 -0.7970  1.2280  1.7313
 1470SOL     OW16045   3.388   3.438   4.642 -0.4722 -0.2248 -0.0240
 1470SOL    HW116046   3.449   3.454   4.569 -0.8300 -3.3194 -0.9979
 1470SOL    HW216047   3.441   3.390   4.705 -0.9378 -0.3399  0.2802
 1471SOL     OW16048   1.338   3.625   8.158 -0.2720 -0.0019  0.5483
 1471SOL    HW116049   1.342   3.537   8.195  2.3064  0.4140  1.2045
 1471SOL    HW216050   1.340   3.689   8.228  2.2652  1.4558 -0.8802
 1472SOL     OW16051   2.599   4.139   0.352  0.2899 -0.1864  0.0285
 1472SOL    HW116052   2.567   4.190   0.277  1.2964  1.1784  0.5288
 1472SOL    HW216053   2.585   4.048   0.328 -1.7425 -0.0622  0.6933
 1473SOL     OW16054   2.835   1.390  17.298 -0.5634 -0.0422 -0.0007
 1473SOL    HW116055   2.815   1.297  17.301  2.2020 -0.5638  2.2322
 1473SOL    HW216056   2.787   1.413  17.219  0.9512 -0.6467 -1.1025
 1474SOL     OW16057   3.603   1.905  10.187 -0.7146  0.0971  0.4122
 1474SOL    HW116058   3.558   1.862  10.115 -0.5672 -1.0671  1.0244
 1474SOL    HW216059   3.581   1.995  10.163  0.0630  0.5359  1.3529
 1475SOL     OW16060   4.225   1.943  15.921 -0.7317 -0.3980 -0.2122
 1475SOL    HW116061   4.278   1.992  15.857  0.9201 -1.2591  0.4830
 1475SOL    HW216062   4.292   1.882  15.952 -1.3871 -1.0678 -0.1235
 1476SOL     OW16063   2.979   2.515   7.340  0.6574  0.0276  0.1160
 1476SOL    HW116064   3.023   2.430   7.347 -0.6881 -0.3826  3.5810
 1476SOL    HW216065   2.986   2.528   7.245 -1.5656  2.7500  0.3256
 1477SOL     OW16066   1.418   4.351   2.500  0.2746 -0.0290 -0.0157
 1477SOL    HW116067   1.480   4.334   2.571  1.3136  2.6820 -0.2686
 1477SOL    HW216068   1.332   4.324   2.532  0.1391  1.6876  1.0710
 1478SOL     OW16069   0.088   3.718  10.180  0.1008 -0.1353 -0.4599
 1478SOL    HW116070   0.025   3.731  10.251  0.1643  1.1352 -0.6355
 1478SOL    HW216071   0.027   3.696  10.109 -1.2731 -2.0823  1.3173
 1479SOL     OW16072   0.825   4.287   4.847  0.1156  0.1390 -0.0391
 1479SOL    HW116073   0.796   4.254   4.932  0.2621 -0.4998 -0.2294
 1479SOL    HW216074   0.818   4.380   4.867  2.9286 -0.0665  1.9395
 1480SOL     OW16075   3.324   1.761  15.638  0.2473 -0.1001  0.2072
 1480SOL    HW116076   3.344   1.684  15.585  3.2134 -0.4087  1.7617
 1480SOL    HW216077   3.232   1.741  15.656  0.3811 -1.5914 -0.7755
 1481SOL     OW16078   3.136   1.453   0.157  0.0475 -0.0555  0.0233
 1481SOL    HW116079   3.182   1.536   0.164 -0.4610 -0.1121  3.7086
 1481SOL    HW216080   3.090   1.461   0.073  0.3906 -1.4456 -0.3123
 1482SOL     OW16081   1.506   3.952   8.873  0.3877  0.1851  0.2340
 1482SOL    HW116082   1.507   4.028   8.814 -3.0832  1.0214  1.2280
 1482SOL    HW216083   1.459   3.892   8.815  0.8050 -0.5815  0.6888
 1483SOL     OW16084   3.271   0.735   1.339  0.0102 -0.1052  0.1495
 1483SOL    HW116085   3.243   0.646   1.361  1.6232 -0.3369  1.2885
 1483SOL    HW216086   3.195   0.768   1.290  0.4504  3.2741  1.7843
 1484SOL     OW16087   4.346   0.972   3.306 -0.4972 -0.0908 -0.1950
 1484SOL    HW116088   4.437   0.949   3.289 -0.4229 -0.6637  1.0454
 1484SOL    HW216089   4.348   0.995   3.398  0.9331 -0.4038 -0.1481
 1485SOL     OW16090   1.592   1.606  13.114  0.1259 -0.0413 -0.5405
 1485SOL    HW116091   1.613   1.638  13.027 -2.9359  1.1610 -0.8528
 1485SOL    HW216092   1.627   1.684  13.155  0.3562  0.1628 -1.1305
 1486SOL     OW16093   1.159   3.004   7.506 -0.2006  0.3131  0.3040
 1486SOL    HW116094   1.220   2.939   7.542  0.0935  0.7322  0.5767
 1486SOL    HW216095   1.212   3.050   7.440  2.5279 -2.0462  0.8389
 1487SOL     OW16096   4.493   1.677   8.020 -0.1489  0.0859  0.3995
 1487SOL    HW116097   4.461   1.645   8.104 -0.4537  2.0253  1.0289
 1487SOL    HW216098   4.493   1.600   7.962  0.7822 -0.5153  1.2031
 1488SOL     OW16099   3.119   3.477   6.656  0.6695  0.2189 -0.0682
 1488SOL    HW116100   3.182   3.464   6.586 -0.5573 -2.2480 -0.7421
 1488SOL    HW216101   3.099   3.569   6.645 -2.4733 -0.5568 -0.8308
 1489SOL     OW16102   2.277   0.434   3.100  0.5836 -0.4019  0.4556
 1489SOL    HW116103   2.236   0.401   3.020 -2.3037  1.0474  1.3449
 1489SOL    HW216104   2.200   0.459   3.152  1.1992  0.3056  1.0227
 1490SOL     OW16105   0.650   2.524   7.719  0.1817 -0.1548  0.1645
 1490SOL    HW116106   0.705   2.446   7.712 -0.5093 -0.6613  0.3793
 1490SOL    HW216107   0.604   2.523   7.635  1.2599 -1.6177 -0.4105
 1491SOL     OW16108   1.601   4.029   4.464 -0.2750 -0.1774  0.0092
 1491SOL    HW116109   1.611   3.995   4.553 -1.9830 -0.0957  0.2354
 1491SOL    HW216110   1.666   3.978   4.416 -1.6705 -2.2114  0.2734
 1492SOL     OW16111   4.305   3.534   4.892  0.0499 -0.1421 -0.1581
 1492SOL    HW116112   4.222   3.489   4.876  0.0196 -1.0161  2.4011
 1492SOL    HW216113   4.269   3.609   4.940 -1.1308 -0.7645 -0.0619
 1493SOL     OW16114   0.307   3.843   4.931  0.0536 -0.1697 -0.1548
 1493SOL    HW116115   0.225   3.892   4.940 -0.5480 -0.9183 -1.5311
 1493SOL    HW216116   0.354   3.896   4.867 -0.2385 -0.5761 -0.7112
 1494SOL     OW16117   0.337   2.915   6.869  0.1017 -0.2500  0.2130
 1494SOL    HW116118   0.402   2.938   6.936  2.4383  0.0755 -2.1489
 1494SOL    HW216119   0.395   2.913   6.793  1.5923  2.8332  1.2572
 1495SOL     OW16120   4.292   4.432  14.385 -0.5582 -0.5806 -0.1341
 1495SOL    HW116121   4.336   4.347  14.383 -0.3864 -0.5175  0.9123
 1495SOL    HW216122   4.209   4.410  14.429 -0.6649  0.3615  0.1402
 1496SOL     OW16123   0.309   1.590  17.730 -0.3011  0.0214  0.3276
 1496SOL    HW116124   0.403   1.591   0.013  0.1471 -0.0601 -2.5185
 1496SOL    HW216125   0.287   1.532   0.071  2.6493  2.5837  3.2514
 1497SOL     OW16126   3.167   1.363  11.991 -0.1331  0.4602 -0.0272
 1497SOL    HW116127   3.148   1.397  12.079  1.0422 -1.1341  0.8453
 1497SOL    HW216128   3.160   1.268  11.990  0.6951  0.3897  0.5676
 1498SOL     OW16129   1.074   2.982   9.490  0.1508 -0.0835  0.0102
 1498SOL    HW116130   1.113   2.943   9.412 -0.6222  0.0003 -0.4178
 1498SOL    HW216131   1.135   2.961   9.561 -0.6514 -0.6299  0.5343
 1499SOL     OW16132   2.475   1.157   4.217  0.4473  0.2007  0.4979
 1499SOL    HW116133   2.462   1.222   4.147 -0.1078  1.8947  2.1712
 1499SOL    HW216134   2.520   1.092   4.163 -0.6353 -0.8134  0.8105
 1500SOL     OW16135   3.052   3.619   9.509  0.0699  0.4854  0.0503
 1500SOL    HW116136   2.986   3.672   9.465 -0.0989 -0.9110 -1.3883
 1500SOL    HW216137   3.131   3.652   9.465  0.5831 -0.6009  0.1591
 1501SOL     OW16138   0.786   4.270   7.566 -0.0893 -0.3062 -0.2647
 1501SOL    HW116139   0.870   4.273   7.521  0.2008 -0.3694  0.2771
 1501SOL    HW216140   0.808   4.214   7.640 -0.4282  2.6675  2.0735
 1502SOL     OW16141   2.566   1.194   9.418 -0.3199 -0.2665 -0.1626
 1502SOL    HW116142   2.582   1.245   9.497 -1.2927 -0.8227  0.3975
 1502SOL    HW216143   2.575   1.258   9.348 -0.8946 -0.1238 -0.1107
 1503SOL     OW16144   1.103   3.906   2.220  0.4135 -0.0196 -0.1601
 1503SOL    HW116145   1.146   3.827   2.190  0.0365 -0.4603  0.4575
 1503SOL    HW216146   1.081   3.952   2.139 -1.3455  2.0031  1.4544
 1504SOL     OW16147   4.125   0.063  15.456  0.1222  0.0856  0.0948
 1504SOL    HW116148   4.162   0.107  15.379  0.9987 -1.4036 -0.3382
 1504SOL    HW216149   4.139   4.702  15.441 -3.5701 -0.8931  2.7059
 1505SOL     OW16150   1.866   2.591   9.495 -0.1226 -0.2074 -0.3145
 1505SOL    HW116151   1.774   2.608   9.476 -0.0594 -1.3599 -1.6655
 1505SOL    HW216152   1.891   2.682   9.513 -0.2622 -0.3792  0.7438
 1506SOL     OW16153   1.363   3.146  10.124 -0.5421  0.3507 -0.0093
 1506SOL    HW116154   1.452   3.175  10.145 -0.2379 -0.9089  0.4656
 1506SOL    HW216155   1.372   3.054  10.149 -2.4215  0.4441  1.0189
 1507SOL     OW16156   3.138   0.964   0.984 -0.1231 -0.1053 -0.7000
 1507SOL    HW116157   3.169   0.954   0.894 -1.1206 -2.4047 -0.7596
 1507SOL    HW216158   3.071   1.032   0.977  0.8008  0.7464 -1.4350
 1508SOL     OW16159   2.022   2.934   5.702 -0.0313 -0.1742 -0.4026
 1508SOL    HW116160   1.964   2.903   5.770 -0.0347  0.8168  0.0519
 1508SOL    HW216161   2.088   2.864   5.706  0.3701  0.2904  1.2747
 1509SOL     OW16162   0.309   0.027   9.518 -0.1394 -0.0144  0.0611
 1509SOL    HW116163   0.217   0.004   9.507 -0.3196  0.2427  1.0175
 1509SOL    HW216164   0.356   4.704   9.456  0.5872 -1.4676  1.9077
 1510SOL     OW16165   1.876   3.800   6.175 -0.2183 -0.1792  1.0513
 1510SOL    HW116166   1.924   3.759   6.248 -0.0994 -0.6086  0.7369
 1510SOL    HW216167   1.797   3.746   6.175 -0.2387 -0.1517  1.5778
 1511SOL     OW16168   1.073   1.238   5.883 -0.4559 -0.6742  0.1682
 1511SOL    HW116169   1.033   1.194   5.809  0.2743  0.8050 -1.1147
 1511SOL    HW216170   1.154   1.276   5.849 -1.9815  2.9221  0.4733
 1512SOL     OW16171   0.016   2.136  16.310 -0.2402  0.1335  0.2773
 1512SOL    HW116172   4.711   2.157  16.226  3.9675 -3.3029 -2.5128
 1512SOL    HW216173   0.108   2.161  16.295 -0.1932  0.0726  0.4587
 1513SOL     OW16174   4.050   0.236   5.723 -0.3764 -0.2388  0.1325
 1513SOL    HW116175   4.131   0.233   5.775 -0.7217 -0.6020  0.6497
 1513SOL    HW216176   4.049   0.329   5.701  0.0439  0.0076  1.1329
 1514SOL     OW16177   1.766   2.978   3.332  0.3408  0.3176 -0.0420
 1514SOL    HW116178   1.757   2.986   3.427 -0.4986 -1.0150 -0.0082
 1514SOL    HW216179   1.849   2.931   3.321  0.2377 -0.0986  0.8927
 1515SOL     OW16180   1.642   0.695   6.889 -0.0776 -0.1060 -0.5898
 1515SOL    HW116181   1.585   0.655   6.824 -2.0461 -1.8552  2.2049
 1515SOL    HW216182   1.592   0.687   6.970 -1.0279  0.5976 -1.0980
 1516SOL     OW16183   0.299   2.684   7.550  0.6509  0.1725  0.2789
 1516SOL    HW116184   0.236   2.635   7.603  0.6726  1.1618  1.2305
 1516SOL    HW216185   0.321   2.617   7.485  1.2308  2.4628 -1.9183
 1517SOL     OW16186   4.545   4.091   8.500 -0.0870 -0.1258 -0.5390
 1517SOL    HW116187   4.478   4.144   8.544 -0.6826 -2.5932  1.5086
 1517SOL    HW216188   4.580   4.150   8.433  0.6516 -0.7243 -0.6770
 1518SOL     OW16189   0.745   2.694   3.675 -0.3079 -0.2449 -0.9809
 1518SOL    HW116190   0.719   2.770   3.728 -2.7641 -0.2609 -2.1568
 1518SOL    HW216191   0.695   2.621   3.712 -0.9304  1.4457  1.5432
 1519SOL     OW16192   3.158   0.490   8.928 -0.5099  0.0393 -0.1599
 1519SOL    HW116193   3.119   0.577   8.939 -2.4721 -0.8717  0.1300
 1519SOL    HW216194   3.136   0.446   9.010 -0.4953  0.3745  0.0252
 1520SOL     OW16195   2.225   3.321  10.146  0.5332 -0.1525  0.3949
 1520SOL    HW116196   2.294   3.264  10.178 -1.0257 -2.8055 -1.0170
 1520SOL    HW216197   2.230   3.284  10.058  0.8160  0.5279  0.1249
 1521SOL     OW16198   3.220   1.519  12.661 -0.2756  0.3251  0.0237
 1521SOL    HW116199   3.267   1.589  12.615 -2.4464  2.9969  1.8083
 1521SOL    HW216200   3.134   1.550  12.633 -0.2515 -0.3026 -0.7327
 1522SOL     OW16201   3.449   2.310   5.215  1.1206 -0.1794 -0.2650
 1522SOL    HW116202   3.483   2.393   5.248  2.4420 -1.0769  0.6808
 1522SOL    HW216203   3.356   2.326   5.202  1.3834  1.0949 -0.5255
 1523SOL     OW16204   4.720   0.369   0.648  0.4224 -0.2350  0.0258
 1523SOL    HW116205   4.626   0.350   0.645  0.1119  1.2989 -0.2736
 1523SOL    HW216206   4.721   0.461   0.674 -1.6260 -0.3971  0.6753
 1524SOL     OW16207   2.288   0.116   3.709  0.0782  0.1080  0.5096
 1524SOL    HW116208   2.254   0.059   3.778  1.4299 -1.2858  0.0166
 1524SOL    HW216209   2.357   0.158   3.761  1.1738  0.2522 -1.0723
 1525SOL     OW16210   1.020   2.000   3.159 -0.0543  0.4563 -0.5047
 1525SOL    HW116211   1.031   1.996   3.254  2.8424  1.3090 -0.8200
 1525SOL    HW216212   0.989   1.910   3.151 -2.6119  1.2863 -0.0505
 1526SOL     OW16213   3.615   2.031  11.582  0.0813 -0.1357 -0.2432
 1526SOL    HW116214   3.696   2.045  11.632 -1.0431  0.5548  1.3717
 1526SOL    HW216215   3.644   1.954  11.534  0.2830  0.6630 -1.4058
 1527SOL     OW16216   2.733   3.782   8.144 -0.0762  0.3804  0.0063
 1527SOL    HW116217   2.789   3.775   8.222 -0.1793  0.9111  0.1266
 1527SOL    HW216218   2.684   3.700   8.137 -1.0776  1.2007 -2.4914
 1528SOL     OW16219   4.249   1.592  16.386  0.4156 -0.5933 -0.7262
 1528SOL    HW116220   4.294   1.648  16.322 -1.0370  2.6140  1.0612
 1528SOL    HW216221   4.266   1.630  16.472 -0.0277 -0.5053 -0.6772
 1529SOL     OW16222   4.641   3.352   3.453  0.7059  0.2060  0.9335
 1529SOL    HW116223   4.550   3.320   3.454  1.4794 -2.0592 -1.0118
 1529SOL    HW216224   4.679   3.307   3.529 -0.3460 -0.9112  0.8065
 1530SOL     OW16225   2.627   0.711   9.360 -0.2488  0.2791  0.3400
 1530SOL    HW116226   2.651   0.628   9.319  1.8410  1.4644 -0.8109
 1530SOL    HW216227   2.665   0.772   9.298 -0.1232  1.4368  1.5424
 1531SOL     OW16228   1.779   3.160   6.016  0.1221 -0.0201 -0.2194
 1531SOL    HW116229   1.872   3.138   6.026  0.1164 -0.9953 -2.2648
 1531SOL    HW216230   1.738   3.101   6.079  0.3819  0.7546  0.6798
 1532SOL     OW16231   1.009   2.823   7.299 -0.4038  0.8076 -0.0314
 1532SOL    HW116232   1.058   2.835   7.380 -0.4663  0.2512  0.0893
 1532SOL    HW216233   1.040   2.733   7.289  0.2108  0.6950  3.0742
 1533SOL     OW16234   1.042   2.877   8.673 -0.6595 -0.2011  0.0564
 1533SOL    HW116235   0.979   2.931   8.720 -2.2542 -1.0069 -1.1423
 1533SOL    HW216236   1.094   2.840   8.744 -0.2667 -1.1053 -0.7021
 1534SOL     OW16237   1.346   2.411   5.181 -0.2701  0.7982 -0.0697
 1534SOL    HW116238   1.409   2.397   5.251 -0.1529  1.7473  0.0043
 1534SOL    HW216239   1.383   2.492   5.146  1.2366  1.0181  2.0259
 1535SOL     OW16240   0.690   4.643   1.176 -0.3229  0.4352  0.5530
 1535SOL    HW116241   0.769   4.690   1.204 -1.3019  2.5932 -0.2728
 1535SOL    HW216242   0.661   4.615   1.263 -1.4013 -0.0239  0.0413
 1536SOL     OW16243   3.091   1.536  14.418 -0.3189 -0.0940  0.0364
 1536SOL    HW116244   3.172   1.584  14.435 -0.4263 -0.1847  0.8033
 1536SOL    HW216245   3.122   1.470  14.356 -0.1168  0.0371 -0.0026
 1537SOL     OW16246   2.585   3.125   0.947  0.3713 -0.2557 -0.3499
 1537SOL    HW116247   2.640   3.131   1.024  0.2948 -2.5501 -0.1387
 1537SOL    HW216248   2.645   3.098   0.877  0.9607  0.9491 -0.3171
 1538SOL     OW16249   0.230   1.505   3.929  0.2301  0.3925 -0.7040
 1538SOL    HW116250   0.247   1.542   4.016  0.4175 -1.2481 -0.0416
 1538SOL    HW216251   0.319   1.476   3.909  0.7593  0.6759  1.2093
 1539SOL     OW16252   3.599   3.355   7.196 -0.1565  0.0333 -0.1630
 1539SOL    HW116253   3.688   3.371   7.226 -1.6023  3.2023  2.4150
 1539SOL    HW216254   3.602   3.318   7.108  0.7737 -1.2680  0.4125
 1540SOL     OW16255   2.799   1.900   5.322  0.5491 -0.3984  0.3807
 1540SOL    HW116256   2.736   1.972   5.334  2.0840  1.1326 -0.7463
 1540SOL    HW216257   2.752   1.852   5.253  0.2981  0.8787 -0.3385
 1541SOL     OW16258   1.433   2.877  12.702  0.2782 -0.6095  0.2561
 1541SOL    HW116259   1.528   2.889  12.705  0.4952 -1.4740 -2.3480
 1541SOL    HW216260   1.433   2.783  12.683  1.5764 -0.6087  0.2332
 1542SOL     OW16261   0.457   1.162   0.429 -0.0048  0.2754  0.1939
 1542SOL    HW116262   0.455   1.250   0.467 -0.0988  0.6500 -0.6763
 1542SOL    HW216263   0.376   1.155   0.380 -0.7279  0.9161  1.2990
 1543SOL     OW16264   0.404   1.401   8.219  0.0891 -0.2355  0.2947
 1543SOL    HW116265   0.411   1.308   8.238 -1.5927 -0.8337 -2.0528
 1543SOL    HW216266   0.482   1.427   8.169  0.1004 -0.6323  0.1099
 1544SOL     OW16267   1.120   3.775   8.816  0.2503 -0.1174 -0.0749
 1544SOL    HW116268   1.094   3.697   8.864 -0.9587 -0.1720 -0.8129
 1544SOL    HW216269   1.147   3.831   8.889  1.6881 -0.3254 -0.4470
 1545SOL     OW16270   4.407   1.093   6.212  0.0244  0.4493 -0.0384
 1545SOL    HW116271   4.315   1.118   6.207 -0.5210 -1.0955  1.9734
 1545SOL    HW216272   4.424   1.094   6.307 -1.2695 -1.6714  0.2283
 1546SOL     OW16273   1.350   1.779   0.686  0.1777  0.0186  0.2075
 1546SOL    HW116274   1.394   1.709   0.734  0.9526 -1.0684 -2.1162
 1546SOL    HW216275   1.425   1.814   0.639 -0.0498  1.2304  0.7539
 1547SOL     OW16276   4.046   3.984   4.095  0.3068 -0.1046  0.4672
 1547SOL    HW116277   3.952   3.968   4.104  0.5076  0.3638  3.5694
 1547SOL    HW216278   4.050   4.067   4.142  0.0699  0.2531 -0.1565
 1548SOL     OW16279   2.153   1.013   0.737 -0.6587  0.1048 -0.0700
 1548SOL    HW116280   2.161   1.099   0.779 -0.1178 -0.9942  2.0747
 1548SOL    HW216281   2.100   0.964   0.800  2.1836 -1.0368  1.4191
 1549SOL     OW16282   2.196   1.178   2.661 -0.4586 -0.2183 -0.3977
 1549SOL    HW116283   2.206   1.156   2.569  1.1347 -0.3734 -0.1816
 1549SOL    HW216284   2.152   1.263   2.661  2.5873  1.3603 -0.7955
 1550SOL     OW16285   2.840   3.815  14.122 -0.1775 -0.1759 -0.0883
 1550SOL    HW116286   2.809   3.823  14.212 -1.6966  2.7407 -0.8605
 1550SOL    HW216287   2.788   3.738  14.099  1.4534 -1.1815 -0.4142
 1551SOL     OW16288   1.068   1.799   1.655  0.2999  0.1261  0.0415
 1551SOL    HW116289   1.034   1.850   1.728  2.8243  1.8150  0.0345
 1551SOL    HW216290   1.058   1.854   1.577 -4.4362 -2.4071 -1.1768
 1552SOL     OW16291   3.734   1.393  17.611 -0.4807  0.0455 -0.4981
 1552SOL    HW116292   3.800   1.344  17.561 -0.3030 -0.1744 -0.0467
 1552SOL    HW216293   3.694   1.453  17.548  0.2477 -1.4506 -2.4011
 1553SOL     OW16294   4.621   0.248   4.335  0.2633 -0.0670 -0.5598
 1553SOL    HW116295   4.646   0.313   4.270 -0.4661  0.8222  0.0490
 1553SOL    HW216296   4.705   0.207   4.355 -0.6873 -1.8229 -0.1377
 1554SOL     OW16297   2.957   2.171   3.793  0.3879  0.0057 -0.4336
 1554SOL    HW116298   3.000   2.111   3.732  0.5529 -0.3202  0.0099
 1554SOL    HW216299   2.991   2.258   3.770  0.2961 -0.5120 -2.5078
 1555SOL     OW16300   1.208   2.757   8.853  0.0285 -0.1693 -0.3624
 1555SOL    HW116301   1.238   2.676   8.810  0.6709 -0.9547  1.5978
 1555SOL    HW216302   1.264   2.754   8.930 -1.0302 -1.6043  0.3466
 1556SOL     OW16303   4.645   3.506   6.055 -0.0460  0.0412  0.7423
 1556SOL    HW116304   4.728   3.499   6.102  0.5238 -2.1012 -0.5732
 1556SOL    HW216305   4.668   3.570   5.987  0.3980 -0.7535  0.1386
 1557SOL     OW16306   1.439   1.060   0.674 -0.0512  0.7539 -0.6112
 1557SOL    HW116307   1.476   0.973   0.658 -1.4553  0.6458 -3.3068
 1557SOL    HW216308   1.358   1.034   0.718 -0.6025 -0.3220 -2.2309
 1558SOL     OW16309   2.861   4.198   4.918 -0.1281  0.1243 -0.2635
 1558SOL    HW116310   2.918   4.210   4.994  1.1453  2.1112 -1.5422
 1558SOL    HW216311   2.900   4.124   4.873  1.6062 -0.7330  2.6105
 1559SOL     OW16312   2.967   3.764   4.846  0.3134 -0.0909  0.0168
 1559SOL    HW116313   3.011   3.727   4.922  0.2678  0.3040  0.2389
 1559SOL    HW216314   2.882   3.780   4.888  0.3418  2.1801 -0.7918
 1560SOL     OW16315   3.064   2.363  14.408 -0.2708 -0.2890  0.6251
 1560SOL    HW116316   3.143   2.383  14.358  0.5440 -2.7990  0.8920
 1560SOL    HW216317   2.988   2.394  14.360 -1.8421 -2.7267  1.5242
 1561SOL     OW16318   0.282   1.892   4.612 -0.6319  0.5595  0.3730
 1561SOL    HW116319   0.287   1.820   4.550 -1.2566 -0.0574  1.0325
 1561SOL    HW216320   0.207   1.946   4.589  0.0999  1.0180 -0.9030
 1562SOL     OW16321   4.702   1.884  17.652  0.6369  0.1675 -0.4574
 1562SOL    HW116322   4.695   1.918   0.009 -0.5927  1.1130 -0.9149
 1562SOL    HW216323   4.706   1.792  17.679 -0.6825  0.0332 -0.7172
 1563SOL     OW16324   4.416   2.604  15.214 -0.1993  0.6519 -0.2471
 1563SOL    HW116325   4.412   2.626  15.307  0.5241  0.9240 -0.2870
 1563SOL    HW216326   4.325   2.616  15.187 -0.0522 -0.7073 -1.3003
 1564SOL     OW16327   1.464   2.931   1.918 -0.3934 -0.2624 -0.3683
 1564SOL    HW116328   1.508   2.957   2.000  0.7752  0.6889 -1.2979
 1564SOL    HW216329   1.523   2.865   1.882  0.6997 -1.3024  3.2979
 1565SOL     OW16330   0.600   1.408  12.107 -0.2037 -0.0730  0.2919
 1565SOL    HW116331   0.685   1.366  12.089 -0.5271 -0.1361 -1.1519
 1565SOL    HW216332   0.630   1.485  12.154 -1.0118  1.2636 -1.3886
 1566SOL     OW16333   2.363   0.846   0.637  0.2654  0.2169  0.1488
 1566SOL    HW116334   2.423   0.912   0.602 -2.4939  2.2170 -0.8095
 1566SOL    HW216335   2.291   0.902   0.667 -1.2589 -1.8931  0.4049
 1567SOL     OW16336   2.266   0.989   0.250 -0.0282 -0.7500  0.9282
 1567SOL    HW116337   2.242   1.038   0.171 -0.1459  0.5698  1.7867
 1567SOL    HW216338   2.244   1.046   0.324  0.2335  0.3327  0.1728
 1568SOL     OW16339   1.953   1.664   4.901 -0.2291  0.2765 -1.5311
 1568SOL    HW116340   1.871   1.714   4.899 -0.9091 -0.7946 -0.5655
 1568SOL    HW216341   1.960   1.634   4.992  2.8310  2.2345 -1.1184
 1569SOL     OW16342   0.692   0.315  16.486 -0.3794 -0.2336 -0.1454
 1569SOL    HW116343   0.751   0.379  16.447  0.6199  0.5507  2.6615
 1569SOL    HW216344   0.717   0.344  16.574  1.4485  0.0642 -0.7756
 1570SOL     OW16345   1.105   1.013  16.348 -0.5607 -0.3988 -0.0170
 1570SOL    HW116346   1.097   1.034  16.441 -1.1311 -3.6333  0.6720
 1570SOL    HW216347   1.170   1.072  16.308 -0.1298 -0.8908 -0.0422
 1571SOL     OW16348   3.725   4.161  13.010  0.0761  0.3472 -0.2690
 1571SOL    HW116349   3.719   4.068  13.032  2.0170 -0.0207 -1.2850
 1571SOL    HW216350   3.808   4.168  12.964  1.4364 -1.2577  1.9495
 1572SOL     OW16351   2.420   4.396   8.323  0.2221 -0.0221 -0.2054
 1572SOL    HW116352   2.363   4.469   8.299  1.7514  0.0891 -3.5419
 1572SOL    HW216353   2.487   4.403   8.254  0.1076 -1.0314 -0.4202
 1573SOL     OW16354   1.423   1.840   4.882  0.6967  0.2489 -0.2723
 1573SOL    HW116355   1.501   1.824   4.935  0.3603 -2.0453 -0.4732
 1573SOL    HW216356   1.448   1.775   4.816 -0.1335  1.6187 -1.9236
 1574SOL     OW16357   3.314   3.650   3.188  0.5595 -0.2494 -1.1357
 1574SOL    HW116358   3.351   3.562   3.198 -1.2762 -1.0050 -1.0034
 1574SOL    HW216359   3.295   3.638   3.095  0.9534 -0.5785 -1.1751
 1575SOL     OW16360   1.880   0.569   0.893  0.0742 -0.3413  0.1023
 1575SOL    HW116361   1.897   0.537   0.981  1.7222  1.7638  0.5299
 1575SOL    HW216362   1.939   0.517   0.839 -0.4245 -1.2142  0.3987
 1576SOL     OW16363   4.066   2.025   4.977 -0.0495  0.2351  0.1984
 1576SOL    HW116364   4.039   2.007   4.887  0.5072 -2.2701  0.5366
 1576SOL    HW216365   4.051   2.118   4.990 -1.2428  0.1591 -0.6887
 1577SOL     OW16366   2.594   3.694  16.617 -0.1962  0.0118 -0.0269
 1577SOL    HW116367   2.500   3.678  16.606 -0.2476  1.4738 -1.8312
 1577SOL    HW216368   2.590   3.784  16.650 -0.8727 -0.8979  2.3640
 1578SOL     OW16369   0.701   4.437   0.133 -0.0362  0.2142 -0.2117
 1578SOL    HW116370   0.670   4.347   0.125  1.9414 -0.5636  0.9035
 1578SOL    HW216371   0.790   4.426   0.099 -1.3343 -1.5975 -2.9948
 1579SOL     OW16372   4.716   0.038   4.852  0.2024  0.4661  0.1082
 1579SOL    HW116373   0.043   0.111   4.836 -2.0257  2.0456 -1.1663
 1579SOL    HW216374   4.674   0.037   4.766  0.4120 -0.3943  0.0183
 1580SOL     OW16375   4.438   0.686   3.269  0.6537  0.2743 -0.2113
 1580SOL    HW116376   4.519   0.736   3.274  0.0649  1.3060 -1.0033
 1580SOL    HW216377   4.395   0.745   3.207  2.4546  1.3562 -0.4276
 1581SOL     OW16378   0.317   0.548   3.503 -0.5346  0.0507 -0.1403
 1581SOL    HW116379   0.403   0.586   3.519 -0.7463  0.4769  0.0113
 1581SOL    HW216380   0.331   0.454   3.501  1.3521  0.3097  1.2080
 1582SOL     OW16381   2.742   4.257  10.555 -0.1263  0.2938 -0.4277
 1582SOL    HW116382   2.670   4.320  10.563 -1.1022 -1.0495  1.4100
 1582SOL    HW216383   2.719   4.187  10.617  1.0121 -0.1056 -0.4619
 1583SOL     OW16384   0.128   3.858   6.572 -0.5367 -0.2538 -0.3466
 1583SOL    HW116385   0.163   3.946   6.576 -0.1727 -0.2605 -3.2480
 1583SOL    HW216386   0.072   3.857   6.650  0.3888  1.9462  0.3381
 1584SOL     OW16387   2.982   1.394   2.041  0.4224  0.3349  0.4160
 1584SOL    HW116388   3.062   1.342   2.034  0.0385 -0.2155  0.1486
 1584SOL    HW216389   3.007   1.477   1.999 -1.6147 -1.0418 -3.5376
 1585SOL     OW16390   4.203   0.390  11.309  0.3406  0.4841  0.5115
 1585SOL    HW116391   4.197   0.430  11.395  1.0159 -1.7111  1.5803
 1585SOL    HW216392   4.201   0.294  11.319 -0.1147  0.4548  0.1427
 1586SOL     OW16393   2.869   2.710   4.127  0.1469 -0.3347  0.0537
 1586SOL    HW116394   2.947   2.670   4.164  0.1330  0.0290  0.4827
 1586SOL    HW216395   2.898   2.716   4.036  0.2978 -3.1104 -0.0805
 1587SOL     OW16396   3.889   4.694   8.440 -0.3258 -0.5562  0.3308
 1587SOL    HW116397   3.961   4.731   8.492 -1.5457  1.1533  0.7818
 1587SOL    HW216398   3.845   0.044   8.420  0.4849  0.2398  1.8077
 1588SOL     OW16399   4.021   2.390   1.940 -0.6798 -0.0217  0.7507
 1588SOL    HW116400   4.078   2.313   1.934  0.2364  0.8027 -0.8837
 1588SOL    HW216401   3.938   2.342   1.935 -0.3067 -0.6224  0.4200
 1589SOL     OW16402   0.114   3.495   4.876  0.1006 -0.2437  0.1290
 1589SOL    HW116403   0.100   3.402   4.863 -0.0221 -0.2902  0.6011
 1589SOL    HW216404   0.161   3.492   4.960  0.6218 -1.3422 -0.2054
 1590SOL     OW16405   2.759   0.412   2.260  0.7120  0.6684  0.5630
 1590SOL    HW116406   2.763   0.335   2.316  0.4619 -0.1353 -0.5095
 1590SOL    HW216407   2.819   0.379   2.193 -2.2012  0.4527 -2.0030
 1591SOL     OW16408   3.908   4.460   8.539 -0.8705  0.0204 -0.2314
 1591SOL    HW116409   3.888   4.428   8.451  0.5521 -1.0093 -0.1642
 1591SOL    HW216410   3.911   4.554   8.521  1.3097 -0.2800 -1.4076
 1592SOL     OW16411   0.290   2.510  11.139  0.1701 -0.1473  0.3327
 1592SOL    HW116412   0.236   2.433  11.118 -0.7873  0.8493 -0.8875
 1592SOL    HW216413   0.371   2.460  11.132  0.0520 -0.2111 -0.6349
 1593SOL     OW16414   0.650   0.082   2.957 -0.0335 -0.0974  0.1027
 1593SOL    HW116415   0.598   0.119   3.028  0.6225 -0.0883  0.5815
 1593SOL    HW216416   0.583   0.025   2.919 -1.6145  0.5326  1.9167
 1594SOL     OW16417   3.025   2.670   3.248  0.2928 -0.3375 -0.2461
 1594SOL    HW116418   3.117   2.691   3.234  0.1874  0.6003  0.4730
 1594SOL    HW216419   2.979   2.742   3.206  2.1584  1.2695  0.4918
 1595SOL     OW16420   1.041   0.458  11.399 -0.0118 -0.1176 -0.8103
 1595SOL    HW116421   1.011   0.437  11.310  0.1031  2.0791 -1.3655
 1595SOL    HW216422   1.040   0.369  11.435 -1.8393  1.8785  4.0338
 1596SOL     OW16423   0.174   2.878  16.736 -0.5892 -0.0077  0.0216
 1596SOL    HW116424   0.194   2.932  16.812  0.4084  0.7739 -0.7983
 1596SOL    HW216425   0.258   2.848  16.703  0.1732  3.3062 -1.0664
 1597SOL     OW16426   2.230   3.467   4.730 -0.2914  0.1594  0.6989
 1597SOL    HW116427   2.162   3.522   4.770  0.3062  0.1894  1.6836
 1597SOL    HW216428   2.204   3.470   4.638  0.0946  3.2458  0.6856
 1598SOL     OW16429   0.177   2.255  15.435  0.1274  1.6569 -0.0628
 1598SOL    HW116430   0.177   2.254  15.531 -0.5287 -0.9901 -0.0946
 1598SOL    HW216431   0.265   2.218  15.426  0.6318  2.6320  0.8906
 1599SOL     OW16432   2.754   0.869   9.164 -0.4813  0.5129  0.4724
 1599SOL    HW116433   2.823   0.822   9.118 -1.1396 -0.6165  0.6192
 1599SOL    HW216434   2.796   0.950   9.192  2.4568 -1.1917  0.8981
 1600SOL     OW16435   1.248   2.443  12.114  0.2500 -0.0074  0.7567
 1600SOL    HW116436   1.223   2.355  12.086 -0.5525  0.9200 -1.3900
 1600SOL    HW216437   1.162   2.471  12.147  1.1466  0.2928  2.8766
 1601SOL     OW16438   3.756   1.693   4.394  0.3001 -0.4975  0.5157
 1601SOL    HW116439   3.707   1.621   4.354 -0.0881  0.5349 -0.8698
 1601SOL    HW216440   3.826   1.644   4.436  0.1320 -1.1400  0.0427
 1602SOL     OW16441   2.252   3.913  15.287 -0.2139 -0.2621  0.1044
 1602SOL    HW116442   2.280   3.912  15.378  1.0866 -0.2700 -0.2951
 1602SOL    HW216443   2.164   3.950  15.297 -0.4827 -0.8994  0.0772
 1603SOL     OW16444   4.620   4.436   2.657 -0.2226  0.4323  0.3114
 1603SOL    HW116445   4.629   4.531   2.669  3.9120 -0.0579  1.0274
 1603SOL    HW216446   4.578   4.420   2.572 -0.1762  1.4450  0.0984
 1604SOL     OW16447   1.422   0.316   4.285  0.4575 -0.1333  0.1628
 1604SOL    HW116448   1.351   0.326   4.350  1.3465  0.0846  1.1026
 1604SOL    HW216449   1.486   0.379   4.319  0.0603  1.8339 -2.7306
 1605SOL     OW16450   4.708   0.901   8.418 -0.1823 -0.0933 -0.3829
 1605SOL    HW116451   0.032   0.825   8.405  0.8248  0.5489  0.3741
 1605SOL    HW216452   4.702   0.939   8.330  1.0852  1.3746  0.1660
 1606SOL     OW16453   2.588   4.615  16.511  0.3091 -0.7508  0.0665
 1606SOL    HW116454   2.540   4.579  16.437 -0.0522 -3.5320  1.6407
 1606SOL    HW216455   2.677   4.623  16.479 -0.6019 -1.0218 -2.4888
 1607SOL     OW16456   3.725   2.720  16.807  0.2556 -0.7283  0.2154
 1607SOL    HW116457   3.750   2.650  16.747  0.6198 -0.0848 -0.3931
 1607SOL    HW216458   3.755   2.798  16.760 -1.4346  1.2047  2.3724
 1608SOL     OW16459   3.195   4.475   7.400 -0.1393 -0.3779  0.1251
 1608SOL    HW116460   3.255   4.524   7.456 -0.2162 -1.9448  1.5996
 1608SOL    HW216461   3.140   4.550   7.376  0.9458  0.9468  1.8242
 1609SOL     OW16462   0.536   4.266   1.691  0.4843 -0.1315 -0.0101
 1609SOL    HW116463   0.628   4.262   1.664  0.7861  0.0221  0.9690
 1609SOL    HW216464   0.535   4.344   1.747 -1.7248  1.3497 -2.1298
 1610SOL     OW16465   1.620   2.169  15.488  0.2371 -0.3983  0.3360
 1610SOL    HW116466   1.713   2.162  15.511  0.9824  0.7080 -2.3050
 1610SOL    HW216467   1.615   2.264  15.480  0.1015 -0.3060  1.4938
 1611SOL     OW16468   0.980   3.504   2.090  0.5768 -0.4429  0.3343
 1611SOL    HW116469   1.042   3.512   2.017 -0.0824  1.6532  0.0175
 1611SOL    HW216470   1.032   3.485   2.168  0.5145 -0.2546  0.4196
 1612SOL     OW16471   4.510   4.075   5.411  0.0874  0.2353  0.1345
 1612SOL    HW116472   4.451   4.129   5.464  0.5192  0.1725  0.6804
 1612SOL    HW216473   4.586   4.132   5.399  0.0345 -0.2019 -2.1628
 1613SOL     OW16474   0.577   4.066   1.482 -0.8743 -0.0723 -0.4295
 1613SOL    HW116475   0.574   4.016   1.563  0.2000 -1.2123 -1.0952
 1613SOL    HW216476   0.570   4.158   1.509  0.7181 -0.0839  0.0458
 1614SOL     OW16477   4.084   3.613   4.702 -0.7306 -0.5419 -0.4179
 1614SOL    HW116478   4.042   3.638   4.620 -0.0261 -1.7638 -1.1580
 1614SOL    HW216479   4.174   3.589   4.677 -1.7015 -2.2790 -2.2806
 1615SOL     OW16480   2.074   0.389   5.285  0.2253 -0.1052 -0.3692
 1615SOL    HW116481   2.098   0.309   5.238 -1.3238 -0.7737 -0.0110
 1615SOL    HW216482   2.085   0.368   5.378  1.9134 -1.7053 -0.9296
 1616SOL     OW16483   0.965   4.697   4.418 -0.7167  0.3071  0.5987
 1616SOL    HW116484   1.044   4.675   4.369 -0.2219 -0.7636  1.8613
 1616SOL    HW216485   0.899   4.636   4.385 -0.1255  0.3781 -0.6933
 1617SOL     OW16486   1.804   3.943   8.811  0.6258  0.7220 -0.1681
 1617SOL    HW116487   1.710   3.957   8.797  0.1900 -1.3855  0.6675
 1617SOL    HW216488   1.827   4.008   8.877  0.3930  2.8934 -2.2188
 1618SOL     OW16489   2.467   3.846  16.277 -0.3038 -0.1788 -0.1942
 1618SOL    HW116490   2.485   3.887  16.193  0.5633  0.0184  0.0917
 1618SOL    HW216491   2.491   3.916  16.337  1.3835 -0.0599 -1.0267
 1619SOL     OW16492   3.044   1.341  12.794  0.2907  0.6443  0.0754
 1619SOL    HW116493   3.031   1.318  12.702  0.0464 -1.1476  0.5566
 1619SOL    HW216494   3.122   1.394  12.778  0.6066  0.1512  0.0002
 1620SOL     OW16495   4.167   1.355   0.013  0.1441  0.2503  0.2350
 1620SOL    HW116496   4.131   1.443   0.025  0.3289  0.5029 -1.0564
 1620SOL    HW216497   4.126   1.313   0.089 -1.8253 -0.2472 -1.1048
 1621SOL     OW16498   4.508   0.000   3.374  0.0870  0.3477 -0.3965
 1621SOL    HW116499   4.436   0.063   3.366 -0.4796  0.1110  2.7062
 1621SOL    HW216500   4.476   4.680   3.447  1.4596  1.1914  0.8219
 1622SOL     OW16501   0.358   1.225  11.170  0.1467  0.1647  0.6717
 1622SOL    HW116502   0.266   1.210  11.148 -0.2741  3.3887  0.3627
 1622SOL    HW216503   0.362   1.165  11.245 -0.6589  0.9127  1.3032
 1623SOL     OW16504   0.169   1.416  11.769  0.2666  0.6940 -0.1570
 1623SOL    HW116505   0.202   1.344  11.716  0.1046 -0.8343  1.8317
 1623SOL    HW216506   0.229   1.418  11.844 -0.6035  0.1517  0.5442
 1624SOL     OW16507   1.918   1.272  14.278  0.2009  0.2407 -0.5508
 1624SOL    HW116508   1.878   1.355  14.253  0.9748  0.6225 -0.5282
 1624SOL    HW216509   1.860   1.245  14.348  0.5139 -2.6791 -1.4253
 1625SOL     OW16510   3.108   0.654   7.825  0.1479 -0.1320 -0.3965
 1625SOL    HW116511   3.118   0.644   7.730 -0.8562  0.3409 -0.5585
 1625SOL    HW216512   3.174   0.721   7.845 -1.6282  1.6069 -0.3032
 1626SOL     OW16513   2.143   4.611  10.464  0.1237 -0.5318 -0.4411
 1626SOL    HW116514   2.212   4.558  10.503 -1.1106 -1.5528  0.3517
 1626SOL    HW216515   2.172   4.620  10.373  0.0126 -0.7012 -0.4938
 1627SOL     OW16516   1.987   2.823  14.264 -0.0671 -0.4965 -0.1106
 1627SOL    HW116517   1.932   2.886  14.311  0.7269  0.8478 -1.0021
 1627SOL    HW216518   2.060   2.800  14.322  0.0920  0.4784  0.0744
 1628SOL     OW16519   3.663   0.629  15.651  0.1700 -0.5866  0.1026
 1628SOL    HW116520   3.673   0.536  15.631  0.3016 -0.5401 -0.0453
 1628SOL    HW216521   3.741   0.637  15.707 -0.3004 -0.9426  0.8172
 1629SOL     OW16522   0.697   1.960  10.955  0.5830  0.4244 -0.3193
 1629SOL    HW116523   0.707   2.018  11.031 -1.2949  1.1565 -0.6169
 1629SOL    HW216524   0.779   1.971  10.907  0.8697  1.2672  0.3601
 1630SOL     OW16525   2.834   2.659   5.852  0.2464 -0.7146 -0.0717
 1630SOL    HW116526   2.919   2.624   5.827  0.2945 -0.3798 -0.3847
 1630SOL    HW216527   2.829   2.638   5.945  0.8408 -0.5691 -0.0067
 1631SOL     OW16528   1.578   0.807   0.901 -0.4434 -0.6507 -0.5725
 1631SOL    HW116529   1.557   0.871   0.969 -1.3561 -1.1852 -0.3551
 1631SOL    HW216530   1.603   0.865   0.830  2.7413 -3.0217 -1.3725
 1632SOL     OW16531   1.293   2.334   2.668  0.0902 -0.0727  0.0038
 1632SOL    HW116532   1.371   2.356   2.719 -0.7071 -0.1306  1.2480
 1632SOL    HW216533   1.230   2.345   2.740  0.1382 -0.9502  0.1800
 1633SOL     OW16534   2.693   4.544  11.311  0.0174  0.5438 -0.2798
 1633SOL    HW116535   2.674   4.494  11.391  1.0617 -1.5020 -1.2890
 1633SOL    HW216536   2.711   4.627  11.354 -1.9185  0.2413  1.1441
 1634SOL     OW16537   4.223   2.941   6.364 -0.2130 -0.6918 -0.1847
 1634SOL    HW116538   4.132   2.966   6.383  0.2192 -0.2152  1.2512
 1634SOL    HW216539   4.263   3.028   6.362 -0.1085 -0.7544 -0.9901
 1635SOL     OW16540   3.773   0.064  16.813 -0.0064 -0.0002  0.1646
 1635SOL    HW116541   3.813   0.063  16.726 -2.3078  0.3010 -0.9137
 1635SOL    HW216542   3.719   4.719  16.822  1.0948 -0.8509 -0.7874
 1636SOL     OW16543   2.628   3.447   6.875  0.1124 -0.1809  0.0369
 1636SOL    HW116544   2.570   3.517   6.846 -1.2110 -0.4575  1.9539
 1636SOL    HW216545   2.710   3.485   6.843  0.2256  0.6880  1.3388
 1637SOL     OW16546   3.299   1.034   8.507 -0.2378  0.3675  0.5500
 1637SOL    HW116547   3.231   1.102   8.508 -0.6160 -0.0215  1.3492
 1637SOL    HW216548   3.291   1.002   8.597  1.0027 -0.0495  0.5007
 1638SOL     OW16549   3.500   0.749  13.121 -0.1667  1.1339  0.0095
 1638SOL    HW116550   3.426   0.701  13.158  2.7419 -1.1516  2.8049
 1638SOL    HW216551   3.485   0.723  13.030  1.6536  1.0453 -0.2663
 1639SOL     OW16552   4.704   1.714  13.153  0.3228  0.3799  0.1384
 1639SOL    HW116553   4.652   1.779  13.105  0.9783  2.0152  1.6297
 1639SOL    HW216554   4.637   1.647  13.162  0.1287  0.4538 -0.7782
 1640SOL     OW16555   2.813   4.641  13.717  0.0513  0.0717 -0.5486
 1640SOL    HW116556   2.722   4.612  13.703 -0.3735  1.7712 -1.3069
 1640SOL    HW216557   2.859   4.558  13.702 -0.2021 -0.2188  0.2957
 1641SOL     OW16558   0.472   1.197   8.562 -0.3990 -0.0701 -0.2687
 1641SOL    HW116559   0.380   1.220   8.575 -0.3187 -0.5026  1.0497
 1641SOL    HW216560   0.510   1.282   8.588  1.4468 -1.1220  0.4812
 1642SOL     OW16561   4.261   4.672  10.510 -0.5638 -0.3841 -0.0907
 1642SOL    HW116562   4.187   4.684  10.450  0.1925  0.3527 -0.8788
 1642SOL    HW216563   4.215   4.701  10.589 -0.0226 -0.7394  0.3474
 1643SOL     OW16564   1.219   3.012  17.573 -0.2709 -0.8771 -0.0050
 1643SOL    HW116565   1.151   3.076  17.596  0.3007  0.4133 -1.8801
 1643SOL    HW216566   1.299   3.044  17.616  1.3640 -4.0765 -0.6747
 1644SOL     OW16567   4.486   0.546   4.659 -0.3759  0.7260 -0.3472
 1644SOL    HW116568   4.516   0.517   4.745  1.2777  1.8394 -0.5333
 1644SOL    HW216569   4.393   0.527   4.656  0.5326 -3.9661  1.4657
 1645SOL     OW16570   3.964   2.446  13.393  0.1598 -0.0693  0.1215
 1645SOL    HW116571   4.015   2.365  13.389  0.7867  0.3585 -0.5144
 1645SOL    HW216572   4.037   2.508  13.390  0.3519 -0.1853  2.5072
 1646SOL     OW16573   1.742   1.878   3.965  0.1511  0.3836 -0.1260
 1646SOL    HW116574   1.723   1.919   3.881 -1.0559  0.1655  0.0370
 1646SOL    HW216575   1.774   1.957   4.009 -1.8276  0.3880  1.3321
 1647SOL     OW16576   4.319   3.220   4.966 -0.5868 -0.0930  0.5629
 1647SOL    HW116577   4.231   3.188   4.950 -0.7690  1.1385 -0.8925
 1647SOL    HW216578   4.338   3.193   5.056 -2.3062 -0.8077  0.7144
 1648SOL     OW16579   3.655   2.781   4.502 -0.3312 -0.4432 -0.2398
 1648SOL    HW116580   3.610   2.855   4.462 -0.3784 -0.6988 -0.6635
 1648SOL    HW216581   3.628   2.710   4.443 -0.4325 -1.6336  1.2517
 1649SOL     OW16582   1.435   0.107  13.492  0.6753 -0.3268 -0.2043
 1649SOL    HW116583   1.429   0.019  13.528 -0.1822  0.1153  0.7447
 1649SOL    HW216584   1.396   0.159  13.563  0.2059 -1.6871  0.5366
 1650SOL     OW16585   0.569   1.213  11.525 -0.0961 -0.1986 -0.1813
 1650SOL    HW116586   0.587   1.306  11.513 -1.3118 -0.3300 -3.0873
 1650SOL    HW216587   0.651   1.169  11.545  0.0384  0.4799  0.7424
 1651SOL     OW16588   1.845   1.115   7.002  0.1723  0.1104 -0.0877
 1651SOL    HW116589   1.773   1.054   6.983  0.8990 -1.0115  0.8385
 1651SOL    HW216590   1.900   1.096   6.926  1.5063  1.7761  0.4736
 1652SOL     OW16591   3.673   1.537   0.815  0.0171 -0.1670  0.3116
 1652SOL    HW116592   3.714   1.468   0.763 -1.2103 -0.2444 -0.5444
 1652SOL    HW216593   3.582   1.536   0.783  0.8875 -1.3529 -2.1289
 1653SOL     OW16594   0.177   0.267   8.907 -0.5318  0.2043  0.3397
 1653SOL    HW116595   0.143   0.296   8.822 -0.3270 -0.2727  0.0971
 1653SOL    HW216596   0.202   0.178   8.882 -2.0809 -0.0491 -0.2983
 1654SOL     OW16597   1.268   4.563   0.006 -0.1445 -0.2606  0.3256
 1654SOL    HW116598   1.232   4.650  17.718 -1.9078 -1.5110 -1.9255
 1654SOL    HW216599   1.192   4.517   0.042  0.3323 -0.1278  1.5022
 1655SOL     OW16600   0.058   1.624   7.308 -0.1799 -0.2718  0.4928
 1655SOL    HW116601   0.124   1.554   7.316 -0.7242 -0.8394 -0.0193
 1655SOL    HW216602   0.102   1.703   7.341  0.1191  0.5997 -2.0069
 1656SOL     OW16603   2.794   3.351   6.533  0.4019 -0.3983  0.3938
 1656SOL    HW116604   2.712   3.328   6.490  0.5287 -2.1552  1.0747
 1656SOL    HW216605   2.802   3.444   6.510 -2.4429 -0.4660 -0.8544
 1657SOL     OW16606   0.076   2.815  13.931  0.0714 -0.1073 -0.1137
 1657SOL    HW116607   0.132   2.759  13.877 -1.5377 -0.6526 -1.1899
 1657SOL    HW216608   4.722   2.811  13.893 -0.2246  1.8273  0.3698
 1658SOL     OW16609   4.553   4.433  14.785 -0.4433  0.5576 -0.1351
 1658SOL    HW116610   4.465   4.397  14.797 -0.6591  1.4382  0.8804
 1658SOL    HW216611   4.536   4.522  14.818  0.1909  0.9813 -0.9501
 1659SOL     OW16612   2.867   3.428  15.558 -1.0513 -0.0126  0.1549
 1659SOL    HW116613   2.939   3.366  15.571 -0.2051  1.3155  1.9013
 1659SOL    HW216614   2.852   3.410  15.465  0.3369 -1.1166  0.1474
 1660SOL     OW16615   3.341   2.757   2.629  0.6100  0.1678  0.1599
 1660SOL    HW116616   3.431   2.774   2.656  0.9573 -0.4587 -0.5766
 1660SOL    HW216617   3.317   2.721   2.714  0.5460  0.1594  0.1387
 1661SOL     OW16618   3.932   3.565   7.887 -0.0107  0.2822  0.6143
 1661SOL    HW116619   3.878   3.493   7.920  0.8111 -0.6440 -0.0844
 1661SOL    HW216620   4.002   3.516   7.844 -1.5841  0.3186 -1.9567
 1662SOL     OW16621   1.459   2.959   2.516 -0.4078  0.7850  0.1401
 1662SOL    HW116622   1.434   2.900   2.445 -1.1354  1.9349 -0.5491
 1662SOL    HW216623   1.541   2.996   2.483  0.3811  0.4888  1.7518
 1663SOL     OW16624   2.367   1.802  12.832 -0.0457 -0.5946 -0.2456
 1663SOL    HW116625   2.382   1.862  12.906  0.1025 -0.5405 -0.3210
 1663SOL    HW216626   2.425   1.729  12.850 -0.4670 -0.8509  0.0732
 1664SOL     OW16627   3.880   0.628   9.746 -0.4879 -0.1465  0.9304
 1664SOL    HW116628   3.948   0.690   9.720 -1.1732  1.9306  4.1706
 1664SOL    HW216629   3.842   0.620   9.659 -0.9926  1.2658  1.0179
 1665SOL     OW16630   2.019   1.824   4.636 -0.2033  0.2076  0.1324
 1665SOL    HW116631   1.961   1.875   4.693 -1.0904 -0.1502 -0.4634
 1665SOL    HW216632   1.989   1.871   4.558 -1.5446 -0.3070  0.3466
 1666SOL     OW16633   0.941   3.251   5.759  0.2029 -0.4626 -0.0261
 1666SOL    HW116634   0.879   3.320   5.782  1.4808  0.2973  1.1210
 1666SOL    HW216635   0.896   3.182   5.808  0.1287  0.9854  1.9085
 1667SOL     OW16636   1.746   2.632   5.858 -0.1254  0.5084 -0.3943
 1667SOL    HW116637   1.658   2.627   5.820 -1.3531  1.9921  2.2496
 1667SOL    HW216638   1.741   2.718   5.899  1.8862  0.8048 -0.7761
 1668SOL     OW16639   1.083   1.972   8.413  0.0202  0.0272  0.6661
 1668SOL    HW116640   1.102   2.007   8.500  2.8181 -0.8157  0.4009
 1668SOL    HW216641   1.153   2.023   8.372 -1.8998  0.6195 -1.8945
 1669SOL     OW16642   1.084   1.248   4.536  0.0144 -0.2678  0.2072
 1669SOL    HW116643   1.057   1.169   4.583 -2.4025 -0.6392 -1.8069
 1669SOL    HW216644   1.115   1.311   4.601 -0.0856  0.0920 -0.0934
 1670SOL     OW16645   1.383   4.444  15.525  0.4057  0.0861  0.0064
 1670SOL    HW116646   1.370   4.534  15.555  0.9842  0.5112 -0.9842
 1670SOL    HW216647   1.421   4.407  15.604  0.4955 -0.8841 -0.4874
 1671SOL     OW16648   4.436   1.280   0.783 -0.5721  0.0200  0.5005
 1671SOL    HW116649   4.413   1.364   0.825  0.6043  0.4567  0.2730
 1671SOL    HW216650   4.527   1.300   0.759 -0.5809  0.9598  1.2097
 1672SOL     OW16651   0.317   1.243  11.639  0.5652 -0.1310 -0.1154
 1672SOL    HW116652   0.394   1.228  11.584 -1.0094  2.2786 -2.9938
 1672SOL    HW216653   0.310   1.162  11.689 -1.2996  1.2248  1.8432
 1673SOL     OW16654   1.173   2.629  12.647 -0.0538 -0.0958  0.0644
 1673SOL    HW116655   1.084   2.608  12.675 -0.5386 -0.5093 -1.7657
 1673SOL    HW216656   1.218   2.656  12.727  1.5754  0.5721 -1.0665
 1674SOL     OW16657   4.345   1.405  10.461  0.1444  0.5222  0.1210
 1674SOL    HW116658   4.360   1.500  10.462  1.3548  0.3398 -0.7433
 1674SOL    HW216659   4.251   1.393  10.472  0.0788 -0.2078 -1.2557
 1675SOL     OW16660   0.616   1.053   7.414  0.1890 -0.2228  0.2800
 1675SOL    HW116661   0.695   1.082   7.369 -0.6797  0.2044 -1.0005
 1675SOL    HW216662   0.625   0.958   7.423 -0.5300 -0.2019  1.2725
 1676SOL     OW16663   1.524   3.412  13.374  0.3014 -0.1666 -0.2238
 1676SOL    HW116664   1.440   3.457  13.380  1.4326  1.9533 -0.5564
 1676SOL    HW216665   1.506   3.362  13.294 -0.2681 -0.8971  0.3625
 1677SOL     OW16666   3.664   1.889  14.229  0.6361  0.3300 -0.0055
 1677SOL    HW116667   3.737   1.930  14.276  0.1514  1.6150 -0.3770
 1677SOL    HW216668   3.702   1.834  14.161 -0.9821  1.0995 -1.5219
 1678SOL     OW16669   2.926   3.790   9.801 -0.0760  0.4435 -0.4797
 1678SOL    HW116670   2.995   3.856   9.811 -0.4535  0.5668  1.2900
 1678SOL    HW216671   2.885   3.806   9.885  0.5196  0.3063 -0.1619
 1679SOL     OW16672   0.428   4.445   3.621 -0.5258 -0.0873  0.0415
 1679SOL    HW116673   0.339   4.437   3.587 -0.3103 -0.3357 -0.4516
 1679SOL    HW216674   0.474   4.508   3.566 -1.2579  1.0704  0.7505
 1680SOL     OW16675   4.606   3.445   7.530 -0.0686 -0.2718 -0.2009
 1680SOL    HW116676   4.635   3.448   7.439 -1.5253  2.3072 -0.5773
 1680SOL    HW216677   4.670   3.506   7.568  0.9509 -0.6631 -1.2994
 1681SOL     OW16678   3.004   4.428   4.137  0.2167 -0.1117 -0.0678
 1681SOL    HW116679   3.034   4.393   4.053  0.6566 -1.1802  0.5240
 1681SOL    HW216680   2.927   4.475   4.108 -0.3739 -0.3543  1.0922
 1682SOL     OW16681   4.444   3.594  10.849 -0.3435 -0.1305  0.1771
 1682SOL    HW116682   4.428   3.638  10.766 -1.6786  0.0840  0.5495
 1682SOL    HW216683   4.540   3.596  10.840 -0.3262  1.6147  0.6550
 1683SOL     OW16684   3.905   1.721   3.718  0.5597  0.4145 -0.2967
 1683SOL    HW116685   3.994   1.758   3.718 -0.0961  1.9886  0.9334
 1683SOL    HW216686   3.889   1.681   3.633  0.1095  1.5894 -0.7654
 1684SOL     OW16687   0.311   2.668  12.269  0.2451  0.4213 -0.0799
 1684SOL    HW116688   0.328   2.744  12.326  2.5183 -1.7676  2.1665
 1684SOL    HW216689   0.226   2.637  12.299 -0.6861  2.9021 -0.1422
 1685SOL     OW16690   0.118   4.170   3.016 -0.0797  0.0438 -0.1151
 1685SOL    HW116691   0.084   4.259   3.001  2.1635  0.8722 -0.3381
 1685SOL    HW216692   0.128   4.123   2.933  0.4313  1.9931 -1.1689
 1686SOL     OW16693   4.696   2.811   3.929 -0.2194  0.4691 -0.2780
 1686SOL    HW116694   4.669   2.756   3.856  1.4777  1.1334 -1.4070
 1686SOL    HW216695   0.034   2.760   3.969 -0.8313 -0.0411  0.1492
 1687SOL     OW16696   3.770   3.947   7.215  0.5522 -0.4049 -0.3680
 1687SOL    HW116697   3.793   3.876   7.274 -0.7903 -0.3315  0.2285
 1687SOL    HW216698   3.856   3.987   7.199  1.1132 -1.0288  1.1208
 1688SOL     OW16699   2.747   1.470   6.676 -0.0432 -0.0473 -0.4628
 1688SOL    HW116700   2.725   1.540   6.738 -0.9654  2.0146 -3.0916
 1688SOL    HW216701   2.704   1.399   6.722 -2.5260  2.6957  1.4070
 1689SOL     OW16702   0.304   4.501   3.191  0.1286  0.4446  0.5993
 1689SOL    HW116703   0.307   4.410   3.220 -0.5543  0.3665  0.4318
 1689SOL    HW216704   0.213   4.530   3.197  0.2042  0.6695  0.6758
 1690SOL     OW16705   0.935   3.739   1.627  0.1610 -0.1359  0.3812
 1690SOL    HW116706   0.881   3.812   1.657  0.6054  0.1541  0.4749
 1690SOL    HW216707   0.864   3.683   1.594  0.2390 -0.4765  0.7862
 1691SOL     OW16708   4.332   1.280  17.538 -0.0405  0.2046  0.1907
 1691SOL    HW116709   4.277   1.299  17.614 -0.4670  3.8639 -1.0683
 1691SOL    HW216710   4.273   1.221  17.490 -0.3754  1.4702 -0.9729
 1692SOL     OW16711   0.684   1.614  16.994 -0.5960  0.2376 -0.2150
 1692SOL    HW116712   0.708   1.701  17.025 -1.6469 -0.1602  1.7106
 1692SOL    HW216713   0.666   1.560  17.071  3.4687 -0.7569  0.0258
 1693SOL     OW16714   2.861   4.482   6.785  0.4059  0.3144 -0.0752
 1693SOL    HW116715   2.825   4.550   6.728 -0.5721  0.2083  0.4098
 1693SOL    HW216716   2.948   4.476   6.748  0.9622 -1.7002  1.5628
 1694SOL     OW16717   1.572   1.460  15.052 -0.6558  0.0597 -0.1371
 1694SOL    HW116718   1.664   1.480  15.072 -1.6602  3.5599  0.9185
 1694SOL    HW216719   1.570   1.463  14.956  2.2670  0.5762 -0.2066
 1695SOL     OW16720   2.962   0.906   0.686  0.3452  0.1263 -0.2699
 1695SOL    HW116721   3.058   0.910   0.686  0.4243 -1.7319 -1.6737
 1695SOL    HW216722   2.954   0.846   0.611  1.4905  0.2919 -0.5261
 1696SOL     OW16723   3.039   3.741   4.588  0.0672 -1.1328  0.1006
 1696SOL    HW116724   2.996   3.731   4.672 -0.9360  0.9733 -0.1437
 1696SOL    HW216725   3.117   3.700   4.623  2.5927  2.1798 -1.5919
 1697SOL     OW16726   4.621   0.964   1.691 -0.0104 -0.7265 -0.1066
 1697SOL    HW116727   4.647   0.938   1.603 -0.6773 -0.2294 -0.4487
 1697SOL    HW216728   4.709   0.964   1.730 -0.5539 -0.5409  1.1270
 1698SOL     OW16729   2.183   1.169  11.528  0.2656  0.0076  0.3787
 1698SOL    HW116730   2.155   1.218  11.451 -1.3833 -0.0174  0.9552
 1698SOL    HW216731   2.219   1.238  11.584  1.5677 -1.3699  1.2293
 1699SOL     OW16732   0.858   0.808  14.720  0.1541 -0.1421 -0.6056
 1699SOL    HW116733   0.922   0.836  14.785  0.4685  0.7088 -1.2793
 1699SOL    HW216734   0.889   0.717  14.716 -1.2546 -0.6519  0.2473
 1700SOL     OW16735   3.778   0.547   8.902  0.0815 -0.3194 -0.1238
 1700SOL    HW116736   3.832   0.502   8.838  0.6583  1.3780 -0.8234
 1700SOL    HW216737   3.806   0.507   8.984 -1.1396 -0.8136  0.0542
 1701SOL     OW16738   1.519   0.200  13.898  0.1847 -0.4048  0.2044
 1701SOL    HW116739   1.443   0.194  13.840  1.7442 -1.2266 -1.7337
 1701SOL    HW216740   1.502   0.109  13.923 -1.3360 -0.4048 -0.8413
 1702SOL     OW16741   4.394   3.166   3.491 -0.0899  0.5819  0.0484
 1702SOL    HW116742   4.418   3.117   3.412 -1.1943  1.3205 -0.7436
 1702SOL    HW216743   4.349   3.237   3.445  0.7539  0.6967 -0.6181
 1703SOL     OW16744   1.484   4.285   5.102  0.4854  0.1641 -0.0594
 1703SOL    HW116745   1.493   4.190   5.089 -0.0543  0.3862 -2.0236
 1703SOL    HW216746   1.564   4.304   5.152  1.1964 -2.8135 -0.0566
 1704SOL     OW16747   0.392   1.859  13.959 -0.0310 -0.4493 -0.0260
 1704SOL    HW116748   0.419   1.780  14.006 -0.3088 -0.8052 -0.4650
 1704SOL    HW216749   0.405   1.825  13.870 -1.8018 -1.5101  0.1055
 1705SOL     OW16750   0.227   3.348  16.907 -0.6542  0.2576 -0.1641
 1705SOL    HW116751   0.224   3.423  16.967  0.8703  0.3753 -0.2414
 1705SOL    HW216752   0.292   3.377  16.843 -2.1835  1.1875 -1.3037
 1706SOL     OW16753   0.664   2.009   7.199  0.0614 -0.5550  0.3664
 1706SOL    HW116754   0.638   1.921   7.227 -2.0224  0.4665  1.7154
 1706SOL    HW216755   0.636   2.008   7.108 -0.3733  1.5788  0.4594
 1707SOL     OW16756   0.071   2.217   6.075 -0.0393 -0.0164  0.3653
 1707SOL    HW116757   0.101   2.153   6.010 -1.4408  1.3302 -1.6037
 1707SOL    HW216758   4.714   2.229   6.047 -0.9999 -2.7431  2.3797
 1708SOL     OW16759   1.942   3.999   7.925 -0.1115  0.5011  0.6015
 1708SOL    HW116760   1.861   3.966   7.888 -0.2063  0.4297  0.8704
 1708SOL    HW216761   1.915   4.012   8.016  2.5990  0.9064  1.3748
 1709SOL     OW16762   0.320   0.095  13.095 -0.4907  0.6462  0.3165
 1709SOL    HW116763   0.337   0.189  13.094  1.3805  0.3081 -0.5666
 1709SOL    HW216764   0.404   0.059  13.125 -0.9351 -0.0161  0.7646
 1710SOL     OW16765   1.600   4.666   6.472  0.0156  0.0375  0.8273
 1710SOL    HW116766   1.678   4.620   6.441  0.6001  1.7480 -0.2038
 1710SOL    HW216767   1.631   0.022   6.485 -0.8784  0.5022 -0.2845
 1711SOL     OW16768   4.030   4.014   3.536 -0.0710  0.0887  0.1019
 1711SOL    HW116769   3.944   4.054   3.530  0.2494  0.6019 -0.9734
 1711SOL    HW216770   4.081   4.083   3.578  0.1883 -0.1706  0.2184
 1712SOL     OW16771   4.011   0.380   3.987  0.3194  0.2727 -0.1206
 1712SOL    HW116772   4.051   0.297   3.961 -0.5607 -0.4889  0.9598
 1712SOL    HW216773   4.071   0.395   4.059  0.2812 -1.5639  0.2951
 1713SOL     OW16774   4.072   4.091   8.648 -0.0004  0.4507  0.1083
 1713SOL    HW116775   4.101   4.007   8.682 -1.3388  0.2205  0.6575
 1713SOL    HW216776   4.088   4.147   8.725  0.9539  0.3736 -0.0292
 1714SOL     OW16777   0.914   1.406  11.961  0.2931 -0.1773 -0.0973
 1714SOL    HW116778   0.870   1.385  11.878 -1.0382  2.6601 -0.1237
 1714SOL    HW216779   0.994   1.355  11.947  0.8027  0.0684  1.8916
 1715SOL     OW16780   0.868   4.538   2.302 -0.2623 -0.0612  0.1918
 1715SOL    HW116781   0.920   4.522   2.382 -2.1034 -1.0822  1.1857
 1715SOL    HW216782   0.899   4.625   2.278  0.1573 -0.3821 -0.4097
 1716SOL     OW16783   1.593   3.306   2.482  0.4638 -0.7050 -0.0265
 1716SOL    HW116784   1.573   3.395   2.454  0.0990 -0.4770  0.9519
 1716SOL    HW216785   1.625   3.257   2.406 -1.0332 -0.1880 -1.0042
 1717SOL     OW16786   4.152   0.838   6.478  0.1516 -0.4594 -0.2211
 1717SOL    HW116787   4.104   0.822   6.560 -1.1529  1.5082 -0.6179
 1717SOL    HW216788   4.243   0.858   6.501 -0.9740  3.1126  1.0333
 1718SOL     OW16789   2.530   2.569   3.987 -0.3711  0.4536  0.0689
 1718SOL    HW116790   2.594   2.498   3.996  0.1650  0.8426 -0.6236
 1718SOL    HW216791   2.455   2.512   3.973  0.2678 -0.0130 -1.4704
 1719SOL     OW16792   1.132   0.525   8.192  0.1697  0.6231  0.2793
 1719SOL    HW116793   1.117   0.430   8.191 -0.0491  0.6752 -1.7952
 1719SOL    HW216794   1.134   0.541   8.098  2.5412 -2.2246 -0.1394
 1720SOL     OW16795   1.712   0.203   6.842 -0.1930  0.6702  0.0153
 1720SOL    HW116796   1.723   0.108   6.850 -0.7087  0.5614 -0.5268
 1720SOL    HW216797   1.740   0.218   6.752 -1.0740 -1.9007 -0.7003
 1721SOL     OW16798   4.516   0.930   5.113  0.0025  0.1052  1.1093
 1721SOL    HW116799   4.593   0.872   5.119 -0.7195 -0.7872  1.7428
 1721SOL    HW216800   4.454   0.880   5.166 -0.2529 -0.2276  0.4876
 1722SOL     OW16801   4.310   3.910   8.416  0.8361 -0.2516  0.1754
 1722SOL    HW116802   4.391   3.943   8.452 -0.1504  1.5053  0.7723
 1722SOL    HW216803   4.339   3.823   8.386 -1.6711 -1.3736  0.9987
 1723SOL     OW16804   3.457   1.782   4.269 -0.0175  0.4641  0.3892
 1723SOL    HW116805   3.442   1.871   4.300 -0.3225  0.3868  0.4611
 1723SOL    HW216806   3.460   1.792   4.174  0.5519 -0.0965  0.3463
 1724SOL     OW16807   0.103   4.192   4.713  0.5012 -0.0768 -0.3105
 1724SOL    HW116808   0.133   4.276   4.748  1.8511 -0.6212 -0.1533
 1724SOL    HW216809   0.083   4.145   4.794 -1.5771 -1.0441 -1.3930
 1725SOL     OW16810   2.810   0.744   7.705 -0.4234 -0.3751  0.2861
 1725SOL    HW116811   2.821   0.660   7.660 -1.4620  0.3489 -1.2985
 1725SOL    HW216812   2.759   0.719   7.783  1.5538 -1.1109  1.3449
 1726SOL     OW16813   4.149   2.059   9.063  0.3317 -0.0581 -0.5207
 1726SOL    HW116814   4.193   1.980   9.091 -0.1373 -0.1683 -0.0875
 1726SOL    HW216815   4.118   2.045   8.974 -0.4964 -0.9210 -0.0996
 1727SOL     OW16816   3.218   1.125  11.829  0.2967 -0.2176  0.3272
 1727SOL    HW116817   3.221   1.040  11.785 -0.7880 -0.6228  1.0498
 1727SOL    HW216818   3.291   1.173  11.790 -0.8519 -0.4217 -2.0091
 1728SOL     OW16819   1.802   3.766  14.542  0.1018 -0.0764  0.1772
 1728SOL    HW116820   1.838   3.703  14.479  0.5524  0.1279  0.2297
 1728SOL    HW216821   1.716   3.788  14.506  0.8325 -0.2420 -1.6878
 1729SOL     OW16822   2.997   0.941  16.180  0.8619 -0.4625  0.1367
 1729SOL    HW116823   2.953   0.868  16.224 -0.1311  1.0692  1.6859
 1729SOL    HW216824   2.931   0.974  16.119 -1.3462 -1.5765  1.9141
 1730SOL     OW16825   0.507   4.352   7.801 -0.6358  0.3852 -0.3603
 1730SOL    HW116826   0.471   4.320   7.718 -3.2234 -1.1772  1.3515
 1730SOL    HW216827   0.534   4.438   7.769  3.7108 -1.6438 -2.1208
 1731SOL     OW16828   1.806   2.964   4.829 -0.0552 -0.3477 -0.2062
 1731SOL    HW116829   1.771   3.054   4.830  0.1591 -0.2811  1.7149
 1731SOL    HW216830   1.805   2.930   4.740 -2.4845  0.1115 -0.3618
 1732SOL     OW16831   3.295   4.550   0.223 -0.1042  0.2160  0.1331
 1732SOL    HW116832   3.315   4.618   0.288 -1.0482  0.7215 -0.0978
 1732SOL    HW216833   3.344   4.581   0.147  0.4133 -2.3077 -0.5635
 1733SOL     OW16834   0.633   0.390  13.283  0.4191 -0.2377  0.0871
 1733SOL    HW116835   0.597   0.478  13.274  0.0916 -0.4586 -0.7528
 1733SOL    HW216836   0.728   0.400  13.272  0.1158  0.7926 -1.6393
 1734SOL     OW16837   0.251   3.228   1.263 -0.2420 -0.1974  0.1530
 1734SOL    HW116838   0.288   3.140   1.256 -2.2024 -1.1211  1.5519
 1734SOL    HW216839   0.288   3.265   1.183 -4.0948  0.4697 -1.3019
 1735SOL     OW16840   3.289   1.704   6.521 -0.3845 -0.3312  0.6964
 1735SOL    HW116841   3.274   1.733   6.431 -1.8780  0.2515  1.1289
 1735SOL    HW216842   3.205   1.720   6.565 -0.4495 -1.3087  0.9232
 1736SOL     OW16843   2.562   0.208   2.275  0.0646  0.1573  0.3295
 1736SOL    HW116844   2.547   0.270   2.205 -0.2376  1.7230  1.7751
 1736SOL    HW216845   2.521   0.135   2.228  1.9382 -2.4447  2.7259
 1737SOL     OW16846   3.998   0.001  13.172  0.2558 -0.4101 -0.7763
 1737SOL    HW116847   4.050   0.020  13.094 -0.4718  1.2198 -0.8678
 1737SOL    HW216848   3.960   4.648  13.153  1.0016 -0.7706 -0.6204
 1738SOL     OW16849   1.346   2.439   7.306  0.1637 -0.1864  1.2174
 1738SOL    HW116850   1.307   2.355   7.326  0.0555 -0.7906 -1.5105
 1738SOL    HW216851   1.440   2.428   7.317  0.5728  0.7444 -1.4170
 1739SOL     OW16852   4.219   0.227   6.562  0.1018  0.3431 -0.4631
 1739SOL    HW116853   4.233   0.146   6.611 -0.5203 -0.3664 -1.4601
 1739SOL    HW216854   4.160   0.192   6.496 -3.0543 -0.3661  2.7461
 1740SOL     OW16855   0.039   2.773   8.446  0.5219  0.1495  0.1719
 1740SOL    HW116856   0.017   2.836   8.514 -1.2135 -1.7665  1.4081
 1740SOL    HW216857   4.696   2.715   8.453  0.6446 -0.0475 -0.0858
 1741SOL     OW16858   3.007   2.481   9.758  0.6954  0.1985 -0.2117
 1741SOL    HW116859   3.056   2.562   9.776 -0.5186  1.4144 -2.3259
 1741SOL    HW216860   2.997   2.489   9.663  1.8481  0.9384 -0.2853
 1742SOL     OW16861   3.293   3.605   5.730 -0.4391  0.3290 -0.3966
 1742SOL    HW116862   3.384   3.625   5.708 -0.3634  1.1533  0.6455
 1742SOL    HW216863   3.288   3.512   5.708  2.5800 -0.2797  1.5049
 1743SOL     OW16864   4.636   3.784   9.131  0.8193  0.3973 -0.1991
 1743SOL    HW116865   4.654   3.734   9.051 -0.2368 -0.5562  0.1537
 1743SOL    HW216866   4.602   3.718   9.191  0.6440  1.5525  0.9578
 1744SOL     OW16867   0.980   2.205  11.240 -0.3164  0.1714  0.0629
 1744SOL    HW116868   1.070   2.181  11.261 -0.7505 -1.1638  0.3656
 1744SOL    HW216869   0.994   2.292  11.201  0.8582 -0.8167 -1.7214
 1745SOL     OW16870   0.292   1.001   7.664  0.1367  0.4142  0.2815
 1745SOL    HW116871   0.384   1.002   7.689 -0.4185  2.0079  2.2689
 1745SOL    HW216872   0.284   0.961   7.578  0.0894  1.6386 -0.2939
 1746SOL     OW16873   0.164   1.286   5.744  0.4075 -0.5268  0.0299
 1746SOL    HW116874   0.104   1.347   5.786  1.1034  0.7416 -0.8369
 1746SOL    HW216875   0.143   1.215   5.806  0.7032  0.4611  1.2651
 1747SOL     OW16876   4.730   3.710   8.859 -0.1584 -0.4544 -0.6032
 1747SOL    HW116877   4.733   3.660   8.777 -1.9952 -2.3729  0.5074
 1747SOL    HW216878   4.690   3.790   8.822  0.1642 -0.6083 -1.2924
 1748SOL     OW16879   0.022   3.067   4.489  1.1651  0.2983  0.4251
 1748SOL    HW116880   0.038   3.078   4.395 -0.1090 -2.3156 -0.1054
 1748SOL    HW216881   4.667   3.031   4.492  1.1630  0.2144 -0.6357
 1749SOL     OW16882   0.381   3.781  16.877  0.1895  0.3147  0.4882
 1749SOL    HW116883   0.384   3.818  16.965  1.0922  0.0179  0.5839
 1749SOL    HW216884   0.286   3.787  16.868  0.1701  0.6316  0.8797
 1750SOL     OW16885   4.107   4.699   9.084  0.1198 -0.8872 -0.1023
 1750SOL    HW116886   4.168   0.023   9.038 -1.6732  0.0052 -1.3628
 1750SOL    HW216887   4.104   0.012   9.168  1.0534  0.2500 -0.6948
 1751SOL     OW16888   0.949   1.584  15.233  0.4905 -0.2701 -0.0270
 1751SOL    HW116889   1.026   1.617  15.187 -1.3711  1.1938 -2.0867
 1751SOL    HW216890   0.945   1.496  15.195  0.0617  0.1047 -0.8435
 1752SOL     OW16891   0.823   4.374   3.442 -0.1791 -0.1415 -1.0627
 1752SOL    HW116892   0.890   4.401   3.505 -0.1525 -0.2015 -1.0647
 1752SOL    HW216893   0.812   4.452   3.388 -1.6850  0.0406 -0.4854
 1753SOL     OW16894   1.716   1.557   2.850 -0.4265  0.3672 -0.5055
 1753SOL    HW116895   1.793   1.566   2.794 -0.7172  0.9269 -0.8273
 1753SOL    HW216896   1.717   1.463   2.868  0.9094  0.5806  0.5428
 1754SOL     OW16897   1.656   2.377   4.938 -0.8307  0.3614  0.1997
 1754SOL    HW116898   1.698   2.376   5.024 -2.5578  0.3703  1.0413
 1754SOL    HW216899   1.639   2.285   4.919 -0.1401 -0.0965  1.8407
 1755SOL     OW16900   2.298   1.364   6.766  0.1352 -0.6622  0.7014
 1755SOL    HW116901   2.294   1.275   6.803  0.8560 -0.5505  1.0583
 1755SOL    HW216902   2.237   1.356   6.693  0.2585  2.4712  0.2812
 1756SOL     OW16903   2.222   2.370  13.158  0.1873 -0.3358 -0.2409
 1756SOL    HW116904   2.226   2.463  13.181  1.1998 -0.3338 -0.4300
 1756SOL    HW216905   2.289   2.357  13.092 -1.1099 -0.8648 -1.4471
 1757SOL     OW16906   2.010   4.185   7.627 -0.3713  0.3918  0.3976
 1757SOL    HW116907   2.065   4.196   7.550 -0.8195 -0.7464 -0.0856
 1757SOL    HW216908   2.053   4.121   7.683 -1.8744  1.1894  2.4623
 1758SOL     OW16909   0.312   4.403   6.352  0.0250  0.5268  0.2964
 1758SOL    HW116910   0.284   4.467   6.418 -2.7023 -1.3646  0.9702
 1758SOL    HW216911   0.344   4.331   6.407 -1.2002 -1.5504 -1.7381
 1759SOL     OW16912   3.938   2.162   1.166  0.0558  0.3361  0.3569
 1759SOL    HW116913   3.915   2.252   1.144  1.0764  0.6036  0.3851
 1759SOL    HW216914   3.858   2.121   1.133  0.4980  0.8951 -1.4281
 1760SOL     OW16915   4.065   1.406   9.836 -0.4376  0.3116  0.9870
 1760SOL    HW116916   4.089   1.344   9.905  1.1495  0.2704  0.4163
 1760SOL    HW216917   4.144   1.460   9.843 -0.4091  0.5120 -0.9006
 1761SOL     OW16918   3.777   2.030  13.940  0.5101  0.0560 -0.4819
 1761SOL    HW116919   3.814   2.058  13.856  0.2185 -0.9815 -0.9554
 1761SOL    HW216920   3.831   1.954  13.963  0.0202 -0.8748 -2.3754
 1762SOL     OW16921   1.602   1.832   2.868 -0.0285  0.1863 -0.2793
 1762SOL    HW116922   1.529   1.821   2.928 -1.8109  2.1873 -2.0908
 1762SOL    HW216923   1.643   1.746   2.859  2.2727  1.1732  0.6183
 1763SOL     OW16924   3.366   0.800   8.328 -0.6565  0.0531 -0.2050
 1763SOL    HW116925   3.331   0.862   8.391 -1.1058 -1.0521  0.6445
 1763SOL    HW216926   3.283   0.767   8.292 -0.8262 -0.2781  0.4860
 1764SOL     OW16927   1.415   2.434   1.593  0.5634 -0.4632 -0.1039
 1764SOL    HW116928   1.401   2.501   1.526  0.6104 -0.6987 -0.3487
 1764SOL    HW216929   1.345   2.449   1.657  0.5189 -0.0240 -0.2519
 1765SOL     OW16930   3.904   1.046   1.456  0.6004 -0.5945 -0.4442
 1765SOL    HW116931   3.815   1.012   1.442 -0.1411  1.0510  0.2368
 1765SOL    HW216932   3.887   1.086   1.542 -3.2035 -0.9422 -1.0017
 1766SOL     OW16933   3.360   3.168  15.675  0.2265  0.3781  0.4807
 1766SOL    HW116934   3.350   3.098  15.611  1.1480  2.5087 -2.0037
 1766SOL    HW216935   3.273   3.164  15.714  0.6553 -1.5801  1.2445
 1767SOL     OW16936   2.630   4.282   3.337  0.0852  0.1200 -0.0481
 1767SOL    HW116937   2.725   4.275   3.331 -0.0840 -0.5330 -1.8684
 1767SOL    HW216938   2.616   4.328   3.420 -0.2832  1.7513 -1.0047
 1768SOL     OW16939   0.062   1.921   5.133 -0.2835  0.0719 -0.2322
 1768SOL    HW116940   0.064   1.826   5.144  1.1322  0.1220 -0.0440
 1768SOL    HW216941   0.125   1.934   5.063 -0.0411  0.4187  0.0544
 1769SOL     OW16942   3.860   1.071   5.308  0.3648 -0.0027 -0.2151
 1769SOL    HW116943   3.946   1.066   5.266  0.1785 -1.3300 -0.4277
 1769SOL    HW216944   3.809   1.110   5.236 -3.9145  1.0254  3.3720
 1770SOL     OW16945   1.604   4.444  17.086  0.3606  0.3362 -0.3995
 1770SOL    HW116946   1.571   4.426  17.174  0.9603  0.3853 -0.1643
 1770SOL    HW216947   1.531   4.482  17.037 -0.9140 -3.2814 -1.2607
 1771SOL     OW16948   3.568   1.751  15.130  0.2447 -0.1686  0.2683
 1771SOL    HW116949   3.661   1.771  15.140  0.2637  0.0203 -0.2531
 1771SOL    HW216950   3.542   1.824  15.073 -0.6132  0.0684  0.9592
 1772SOL     OW16951   1.294   3.082   3.210  0.3193  0.5197 -0.6844
 1772SOL    HW116952   1.263   3.048   3.127 -1.6664 -1.0803  0.7125
 1772SOL    HW216953   1.264   3.173   3.201 -0.0902  0.5065  0.4903
 1773SOL     OW16954   1.588   0.120   2.000 -0.7154  0.0445 -0.1041
 1773SOL    HW116955   1.529   0.117   1.925 -0.0423 -0.1638 -0.6332
 1773SOL    HW216956   1.605   0.214   2.008 -0.5782  0.0976 -0.9438
 1774SOL     OW16957   3.839   2.745   3.928 -0.1534 -0.5074  0.4464
 1774SOL    HW116958   3.903   2.720   3.861  0.0236 -0.3626  0.5611
 1774SOL    HW216959   3.790   2.664   3.939 -2.6994  0.8913 -0.5617
 1775SOL     OW16960   1.674   1.407   0.718 -0.2305 -0.1361 -0.0685
 1775SOL    HW116961   1.698   1.329   0.768 -2.8480 -0.7144  0.2558
 1775SOL    HW216962   1.645   1.368   0.635 -1.4659  1.2094 -0.2646
 1776SOL     OW16963   4.438   3.154   3.776  0.6615  0.2071  0.3588
 1776SOL    HW116964   4.519   3.201   3.794  0.1995  1.3822 -0.6327
 1776SOL    HW216965   4.430   3.168   3.681  1.6327  1.1369  0.4156
 1777SOL     OW16966   1.042   0.285   3.773 -0.2443 -0.0510 -0.6512
 1777SOL    HW116967   1.119   0.286   3.830 -0.4722  1.6103 -0.3570
 1777SOL    HW216968   1.027   0.378   3.756 -0.2819 -0.2659 -1.8027
 1778SOL     OW16969   2.631   2.085   0.334  0.0855  0.7398  0.0756
 1778SOL    HW116970   2.674   2.165   0.303  0.1808  0.8431  0.4737
 1778SOL    HW216971   2.694   2.019   0.305  2.1985  2.0123  1.6761
 1779SOL     OW16972   0.397   4.350   2.367  0.1850 -0.5598  0.5570
 1779SOL    HW116973   0.465   4.380   2.308  1.2879  0.6639  2.4747
 1779SOL    HW216974   0.373   4.260   2.342 -2.4744  0.4734 -0.6679
 1780SOL     OW16975   1.823   4.581   3.667  0.6094  0.1954  0.6577
 1780SOL    HW116976   1.816   4.543   3.755  1.5685  0.4782  0.8685
 1780SOL    HW216977   1.751   4.543   3.618 -0.0886 -0.0990  1.9225
 1781SOL     OW16978   0.008   1.929   4.209 -0.6859  0.2827  0.3846
 1781SOL    HW116979   4.684   2.003   4.189 -0.9862 -0.7442 -2.5669
 1781SOL    HW216980   4.694   1.866   4.263  3.9976 -1.5452  2.4037
 1782SOL     OW16981   2.169   4.112  11.778  0.2963 -0.1023 -0.1520
 1782SOL    HW116982   2.166   4.205  11.801 -0.7698  0.1764 -1.4162
 1782SOL    HW216983   2.166   4.117  11.682  2.3131 -2.0586 -0.3179
 1783SOL     OW16984   0.251   1.119   3.767  0.1173 -0.1135  0.0995
 1783SOL    HW116985   0.178   1.117   3.830 -0.0553 -1.8602 -0.1467
 1783SOL    HW216986   0.322   1.149   3.824 -0.2528  3.5276 -1.3912
 1784SOL     OW16987   0.054   2.914  12.703 -0.3026  0.5256  0.6315
 1784SOL    HW116988   0.037   2.873  12.788 -1.5702  1.8995  1.0421
 1784SOL    HW216989   0.027   3.005  12.716  1.7388  1.0579  1.2213
 1785SOL     OW16990   3.568   3.610  11.474  0.3541  0.0625 -0.6063
 1785SOL    HW116991   3.592   3.598  11.566 -2.0543 -0.5220 -0.0470
 1785SOL    HW216992   3.648   3.654  11.445  0.5633  0.9125  1.2422
 1786SOL     OW16993   4.341   2.081   8.174 -0.2820 -0.2408 -0.0595
 1786SOL    HW116994   4.350   2.043   8.087 -0.9345  0.7346 -0.5519
 1786SOL    HW216995   4.253   2.117   8.162  0.2401  0.8408 -0.5815
 1787SOL     OW16996   2.311   0.745   5.902 -0.3041  0.0437  0.5302
 1787SOL    HW116997   2.388   0.732   5.957  0.6764 -0.7581 -1.0401
 1787SOL    HW216998   2.304   0.840   5.892  2.1649 -0.1417 -2.8289
 1788SOL     OW16999   3.145   4.680   3.878 -0.0482  0.3313  0.1585
 1788SOL    HW117000   3.173   4.588   3.886 -1.5491 -0.1934 -0.6677
 1788SOL    HW217001   3.218   4.723   3.833 -0.5743  1.6643  0.6075
 1789SOL     OW17002   0.811   1.532  14.299  0.1603  0.2543  0.0988
 1789SOL    HW117003   0.854   1.547  14.383 -1.1918 -1.3557  1.0993
 1789SOL    HW217004   0.874   1.481  14.247  0.0284 -0.8422  0.9980
 1790SOL     OW17005   0.423   2.125   5.248  0.5732 -0.1195 -0.2087
 1790SOL    HW117006   0.388   2.198   5.197 -1.5593 -1.0040  0.0121
 1790SOL    HW217007   0.394   2.053   5.192 -1.6755  1.6959 -1.3744
 1791SOL     OW17008   4.026   1.308  15.477  0.3239 -0.2492  0.4234
 1791SOL    HW117009   3.933   1.327  15.493  0.0292 -1.6349  0.3806
 1791SOL    HW217010   4.023   1.239  15.411  0.9417  0.9637 -0.8518
 1792SOL     OW17011   3.743   0.989  16.427 -0.3866 -0.3728  0.2339
 1792SOL    HW117012   3.733   1.017  16.336  4.2402 -0.4548 -0.2699
 1792SOL    HW217013   3.832   1.017  16.448 -0.0964 -1.0239 -0.1215
 1793SOL     OW17014   1.854   3.784   2.358 -0.2546  0.4651  0.3573
 1793SOL    HW117015   1.781   3.801   2.417 -0.3288  1.5653 -0.0453
 1793SOL    HW217016   1.865   3.696   2.322 -0.3374  0.2287  0.9176
 1794SOL     OW17017   3.902   4.089   7.993 -0.2781  0.1588 -0.2164
 1794SOL    HW117018   3.877   3.997   7.982 -1.0463  0.2460  0.7485
 1794SOL    HW217019   3.819   4.112   8.035  0.1124  1.3998 -0.1321
 1795SOL     OW17020   3.900   3.532   6.323  0.1625 -0.1341  0.0461
 1795SOL    HW117021   3.857   3.613   6.297  1.8119  0.5305 -0.6087
 1795SOL    HW217022   3.941   3.498   6.243 -0.9411  1.0764 -1.0237
 1796SOL     OW17023   3.747   0.292   3.982 -0.0004 -0.0956  0.3183
 1796SOL    HW117024   3.834   0.326   4.002 -0.0353  0.8349 -1.0884
 1796SOL    HW217025   3.770   0.204   3.951 -0.3937  0.3531 -1.2701
 1797SOL     OW17026   0.528   2.485   3.376 -0.1691  0.0957  0.1606
 1797SOL    HW117027   0.495   2.418   3.316 -0.8958 -0.9516  1.7387
 1797SOL    HW217028   0.590   2.534   3.322 -0.5580  0.4700  0.0581
 1798SOL     OW17029   3.020   2.007  12.193  0.1296  0.2454 -0.2904
 1798SOL    HW117030   3.086   2.043  12.132 -0.3294 -0.0216 -0.9407
 1798SOL    HW217031   2.943   2.038  12.146  2.4183  2.3621 -2.6858
 1799SOL     OW17032   4.007   4.612   4.223  0.0120 -0.7349 -0.3751
 1799SOL    HW117033   3.932   4.659   4.260 -0.3990 -2.0338  0.4544
 1799SOL    HW217034   3.964   4.563   4.153 -0.8741 -0.3215 -0.1274
 1800SOL     OW17035   0.934   0.777   5.913  0.5300 -0.2585  0.7748
 1800SOL    HW117036   0.959   0.860   5.955 -0.7190  1.1102 -1.1589
 1800SOL    HW217037   1.008   0.719   5.929  1.6769  1.2216  0.8637
 1801SOL     OW17038   2.286   2.034   5.954  0.3027 -0.0213 -0.3442
 1801SOL    HW117039   2.380   2.027   5.937  0.7302  2.0145  1.2533
 1801SOL    HW217040   2.285   2.123   5.988  0.2355  0.4326 -1.5103
 1802SOL     OW17041   3.100   0.445   6.673  0.2342  0.2546 -0.3458
 1802SOL    HW117042   3.082   0.377   6.608  0.0994 -0.6556  0.6389
 1802SOL    HW217043   3.077   0.398   6.753  0.7894 -2.3160 -1.6764
 1803SOL     OW17044   1.195   3.993   4.139  0.5205  0.1265 -0.6535
 1803SOL    HW117045   1.106   4.002   4.106  0.2418  2.7455  0.8485
 1803SOL    HW217046   1.187   3.936   4.215  0.0131  0.1430 -0.6962
 1804SOL     OW17047   0.533   3.180   2.309  0.7662  0.0813  0.2681
 1804SOL    HW117048   0.586   3.141   2.240  1.5434  0.7630  0.4875
 1804SOL    HW217049   0.590   3.252   2.335  2.5260 -1.0424 -0.5303
 1805SOL     OW17050   1.485   1.013   8.516  0.1801  0.1834  0.0258
 1805SOL    HW117051   1.555   1.050   8.569 -0.4689 -0.0115  1.0157
 1805SOL    HW217052   1.478   0.925   8.553 -1.5183  0.3464  0.1003
 1806SOL     OW17053   3.388   1.562   8.871  0.1567  0.1177  0.2542
 1806SOL    HW117054   3.459   1.583   8.812 -1.1134 -0.2664 -1.4046
 1806SOL    HW217055   3.418   1.475   8.897  0.0481 -0.7163 -2.4029
 1807SOL     OW17056   3.119   0.480  12.739  0.7415  0.3057 -0.7316
 1807SOL    HW117057   3.132   0.508  12.830 -1.9414 -0.3686 -0.1314
 1807SOL    HW217058   3.073   0.551  12.695 -1.4465  0.6701  2.1225
 1808SOL     OW17059   1.365   2.654  11.378  0.1079  0.0734 -0.3603
 1808SOL    HW117060   1.446   2.657  11.429 -1.3030  3.7299  1.6916
 1808SOL    HW217061   1.362   2.561  11.356 -1.1204  0.5787 -2.2988
 1809SOL     OW17062   3.219   3.151   3.374 -0.4889 -0.3544  0.6177
 1809SOL    HW117063   3.161   3.077   3.357  0.4513 -0.6594 -1.3146
 1809SOL    HW217064   3.179   3.227   3.332  2.3817  1.6298  1.4932
 1810SOL     OW17065   1.660   1.418   4.272  0.1836 -0.6628  0.1911
 1810SOL    HW117066   1.624   1.392   4.188 -1.5551 -0.0237  0.7257
 1810SOL    HW217067   1.735   1.473   4.251 -0.1560  0.6277  2.3092
 1811SOL     OW17068   0.667   3.818  14.610 -0.2093  0.1471  0.2793
 1811SOL    HW117069   0.701   3.747  14.665  0.4031 -0.7015 -1.1874
 1811SOL    HW217070   0.645   3.775  14.527  2.5429 -1.1832  0.2234
 1812SOL     OW17071   1.801   1.942   4.747  0.0138 -0.3251  0.0932
 1812SOL    HW117072   1.761   1.917   4.830 -0.5102 -4.6624 -1.4236
 1812SOL    HW217073   1.728   1.934   4.685 -0.4977  0.7330  0.5666
 1813SOL     OW17074   2.991   3.576   5.025  0.1691  0.1177 -0.3214
 1813SOL    HW117075   2.952   3.537   5.103 -1.1102  0.8252 -0.6116
 1813SOL    HW217076   2.942   3.539   4.952 -0.0238  0.3166 -0.2903
 1814SOL     OW17077   0.598   3.302  11.685 -0.2384  0.7441 -0.3554
 1814SOL    HW117078   0.568   3.393  11.693  0.2623  0.8766 -0.0074
 1814SOL    HW217079   0.687   3.315  11.717 -0.4360  1.2901 -0.0311
 1815SOL     OW17080   0.936   0.546  14.717 -0.3565 -0.6908 -0.4577
 1815SOL    HW117081   1.029   0.530  14.700 -0.4475 -0.5481 -1.0773
 1815SOL    HW217082   0.915   0.457  14.744 -1.6715 -0.0024  0.8000
 1816SOL     OW17083   4.069   4.328  15.366 -0.3791  0.4826  0.1904
 1816SOL    HW117084   4.030   4.251  15.325 -0.3325  0.7407 -0.3395
 1816SOL    HW217085   4.092   4.300  15.454 -3.5054  0.0364  0.8546
 1817SOL     OW17086   2.291   0.556   5.188 -0.9490  0.4195  0.1531
 1817SOL    HW117087   2.207   0.515   5.207 -0.8195 -0.0294 -0.2532
 1817SOL    HW217088   2.287   0.544   5.093  0.3762  1.1438  0.0062
 1818SOL     OW17089   3.307   3.136   2.135 -0.2615  0.3806 -0.3190
 1818SOL    HW117090   3.279   3.130   2.043  0.6451 -0.6033 -0.5289
 1818SOL    HW217091   3.339   3.047   2.154 -0.7935 -0.1366 -1.8085
 1819SOL     OW17092   3.195   0.601   4.696 -0.5887  0.3106 -0.1190
 1819SOL    HW117093   3.200   0.679   4.641  1.1147  0.0079 -0.4000
 1819SOL    HW217094   3.276   0.557   4.670 -0.2536  0.9254 -0.1139
 1820SOL     OW17095   2.141   1.115   0.445 -0.0156 -0.1095 -0.6257
 1820SOL    HW117096   2.147   1.073   0.531  0.8223 -0.9497 -1.0914
 1820SOL    HW217097   2.084   1.190   0.459  1.2435  0.7967 -0.4327
 1821SOL     OW17098   3.431   2.432   6.336  0.6982 -0.5313  0.2082
 1821SOL    HW117099   3.440   2.393   6.422  1.2338  0.1469  0.4616
 1821SOL    HW217100   3.476   2.515   6.351 -2.4988  1.3055 -0.4287
 1822SOL     OW17101   3.520   1.846   7.294 -0.6703  0.1669  0.3880
 1822SOL    HW117102   3.583   1.816   7.228  0.4706  1.5863  0.8436
 1822SOL    HW217103   3.537   1.782   7.364  3.6893  1.5769  0.6376
 1823SOL     OW17104   3.773   2.335  12.747  0.1077  0.0766 -0.0874
 1823SOL    HW117105   3.822   2.380  12.816 -0.3037  3.5914 -2.0709
 1823SOL    HW217106   3.736   2.417  12.713 -0.1168 -0.3944 -0.9835
 1824SOL     OW17107   4.056   1.938   6.095 -0.7772 -0.2492 -0.6403
 1824SOL    HW117108   3.974   1.950   6.047 -1.6413 -1.2680  0.5857
 1824SOL    HW217109   4.108   1.922   6.016 -0.2394 -0.0625 -0.3232
 1825SOL     OW17110   1.644   3.093  14.681  0.6291 -0.1590 -0.4961
 1825SOL    HW117111   1.643   3.104  14.586 -0.5907  1.4940 -0.2996
 1825SOL    HW217112   1.594   3.171  14.705  1.1842  0.9837 -3.0836
 1826SOL     OW17113   4.500   2.706  13.851  0.0036  0.3372 -0.5637
 1826SOL    HW117114   4.514   2.800  13.837  2.0179  0.0655 -0.3853
 1826SOL    HW217115   4.540   2.672  13.771  0.9729 -0.1672  0.1401
 1827SOL     OW17116   0.024   2.934   8.666  0.0482  0.2963 -0.2496
 1827SOL    HW117117   0.071   2.858   8.701  1.5501  2.4216  2.4148
 1827SOL    HW217118   4.664   2.928   8.684  0.1583 -0.4058  0.0869
 1828SOL     OW17119   4.179   4.509   0.198  0.1218 -0.7098 -0.5488
 1828SOL    HW117120   4.171   4.455   0.277 -1.2303  0.0249 -0.1691
 1828SOL    HW217121   4.111   4.479   0.138  0.3063 -0.6393 -0.7890
 1829SOL     OW17122   1.322   3.110   7.046  0.3551  0.4557 -0.1812
 1829SOL    HW117123   1.265   3.036   7.024 -0.7593  1.3836 -0.3954
 1829SOL    HW217124   1.261   3.156   7.103  0.0963  1.1073 -0.9807
 1830SOL     OW17125   0.134   3.335   7.350  0.5244 -0.6833 -0.3183
 1830SOL    HW117126   0.129   3.430   7.362  0.3575 -0.8508  0.9380
 1830SOL    HW217127   0.043   3.311   7.330  0.2783  1.8792 -2.2706
 1831SOL     OW17128   3.846   0.440   0.415 -0.1424 -0.1461 -0.1612
 1831SOL    HW117129   3.798   0.357   0.415 -1.4448  0.6088 -1.4462
 1831SOL    HW217130   3.785   0.493   0.468 -1.1889  0.5192 -2.0262
 1832SOL     OW17131   0.881   4.547   8.151 -0.1417 -0.2554  0.1172
 1832SOL    HW117132   0.944   4.617   8.132 -0.1934 -0.5477 -1.1290
 1832SOL    HW217133   0.803   4.594   8.182  0.1240  1.6020 -2.0170
 1833SOL     OW17134   1.112   3.282   5.551  0.8473 -0.5131 -0.0058
 1833SOL    HW117135   1.061   3.263   5.630 -0.0017  0.8079 -0.2410
 1833SOL    HW217136   1.109   3.377   5.541  0.8041 -0.5168 -0.0252
 1834SOL     OW17137   2.723   4.391   2.420 -0.0766  0.3517  0.2978
 1834SOL    HW117138   2.735   4.335   2.497  0.4918  1.7288  1.2145
 1834SOL    HW217139   2.629   4.380   2.412 -0.2407  3.3379 -1.9897
 1835SOL     OW17140   3.423   4.385  16.986  0.5760 -0.7516  0.3433
 1835SOL    HW117141   3.389   4.296  16.975 -0.0950 -0.5759  0.9416
 1835SOL    HW217142   3.514   4.374  17.014  1.7334 -0.9132 -3.5363
 1836SOL     OW17143   0.278   1.519   8.626  0.3530 -0.2590  0.1981
 1836SOL    HW117144   0.250   1.446   8.570  0.2314 -0.2983  0.3123
 1836SOL    HW217145   0.353   1.557   8.579 -0.5880 -0.0177 -1.0950
 1837SOL     OW17146   4.407   4.088   8.924  0.2179  0.7354  0.6021
 1837SOL    HW117147   4.501   4.083   8.941  0.5998  0.1828 -1.6187
 1837SOL    HW217148   4.387   3.994   8.918 -1.8196  1.1306  1.1097
 1838SOL     OW17149   3.924   0.018  14.025 -0.1827 -0.0009  0.1545
 1838SOL    HW117150   3.935   0.043  13.933 -0.2896 -0.9836 -0.1298
 1838SOL    HW217151   4.011   4.733  14.060  0.6607  2.5164 -0.6230
 1839SOL     OW17152   1.939   0.834  12.396  0.1216 -0.3196  0.0378
 1839SOL    HW117153   2.003   0.856  12.463 -0.5249  0.5131  0.3822
 1839SOL    HW217154   1.996   0.784  12.338  0.5206 -0.9850  0.9865
 1840SOL     OW17155   1.726   0.162   6.503 -0.3454  0.2053  0.6505
 1840SOL    HW117156   1.764   0.243   6.536  1.6160 -0.2569 -0.4407
 1840SOL    HW217157   1.788   0.138   6.433 -0.1865  2.4096  0.0458
 1841SOL     OW17158   4.530   1.622   8.348  0.3327 -0.6733  0.3130
 1841SOL    HW117159   4.524   1.715   8.367  2.3463 -0.4853 -0.0085
 1841SOL    HW217160   4.623   1.603   8.361  0.3574  0.3457  1.5496
 1842SOL     OW17161   0.379   2.674   3.537 -0.1095 -0.2646 -0.0315
 1842SOL    HW117162   0.380   2.726   3.457 -2.6704 -0.0844  0.0406
 1842SOL    HW217163   0.465   2.634   3.549  0.3059  0.8209  0.6314
 1843SOL     OW17164   0.187   2.317   8.986  0.4809  0.0870 -0.2246
 1843SOL    HW117165   0.283   2.313   8.989  0.4786  0.5758  0.5515
 1843SOL    HW217166   0.169   2.317   9.080 -0.1839 -2.8460 -0.3485
 1844SOL     OW17167   3.661   4.080   6.290  0.3600 -0.3933  0.0252
 1844SOL    HW117168   3.704   4.010   6.339  0.4542  0.2910  0.9207
 1844SOL    HW217169   3.648   4.052   6.199 -0.7619 -0.7837  0.3080
 1845SOL     OW17170   3.327   4.128   2.232  0.3014 -0.4289 -0.3270
 1845SOL    HW117171   3.295   4.211   2.196 -1.2453 -0.0640  1.9324
 1845SOL    HW217172   3.369   4.090   2.155 -1.2006  0.1498 -1.4400
 1846SOL     OW17173   4.366   1.654   3.839  0.3429  0.2835 -0.2504
 1846SOL    HW117174   4.346   1.654   3.745 -3.3144  1.2458  0.5609
 1846SOL    HW217175   4.281   1.644   3.882  1.4278 -1.0069  1.6249
 1847SOL     OW17176   4.504   2.749   9.048  0.6480  0.6726 -0.1315
 1847SOL    HW117177   4.579   2.801   9.074  0.4755 -0.3167  2.2628
 1847SOL    HW217178   4.531   2.669   9.091  0.3053  0.9066  0.5118
 1848SOL     OW17179   2.872   2.334  10.616 -0.1504 -1.0324 -0.2494
 1848SOL    HW117180   2.942   2.270  10.601  1.0107  0.3397 -0.6714
 1848SOL    HW217181   2.830   2.316  10.531  1.6812 -1.0174 -1.1540
 1849SOL     OW17182   1.112   2.590  12.384  0.1751 -0.2950 -0.3185
 1849SOL    HW117183   1.044   2.529  12.414  0.3546 -1.4967 -2.3805
 1849SOL    HW217184   1.150   2.608  12.470  1.6918  0.0635 -1.0590
 1850SOL     OW17185   2.657   1.193   3.831 -0.0420  0.3470 -0.0907
 1850SOL    HW117186   2.660   1.114   3.885 -0.8821  1.8818  2.2189
 1850SOL    HW217187   2.648   1.166   3.740  0.8547 -1.2620  0.3006
 1851SOL     OW17188   3.774   2.160   6.206 -0.1074  0.7030  0.1532
 1851SOL    HW117189   3.687   2.195   6.188 -0.6346  0.0421  1.3972
 1851SOL    HW217190   3.769   2.070   6.238  1.0603  0.6568  0.2079
 1852SOL     OW17191   0.880   0.302  16.980 -0.2599  0.0771 -0.3329
 1852SOL    HW117192   0.929   0.261  17.052  1.0103 -0.6814 -1.6205
 1852SOL    HW217193   0.818   0.234  16.952  0.4181  0.4516 -2.7379
 1853SOL     OW17194   0.171   1.186   8.242  0.7453  1.0087 -0.6995
 1853SOL    HW117195   0.147   1.226   8.158  0.6465 -0.3881 -1.3499
 1853SOL    HW217196   0.222   1.113   8.207  1.0062  0.2819  1.2292
 1854SOL     OW17197   2.114   3.400   7.229 -0.2529 -0.0782  0.2816
 1854SOL    HW117198   2.163   3.359   7.301  0.6084 -2.7661 -1.8525
 1854SOL    HW217199   2.054   3.331   7.203 -2.1074  0.7164  2.4040
 1855SOL     OW17200   3.540   2.210  11.379 -0.3605 -0.2618 -0.2069
 1855SOL    HW117201   3.549   2.281  11.443 -1.3355 -1.5829  1.3823
 1855SOL    HW217202   3.548   2.133  11.435  2.5908  0.5629  0.5045
 1856SOL     OW17203   0.647   0.466   8.409  0.0735  0.9905 -0.4984
 1856SOL    HW117204   0.691   0.464   8.324  2.3705 -1.3900  0.7526
 1856SOL    HW217205   0.718   0.443   8.470 -3.4479  3.7337  4.6425
 1857SOL     OW17206   4.190   3.171   7.300 -0.5504 -0.1949  0.1448
 1857SOL    HW117207   4.152   3.093   7.260  2.1242 -1.0862 -0.7094
 1857SOL    HW217208   4.159   3.149   7.387 -1.3373  0.1779 -0.0400
 1858SOL     OW17209   1.532   2.951  10.940  0.3739  0.4561  0.1407
 1858SOL    HW117210   1.615   2.987  10.971  1.9406 -0.2318 -3.2407
 1858SOL    HW217211   1.500   2.919  11.024  0.9789  3.0377  1.3697
 1859SOL     OW17212   1.845   1.314   0.497 -0.0010 -0.0413 -0.0211
 1859SOL    HW117213   1.853   1.400   0.455 -0.3602  0.7486  1.5340
 1859SOL    HW217214   1.753   1.297   0.474 -0.1216 -0.4353  0.7671
 1860SOL     OW17215   2.800   2.189   3.184 -0.1238 -0.3524 -0.3318
 1860SOL    HW117216   2.873   2.251   3.181 -0.9912  0.6057 -1.9424
 1860SOL    HW217217   2.830   2.148   3.265 -0.7497  1.1909  0.6771
 1861SOL     OW17218   1.404   3.653   9.305  0.0140  0.5982  0.0049
 1861SOL    HW117219   1.318   3.686   9.331  0.0470  0.2139  0.5981
 1861SOL    HW217220   1.444   3.715   9.244 -0.8259  2.0969  0.9929
 1862SOL     OW17221   3.752   2.395   8.729  0.7407 -0.4084  0.3074
 1862SOL    HW117222   3.792   2.470   8.773 -2.2147  0.2474  1.9172
 1862SOL    HW217223   3.698   2.358   8.799  0.0574 -0.1446 -0.0733
 1863SOL     OW17224   1.206   0.722  16.268  0.8718  0.0035  0.7310
 1863SOL    HW117225   1.125   0.762  16.300  1.0456  3.2918 -3.0219
 1863SOL    HW217226   1.176   0.632  16.265 -0.6054  0.5912 -1.5113
 1864SOL     OW17227   3.828   4.614   5.763  0.2684  0.1764 -0.0176
 1864SOL    HW117228   3.859   4.598   5.852 -0.1285 -3.4630 -0.5248
 1864SOL    HW217229   3.792   4.703   5.761  4.7884  2.0409  2.0364
 1865SOL     OW17230   2.331   4.529  12.280 -0.2135  1.0175 -0.1768
 1865SOL    HW117231   2.403   4.481  12.240 -1.8433  0.1315 -2.0446
 1865SOL    HW217232   2.372   4.560  12.361 -0.1457 -1.9674  0.9330
 1866SOL     OW17233   1.706   1.585   5.574  0.3843  0.0965  0.2076
 1866SOL    HW117234   1.707   1.493   5.600 -1.1889 -0.0855 -0.3744
 1866SOL    HW217235   1.683   1.624   5.658 -1.1849 -1.9932  0.7467
 1867SOL     OW17236   1.744   2.912  10.196  0.2557  0.2058  0.2252
 1867SOL    HW117237   1.806   2.872  10.257  2.4744  2.5729 -0.4783
 1867SOL    HW217238   1.725   2.994  10.241  0.8663  0.3200  0.2767
 1868SOL     OW17239   0.998   2.697   8.041 -0.0137  0.1800 -0.3170
 1868SOL    HW117240   0.943   2.675   7.966 -0.7050 -1.6386  0.7189
 1868SOL    HW217241   1.003   2.791   8.027 -4.0444  0.3395 -0.6832
 1869SOL     OW17242   1.722   2.593   7.303  0.9710  0.1706 -0.5770
 1869SOL    HW117243   1.809   2.577   7.340  0.2776  0.4933  1.1807
 1869SOL    HW217244   1.696   2.673   7.348  2.5381  0.6967 -0.5911
 1870SOL     OW17245   0.883   3.111  10.798  0.4220 -0.3387  0.1659
 1870SOL    HW117246   0.792   3.084  10.783  0.5148 -1.1715  1.1244
 1870SOL    HW217247   0.919   3.068  10.720  0.3622 -1.6536  0.8795
 1871SOL     OW17248   3.013   1.757   4.603 -0.9564  0.5030  0.3637
 1871SOL    HW117249   2.978   1.697   4.669 -1.8804  0.0134 -0.5756
 1871SOL    HW217250   3.108   1.743   4.606 -1.0277 -0.0808 -0.2735
 1872SOL     OW17251   0.954   3.811   8.635 -0.0185 -0.1450 -0.1054
 1872SOL    HW117252   0.896   3.870   8.683 -2.1214  0.1272 -2.9868
 1872SOL    HW217253   1.011   3.763   8.695  2.6662  0.9232 -1.7828
 1873SOL     OW17254   0.946   4.504   5.837 -0.2218  0.0261  0.1986
 1873SOL    HW117255   0.953   4.484   5.743 -2.5493 -0.0959  0.0292
 1873SOL    HW217256   0.897   4.587   5.838 -0.3734 -0.0748  1.3083
 1874SOL     OW17257   3.691   2.179   4.765 -0.0469  0.2140 -0.1731
 1874SOL    HW117258   3.669   2.194   4.857  0.1752 -0.9483  0.0639
 1874SOL    HW217259   3.702   2.084   4.768 -1.4695  0.1181  1.6973
 1875SOL     OW17260   2.917   2.645   8.373 -0.4828  0.1417  0.0628
 1875SOL    HW117261   3.007   2.676   8.382 -1.2411  2.2517  0.2962
 1875SOL    HW217262   2.866   2.725   8.359 -2.6103 -1.0500  0.9595
 1876SOL     OW17263   2.615   4.105  13.310 -0.1592  0.5633  0.1934
 1876SOL    HW117264   2.569   4.120  13.393 -2.4015 -0.2228 -0.8984
 1876SOL    HW217265   2.552   4.055  13.258  1.0750  1.5695 -2.2975
 1877SOL     OW17266   3.906   0.802   8.971 -0.3421 -0.2567  0.4970
 1877SOL    HW117267   3.918   0.827   8.880  2.1896  3.0322  1.7253
 1877SOL    HW217268   3.842   0.732   8.963  1.1472 -1.3978 -1.3683
 1878SOL     OW17269   3.343   2.877  14.229 -0.8406 -0.4487  0.2411
 1878SOL    HW117270   3.411   2.812  14.248  0.5160  0.8678 -0.1271
 1878SOL    HW217271   3.288   2.824  14.172  0.6949  0.2194 -1.8337
 1879SOL     OW17272   4.333   2.231  11.621  0.1794 -0.0936 -0.2038
 1879SOL    HW117273   4.296   2.251  11.707  0.1089  1.3538 -0.5683
 1879SOL    HW217274   4.277   2.288  11.569 -2.1784 -2.2345 -0.0075
 1880SOL     OW17275   4.088   2.905   7.245 -0.1062 -0.3885  0.6143
 1880SOL    HW117276   4.074   2.865   7.331 -1.4855 -2.4063 -0.5230
 1880SOL    HW217277   4.103   2.837   7.179 -1.0614  0.6082 -0.6190
 1881SOL     OW17278   4.703   1.337   8.043  0.0929  0.7436 -0.2816
 1881SOL    HW117279   4.697   1.350   7.948 -0.8592  2.0984 -0.0403
 1881SOL    HW217280   0.014   1.413   8.082 -2.1806  2.2394 -0.5915
 1882SOL     OW17281   4.401   1.101   6.970 -0.4956 -0.2526  0.2684
 1882SOL    HW117282   4.340   1.143   7.031  0.1318  0.9193  0.0806
 1882SOL    HW217283   4.435   1.032   7.027 -2.4678 -1.9799 -0.6262
 1883SOL     OW17284   1.033   2.224  12.968 -0.2460 -0.1643  0.1084
 1883SOL    HW117285   1.126   2.205  12.951 -0.1239  2.0843 -1.7087
 1883SOL    HW217286   1.039   2.312  13.005 -1.3131  0.0667 -0.2634
 1884SOL     OW17287   0.738   3.013  15.595  0.5802 -0.0526 -0.1583
 1884SOL    HW117288   0.730   3.069  15.673  0.9212  0.8965 -0.8044
 1884SOL    HW217289   0.827   2.982  15.609  0.2612 -1.5983 -1.5800
 1885SOL     OW17290   1.845   0.783   4.097  0.3594 -0.8351  0.2765
 1885SOL    HW117291   1.821   0.733   4.175 -0.8819 -0.6928 -0.0121
 1885SOL    HW217292   1.799   0.865   4.115  0.0421 -0.4681 -2.2266
 1886SOL     OW17293   0.468   4.087   3.147 -0.0162 -0.2992  0.0983
 1886SOL    HW117294   0.560   4.068   3.169  0.5293  2.1590 -0.0256
 1886SOL    HW217295   0.469   4.162   3.207 -1.5187 -0.1948 -0.0245
 1887SOL     OW17296   3.041   1.416  17.506 -0.3640  0.8170 -0.2214
 1887SOL    HW117297   3.003   1.381  17.425 -1.7838  0.5808  0.5549
 1887SOL    HW217298   3.094   1.344  17.540 -1.1839 -0.4472 -1.6318
 1888SOL     OW17299   3.724   2.901  11.492  0.6178  0.0735  0.1816
 1888SOL    HW117300   3.730   2.996  11.488 -1.5428  0.2285  0.4020
 1888SOL    HW217301   3.805   2.880  11.446 -0.4185  0.7923 -1.9536
 1889SOL     OW17302   0.787   3.286   7.347  0.4167 -0.2811  0.1714
 1889SOL    HW117303   0.757   3.331   7.426  2.2192 -0.1242  0.7644
 1889SOL    HW217304   0.758   3.196   7.362 -0.4241  0.0093  0.2770
 1890SOL     OW17305   3.315   3.144   7.881 -0.6359 -0.1430  0.2196
 1890SOL    HW117306   3.375   3.070   7.872 -0.0048  0.0749  2.5000
 1890SOL    HW217307   3.250   3.109   7.821 -1.5215  4.3151 -1.4167
 1891SOL     OW17308   4.321   4.061   9.586 -0.1094 -0.0283 -0.0670
 1891SOL    HW117309   4.273   4.140   9.611 -0.5538 -0.8479  1.6349
 1891SOL    HW217310   4.276   4.001   9.646  0.1269  1.9576  2.0997
 1892SOL     OW17311   2.578   2.985   5.516  0.3750 -0.2061  0.4257
 1892SOL    HW117312   2.532   2.902   5.528  1.0732 -1.0563 -2.6902
 1892SOL    HW217313   2.618   2.972   5.429  2.3271 -1.3232  1.4746
 1893SOL     OW17314   3.088   0.306  10.908 -0.3173 -0.1291  0.4653
 1893SOL    HW117315   3.022   0.368  10.940 -0.7333 -0.3828  0.1055
 1893SOL    HW217316   3.063   0.233  10.964 -2.6802 -1.1954 -1.9955
 1894SOL     OW17317   2.865   3.623   6.359 -0.6294  0.1113 -0.0734
 1894SOL    HW117318   2.818   3.591   6.282 -0.9949  0.0542  0.1778
 1894SOL    HW217319   2.959   3.616   6.339 -0.6844  1.3473 -0.7588
 1895SOL     OW17320   2.346   0.056  13.399 -0.1745 -0.1942  0.0408
 1895SOL    HW117321   2.342   0.005  13.317  0.3253  0.2047 -0.2333
 1895SOL    HW217322   2.257   0.045  13.431 -0.5480  3.5461  0.2005
 1896SOL     OW17323   3.206   0.069   6.554 -0.3122  0.2742  0.2155
 1896SOL    HW117324   3.293   0.097   6.526 -0.3505  0.2987  0.1223
 1896SOL    HW217325   3.240   0.014   6.625  0.3230  0.9317  0.4312
 1897SOL     OW17326   2.840   4.626  16.408 -0.0828  0.5799  0.1376
 1897SOL    HW117327   2.837   4.652  16.316 -1.8400 -2.8775 -0.7803
 1897SOL    HW217328   2.896   4.694  16.447  0.7043 -0.3194  0.5714
 1898SOL     OW17329   4.084   2.648   8.277  0.0706  0.7758 -1.1538
 1898SOL    HW117330   4.144   2.639   8.203  1.6972 -2.1207  0.5274
 1898SOL    HW217331   4.126   2.577   8.326 -0.2335  1.0313 -0.5269
 1899SOL     OW17332   3.942   1.734   5.347  0.4811  0.1728  0.2283
 1899SOL    HW117333   4.023   1.734   5.297  0.6781  0.5670  0.5450
 1899SOL    HW217334   3.907   1.823   5.342  1.3220  0.3235 -2.4250
 1900SOL     OW17335   3.917   0.180  13.768  0.1412 -0.2229  0.3993
 1900SOL    HW117336   4.001   0.168  13.724 -0.2145 -2.3584  0.3041
 1900SOL    HW217337   3.869   0.233  13.706 -1.0897 -0.5669  1.0606
 1901SOL     OW17338   3.593   0.555  16.250  0.0357  0.2710 -0.3416
 1901SOL    HW117339   3.513   0.509  16.276  0.1413 -0.1216 -0.7191
 1901SOL    HW217340   3.554   0.642  16.244  0.4237  0.4686 -0.0046
 1902SOL     OW17341   2.461   0.608   3.824  0.8496  1.0233  0.3510
 1902SOL    HW117342   2.479   0.622   3.917  2.1902  0.0711  0.2237
 1902SOL    HW217343   2.368   0.630   3.812  1.2529  3.3776  1.6417
 1903SOL     OW17344   0.785   0.918   2.852 -0.2081  0.1315 -0.6669
 1903SOL    HW117345   0.711   0.856   2.855 -1.4538  1.6432 -0.1411
 1903SOL    HW217346   0.743   0.999   2.824  1.3190  1.5798  1.2663
 1904SOL     OW17347   2.467   3.728   8.834  0.3814 -0.2140 -0.2648
 1904SOL    HW117348   2.390   3.713   8.888 -0.5507  0.3179 -1.4445
 1904SOL    HW217349   2.501   3.638   8.829 -0.1477 -0.3826 -0.7687
 1905SOL     OW17350   3.474   4.662   2.430  0.3632  0.5252 -0.5283
 1905SOL    HW117351   3.526   0.008   2.417 -0.3044  0.6376 -2.6308
 1905SOL    HW217352   3.453   4.651   2.337  0.3739 -0.6316 -0.3928
 1906SOL     OW17353   4.592   0.812   4.510  0.3160 -0.4469 -0.4893
 1906SOL    HW117354   4.572   0.778   4.597  0.5237 -0.2318 -0.3580
 1906SOL    HW217355   4.547   0.896   4.510 -0.8918 -1.0935  1.2408
 1907SOL     OW17356   2.746   4.406   0.708 -0.5819  0.3386  0.1721
 1907SOL    HW117357   2.729   4.324   0.662 -1.0543  1.0158 -0.8588
 1907SOL    HW217358   2.828   4.379   0.750 -0.0646  2.7720  0.6981
 1908SOL     OW17359   0.002   4.302   4.443 -0.3427 -0.0373  0.3229
 1908SOL    HW117360   0.006   4.261   4.530 -0.6968  3.5626  2.0391
 1908SOL    HW217361   0.051   4.382   4.461  1.1333 -0.8839  0.0902
 1909SOL     OW17362   1.904   3.553  14.386 -0.6620 -0.1946 -0.0052
 1909SOL    HW117363   1.984   3.549  14.438 -0.4024  0.6103 -0.3594
 1909SOL    HW217364   1.924   3.523  14.297 -2.0244  1.1901 -0.7807
 1910SOL     OW17365   1.198   1.916  14.218 -0.0491  0.0019  0.0076
 1910SOL    HW117366   1.208   2.009  14.238 -1.7720  0.1120  0.3550
 1910SOL    HW217367   1.275   1.886  14.267  2.4892  3.5251 -1.8248
 1911SOL     OW17368   0.868   3.224   0.155  0.7493  0.2831  0.1871
 1911SOL    HW117369   0.867   3.224   0.059  2.7977  1.6008  0.1636
 1911SOL    HW217370   0.774   3.209   0.154  0.9433 -0.8406 -1.0825
 1912SOL     OW17371   0.868   3.651   4.909 -0.1378 -1.0962  0.3388
 1912SOL    HW117372   0.915   3.574   4.940 -0.6301 -1.6970 -0.4229
 1912SOL    HW217373   0.910   3.664   4.824 -0.7120 -0.4415  0.1505
 1913SOL     OW17374   3.115   0.379   9.810 -0.4567 -0.1800  0.0206
 1913SOL    HW117375   3.181   0.418   9.752 -0.2660  0.7197  0.8416
 1913SOL    HW217376   3.040   0.431   9.784 -0.4344 -0.4779 -0.6205
 1914SOL     OW17377   3.558   3.551   6.614  0.2570 -0.0997 -0.1029
 1914SOL    HW117378   3.542   3.643   6.592  3.4471  0.9607  1.9746
 1914SOL    HW217379   3.653   3.554   6.602  0.4049 -0.4593  1.0093
 1915SOL     OW17380   0.759   2.061   3.234 -0.0121  0.2714 -0.6386
 1915SOL    HW117381   0.786   2.140   3.281 -2.7734 -1.0822  3.2976
 1915SOL    HW217382   0.827   2.051   3.168  0.7945  0.4919  0.1492
 1916SOL     OW17383   2.368   2.067   8.215 -0.3787 -0.2035 -0.0601
 1916SOL    HW117384   2.309   2.015   8.160 -0.0397 -0.5730 -0.0754
 1916SOL    HW217385   2.313   2.091   8.290  2.1337 -0.5017  1.9016
 1917SOL     OW17386   0.064   1.641   5.122  0.1685 -0.2795  0.3444
 1917SOL    HW117387   0.089   1.643   5.030  1.4675 -1.8463  0.6811
 1917SOL    HW217388   0.124   1.572   5.150  1.0666  0.3169 -0.1093
 1918SOL     OW17389   0.604   0.330  16.780 -0.3196  0.0541  0.3504
 1918SOL    HW117390   0.528   0.324  16.722 -2.8896  2.0907  3.5082
 1918SOL    HW217391   0.568   0.389  16.846 -0.9694  0.9805 -0.8082
 1919SOL     OW17392   0.777   3.444   7.923  0.8113 -0.3403 -0.0974
 1919SOL    HW117393   0.809   3.528   7.956 -0.3101  0.6735 -1.5667
 1919SOL    HW217394   0.692   3.452   7.966  0.6752 -1.1262 -0.2212
 1920SOL     OW17395   4.415   1.352   3.145  0.7933  0.4651 -0.2544
 1920SOL    HW117396   4.415   1.363   3.050  1.0098 -2.1830 -0.5669
 1920SOL    HW217397   4.357   1.277   3.158  2.1662 -0.5882 -0.1746
 1921SOL     OW17398   1.357   1.601   2.375 -0.1590 -0.5007  0.2637
 1921SOL    HW117399   1.341   1.644   2.460 -1.7697 -1.0508  0.2168
 1921SOL    HW217400   1.453   1.602   2.383 -0.2587 -1.9090  1.6367
 1922SOL     OW17401   3.202   1.928   5.702 -0.4020 -0.0704  0.1351
 1922SOL    HW117402   3.188   1.839   5.670  1.0885  0.8188 -2.9323
 1922SOL    HW217403   3.227   1.970   5.620  1.2850  1.2513  1.3364
 1923SOL     OW17404   0.003   3.800  17.384 -0.4304  0.2851  0.2364
 1923SOL    HW117405   0.072   3.860  17.359  1.5198 -1.4754  1.4211
 1923SOL    HW217406   0.031   3.769  17.470 -0.1170 -2.2785 -0.7708
 1924SOL     OW17407   1.109   3.616  16.961 -0.3156 -0.4329  0.1364
 1924SOL    HW117408   1.135   3.548  17.024  2.5065  0.0331 -0.5471
 1924SOL    HW217409   1.042   3.660  17.014  0.2171 -0.3914  0.7813
 1925SOL     OW17410   4.548   2.181   2.095  0.0512  0.0397  0.0673
 1925SOL    HW117411   4.643   2.176   2.087  0.0102  0.9032 -0.9786
 1925SOL    HW217412   4.519   2.094   2.066 -0.6403  0.0480  0.7344
 1926SOL     OW17413   0.259   3.580   4.654 -0.3090  0.2282  0.1845
 1926SOL    HW117414   0.212   3.513   4.605  0.2090 -0.1686  0.2227
 1926SOL    HW217415   0.218   3.568   4.740 -0.6843 -1.7882 -0.2822
 1927SOL     OW17416   3.629   1.584  17.454  0.0238  0.1898  0.1068
 1927SOL    HW117417   3.573   1.657  17.430  0.7236  0.7921  0.2853
 1927SOL    HW217418   3.668   1.561  17.370 -0.9253  0.2004 -0.3341
 1928SOL     OW17419   4.242   0.291  11.592 -0.2503  0.4255 -0.0155
 1928SOL    HW117420   4.247   0.348  11.668  0.2198  0.3619 -0.0016
 1928SOL    HW217421   4.264   0.356  11.525  0.8332 -1.4286 -1.4809
 1929SOL     OW17422   1.473   2.434  10.892  0.3891 -0.0852 -0.2005
 1929SOL    HW117423   1.537   2.498  10.860 -1.5035  1.4474 -0.9706
 1929SOL    HW217424   1.512   2.348  10.880 -1.3200 -0.8392 -0.3592
 1930SOL     OW17425   2.806   4.382   4.605  0.7226  0.0942  0.5650
 1930SOL    HW117426   2.738   4.335   4.654 -1.9344  0.6076 -2.6103
 1930SOL    HW217427   2.747   4.405   4.534  0.3156  1.7202  1.4403
 1931SOL     OW17428   4.671   4.719  11.542 -0.3912  0.1326  0.4235
 1931SOL    HW117429   4.654   4.627  11.562 -0.1951 -0.2125 -0.9919
 1931SOL    HW217430   4.583   0.022  11.553 -0.4842  0.4179 -1.2136
 1932SOL     OW17431   4.709   2.599   3.727  0.2417 -0.0709 -0.0215
 1932SOL    HW117432   0.007   2.648   3.650 -1.0897 -1.0261 -1.1615
 1932SOL    HW217433   0.049   2.545   3.756 -0.0759  0.0075  0.9224
 1933SOL     OW17434   4.253   0.843   4.543 -0.3781  0.2554 -0.4858
 1933SOL    HW117435   4.337   0.849   4.589 -1.7768  1.8617  1.8285
 1933SOL    HW217436   4.197   0.844   4.620 -0.9713 -0.4526 -0.9141
 1934SOL     OW17437   2.560   0.398   6.500  0.3220  0.3360  0.6209
 1934SOL    HW117438   2.615   0.420   6.576  2.7875 -0.9152 -0.8209
 1934SOL    HW217439   2.518   0.483   6.489  0.7192  0.7010  1.9059
 1935SOL     OW17440   1.099   0.276   3.472  0.2264  0.3582 -0.1861
 1935SOL    HW117441   1.104   0.186   3.439  0.5952 -0.2112  1.4631
 1935SOL    HW217442   1.112   0.258   3.565 -0.0593 -0.5775 -0.3290
 1936SOL     OW17443   2.251   0.763   9.776 -0.2464 -0.2044 -0.1499
 1936SOL    HW117444   2.222   0.679   9.812  0.9267 -1.0316 -1.1430
 1936SOL    HW217445   2.225   0.828   9.841 -0.5495  0.5893 -1.0582
 1937SOL     OW17446   0.110   1.164  11.407 -0.2596  0.0825 -0.0028
 1937SOL    HW117447   0.054   1.106  11.459  1.5888 -0.2731  1.5777
 1937SOL    HW217448   0.182   1.102  11.396  1.8333  2.7664 -1.3431
 1938SOL     OW17449   0.620   0.148  13.134 -0.3723 -0.3489  0.3962
 1938SOL    HW117450   0.570   0.083  13.184 -2.8187 -0.2431 -1.9123
 1938SOL    HW217451   0.611   0.225  13.191  3.3249 -0.4453  1.0831
 1939SOL     OW17452   3.237   1.709   3.190 -0.1121  0.4037  0.3606
 1939SOL    HW117453   3.301   1.772   3.156 -1.0983 -0.0996 -2.3714
 1939SOL    HW217454   3.254   1.624   3.149 -1.5534  0.1705  0.2427
 1940SOL     OW17455   0.251   2.107  14.643 -0.0001 -0.2166  0.7141
 1940SOL    HW117456   0.168   2.083  14.602  0.9781 -0.8697 -0.8905
 1940SOL    HW217457   0.277   2.032  14.696 -1.8961  1.0304  3.3692
 1941SOL     OW17458   0.461   2.794   5.003  0.3508 -0.6476  0.1800
 1941SOL    HW117459   0.527   2.753   5.058  2.0196  2.3802  0.4616
 1941SOL    HW217460   0.452   2.875   5.055  0.2098 -0.0610 -0.7532
 1942SOL     OW17461   0.877   2.691  14.691 -0.4677 -0.1382  0.4117
 1942SOL    HW117462   0.788   2.664  14.715 -1.7823  3.6997 -0.2785
 1942SOL    HW217463   0.926   2.703  14.773 -0.6328 -0.9939  0.6341
 1943SOL     OW17464   4.378   3.094   8.391 -0.4140 -0.0598 -0.0388
 1943SOL    HW117465   4.310   3.029   8.409 -0.3599 -0.5704 -1.6608
 1943SOL    HW217466   4.417   3.119   8.475 -1.7194  0.3106  0.4416
 1944SOL     OW17467   1.004   2.379   1.945  0.2213  0.1100  0.2158
 1944SOL    HW117468   0.935   2.416   2.000 -1.0235 -2.2181  0.2033
 1944SOL    HW217469   0.995   2.285   1.961  1.6515  0.3134  2.3294
 1945SOL     OW17470   4.199   1.457   8.294  0.3961  0.0552  0.2052
 1945SOL    HW117471   4.123   1.422   8.247 -1.2230 -0.4543  3.2075
 1945SOL    HW217472   4.187   1.552   8.286 -1.9208 -0.4587 -2.5447
 1946SOL     OW17473   4.574   0.804   0.946 -0.4729 -0.0510  0.1617
 1946SOL    HW117474   4.649   0.848   0.987 -0.7722  1.8271 -1.2890
 1946SOL    HW217475   4.513   0.878   0.948 -0.0786  0.2894 -0.5239
 1947SOL     OW17476   2.812   3.301   3.340  0.2433  0.8536 -0.1949
 1947SOL    HW117477   2.899   3.339   3.344  0.0713  1.4270 -1.6537
 1947SOL    HW217478   2.776   3.353   3.267  0.3760  0.7575 -0.3283
 1948SOL     OW17479   1.073   3.927  16.012  0.3807 -0.3014 -0.0851
 1948SOL    HW117480   1.015   3.881  16.073 -1.2200  1.4119 -0.3004
 1948SOL    HW217481   1.030   3.901  15.930 -0.4006  0.6846 -0.0003
 1949SOL     OW17482   2.411   1.794   7.523 -0.3395  0.2019 -0.0104
 1949SOL    HW117483   2.492   1.744   7.510 -0.9099 -0.3060 -1.7200
 1949SOL    HW217484   2.411   1.846   7.443 -0.2752 -0.7567 -0.6427
 1950SOL     OW17485   2.791   1.550   7.767  0.3962  0.5313 -0.4282
 1950SOL    HW117486   2.732   1.479   7.793 -0.7405  2.1927  1.5351
 1950SOL    HW217487   2.793   1.543   7.671  2.0006 -1.0525 -0.2833
 1951SOL     OW17488   1.951   3.990   2.214  0.3263  0.1024 -0.4694
 1951SOL    HW117489   2.040   3.975   2.181  1.6793  0.4693  3.0649
 1951SOL    HW217490   1.935   3.908   2.260  2.3620  0.2646  0.5436
 1952SOL     OW17491   2.249   3.258  11.209  0.0695 -0.2337 -0.0422
 1952SOL    HW117492   2.214   3.346  11.200  0.6816  0.0340  0.1737
 1952SOL    HW217493   2.196   3.223  11.137  2.2343  2.5293 -2.9795
 1953SOL     OW17494   0.677   1.942   6.676 -0.2643 -0.2100 -0.0602
 1953SOL    HW117495   0.608   1.877   6.661 -1.3190  1.1576 -1.2194
 1953SOL    HW217496   0.710   1.943   6.586  1.7240  2.3460  0.6878
 1954SOL     OW17497   3.624   4.410  13.014 -0.4809  0.0198 -0.3624
 1954SOL    HW117498   3.570   4.414  13.093  2.1421  0.5737  1.4133
 1954SOL    HW217499   3.639   4.318  12.994 -1.2451 -0.1493 -0.1784
 1955SOL     OW17500   1.989   3.923  11.369 -0.1938 -0.0864  0.1818
 1955SOL    HW117501   2.031   4.009  11.362 -1.3411  0.3272 -1.4860
 1955SOL    HW217502   1.987   3.917  11.465 -2.0361 -2.3214  0.0019
 1956SOL     OW17503   0.031   2.100   3.651 -0.3614 -0.0812  0.3139
 1956SOL    HW117504   4.670   2.085   3.643 -0.7471  2.1147  0.7083
 1956SOL    HW217505   0.044   2.188   3.616  0.9243 -0.0508  0.8347
 1957SOL     OW17506   0.809   4.462   5.288  0.2209 -0.4715 -0.4748
 1957SOL    HW117507   0.779   4.529   5.226 -0.0088 -1.6283 -1.6251
 1957SOL    HW217508   0.886   4.427   5.244  0.8306  1.7721 -1.1863
 1958SOL     OW17509   4.030   3.919   6.917  0.3794  0.5556  0.7896
 1958SOL    HW117510   4.002   3.981   6.984  0.5544  2.6791 -1.1096
 1958SOL    HW217511   3.963   3.851   6.924 -0.0767  0.6280 -2.5706
 1959SOL     OW17512   1.900   0.849   0.833  0.0986 -0.1868 -0.4756
 1959SOL    HW117513   1.857   0.819   0.754 -2.0495 -0.3921  0.7768
 1959SOL    HW217514   1.893   0.766   0.880  0.9066 -0.7698 -1.3882
 1960SOL     OW17515   2.849   3.844   7.606  0.2249 -0.0071 -0.0093
 1960SOL    HW117516   2.805   3.865   7.689 -1.2388  2.9997 -1.5260
 1960SOL    HW217517   2.854   3.932   7.568 -1.3219  0.2497  0.3695
 1961SOL     OW17518   4.712   0.077   7.922 -0.4185 -0.3097  0.3040
 1961SOL    HW117519   0.012   0.133   7.992  1.8557  0.6366 -1.5413
 1961SOL    HW217520   4.703   0.137   7.848 -1.2984 -1.4695 -0.5307
 1962SOL     OW17521   2.629   2.235  14.634 -0.1933  0.1151  0.5374
 1962SOL    HW117522   2.593   2.152  14.666  2.2493 -1.4052 -0.6473
 1962SOL    HW217523   2.720   2.216  14.612 -0.1959 -0.2451  0.8472
 1963SOL     OW17524   0.515   0.424  17.704 -0.0966  0.3407 -0.2654
 1963SOL    HW117525   0.530   0.331  17.715 -2.0630 -0.3401 -3.3522
 1963SOL    HW217526   0.589   0.459   0.021  0.1703  1.1872 -1.2631
 1964SOL     OW17527   2.035   0.711   7.369 -0.2004  0.6310 -0.7044
 1964SOL    HW117528   2.081   0.786   7.407  1.3829  0.2350 -1.8198
 1964SOL    HW217529   2.021   0.659   7.448  2.1073  0.7595 -0.1961
 1965SOL     OW17530   0.211   4.009   9.297  0.4125  0.7482  0.3664
 1965SOL    HW117531   0.256   4.078   9.346 -0.4411  1.0784  0.6772
 1965SOL    HW217532   0.135   4.062   9.276  0.7906 -0.0851 -3.1627
 1966SOL     OW17533   0.657   3.735   7.573  0.2873 -0.1520 -0.2182
 1966SOL    HW117534   0.586   3.765   7.516  0.0552  2.0774  1.2225
 1966SOL    HW217535   0.666   3.810   7.632 -0.6349 -0.5586  0.4361
 1967SOL     OW17536   1.768   4.092   2.001 -0.6118 -0.4487  0.0505
 1967SOL    HW117537   1.835   4.076   2.067 -1.4336 -0.5134  0.8695
 1967SOL    HW217538   1.829   4.110   1.929 -2.4242  2.6738 -0.7113
 1968SOL     OW17539   0.194   2.363  10.763  0.3795  0.3561 -0.3926
 1968SOL    HW117540   0.277   2.406  10.786  0.7894 -1.3397  1.2534
 1968SOL    HW217541   0.183   2.308  10.840  0.2052 -1.2892 -1.6121
 1969SOL     OW17542   0.672   1.854   0.941  0.1547 -0.4008  0.3761
 1969SOL    HW117543   0.716   1.776   0.908 -0.6941 -0.8412  0.2899
 1969SOL    HW217544   0.641   1.817   1.024 -1.8677 -0.9744 -0.6397
 1970SOL     OW17545   1.464   4.536   7.200  0.3381  0.0022 -0.3337
 1970SOL    HW117546   1.528   4.575   7.141  0.9330  0.0586  0.3464
 1970SOL    HW217547   1.381   4.578   7.180  0.3634  0.5606  0.7422
 1971SOL     OW17548   0.262   3.176  11.395  0.1282 -0.3218  0.4376
 1971SOL    HW117549   0.340   3.232  11.400 -0.0466 -0.2155  2.0561
 1971SOL    HW217550   0.275   3.081  11.393 -0.8026 -0.4296 -0.6010
 1972SOL     OW17551   2.682   1.766   4.611 -0.0723  0.0696 -0.7456
 1972SOL    HW117552   2.622   1.691   4.604  1.7217 -1.6875  3.0456
 1972SOL    HW217553   2.631   1.838   4.574 -0.6434  0.1726  0.2561
 1973SOL     OW17554   4.711   4.270   5.423  0.0844 -0.0412  0.0497
 1973SOL    HW117555   4.687   4.356   5.458  1.1532  0.4587 -0.4479
 1973SOL    HW217556   0.054   4.299   5.373 -1.5431  2.7042 -0.8176
 1974SOL     OW17557   1.425   4.602   2.017 -1.0294  0.0171 -0.4819
 1974SOL    HW117558   1.468   4.576   2.099  1.2178  1.4055 -1.2381
 1974SOL    HW217559   1.334   4.575   2.028 -0.2651 -2.0266  1.0333
 1975SOL     OW17560   4.537   2.503   4.049 -0.3966 -0.1693 -0.1527
 1975SOL    HW117561   4.509   2.450   3.974 -0.0723  0.5806 -0.7898
 1975SOL    HW217562   4.615   2.451   4.067  0.6941  2.4624  2.8058
 1976SOL     OW17563   3.314   1.088  16.194  0.4559 -0.4915  0.5564
 1976SOL    HW117564   3.327   1.138  16.113 -0.5742  0.3519  0.9045
 1976SOL    HW217565   3.286   1.006  16.154  1.4891 -0.4569 -0.2205
 1977SOL     OW17566   0.476   0.764   6.478 -0.2751 -0.0425 -0.1705
 1977SOL    HW117567   0.547   0.809   6.433 -0.9127  0.6769 -0.4660
 1977SOL    HW217568   0.496   0.773   6.571  0.7731 -1.3379 -0.2766
 1978SOL     OW17569   1.128   1.075   6.307  0.5611 -0.1407  0.4936
 1978SOL    HW117570   1.112   1.140   6.376  2.3779  0.4724  0.3379
 1978SOL    HW217571   1.140   0.995   6.359 -0.3468 -1.8724 -1.9930
 1979SOL     OW17572   3.056   2.233   5.806 -0.0459  0.3781  0.1604
 1979SOL    HW117573   3.031   2.265   5.719 -1.1648 -2.0600 -0.4015
 1979SOL    HW217574   2.986   2.169   5.821  1.4348 -1.0758  0.8470
 1980SOL     OW17575   3.985   1.398   8.147 -0.1170 -0.1773  0.0759
 1980SOL    HW117576   3.900   1.355   8.158  0.2447 -0.7519  0.6354
 1980SOL    HW217577   3.958   1.489   8.136  1.6881  0.3195 -0.2424
 1981SOL     OW17578   3.779   3.728   3.752  0.2625 -0.5786 -0.1525
 1981SOL    HW117579   3.810   3.650   3.799  2.1909  1.2320  1.5757
 1981SOL    HW217580   3.852   3.748   3.694  1.2116 -2.1399  0.4878
 1982SOL     OW17581   2.829   1.418   7.530  0.5512  0.0649 -0.1911
 1982SOL    HW117582   2.814   1.420   7.435  4.1707  0.2293 -0.7612
 1982SOL    HW217583   2.804   1.327   7.546 -0.2082  0.0789 -1.3039
 1983SOL     OW17584   3.598   2.387   8.473  0.2135  0.1011 -0.6430
 1983SOL    HW117585   3.569   2.303   8.437  0.6337  0.2427 -1.3157
 1983SOL    HW217586   3.612   2.365   8.565  0.8662  1.7732 -0.3531
 1984SOL     OW17587   1.721   0.674  12.301  0.4253 -0.4248 -0.0599
 1984SOL    HW117588   1.781   0.741  12.333  0.4307  0.2373 -1.4310
 1984SOL    HW217589   1.732   0.693  12.208 -2.5136  1.9778  0.1001
 1985SOL     OW17590   3.799   0.201   7.168  0.0018  0.0930  0.1514
 1985SOL    HW117591   3.836   0.229   7.251 -2.6814  1.0924  1.0285
 1985SOL    HW217592   3.849   0.123   7.142 -0.7084 -0.3003 -0.0724
 1986SOL     OW17593   4.294   1.267   4.617  0.3310  0.4056  0.4481
 1986SOL    HW117594   4.345   1.337   4.578  1.5633 -0.9269 -0.3352
 1986SOL    HW217595   4.209   1.293   4.583  0.2272  0.7357  0.9520
 1987SOL     OW17596   3.835   0.555   5.672  0.2977  0.1842  0.3347
 1987SOL    HW117597   3.844   0.523   5.582 -3.4671 -1.5816  0.5657
 1987SOL    HW217598   3.928   0.553   5.694  0.3175 -4.1157 -0.1898
 1988SOL     OW17599   1.410   3.849   0.422  0.1575  0.2129  0.1094
 1988SOL    HW117600   1.401   3.804   0.338  0.4452 -0.5520  0.4875
 1988SOL    HW217601   1.495   3.889   0.404  0.1804  0.3021  0.4181
 1989SOL     OW17602   0.409   3.348   3.437 -0.4795  0.3414 -0.1741
 1989SOL    HW117603   0.379   3.266   3.477 -1.1600 -0.8141 -3.0679
 1989SOL    HW217604   0.338   3.410   3.457 -2.3446 -0.8112 -3.2057
 1990SOL     OW17605   4.215   3.290  17.354  0.1201  0.1251 -0.1376
 1990SOL    HW117606   4.266   3.217  17.388 -2.2108 -1.3926  0.1370
 1990SOL    HW217607   4.141   3.275  17.413 -0.3302  2.3518 -0.1305
 1991SOL     OW17608   4.328   2.312   6.541  0.4738  0.1343  0.2257
 1991SOL    HW117609   4.234   2.302   6.526  0.4303  1.3699 -0.2938
 1991SOL    HW217610   4.363   2.223   6.549  1.8134  0.5304 -1.2612
 1992SOL     OW17611   2.476   2.769  14.590 -0.1854 -0.3641 -0.1489
 1992SOL    HW117612   2.437   2.852  14.619  0.4948  0.1031 -0.5584
 1992SOL    HW217613   2.458   2.707  14.660  0.8651 -0.4280  0.0654
 1993SOL     OW17614   0.668   3.476   3.880 -0.1151 -0.5931  0.1954
 1993SOL    HW117615   0.748   3.424   3.871  1.2010  1.5273 -0.2955
 1993SOL    HW217616   0.678   3.486   3.974  0.7698  2.5228 -0.2135
 1994SOL     OW17617   2.132   0.543   0.314  0.1560  0.3120 -0.1378
 1994SOL    HW117618   2.226   0.537   0.333  0.0100  2.1895  1.1571
 1994SOL    HW217619   2.132   0.512   0.224  3.1282 -2.1273  0.7243
 1995SOL     OW17620   0.176   0.716   8.443  0.2238  0.4761 -0.3958
 1995SOL    HW117621   0.249   0.659   8.465  1.0686  0.8335 -2.2752
 1995SOL    HW217622   0.192   0.787   8.505 -1.5450  1.4380 -1.0388
 1996SOL     OW17623   0.991   3.505   7.388 -0.8329 -0.2107 -0.0792
 1996SOL    HW117624   0.930   3.433   7.369  2.6900 -2.3428 -3.2249
 1996SOL    HW217625   1.061   3.468   7.335  1.6515 -0.9093  3.7299
 1997SOL     OW17626   1.180   3.034   8.217 -0.1246 -0.1934 -0.0593
 1997SOL    HW117627   1.106   3.014   8.159 -0.3765 -2.5548  1.0607
 1997SOL    HW217628   1.134   3.059   8.298  0.0386 -0.4897  0.1239
 1998SOL     OW17629   3.752   3.778  10.846 -0.1218 -0.1588  0.0894
 1998SOL    HW117630   3.694   3.792  10.921  1.4784 -1.7093  1.6350
 1998SOL    HW217631   3.776   3.686  10.859 -2.1103 -0.5200  1.3292
 1999SOL     OW17632   3.830   4.073  10.413  0.9506  0.6970 -0.2065
 1999SOL    HW117633   3.744   4.103  10.443 -0.4663 -3.3134 -0.3226
 1999SOL    HW217634   3.887   4.147  10.437 -1.0205  1.4114  2.2691
 2000SOL     OW17635   3.247   0.401  15.765 -0.0335  0.7169 -0.4972
 2000SOL    HW117636   3.332   0.369  15.735 -0.3256 -0.1425 -0.4024
 2000SOL    HW217637   3.190   0.357  15.702 -0.6864  0.4640  0.2689
 2001SOL     OW17638   4.483   3.960   4.592 -0.8254  0.1776  0.5940
 2001SOL    HW117639   4.490   3.954   4.687 -0.5532 -1.7067  0.4578
 2001SOL    HW217640   4.408   4.019   4.586  0.6435  2.1921  2.0835
 2002SOL     OW17641   3.242   2.320   6.738  0.6801 -0.0508  0.7203
 2002SOL    HW117642   3.286   2.300   6.821  1.2158 -0.3378  0.3668
 2002SOL    HW217643   3.159   2.278   6.758 -0.8193  2.2601 -0.7003
 2003SOL     OW17644   1.387   4.110  16.625 -0.5654 -0.5671 -0.3836
 2003SOL    HW117645   1.341   4.027  16.637  0.1891 -0.8516  0.4799
 2003SOL    HW217646   1.424   4.094  16.538  0.4179  4.4424 -0.8648
 2004SOL     OW17647   2.348   3.452   5.536  0.0802  0.2790 -0.2878
 2004SOL    HW117648   2.335   3.443   5.631 -2.1862  0.3732 -0.5867
 2004SOL    HW217649   2.258   3.440   5.505  0.2141 -3.6523  0.7041
 2005SOL     OW17650   2.939   1.665   6.565  0.0136 -0.0871  0.3121
 2005SOL    HW117651   2.937   1.582   6.613  2.1271  0.2494  0.9584
 2005SOL    HW217652   2.856   1.705   6.594  1.0217  0.9536  1.7331
 2006SOL     OW17653   0.208   1.050   2.595 -0.3141 -0.6535  0.0226
 2006SOL    HW117654   0.173   1.051   2.506 -0.8010  0.9174  0.2421
 2006SOL    HW217655   0.197   1.139   2.626 -2.2904 -0.6934 -0.5575
 2007SOL     OW17656   1.103   4.647   6.349  0.5228  0.3627 -0.5415
 2007SOL    HW117657   1.189   4.687   6.339  0.9138 -0.5933 -0.9245
 2007SOL    HW217658   1.104   4.586   6.275  1.5153 -0.2258 -0.0429
 2008SOL     OW17659   2.786   1.755   3.717  0.2163 -0.8982 -0.5302
 2008SOL    HW117660   2.695   1.749   3.690  0.0129 -0.4518  0.0605
 2008SOL    HW217661   2.780   1.827   3.779 -0.6172 -2.2256  0.9377
 2009SOL     OW17662   2.900   2.175   7.797 -0.3946  0.8647  0.1446
 2009SOL    HW117663   2.913   2.250   7.740  1.2354  0.5634  0.1199
 2009SOL    HW217664   2.891   2.101   7.737  4.1623 -0.4518  1.0539
 2010SOL     OW17665   1.612   4.451   9.146  0.1583  0.2451  0.1909
 2010SOL    HW117666   1.622   4.362   9.111  0.3865  0.3050  0.1005
 2010SOL    HW217667   1.614   4.507   9.068  0.1503  0.6828  0.5075
 2011SOL     OW17668   3.897   0.165   5.088 -0.9840 -0.2609  0.4454
 2011SOL    HW117669   3.888   0.070   5.102  0.2388 -1.0036 -3.7459
 2011SOL    HW217670   3.992   0.176   5.080 -1.3278  2.4399  0.2378
 2012SOL     OW17671   2.036   3.897  11.614  0.3739  0.4457 -0.2738
 2012SOL    HW117672   2.109   3.850  11.652  0.2813  0.6899  0.2006
 2012SOL    HW217673   2.000   3.945  11.689 -1.2582 -1.6166  0.2576
 2013SOL     OW17674   1.230   1.644  13.810 -0.0547 -0.3054  0.1249
 2013SOL    HW117675   1.172   1.660  13.884  2.0943  1.8594  1.3039
 2013SOL    HW217676   1.181   1.679  13.736  1.2732 -1.1039 -1.1359
 2014SOL     OW17677   3.724   1.364   8.040 -0.2382  0.1019 -0.3161
 2014SOL    HW117678   3.733   1.359   8.135  0.6775 -3.3893 -0.5938
 2014SOL    HW217679   3.632   1.389   8.039  0.0524  1.1822  0.2834
 2015SOL     OW17680   0.635   2.374   4.839  0.1806 -0.4422  0.6902
 2015SOL    HW117681   0.555   2.403   4.883 -0.1681  0.6250 -0.6195
 2015SOL    HW217682   0.698   2.418   4.896  0.1665 -2.7574  2.4601
 2016SOL     OW17683   0.759   0.532   7.315  0.4643  0.2331  0.4458
 2016SOL    HW117684   0.799   0.465   7.260 -0.3145  0.9096 -0.9555
 2016SOL    HW217685   0.791   0.519   7.404  1.7866  1.8650  0.2117
 2017SOL     OW17686   2.296   3.162   8.350  0.0358 -0.1915  0.0353
 2017SOL    HW117687   2.218   3.161   8.295  0.5473 -2.0623 -0.6753
 2017SOL    HW217688   2.300   3.067   8.361 -3.2158 -0.4634 -1.0165
 2018SOL     OW17689   4.082   4.499   5.313 -0.1438  0.4868 -0.4467
 2018SOL    HW117690   4.169   4.521   5.345  0.7602 -1.6273 -1.4819
 2018SOL    HW217691   4.102   4.408   5.292  2.8310  1.3664 -1.3514
 2019SOL     OW17692   0.234   1.138  12.076 -0.4170  0.0645 -0.1960
 2019SOL    HW117693   0.214   1.123  12.168  0.8065  0.2056  0.0842
 2019SOL    HW217694   0.225   1.233  12.067 -1.1415 -0.0462 -0.6626
 2020SOL     OW17695   1.942   1.064   0.227  0.0493  1.2126 -0.3197
 2020SOL    HW117696   2.002   1.014   0.282 -0.9637  0.2438 -0.0898
 2020SOL    HW217697   1.986   1.148   0.213  1.0915  0.4129 -1.8102
 2021SOL     OW17698   4.686   2.345   8.886  0.2319 -0.0195 -0.7779
 2021SOL    HW117699   0.037   2.341   8.931 -0.3523  1.6970  0.4797
 2021SOL    HW217700   4.721   2.323   8.800 -1.6137  1.2456 -1.8539
 2022SOL     OW17701   3.367   0.499   1.929  0.4635 -0.4747 -0.0121
 2022SOL    HW117702   3.401   0.530   2.013  1.8545  1.0601 -1.1302
 2022SOL    HW217703   3.434   0.436   1.900 -1.0882 -0.7458 -3.0104
 2023SOL     OW17704   4.327   0.351   2.194  0.1135  0.2036 -0.6347
 2023SOL    HW117705   4.335   0.436   2.152 -0.7547 -0.3881 -1.9826
 2023SOL    HW217706   4.291   0.369   2.281 -3.6915 -3.2067 -1.5257
 2024SOL     OW17707   3.250   2.662   2.373 -0.3889 -0.0276 -0.2325
 2024SOL    HW117708   3.186   2.613   2.425  1.8879 -1.1905  1.4973
 2024SOL    HW217709   3.303   2.700   2.444  1.6998 -1.0313 -1.2680
 2025SOL     OW17710   1.942   1.729   3.062 -0.3857  0.1053  0.8367
 2025SOL    HW117711   2.027   1.741   3.019 -0.0191 -0.1668  1.4823
 2025SOL    HW217712   1.931   1.818   3.095  1.4472  0.8492 -0.5522
 2026SOL     OW17713   0.021   1.028  13.795 -0.2041 -0.2031  0.1779
 2026SOL    HW117714   0.085   1.066  13.735 -1.1709 -0.6798 -1.1590
 2026SOL    HW217715   0.071   1.007  13.874 -2.1668  0.4712  1.5992
 2027SOL     OW17716   2.922   0.760   6.576  0.3460  0.2082  0.2894
 2027SOL    HW117717   2.998   0.750   6.633  1.3601  0.6965 -0.9597
 2027SOL    HW217718   2.919   0.855   6.580 -0.2850  0.2062 -0.1188
 2028SOL     OW17719   2.112   1.413   0.379  0.6151 -0.4684 -0.0267
 2028SOL    HW117720   2.157   1.492   0.351 -0.0003 -0.7220 -1.7169
 2028SOL    HW217721   2.046   1.410   0.310 -0.5994 -0.8380  1.1485
 2029SOL     OW17722   0.254   1.308   3.041 -0.2636 -0.5363  0.0344
 2029SOL    HW117723   0.240   1.248   2.968  0.3333 -3.3196  2.2121
 2029SOL    HW217724   0.181   1.293   3.101  0.7285 -1.5378  0.9909
 2030SOL     OW17725   0.917   0.806  16.360 -1.0687  0.3759 -0.3697
 2030SOL    HW117726   0.966   0.888  16.371 -0.1903 -0.2927  0.6156
 2030SOL    HW217727   0.882   0.793  16.448  0.7877  2.1662  0.6350
 2031SOL     OW17728   2.467   3.142   4.204  0.0148  0.0828  0.1841
 2031SOL    HW117729   2.562   3.133   4.206 -0.1748 -1.6870  0.8631
 2031SOL    HW217730   2.448   3.132   4.297 -0.7050  0.2792  0.0566
 2032SOL     OW17731   0.286   2.499   5.491 -0.0984 -0.2255 -0.2276
 2032SOL    HW117732   0.205   2.449   5.487 -0.0893 -0.1959 -0.6849
 2032SOL    HW217733   0.248   2.582   5.462  0.5694  0.1945  0.1015
 2033SOL     OW17734   4.296   0.176   3.374  0.1393 -0.3877 -0.4226
 2033SOL    HW117735   4.286   0.251   3.432 -1.2681  2.0824 -3.8857
 2033SOL    HW217736   4.303   0.228   3.294 -2.2744 -0.4454 -0.6522
 2034SOL     OW17737   1.029   3.884   1.237  0.1238 -0.5745  0.1026
 2034SOL    HW117738   1.089   3.833   1.292  1.5624  1.5201  0.4669
 2034SOL    HW217739   0.955   3.897   1.296 -0.0819  1.8011 -0.7183
 2035SOL     OW17740   4.401   1.277  12.010 -0.5387 -0.4920 -0.1274
 2035SOL    HW117741   4.446   1.361  12.004 -0.1454 -0.7122 -0.2826
 2035SOL    HW217742   4.438   1.252  12.095  0.5207  0.1488 -0.4011
 2036SOL     OW17743   4.339   0.708  16.046 -0.8119  0.3389  0.3273
 2036SOL    HW117744   4.308   0.769  16.112 -0.6110  0.8506 -0.0472
 2036SOL    HW217745   4.397   0.649  16.094 -0.6773  0.2582  0.0697
 2037SOL     OW17746   3.430   3.751   7.514 -0.4247  0.1821 -0.2478
 2037SOL    HW117747   3.390   3.838   7.513 -1.0576 -0.1269 -1.3949
 2037SOL    HW217748   3.470   3.738   7.428  0.2158  0.7964 -0.0486
 2038SOL     OW17749   2.721   0.043  11.439  0.3826 -0.0980 -0.1698
 2038SOL    HW117750   2.671   0.068  11.517  1.6075 -2.7548  1.4474
 2038SOL    HW217751   2.669   0.072  11.364 -0.0697  0.7875  0.4896
 2039SOL     OW17752   3.574   2.645  17.003 -1.0050 -0.3754  0.1151
 2039SOL    HW117753   3.635   2.652  16.930 -0.2327 -3.0732  0.4965
 2039SOL    HW217754   3.525   2.723  16.977 -0.5728  0.1386  0.8514
 2040SOL     OW17755   3.340   2.216   5.840  0.0430 -0.6252  0.4763
 2040SOL    HW117756   3.310   2.249   5.925  1.6157 -1.6986  1.4564
 2040SOL    HW217757   3.269   2.155   5.823 -0.7964  0.5390 -0.2031
 2041SOL     OW17758   0.366   4.389   5.444  0.3016 -0.4135 -0.2898
 2041SOL    HW117759   0.310   4.386   5.522 -1.0230  1.1926 -1.1583
 2041SOL    HW217760   0.441   4.354   5.491  0.1665 -0.5149 -0.1489
 2042SOL     OW17761   2.132   2.957   2.440  0.6752  0.1931 -0.2112
 2042SOL    HW117762   2.164   3.042   2.469 -2.0251  0.5563  1.6857
 2042SOL    HW217763   2.171   2.942   2.354 -0.5659  1.5626 -1.0110
 2043SOL     OW17764   3.568   2.158  15.185 -0.1792 -0.0392  0.5849
 2043SOL    HW117765   3.622   2.148  15.107  2.0995 -0.2089  2.1467
 2043SOL    HW217766   3.566   2.253  15.202 -0.6156 -0.2475  1.7449
 2044SOL     OW17767   2.313   3.709   4.569 -0.7879 -0.5794  0.5615
 2044SOL    HW117768   2.385   3.734   4.511 -0.7035  1.7124  1.6564
 2044SOL    HW217769   2.283   3.636   4.516  1.0495 -0.0188 -1.2661
 2045SOL     OW17770   2.578   4.215   8.579  0.5079 -0.3190  0.2690
 2045SOL    HW117771   2.492   4.216   8.536  0.7137  0.1564 -0.1324
 2045SOL    HW217772   2.625   4.237   8.499  0.0389  3.7758  1.1255
 2046SOL     OW17773   1.945   2.913  15.241 -0.1340 -0.0072 -0.2128
 2046SOL    HW117774   1.915   3.000  15.267 -0.7258 -0.0651 -0.7052
 2046SOL    HW217775   1.908   2.863  15.314 -1.7103  0.4230 -0.7242
 2047SOL     OW17776   0.533   0.151   4.746 -0.2084  0.0703  0.0844
 2047SOL    HW117777   0.623   0.181   4.733 -0.3403  1.1170  1.5987
 2047SOL    HW217778   0.514   0.142   4.653  0.2888  1.0073 -0.1129
 2048SOL     OW17779   2.138   2.701   2.226  0.4676 -0.4501 -0.0962
 2048SOL    HW117780   2.075   2.718   2.156  2.1167  3.8739 -0.4820
 2048SOL    HW217781   2.090   2.630   2.270 -0.8161  0.9176  0.7006
 2049SOL     OW17782   4.230   2.762   8.942 -0.4321 -0.1748  0.2281
 2049SOL    HW117783   4.293   2.736   9.009  1.1260 -1.2531 -1.6539
 2049SOL    HW217784   4.145   2.734   8.975 -1.0830  0.1389 -1.1586
 2050SOL     OW17785   1.122   4.209   6.082  0.1464 -0.1405 -0.1301
 2050SOL    HW117786   1.089   4.146   6.018 -0.3119  0.1756 -0.2012
 2050SOL    HW217787   1.087   4.166   6.159 -1.6079 -0.7467 -1.2746
 2051SOL     OW17788   2.282   2.892   8.377 -0.0813  0.1714  0.0629
 2051SOL    HW117789   2.309   2.852   8.294 -1.3135 -1.4407  0.4417
 2051SOL    HW217790   2.315   2.824   8.436 -0.0425 -0.5901 -0.8340
 2052SOL     OW17791   3.066   1.416   5.738  0.0789 -0.3327  0.0263
 2052SOL    HW117792   3.092   1.428   5.829  0.5003 -0.3948 -0.0846
 2052SOL    HW217793   3.095   1.326   5.727  3.2741  0.5980  0.9481
 2053SOL     OW17794   1.471   4.090   8.630  0.4593  0.0725  0.1497
 2053SOL    HW117795   1.411   4.162   8.607  1.4161  0.7770 -0.1385
 2053SOL    HW217796   1.438   4.017   8.577  2.1508  0.4051 -1.3554
 2054SOL     OW17797   4.679   0.928   8.159 -0.1745 -0.1500  0.5467
 2054SOL    HW117798   4.660   0.966   8.073  1.5179  0.5091  0.4532
 2054SOL    HW217799   4.696   0.839   8.128 -1.2049 -0.7070  1.6112
 2055SOL     OW17800   3.294   0.713   9.649 -0.3805 -0.2652  0.4314
 2055SOL    HW117801   3.341   0.785   9.691  0.3522 -0.9732  0.8307
 2055SOL    HW217802   3.204   0.743   9.645 -0.0756  0.4611 -0.8732
 2056SOL     OW17803   4.726   3.671   9.629  0.2301  0.8283 -0.1616
 2056SOL    HW117804   0.022   3.761   9.616  1.4271  0.1200 -2.3829
 2056SOL    HW217805   0.076   3.625   9.619 -0.1493 -0.2423  1.6362
 2057SOL     OW17806   2.968   1.261   0.900  0.1470  0.4561 -0.5096
 2057SOL    HW117807   3.038   1.303   0.951 -0.3342 -1.1811  1.5163
 2057SOL    HW217808   2.928   1.339   0.862 -3.6767 -1.8704 -1.2854
 2058SOL     OW17809   3.710   4.194  10.006  0.1351 -0.1417 -0.5451
 2058SOL    HW117810   3.624   4.231  10.028 -0.5157 -1.3739 -0.9968
 2058SOL    HW217811   3.703   4.107  10.045 -0.9537  1.4550  2.7921
 2059SOL     OW17812   2.503   0.570   4.124  0.1602  0.4561 -0.2424
 2059SOL    HW117813   2.425   0.528   4.162  0.5055  0.7061  0.7441
 2059SOL    HW217814   2.576   0.508   4.124  0.0585  0.3342  0.7190
 2060SOL     OW17815   2.761   4.726   5.602  0.4749  0.1688  0.2627
 2060SOL    HW117816   2.729   0.016   5.515  0.8140  3.0774  0.9341
 2060SOL    HW217817   2.688   4.669   5.627  0.2517 -0.1707 -1.1654
 2061SOL     OW17818   0.762   3.060   7.978 -0.2117 -0.7952 -0.4024
 2061SOL    HW117819   0.701   2.987   7.990 -0.4052 -0.1717  2.3635
 2061SOL    HW217820   0.723   3.104   7.903  1.1425  1.1405  0.0397
 2062SOL     OW17821   0.512   0.967  13.715  0.4629 -0.6211  0.1376
 2062SOL    HW117822   0.470   0.886  13.688 -1.9672  0.9780 -0.9297
 2062SOL    HW217823   0.448   1.005  13.775 -0.2638 -1.2899 -0.2184
 2063SOL     OW17824   1.537   2.699  17.701 -0.3758  0.1966 -0.5843
 2063SOL    HW117825   1.504   2.755   0.039 -0.7899 -1.6134  0.6608
 2063SOL    HW217826   1.529   2.753  17.623 -1.4478 -0.2902 -0.8123
 2064SOL     OW17827   1.132   3.955   0.801 -0.2505  0.0020 -0.5327
 2064SOL    HW117828   1.037   3.951   0.791 -0.2097 -2.0310 -0.0043
 2064SOL    HW217829   1.154   3.898   0.728 -1.8833  1.3474 -2.0900
 2065SOL     OW17830   2.515   0.329   9.656 -0.2836 -0.0603 -1.1236
 2065SOL    HW117831   2.581   0.318   9.587  0.4580  3.1448 -0.9437
 2065SOL    HW217832   2.527   0.422   9.673  1.2983 -0.7004  1.3809
 2066SOL     OW17833   2.010   3.747   5.189  0.5020 -0.5155  0.6150
 2066SOL    HW117834   1.932   3.692   5.192 -0.2107  0.3944 -1.4823
 2066SOL    HW217835   2.046   3.740   5.278 -0.5188  3.2374  1.3520
 2067SOL     OW17836   3.503   3.060   9.543  0.3896 -0.0314 -0.1452
 2067SOL    HW117837   3.470   3.146   9.569 -1.2899 -0.8506  0.4126
 2067SOL    HW217838   3.594   3.079   9.519  0.6528 -0.8919  0.1958
 2068SOL     OW17839   1.518   2.652   5.735  0.3133 -0.1767 -0.0573
 2068SOL    HW117840   1.461   2.599   5.789 -1.3692  1.5667 -0.1039
 2068SOL    HW217841   1.485   2.742   5.744 -0.8700 -0.8244  1.9050
 2069SOL     OW17842   2.672   0.860   2.548 -0.3840 -0.2299 -0.2187
 2069SOL    HW117843   2.719   0.807   2.483  1.1844 -0.2364  0.8929
 2069SOL    HW217844   2.611   0.797   2.586 -2.2109  1.9447  0.4398
 2070SOL     OW17845   0.666   1.348  17.500  0.3032 -0.4830  0.4414
 2070SOL    HW117846   0.630   1.330  17.587 -0.9956  1.6628  0.3512
 2070SOL    HW217847   0.731   1.415  17.523 -1.2466  1.5040 -0.9770
 2071SOL     OW17848   4.265   4.289   7.177 -0.0318 -0.3520  0.3777
 2071SOL    HW117849   4.173   4.313   7.166  0.4950  1.2446 -0.6196
 2071SOL    HW217850   4.256   4.198   7.203  2.6994  0.0330  2.7004
 2072SOL     OW17851   4.506   4.237  15.142  0.4933 -0.1522  0.3110
 2072SOL    HW117852   4.474   4.193  15.221  0.5761  1.6414  1.3224
 2072SOL    HW217853   4.516   4.324  15.179 -0.2403  0.5108 -1.0541
 2073SOL     OW17854   3.381   1.710   2.261 -0.2444  0.0503 -0.2600
 2073SOL    HW117855   3.299   1.754   2.240 -0.1082  0.0516 -0.7830
 2073SOL    HW217856   3.348   1.635   2.311 -0.0058 -0.5352 -0.9797
 2074SOL     OW17857   1.029   2.892  10.345 -0.2482  0.5856  0.0792
 2074SOL    HW117858   0.984   2.920  10.424 -2.1268 -1.9919 -0.0975
 2074SOL    HW217859   1.117   2.929  10.351  0.2371 -0.9716  2.2326
 2075SOL     OW17860   2.897   0.974   8.842 -0.2398 -0.3360  0.4315
 2075SOL    HW117861   2.807   1.004   8.832  0.0074  0.5086  0.7766
 2075SOL    HW217862   2.935   1.047   8.891 -0.5723  1.7579 -2.4108
 2076SOL     OW17863   4.367   0.807   4.113 -0.1700 -0.0279  0.2101
 2076SOL    HW117864   4.390   0.763   4.194  0.4481 -2.6869 -1.4007
 2076SOL    HW217865   4.333   0.734   4.060 -0.2026  0.7202 -0.8119
 2077SOL     OW17866   1.866   4.489   4.088 -0.2885  0.0947  0.2901
 2077SOL    HW117867   1.776   4.509   4.114 -0.1529  0.8157  0.2020
 2077SOL    HW217868   1.900   4.501   4.177 -0.8364  1.5912  0.2930
 2078SOL     OW17869   1.598   4.627   8.941 -0.1367 -0.5481  0.3985
 2078SOL    HW117870   1.554   4.712   8.933 -1.3634 -1.5329 -3.3141
 2078SOL    HW217871   1.677   4.641   8.887 -0.2397  2.4147  1.0100
 2079SOL     OW17872   1.966   0.027   5.283  0.0384  0.3551  0.3906
 2079SOL    HW117873   2.045   0.043   5.334  0.7126 -0.9996 -0.2389
 2079SOL    HW217874   1.903   0.083   5.330  0.9867  0.1332  1.9419
 2080SOL     OW17875   2.488   1.323   3.216  0.1741  0.3053 -0.2432
 2080SOL    HW117876   2.541   1.263   3.162  0.0588 -0.2191  0.2229
 2080SOL    HW217877   2.548   1.398   3.221  0.3917  0.1891 -1.0124
 2081SOL     OW17878   0.907   2.231   7.562 -0.2019 -0.0132  0.0271
 2081SOL    HW117879   0.822   2.251   7.523 -0.1434  0.8101  0.3295
 2081SOL    HW217880   0.935   2.147   7.523 -2.5411 -0.4565 -0.7127
 2082SOL     OW17881   2.180   2.420   1.658  0.3843 -0.3387 -0.6592
 2082SOL    HW117882   2.206   2.510   1.639 -0.4476  0.6173  2.7433
 2082SOL    HW217883   2.134   2.394   1.579 -1.0556 -1.0533  0.4116
 2083SOL     OW17884   1.509   0.194  14.477 -0.3256 -0.3975  0.3587
 2083SOL    HW117885   1.589   0.244  14.491 -0.5083 -0.2499  0.8984
 2083SOL    HW217886   1.538   0.131  14.411  1.0953  1.1135 -0.4625
 2084SOL     OW17887   4.163   4.550   4.464 -0.1332 -0.1528 -0.4000
 2084SOL    HW117888   4.079   4.593   4.480 -1.8799 -3.2154 -1.5368
 2084SOL    HW217889   4.149   4.501   4.383  1.2556 -2.0085  0.4810
 2085SOL     OW17890   1.850   1.966   4.435 -0.1036  0.0630  0.1753
 2085SOL    HW117891   1.888   2.025   4.371  0.8091  1.3995  1.9588
 2085SOL    HW217892   1.769   2.015   4.442  0.2214  0.6831 -0.4214
 2086SOL     OW17893   4.341   3.830   8.874 -0.5313  0.0397 -0.9440
 2086SOL    HW117894   4.274   3.822   8.806 -0.4893 -1.7994 -0.7893
 2086SOL    HW217895   4.313   3.774   8.947  0.2541  1.6545  0.5757
 2087SOL     OW17896   4.531   3.435   2.188 -0.1214  0.2741  0.6260
 2087SOL    HW117897   4.455   3.481   2.152 -2.3555 -1.9026  2.5834
 2087SOL    HW217898   4.528   3.456   2.281 -1.8082  3.4985 -0.1788
 2088SOL     OW17899   3.929   3.736   2.966 -0.4118  0.7446  0.4217
 2088SOL    HW117900   3.906   3.729   3.059  0.2241  2.3431  0.6954
 2088SOL    HW217901   3.848   3.772   2.930 -1.3760  0.8850  2.6956
 2089SOL     OW17902   3.069   3.407   3.340  0.1283 -0.3099 -0.2402
 2089SOL    HW117903   3.042   3.490   3.379  2.4049 -0.0490  0.8064
 2089SOL    HW217904   3.109   3.423   3.254 -0.1858  0.7323 -0.1908
 2090SOL     OW17905   0.438   1.995   7.806  0.1676  0.2422  0.1700
 2090SOL    HW117906   0.513   1.990   7.865  0.3468  1.6230  0.0584
 2090SOL    HW217907   0.367   2.008   7.869  0.3471 -0.9321  0.6166
 2091SOL     OW17908   1.470   4.729   5.828 -0.2736 -0.1033  0.2673
 2091SOL    HW117909   1.420   4.722   5.747 -3.0599 -0.4545  2.0086
 2091SOL    HW217910   1.561   4.717   5.800  0.0468 -3.1339  2.5497
 2092SOL     OW17911   3.256   4.185   6.922  0.2103 -0.1621 -0.6627
 2092SOL    HW117912   3.235   4.112   6.980  1.8922 -1.3919 -1.5710
 2092SOL    HW217913   3.187   4.249   6.930  0.1126 -0.3389 -0.1415
 2093SOL     OW17914   4.324   4.045  12.831  0.2003 -0.1974 -0.3407
 2093SOL    HW117915   4.329   4.116  12.896  2.0177  0.0442 -0.7365
 2093SOL    HW217916   4.330   4.099  12.752  0.8669  0.6602  0.2962
 2094SOL     OW17917   1.628   3.420   5.353 -0.1804  0.3683 -0.3997
 2094SOL    HW117918   1.650   3.478   5.426  2.1798  0.2891 -1.0517
 2094SOL    HW217919   1.533   3.408   5.362 -0.2384  3.4205  2.8602
 2095SOL     OW17920   4.609   0.426   3.281  0.1791 -0.3531 -0.2470
 2095SOL    HW117921   4.546   0.494   3.305  0.1102 -0.5523  0.1335
 2095SOL    HW217922   4.603   0.367   3.357 -1.2983 -1.7873 -1.4604
 2096SOL     OW17923   3.842   3.400   7.298 -0.2437  0.0626  0.2436
 2096SOL    HW117924   3.823   3.398   7.392 -1.2401  3.4830  0.1061
 2096SOL    HW217925   3.934   3.429   7.300 -0.0846 -0.3309 -1.7069
 2097SOL     OW17926   2.196   2.951   7.896  0.2691  0.2248  0.3392
 2097SOL    HW117927   2.155   2.867   7.877  1.0451 -0.5352  2.1031
 2097SOL    HW217928   2.146   3.010   7.838  2.0382  2.1254  0.7557
 2098SOL     OW17929   4.625   2.896  10.101  0.0014  0.3116  0.3026
 2098SOL    HW117930   4.536   2.866  10.085  0.6040  0.6195 -3.4504
 2098SOL    HW217931   4.643   2.864  10.190 -0.1726 -0.8472 -0.0878
 2099SOL     OW17932   4.214   1.138  15.569  0.3787  0.1921  0.1030
 2099SOL    HW117933   4.175   1.066  15.618 -0.8168  2.0004  1.8097
 2099SOL    HW217934   4.138   1.195  15.566  0.0807 -0.4240 -3.2727
 2100SOL     OW17935   3.010   2.374   3.177 -0.1670 -0.3188 -0.2674
 2100SOL    HW117936   2.976   2.463   3.182  1.8173  0.4084  0.2313
 2100SOL    HW217937   3.091   2.379   3.228 -0.4964  0.5850  0.1531
 2101SOL     OW17938   0.203   1.584   4.408 -0.4319  0.3802 -0.5801
 2101SOL    HW117939   0.229   1.621   4.324 -0.7228 -0.8763 -1.2238
 2101SOL    HW217940   0.213   1.491   4.390  2.1252  1.1579 -3.1536
 2102SOL     OW17941   0.593   0.638   3.474  0.1735 -0.2433  0.4704
 2102SOL    HW117942   0.689   0.640   3.462 -0.0219  0.4646 -1.0387
 2102SOL    HW217943   0.585   0.702   3.544 -1.0328 -1.1008  1.1152
 2103SOL     OW17944   2.889   3.962  14.930 -0.5137 -0.4221  0.1229
 2103SOL    HW117945   2.923   3.995  14.847 -0.3015  0.7085  0.6472
 2103SOL    HW217946   2.819   3.902  14.906  0.5900 -0.6532 -2.5030
 2104SOL     OW17947   3.481   1.490   7.971 -0.0470 -0.5344 -0.1583
 2104SOL    HW117948   3.494   1.556   7.903 -0.6155 -0.5205 -0.2469
 2104SOL    HW217949   3.435   1.433   7.910  0.2826 -0.8972 -0.0681
 2105SOL     OW17950   0.349   3.545  16.237 -0.1994  0.2091 -0.2964
 2105SOL    HW117951   0.386   3.631  16.221 -0.0692  0.3695  0.8727
 2105SOL    HW217952   0.267   3.549  16.188 -1.1389  0.7560  1.3082
 2106SOL     OW17953   1.410   1.728   7.566 -0.1100  0.2097  0.5258
 2106SOL    HW117954   1.411   1.798   7.631 -0.1474 -0.0967  0.8616
 2106SOL    HW217955   1.495   1.742   7.523  0.0628 -1.2652  0.3881
 2107SOL     OW17956   2.697   2.799   5.122  0.6027 -0.3557 -0.2359
 2107SOL    HW117957   2.742   2.842   5.195 -0.5555  0.4806 -0.0005
 2107SOL    HW217958   2.616   2.849   5.134  0.3898 -0.7851  0.1182
 2108SOL     OW17959   3.663   1.038   2.464  0.6296  0.4247 -0.0794
 2108SOL    HW117960   3.574   1.005   2.474  0.6967  0.2491 -0.0601
 2108SOL    HW217961   3.707   1.009   2.544 -1.8068  2.7040  2.0850
 2109SOL     OW17962   4.227   4.455   2.469 -0.0877 -0.0964 -0.5769
 2109SOL    HW117963   4.313   4.447   2.427  0.9416  1.5370  1.2692
 2109SOL    HW217964   4.243   4.524   2.533 -1.8805 -1.4796  1.3874
 2110SOL     OW17965   1.054   3.221   6.118 -0.3386 -0.0621  0.2315
 2110SOL    HW117966   0.982   3.264   6.072  1.1049  0.2668 -1.7252
 2110SOL    HW217967   1.075   3.286   6.185  0.1941  0.6922 -0.6734
 2111SOL     OW17968   1.662   3.632   2.598 -0.0105 -0.5180  0.1927
 2111SOL    HW117969   1.659   3.727   2.605  1.1668 -0.5480  1.0520
 2111SOL    HW217970   1.576   3.591   2.606  0.6662 -2.8044 -4.2079
 2112SOL     OW17971   0.517   2.049   4.563 -0.2140 -0.2094 -0.0517
 2112SOL    HW117972   0.455   2.095   4.506 -0.7632  0.2649  0.9169
 2112SOL    HW217973   0.477   1.963   4.576 -1.3680  0.4016  0.4459
 2113SOL     OW17974   0.186   1.082   4.364  0.2892  0.6266  0.0219
 2113SOL    HW117975   0.146   0.996   4.350  2.8896 -0.8132  1.4474
 2113SOL    HW217976   0.280   1.069   4.378 -0.0247 -1.1890  0.4936
 2114SOL     OW17977   0.936   0.029   9.484  0.5108 -0.5024 -0.3018
 2114SOL    HW117978   0.888   0.088   9.426  1.6523 -1.3863 -2.1344
 2114SOL    HW217979   0.878   0.018   9.559 -0.4397  0.2126 -0.9307
 2115SOL     OW17980   2.309   3.159   2.552 -0.1756 -0.3180  0.4539
 2115SOL    HW117981   2.358   3.109   2.618  0.8812 -0.3945 -0.3855
 2115SOL    HW217982   2.275   3.229   2.607  1.5662  0.3368  0.7009
 2116SOL     OW17983   3.480   1.567  15.535 -0.5462 -0.3018  0.4878
 2116SOL    HW117984   3.479   1.542  15.443  2.9470 -1.3380  0.7355
 2116SOL    HW217985   3.560   1.618  15.553 -0.1733 -0.0205 -1.9527
 2117SOL     OW17986   3.845   1.255   6.253  0.0739 -0.7326  0.7269
 2117SOL    HW117987   3.848   1.350   6.240 -0.3437 -1.0905 -2.0810
 2117SOL    HW217988   3.757   1.242   6.217  0.1154 -0.1893  0.4331
 2118SOL     OW17989   3.895   2.249   2.916  0.0745 -0.3385  0.4218
 2118SOL    HW117990   3.802   2.228   2.911  0.3237 -0.9635 -1.6094
 2118SOL    HW217991   3.923   2.249   2.825  2.4233  1.3448  1.1465
 2119SOL     OW17992   3.507   2.108  14.421  0.0662 -0.1436 -0.6037
 2119SOL    HW117993   3.474   2.059  14.346  1.7610 -1.3997 -0.5204
 2119SOL    HW217994   3.593   2.066  14.423  0.9950  1.8403  1.2651
 2120SOL     OW17995   2.417   0.208   2.509  0.4538 -0.2202  0.5996
 2120SOL    HW117996   2.445   0.118   2.524 -2.6214 -1.4115 -0.7681
 2120SOL    HW217997   2.463   0.222   2.427  0.9071 -0.9085  0.7380
 2121SOL     OW17998   3.994   3.776   2.570 -0.1947 -0.0844 -0.4069
 2121SOL    HW117999   3.946   3.848   2.528 -0.4000 -1.0568 -1.8563
 2121SOL    HW218000   4.082   3.812   2.566 -0.1149 -0.2936 -0.5398
 2122SOL     OW18001   1.368   1.323  11.777 -0.2038  0.5695  0.4516
 2122SOL    HW118002   1.436   1.368  11.728 -0.7543  0.8892 -0.0240
 2122SOL    HW218003   1.394   1.233  11.754  0.8505  0.7921  0.7900
 2123SOL     OW18004   1.577   4.133  16.896 -0.0104  0.2986 -0.1839
 2123SOL    HW118005   1.509   4.160  16.958  1.6673  1.2575  1.2356
 2123SOL    HW218006   1.535   4.136  16.810 -1.0189 -0.0379  0.3014
 2124SOL     OW18007   2.645   3.510  10.538  0.3215  0.1194 -0.5046
 2124SOL    HW118008   2.637   3.561  10.619 -0.8098 -0.6034 -0.1548
 2124SOL    HW218009   2.681   3.425  10.562  0.8961  0.4086 -0.3279
 2125SOL     OW18010   3.495   0.213   9.731  0.4968  0.1144 -0.2693
 2125SOL    HW118011   3.507   0.293   9.783  0.9084 -0.0108 -0.1740
 2125SOL    HW218012   3.422   0.169   9.775  1.2969 -0.4771  0.4680
 2126SOL     OW18013   1.781   1.130   2.261  0.2415 -0.2521  0.0240
 2126SOL    HW118014   1.826   1.083   2.190 -0.9268  0.4798 -1.1952
 2126SOL    HW218015   1.795   1.220   2.230  1.0548 -0.6462 -0.7590
 2127SOL     OW18016   2.892   0.595   7.220  0.1500 -0.7343 -0.4392
 2127SOL    HW118017   2.983   0.626   7.223 -0.0129 -0.3302  0.3656
 2127SOL    HW218018   2.903   0.501   7.209 -0.4076 -0.7670 -0.6829
 2128SOL     OW18019   0.017   4.661   9.480 -0.1653 -0.0218  0.4052
 2128SOL    HW118020   4.687   4.733   9.483  1.3452  1.4445 -2.0755
 2128SOL    HW218021   0.012   4.637   9.387 -0.7707  1.5140  0.0321
 2129SOL     OW18022   2.409   0.640   2.977 -0.1278 -0.3017 -0.6316
 2129SOL    HW118023   2.397   0.567   3.038  3.0560 -0.8235 -0.5869
 2129SOL    HW218024   2.335   0.698   2.994  1.9690  2.8424 -2.2755
 2130SOL     OW18025   0.146   3.604  15.178  0.2357  0.0944 -0.0433
 2130SOL    HW118026   0.114   3.620  15.089 -0.9718  2.7775  0.8923
 2130SOL    HW218027   0.170   3.511  15.167  0.9386  0.1353  1.2140
 2131SOL     OW18028   2.773   4.114   7.583  0.3300 -0.2501 -0.0732
 2131SOL    HW118029   2.856   4.143   7.620 -0.0365  1.1483 -0.3125
 2131SOL    HW218030   2.715   4.160   7.644  1.9781  0.6360  0.8076
 2132SOL     OW18031   3.544   1.078   9.831 -0.0368  0.0248 -0.0003
 2132SOL    HW118032   3.457   1.113   9.853  0.5579  2.0777 -0.8564
 2132SOL    HW218033   3.595   1.089   9.912 -0.3620  1.5269  0.0033
 2133SOL     OW18034   1.487   1.722   8.908  0.3240 -0.3391 -0.0196
 2133SOL    HW118035   1.552   1.734   8.839 -1.5791 -0.2390 -1.7824
 2133SOL    HW218036   1.418   1.775   8.868  2.4324  1.3948 -1.3675
 2134SOL     OW18037   1.290   3.387   3.555  0.9375 -0.4540  0.2163
 2134SOL    HW118038   1.211   3.418   3.598  0.7784 -0.0762 -0.3611
 2134SOL    HW218039   1.348   3.385   3.632 -0.3543  0.2403  1.1862
 2135SOL     OW18040   1.574   2.123   4.889 -0.0947 -0.0338  0.1050
 2135SOL    HW118041   1.544   2.149   4.802 -2.3377 -4.6664 -0.4953
 2135SOL    HW218042   1.536   2.035   4.897  0.1364 -0.0473  0.9847
 2136SOL     OW18043   2.399   0.970   8.734 -0.3685  0.0430 -0.2597
 2136SOL    HW118044   2.418   0.877   8.724 -2.3852 -0.0416 -3.5346
 2136SOL    HW218045   2.304   0.968   8.744 -0.0831  2.5877  2.6601
 2137SOL     OW18046   3.912   1.303   7.849 -0.0024 -0.3272 -0.7006
 2137SOL    HW118047   3.946   1.391   7.834  0.0764 -0.4567 -1.2962
 2137SOL    HW218048   3.854   1.318   7.923  0.6738 -1.7458  0.1127
 2138SOL     OW18049   1.007   2.989   2.827  0.1771  0.2011 -0.6022
 2138SOL    HW118050   1.067   2.991   2.752 -0.9897  0.6308 -1.5227
 2138SOL    HW218051   1.069   2.980   2.900  0.5057  2.8162 -0.5639
 2139SOL     OW18052   2.360   4.076   7.952 -0.1078 -0.2907 -0.6474
 2139SOL    HW118053   2.393   4.090   8.041 -1.5381  0.1398 -0.1826
 2139SOL    HW218054   2.334   4.165   7.928  2.2559  0.9984  1.6578
 2140SOL     OW18055   0.945   1.086   0.287 -0.1567 -0.3367 -0.5912
 2140SOL    HW118056   0.966   1.141   0.211  0.2894 -0.2865 -0.4323
 2140SOL    HW218057   1.022   1.092   0.344 -1.1276  1.2931  0.5786
 2141SOL     OW18058   3.732   3.161   0.936  0.2090 -0.2579 -0.0421
 2141SOL    HW118059   3.686   3.125   0.860  0.2000 -1.2200  0.4335
 2141SOL    HW218060   3.695   3.249   0.942  1.6090  0.5495 -2.7219
 2142SOL     OW18061   2.202   1.919   2.770  0.1722 -0.3102  0.1319
 2142SOL    HW118062   2.171   1.968   2.846  0.1115  1.3879 -0.9836
 2142SOL    HW218063   2.227   1.834   2.805  1.1293 -0.5455 -1.1504
 2143SOL     OW18064   3.688   4.697   6.434 -0.3428 -0.2858  0.1998
 2143SOL    HW118065   3.745   0.001   6.502 -2.9722  1.8878  1.2211
 2143SOL    HW218066   3.754   4.650   6.382  0.3250 -0.8142  1.5102
 2144SOL     OW18067   0.495   0.865   6.765  0.2998  0.3072  0.8137
 2144SOL    HW118068   0.482   0.955   6.735  0.0253  0.3948  1.1903
 2144SOL    HW218069   0.534   0.871   6.853  1.6211 -1.8872  0.3801
 2145SOL     OW18070   1.361   4.048   2.342 -0.6513  0.5943 -0.4495
 2145SOL    HW118071   1.304   4.011   2.410  1.6123 -2.7463 -0.4023
 2145SOL    HW218072   1.392   3.969   2.298  1.3467  1.8803 -1.3623
 2146SOL     OW18073   4.413   3.792   0.021  0.0205  0.2579  0.6134
 2146SOL    HW118074   4.432   3.715  17.700 -0.8889  0.7156 -0.3730
 2146SOL    HW218075   4.493   3.844   0.019 -0.5157  1.1488  1.8962
 2147SOL     OW18076   1.513   2.205   6.052 -0.0023  0.0409  0.1825
 2147SOL    HW118077   1.423   2.213   6.020  0.4408 -1.1999 -1.3718
 2147SOL    HW218078   1.548   2.157   5.977  0.5078  1.6621 -0.6170
 2148SOL     OW18079   2.090   1.636   8.610  0.0854 -0.5370 -0.0466
 2148SOL    HW118080   2.185   1.642   8.618 -0.0560 -3.1157  3.4616
 2148SOL    HW218081   2.078   1.636   8.705 -2.1972 -0.2073 -0.3330
 2149SOL     OW18082   2.480   3.726  16.887  0.0354  0.0050 -0.0516
 2149SOL    HW118083   2.548   3.755  16.948  0.0599  0.7550 -0.4428
 2149SOL    HW218084   2.399   3.761  16.923  0.1384 -1.0987  1.2520
 2150SOL     OW18085   3.222   1.823   2.718  0.4391  0.0850  0.5455
 2150SOL    HW118086   3.299   1.823   2.775  0.7122  0.3654  0.1729
 2150SOL    HW218087   3.159   1.812   2.790  0.8158  1.0539  1.0205
 2151SOL     OW18088   0.349   2.802  14.347  0.5111  0.5541  0.1326
 2151SOL    HW118089   0.417   2.734  14.347  0.4555  0.4976 -0.3263
 2151SOL    HW218090   0.341   2.818  14.253  0.7967 -1.6867 -0.2892
 2152SOL     OW18091   4.245   1.181   7.185 -0.2594 -0.4473  0.9193
 2152SOL    HW118092   4.153   1.187   7.211 -0.5067 -1.7406  0.3220
 2152SOL    HW218093   4.263   1.087   7.190  0.5853 -0.2500  1.5287
 2153SOL     OW18094   1.707   2.706   0.384  0.6760  0.5286  0.5114
 2153SOL    HW118095   1.743   2.643   0.322  1.1780  0.8585  0.4692
 2153SOL    HW218096   1.645   2.744   0.321  1.3398  0.4863 -0.1646
 2154SOL     OW18097   3.518   4.550  12.787 -0.2081 -0.1921  0.7267
 2154SOL    HW118098   3.579   4.613  12.825 -0.8150 -0.9486  2.9644
 2154SOL    HW218099   3.538   4.469  12.834 -0.6301  0.9375  2.8159
 2155SOL     OW18100   3.446   4.566   8.173 -0.1428 -0.6852  0.3248
 2155SOL    HW118101   3.482   4.543   8.259 -0.9115 -1.0205  0.5596
 2155SOL    HW218102   3.354   4.586   8.191 -0.2540  0.0619 -1.1201
 2156SOL     OW18103   0.529   1.208   9.513  0.3451 -0.5139 -0.2977
 2156SOL    HW118104   0.552   1.288   9.465 -0.0592  0.6287  1.4084
 2156SOL    HW218105   0.548   1.138   9.451  1.2296  0.4595 -1.1335
 2157SOL     OW18106   1.554   1.438   8.435 -0.3641 -0.9475 -0.4988
 2157SOL    HW118107   1.538   1.498   8.507 -0.2704 -0.1494 -1.1493
 2157SOL    HW218108   1.469   1.393   8.431 -1.2243  0.6243  0.2283
 2158SOL     OW18109   3.449   1.796   2.848  0.1935 -0.1615  0.5002
 2158SOL    HW118110   3.463   1.715   2.897 -1.7471 -0.8115  0.0037
 2158SOL    HW218111   3.530   1.796   2.798 -2.0558  0.3174 -3.1193
 2159SOL     OW18112   4.054   2.523   2.155  0.0741 -0.8745 -0.0054
 2159SOL    HW118113   4.061   2.468   2.077 -0.0331 -0.1078 -0.5471
 2159SOL    HW218114   4.140   2.566   2.149 -0.6789  0.4118 -1.5897
 2160SOL     OW18115   3.612   2.799   4.784 -0.2422 -0.5332 -0.4899
 2160SOL    HW118116   3.694   2.752   4.805 -1.1014 -2.1618 -0.7576
 2160SOL    HW218117   3.584   2.770   4.697  0.7323 -1.0677 -0.6270
 2161SOL     OW18118   2.752   1.301   2.116  0.5467 -0.2639  0.0869
 2161SOL    HW118119   2.833   1.347   2.090 -0.5647  1.3168 -0.6312
 2161SOL    HW218120   2.752   1.223   2.061 -0.3972 -0.4279  0.3275
 2162SOL     OW18121   1.958   3.178   2.656  0.6828  0.1926 -0.1502
 2162SOL    HW118122   1.876   3.187   2.705 -0.2693  0.3800 -1.7388
 2162SOL    HW218123   2.007   3.143   2.730 -0.0837 -2.2012 -0.7767
 2163SOL     OW18124   3.030   0.113   9.873  0.5257  0.7514  0.1158
 2163SOL    HW118125   2.959   0.096   9.811  1.0853 -0.7582 -0.1055
 2163SOL    HW218126   2.999   0.064   9.949 -3.1640  1.7575 -0.7427
 2164SOL     OW18127   2.319   3.363  15.565  0.0411  0.0411 -0.5897
 2164SOL    HW118128   2.293   3.346  15.655  0.6641  0.1497 -0.3908
 2164SOL    HW218129   2.411   3.387  15.570 -0.1105  0.1902  1.4760
 2165SOL     OW18130   3.870   3.015  10.537 -0.3608  0.2881 -0.6245
 2165SOL    HW118131   3.804   3.059  10.590 -1.0877 -1.2206 -0.2698
 2165SOL    HW218132   3.915   2.981  10.613 -0.6216  0.8690 -0.2130
 2166SOL     OW18133   4.299   1.802  17.036  0.0717  0.0333  0.1461
 2166SOL    HW118134   4.217   1.846  17.060  0.6562  0.3063  1.6175
 2166SOL    HW218135   4.262   1.714  17.043  0.8688 -0.1306  2.2081
 2167SOL     OW18136   0.697   2.096  16.489 -0.5167  0.0083 -0.1416
 2167SOL    HW118137   0.762   2.026  16.483 -1.5641 -1.1386  2.1149
 2167SOL    HW218138   0.743   2.162  16.541 -1.6070  0.5378  0.1342
 2168SOL     OW18139   1.553   0.887   8.983  0.2399 -0.3689 -0.0909
 2168SOL    HW118140   1.502   0.966   8.966  1.6999  0.4973 -0.5308
 2168SOL    HW218141   1.566   0.885   9.078 -0.9935 -0.7502  0.0676
 2169SOL     OW18142   1.507   4.588   5.256  0.5602 -0.2657  0.3041
 2169SOL    HW118143   1.536   4.544   5.175  2.7710 -3.1537  2.6819
 2169SOL    HW218144   1.413   4.585   5.241  0.8548  0.6405 -1.7243
 2170SOL     OW18145   2.946   2.896   2.626  0.3371 -0.1280 -0.4993
 2170SOL    HW118146   3.027   2.905   2.676 -0.1683 -0.6936  0.4243
 2170SOL    HW218147   2.906   2.821   2.671 -2.1988  0.6270 -1.4518
 2171SOL     OW18148   0.363   0.109   6.546 -0.1466 -0.2545  0.7703
 2171SOL    HW118149   0.401   0.173   6.487 -2.1796 -0.3259 -0.6141
 2171SOL    HW218150   0.394   0.141   6.631  0.3739  2.7879 -0.5776
 2172SOL     OW18151   1.225   3.758  13.464 -0.3729 -0.0712  0.5048
 2172SOL    HW118152   1.302   3.754  13.521 -0.2749  0.6212  0.4265
 2172SOL    HW218153   1.155   3.719  13.516 -1.1436 -1.0102 -1.2222
 2173SOL     OW18154   2.936   0.545  16.059 -0.2695  0.1050  0.4710
 2173SOL    HW118155   2.882   0.475  16.094 -1.6801  1.6669  1.4088
 2173SOL    HW218156   2.872   0.597  16.010 -0.2694  2.5444  3.0914
 2174SOL     OW18157   3.669   2.178   2.788  0.8057  0.2774  0.0838
 2174SOL    HW118158   3.677   2.264   2.746  0.0508  0.8927  1.2034
 2174SOL    HW218159   3.671   2.121   2.711 -2.7465 -0.2433  0.3618
 2175SOL     OW18160   0.763   4.192   4.361 -0.2199 -0.2155 -0.4218
 2175SOL    HW118161   0.677   4.211   4.323  0.0793  1.1131 -0.4433
 2175SOL    HW218162   0.736   4.189   4.452  0.1683 -1.9111 -0.3676
 2176SOL     OW18163   0.407   3.389   3.900 -0.3786 -0.4449 -0.0113
 2176SOL    HW118164   0.412   3.300   3.864  0.3366  0.1634 -1.4427
 2176SOL    HW218165   0.496   3.417   3.879 -0.6193  2.6182  3.1663
 2177SOL     OW18166   1.994   1.783   0.514  0.2658 -0.2721 -0.0461
 2177SOL    HW118167   2.040   1.774   0.597  1.7365 -1.9257 -1.0330
 2177SOL    HW218168   2.069   1.782   0.454 -0.8984  0.7430 -1.5356
 2178SOL     OW18169   3.217   2.314   6.073  0.1561 -0.1098 -0.0412
 2178SOL    HW118170   3.242   2.252   6.142 -1.1347  1.4804  1.8663
 2178SOL    HW218171   3.128   2.282   6.057 -0.3233  0.5456  1.3500
 2179SOL     OW18172   3.856   2.142   5.175 -0.0924 -0.2703 -0.3389
 2179SOL    HW118173   3.899   2.146   5.261  1.8021 -1.1483 -1.2585
 2179SOL    HW218174   3.916   2.206   5.137  0.1162  0.9249  2.0285
 2180SOL     OW18175   1.887   2.377   8.991  0.0438  0.1698  0.6422
 2180SOL    HW118176   1.882   2.283   9.009 -1.6243  0.1458  0.0829
 2180SOL    HW218177   1.940   2.385   8.912 -2.3462  3.2856 -0.6658
 2181SOL     OW18178   2.052   0.318   2.943 -0.1307 -0.5886  0.6264
 2181SOL    HW118179   1.995   0.394   2.951  0.2235 -0.1225 -1.1314
 2181SOL    HW218180   2.079   0.326   2.851  0.5318  2.1861  1.0613
 2182SOL     OW18181   1.969   1.085   8.254 -0.3968  0.2120  0.1904
 2182SOL    HW118182   1.896   1.147   8.258 -0.7875 -0.0860 -2.2025
 2182SOL    HW218183   1.917   1.011   8.222  0.0676 -0.3418  0.7252
 2183SOL     OW18184   1.698   0.746   1.897 -0.2031  0.6323 -0.3066
 2183SOL    HW118185   1.700   0.750   1.993  0.2694  0.6045 -0.3161
 2183SOL    HW218186   1.615   0.703   1.876  0.5918  0.6750 -3.4870
 2184SOL     OW18187   0.788   0.820   8.131  0.6604 -0.1087 -0.5418
 2184SOL    HW118188   0.761   0.816   8.222 -1.1177 -2.1631 -1.1681
 2184SOL    HW218189   0.794   0.728   8.105 -0.6505 -0.1739 -0.6209
 2185SOL     OW18190   2.797   2.703   5.568  0.7407 -0.2490  0.2128
 2185SOL    HW118191   2.706   2.710   5.542  0.4045 -1.2321  1.1567
 2185SOL    HW218192   2.805   2.714   5.663  0.9445  0.0535  0.1615
 2186SOL     OW18193   4.427   0.522   5.370  0.1318 -0.2805 -0.4701
 2186SOL    HW118194   4.366   0.492   5.303 -1.2156 -0.3721  0.7911
 2186SOL    HW218195   4.403   0.613   5.390 -0.2915 -0.2031 -1.3554
 2187SOL     OW18196   0.412   3.915  10.377  0.1608  0.1879 -0.0863
 2187SOL    HW118197   0.416   3.986  10.312 -1.2757 -1.3082 -1.8205
 2187SOL    HW218198   0.501   3.886  10.356 -0.3224 -0.1431 -1.6680
 2188SOL     OW18199   1.175   4.413   7.066 -0.5498  0.1530 -0.4564
 2188SOL    HW118200   1.193   4.355   6.992  1.5488  0.3784 -0.1212
 2188SOL    HW218201   1.252   4.384   7.115 -0.7723 -1.5549 -1.1181
 2189SOL     OW18202   4.491   1.675  15.909  0.4449  0.5730  0.1481
 2189SOL    HW118203   4.427   1.652  15.976  3.0222 -1.5301  1.9258
 2189SOL    HW218204   4.463   1.624  15.832  2.2042  1.3236 -0.9953
 2190SOL     OW18205   4.355   1.636   2.477 -0.1951 -0.3515 -0.4386
 2190SOL    HW118206   4.350   1.549   2.516 -3.3097  0.0245 -0.0238
 2190SOL    HW218207   4.433   1.624   2.423 -1.2118  0.6497 -2.1370
 2191SOL     OW18208   4.326   1.708   6.019  0.0202 -0.4850 -0.0601
 2191SOL    HW118209   4.308   1.786   5.967  2.3773 -1.3123 -2.1131
 2191SOL    HW218210   4.333   1.748   6.106  0.5791 -0.7286  0.0077
 2192SOL     OW18211   1.292   3.566  17.481  0.2927 -0.0536 -0.4184
 2192SOL    HW118212   1.316   3.655  17.507 -1.0936 -0.0797  0.9292
 2192SOL    HW218213   1.295   3.576  17.386 -0.6613  0.9892 -0.3282
 2193SOL     OW18214   0.490   0.688   4.597 -0.6198  0.1385 -0.2863
 2193SOL    HW118215   0.556   0.743   4.555  0.8094  1.3697  3.6359
 2193SOL    HW218216   0.545   0.618   4.632 -2.5883  0.1582  2.8352
 2194SOL     OW18217   4.429   4.670  13.479 -0.3996 -0.2377  0.2811
 2194SOL    HW118218   4.346   4.680  13.526 -1.9013 -0.4516 -2.3501
 2194SOL    HW218219   4.486   4.662  13.555  0.8183 -0.9080 -0.7094
 2195SOL     OW18220   2.476   2.839   2.691 -0.0718  0.1213  0.2011
 2195SOL    HW118221   2.424   2.806   2.618  0.8206 -0.7553 -0.0342
 2195SOL    HW218222   2.441   2.922   2.721  0.0086  0.3134 -0.2342
 2196SOL     OW18223   1.974   3.961   3.485  0.3948 -0.1370  0.2162
 2196SOL    HW118224   1.957   3.875   3.524  3.6645 -0.3981  1.1300
 2196SOL    HW218225   1.971   3.945   3.390 -0.7233  0.8955  0.0825
 2197SOL     OW18226   1.013   2.020   7.429  0.4093  0.2524 -0.8680
 2197SOL    HW118227   1.059   1.936   7.435  0.6968  0.5829  1.8838
 2197SOL    HW218228   1.035   2.044   7.339  0.2495 -0.4078 -1.0810
 2198SOL     OW18229   4.726   2.254  11.353  0.2313  0.5230 -0.2545
 2198SOL    HW118230   4.688   2.166  11.357 -1.6899  1.3498 -0.5450
 2198SOL    HW218231   0.078   2.244  11.396 -0.2989 -2.1729  0.1611
 2199SOL     OW18232   2.617   0.168   6.347 -0.0312  0.6703 -0.7399
 2199SOL    HW118233   2.590   0.229   6.415 -0.3997 -1.9124  1.3886
 2199SOL    HW218234   2.693   0.213   6.309 -0.5695  0.1898 -2.3996
 2200SOL     OW18235   1.448   1.034   4.504  0.0785 -0.2524 -0.0829
 2200SOL    HW118236   1.536   1.070   4.500  0.6650 -1.6344  0.4173
 2200SOL    HW218237   1.456   0.979   4.583  3.2522 -2.0765 -1.6855
 2201SOL     OW18238   0.246   2.088   2.996  0.1505  0.3822  0.1792
 2201SOL    HW118239   0.208   2.164   3.040  1.0702  1.4282 -0.8565
 2201SOL    HW218240   0.275   2.031   3.067 -0.2657 -2.9160 -2.2999
 2202SOL     OW18241   4.692   1.886   5.517  0.2658 -0.2805 -0.2043
 2202SOL    HW118242   0.034   1.829   5.531 -0.5337 -0.9807  1.2840
 2202SOL    HW218243   4.631   1.824   5.476 -0.3452  0.1014  0.1224
 2203SOL     OW18244   2.739   4.470  12.455 -0.3392  0.1262 -0.3262
 2203SOL    HW118245   2.795   4.545  12.473  0.1242 -0.3520  0.2107
 2203SOL    HW218246   2.651   4.502  12.476  0.4046  0.4837  2.2153
 2204SOL     OW18247   0.658   2.108   6.964  0.0692 -0.5187 -0.2422
 2204SOL    HW118248   0.751   2.126   6.956  0.0932 -1.1097 -1.2562
 2204SOL    HW218249   0.632   2.075   6.878 -1.2982  1.5630 -0.6493
 2205SOL     OW18250   4.601   1.155   5.880  0.2970 -0.2081 -0.2775
 2205SOL    HW118251   4.675   1.097   5.898  1.2840  1.5480  1.3085
 2205SOL    HW218252   4.609   1.213   5.956  0.2329  1.1800 -1.3288
 2206SOL     OW18253   1.636   1.971   3.712 -0.1911  0.2242 -0.3782
 2206SOL    HW118254   1.546   2.001   3.728  0.3547  0.6502  1.8011
 2206SOL    HW218255   1.688   2.046   3.683 -1.6255  0.7755 -1.5332
 2207SOL     OW18256   0.896   2.419   9.117 -0.3052 -0.0912 -0.0100
 2207SOL    HW118257   0.855   2.451   9.036  1.5361  1.5046 -0.3215
 2207SOL    HW218258   0.973   2.476   9.111  0.0237 -0.8174 -2.8701
 2208SOL     OW18259   0.704   0.604   7.937  0.6404 -0.5718 -0.1515
 2208SOL    HW118260   0.780   0.625   7.882  1.3845  1.3406  1.6107
 2208SOL    HW218261   0.644   0.597   7.863  0.3398  0.0863  0.0263
 2209SOL     OW18262   4.281   0.586   4.002 -0.5965  0.0098 -0.3315
 2209SOL    HW118263   4.225   0.531   4.058 -0.1387  0.5888  0.6970
 2209SOL    HW218264   4.336   0.522   3.958 -1.6905 -0.4268 -1.0698
 2210SOL     OW18265   2.434   3.904  12.466  0.2197  0.5364  0.5047
 2210SOL    HW118266   2.424   3.811  12.447 -0.9036  0.5280  1.1512
 2210SOL    HW218267   2.356   3.919  12.520  0.5390  1.8823  0.5983
 2211SOL     OW18268   0.063   1.055   0.278  0.1259  0.1367  0.0288
 2211SOL    HW118269   4.718   1.048   0.333  1.7809 -2.6873  2.0092
 2211SOL    HW218270   0.081   0.963   0.259  1.8975  0.0161  2.1626
 2212SOL     OW18271   0.282   1.065  15.484 -0.4867 -0.3064  0.3793
 2212SOL    HW118272   0.299   1.077  15.390  0.1650 -1.1211  0.3972
 2212SOL    HW218273   0.370   1.028  15.488 -0.5359 -0.4211  0.4030
 2213SOL     OW18274   4.466   1.856   0.875  0.3740  0.0020 -0.0305
 2213SOL    HW118275   4.447   1.941   0.914 -0.2799 -0.7231  1.2106
 2213SOL    HW218276   4.389   1.803   0.897 -0.8371  1.4393 -0.8295
 2214SOL     OW18277   2.064   0.479   3.282  0.3630  0.5087 -0.1316
 2214SOL    HW118278   2.123   0.430   3.339  1.3315 -1.1159 -2.5233
 2214SOL    HW218279   1.980   0.463   3.323  1.3022 -0.1654  1.5025
 2215SOL     OW18280   2.791   2.771  15.940 -0.4233 -0.6402 -0.4243
 2215SOL    HW118281   2.713   2.809  15.979  0.3384 -0.1505  0.6455
 2215SOL    HW218282   2.765   2.769  15.848  1.6927  1.1092 -1.0769
 2216SOL     OW18283   3.706   3.551   0.713 -0.1954  0.8372 -0.0585
 2216SOL    HW118284   3.656   3.532   0.792  0.1863  1.7162  0.3920
 2216SOL    HW218285   3.764   3.475   0.726  0.3217  0.5873 -3.8677
 2217SOL     OW18286   2.824   3.830  11.127  0.4666 -0.0234  0.0038
 2217SOL    HW118287   2.788   3.743  11.112 -1.6239  1.2204 -2.2355
 2217SOL    HW218288   2.745   3.880  11.149  1.4177  0.7551  1.5943
 2218SOL     OW18289   3.469   1.301   3.201  0.1773  0.2461 -0.6549
 2218SOL    HW118290   3.380   1.305   3.234  0.6685 -0.1178  0.7257
 2218SOL    HW218291   3.448   1.260   3.117  0.2354 -0.0431 -0.5293
 2219SOL     OW18292   0.779   2.593   3.233  0.7110 -0.0032 -0.2889
 2219SOL    HW118293   0.811   2.656   3.169  1.5793  1.0620  1.2139
 2219SOL    HW218294   0.751   2.645   3.309  0.1029  0.7876 -1.0609
 2220SOL     OW18295   1.164   1.058  12.408 -0.1959 -0.3068 -0.5336
 2220SOL    HW118296   1.176   0.970  12.373  1.9755 -0.5224  0.7467
 2220SOL    HW218297   1.152   1.112  12.329 -1.8235 -0.7957 -0.6133
 2221SOL     OW18298   0.512   1.837   4.333 -0.1889  0.3127  0.4922
 2221SOL    HW118299   0.592   1.853   4.283  0.0139 -0.6707  0.5022
 2221SOL    HW218300   0.462   1.918   4.327 -1.6736 -0.5628  0.9708
 2222SOL     OW18301   0.234   4.537   4.465  0.0382  0.4667  0.5526
 2222SOL    HW118302   0.328   4.518   4.455 -0.5505 -2.0110 -0.3793
 2222SOL    HW218303   0.231   4.579   4.550 -0.3394  1.0202  0.2646
 2223SOL     OW18304   0.231   1.802  13.480  0.4906  0.4080 -0.1034
 2223SOL    HW118305   0.310   1.768  13.523 -0.7475 -1.4210  0.7115
 2223SOL    HW218306   0.188   1.859  13.543 -0.0912  0.1684 -0.2867
 2224SOL     OW18307   4.732   4.453  16.926 -0.1837  0.2621  0.3362
 2224SOL    HW118308   4.713   4.411  17.010  1.6720  0.0918  0.6763
 2224SOL    HW218309   4.653   4.444  16.873  0.1215  1.3881 -0.3234
 2225SOL     OW18310   1.568   1.140   0.897  0.6400  0.7556 -0.2558
 2225SOL    HW118311   1.511   1.200   0.945 -2.1039  0.2146 -2.8610
 2225SOL    HW218312   1.518   1.124   0.817  1.0429  2.2309 -0.8218
 2226SOL     OW18313   4.097   3.745   4.247  0.5304 -0.1766  0.1843
 2226SOL    HW118314   4.178   3.736   4.197  0.2649 -0.2401 -0.2305
 2226SOL    HW218315   4.042   3.801   4.192  0.1080  0.3622  1.1553
 2227SOL     OW18316   1.602   3.129   5.520  0.4133  0.0727 -0.4558
 2227SOL    HW118317   1.696   3.119   5.504  0.5288  0.5451 -0.0772
 2227SOL    HW218318   1.601   3.187   5.596  2.1576  2.5853 -2.3397
 2228SOL     OW18319   1.523   3.142  12.315 -0.3643 -0.5266  0.3343
 2228SOL    HW118320   1.449   3.196  12.343  0.7558  1.7308 -1.1003
 2228SOL    HW218321   1.505   3.138  12.221 -2.4939  2.3236  0.6081
 2229SOL     OW18322   0.739   2.665   1.051 -0.4735  0.4240 -0.2159
 2229SOL    HW118323   0.728   2.596   1.116 -0.8671 -0.0355 -0.7667
 2229SOL    HW218324   0.684   2.644   0.976 -1.7689  0.7351  0.6500
 2230SOL     OW18325   3.215   2.388  10.755 -0.2517  0.2709  0.4612
 2230SOL    HW118326   3.200   2.359  10.845 -1.1695  0.8912  0.5177
 2230SOL    HW218327   3.222   2.303  10.713 -2.0045  0.7707 -0.8664
 2231SOL     OW18328   2.463   1.469   2.809  0.4552  0.3293 -0.2640
 2231SOL    HW118329   2.530   1.519   2.857 -0.3032  0.3325  0.7946
 2231SOL    HW218330   2.491   1.378   2.818  0.5177  0.2038 -1.7886
 2232SOL     OW18331   2.529   2.270   7.817 -0.2485  0.8057 -0.5344
 2232SOL    HW118332   2.577   2.206   7.764 -0.8470  1.1555 -1.4989
 2232SOL    HW218333   2.590   2.286   7.889 -0.3690  1.2154 -0.5229
 2233SOL     OW18334   4.304   0.260   3.895 -0.1910  0.8540  0.0110
 2233SOL    HW118335   4.306   0.168   3.872 -3.8500  0.4225  1.3461
 2233SOL    HW218336   4.329   0.240   3.985  0.2383 -0.3439 -0.3819
 2234SOL     OW18337   4.480   3.239   7.646 -0.0238  0.3642  0.2414
 2234SOL    HW118338   4.511   3.191   7.570  0.9114  2.6600 -0.8250
 2234SOL    HW218339   4.515   3.326   7.626  0.4187  0.1241 -0.0313
 2235SOL     OW18340   2.389   3.585   8.449 -0.0510 -0.2981 -0.6423
 2235SOL    HW118341   2.359   3.542   8.369 -2.4361 -3.6397  2.0467
 2235SOL    HW218342   2.335   3.535   8.510  1.3313 -0.1314  0.7076
 2236SOL     OW18343   4.699   2.394  15.343  0.0657 -0.1391 -0.4424
 2236SOL    HW118344   0.036   2.337  15.373 -0.1601 -0.3043 -0.2292
 2236SOL    HW218345   4.655   2.342  15.276  0.0228  0.6470 -1.0275
 2237SOL     OW18346   4.565   3.307   1.802 -0.4544 -0.0247 -0.0661
 2237SOL    HW118347   4.606   3.234   1.755 -2.1738 -3.0178  3.1184
 2237SOL    HW218348   4.567   3.278   1.893  0.3918 -0.4204 -0.2120
 2238SOL     OW18349   4.617   0.727   6.871 -0.1265 -0.0361  0.1972
 2238SOL    HW118350   4.669   0.649   6.855  0.7268  0.1149  2.2683
 2238SOL    HW218351   4.667   0.785   6.929 -0.6724  1.6341 -1.0152
 2239SOL     OW18352   4.134   3.925  13.215  0.6644 -0.4582 -0.0794
 2239SOL    HW118353   4.070   3.861  13.248  1.7299 -0.4933  1.9128
 2239SOL    HW218354   4.142   3.912  13.121 -1.4301 -0.5547 -0.2398
 2240SOL     OW18355   1.288   2.606  11.017  0.1786 -0.0961  0.3533
 2240SOL    HW118356   1.356   2.546  10.985  1.2922  1.7411 -0.7146
 2240SOL    HW218357   1.331   2.691  11.027 -0.7266  0.2000  1.6763
 2241SOL     OW18358   4.448   4.341   4.494  0.2322  0.1327  0.2090
 2241SOL    HW118359   4.521   4.307   4.442  1.1205  3.1677 -0.5100
 2241SOL    HW218360   4.491   4.402   4.553 -0.2885  0.3142  0.3924
 2242SOL     OW18361   3.193   1.823  15.152 -0.2762  0.2688  0.5388
 2242SOL    HW118362   3.113   1.876  15.148 -0.3124 -0.0811 -3.3448
 2242SOL    HW218363   3.252   1.889  15.189  0.7514  0.0733 -0.7311
 2243SOL     OW18364   3.390   2.082   6.661  0.0116  0.6264  0.0659
 2243SOL    HW118365   3.305   2.038   6.662  2.0151 -3.2365 -3.8758
 2243SOL    HW218366   3.363   2.163   6.706 -2.2244 -0.2263  0.2418
 2244SOL     OW18367   2.953   2.446   7.687 -0.7822 -0.4022  0.6540
 2244SOL    HW118368   2.910   2.508   7.746 -1.9148 -1.6297  1.1156
 2244SOL    HW218369   2.944   2.485   7.600  1.8413 -1.1363  0.0587
 2245SOL     OW18370   1.477   4.131   5.919 -0.1434  0.0084  0.1310
 2245SOL    HW118371   1.412   4.098   5.858  1.6523 -2.1661 -0.6206
 2245SOL    HW218372   1.435   4.192   5.979 -0.1878 -0.6354  0.7536
 2246SOL     OW18373   0.144   2.741   5.385  0.7676 -0.2550 -0.0854
 2246SOL    HW118374   0.195   2.822   5.380  2.1027 -1.0503  0.5526
 2246SOL    HW218375   0.058   2.755   5.425 -0.2138  0.7779 -2.5472
 2247SOL     OW18376   3.951   2.043  15.651  0.2431 -0.5262  0.2686
 2247SOL    HW118377   4.025   2.080  15.603  1.0435 -1.8606  0.4918
 2247SOL    HW218378   3.922   2.118  15.704 -1.4385 -0.5697 -0.5774
 2248SOL     OW18379   0.514   4.388   2.124  0.1387 -0.6101  0.6496
 2248SOL    HW118380   0.558   4.304   2.137  0.3040 -0.4735  0.9657
 2248SOL    HW218381   0.433   4.360   2.081 -0.2860 -1.0090  1.7118
 2249SOL     OW18382   1.264   2.122   6.848 -0.1949 -0.1287  0.2263
 2249SOL    HW118383   1.195   2.089   6.905 -2.6927  2.4940 -1.2722
 2249SOL    HW218384   1.297   2.195   6.901 -0.2449 -0.3916  0.6124
 2250SOL     OW18385   0.166   2.637   8.167  0.0011  0.4145  0.3120
 2250SOL    HW118386   0.165   2.711   8.228  2.2486  0.1589  0.6723
 2250SOL    HW218387   0.210   2.568   8.215 -2.7638 -0.7102  1.2257
 2251SOL     OW18388   1.726   1.846   1.506 -0.6004 -0.8722  0.3682
 2251SOL    HW118389   1.703   1.765   1.551  0.0010 -0.8310  0.7419
 2251SOL    HW218390   1.812   1.818   1.476 -1.1350 -1.6846 -0.4231
 2252SOL     OW18391   2.162   0.645   3.825  0.8053 -0.0143  0.2506
 2252SOL    HW118392   2.079   0.622   3.867  0.6268 -0.5147 -0.3598
 2252SOL    HW218393   2.126   0.646   3.736  4.5217  2.2957 -1.2098
 2253SOL     OW18394   3.213   1.503  16.652 -0.3661 -0.2434 -0.2548
 2253SOL    HW118395   3.161   1.582  16.666 -0.0347  0.0121 -0.4539
 2253SOL    HW218396   3.144   1.450  16.612  0.1408 -0.5588 -0.7066
 2254SOL     OW18397   1.236   4.144   3.008  0.3253  1.1928 -0.5861
 2254SOL    HW118398   1.188   4.118   3.086  2.1500 -0.0081  0.1180
 2254SOL    HW218399   1.245   4.237   3.031  2.1793  1.4965 -2.5058
 2255SOL     OW18400   4.176   1.879   7.607 -0.6597 -0.2180 -0.1677
 2255SOL    HW118401   4.202   1.918   7.690 -0.7299  0.0159 -0.2560
 2255SOL    HW218402   4.253   1.896   7.552 -1.6736  2.8114 -0.6200
 2256SOL     OW18403   2.084   2.709   7.252 -0.1778 -0.6037 -0.0136
 2256SOL    HW118404   2.057   2.796   7.223 -0.5480 -0.2212  1.5076
 2256SOL    HW218405   2.158   2.695   7.193 -1.1312 -0.5135 -1.2304
 2257SOL     OW18406   0.519   0.892   7.780 -0.2010  0.3127 -0.1822
 2257SOL    HW118407   0.479   0.826   7.836 -0.5085  0.6092 -0.0527
 2257SOL    HW218408   0.532   0.967   7.839  0.3091  0.2851 -0.2584
 2258SOL     OW18409   2.507   0.585   8.400  0.3085  0.0757  0.2507
 2258SOL    HW118410   2.598   0.605   8.424  0.1135  0.8939  0.2815
 2258SOL    HW218411   2.494   0.498   8.439  1.9479  0.9086  2.7058
 2259SOL     OW18412   3.445   0.098   6.438 -0.2497 -0.0967 -0.2607
 2259SOL    HW118413   3.413   0.103   6.347 -2.0765  1.9805  0.4971
 2259SOL    HW218414   3.537   0.072   6.426  0.2830  1.6622 -0.0724
 2260SOL     OW18415   0.834   3.935  11.124  0.2681  0.1027 -0.1873
 2260SOL    HW118416   0.797   3.970  11.043  3.1846  1.1066 -1.0639
 2260SOL    HW218417   0.834   3.843  11.100 -0.6478  0.7004 -2.4416
 2261SOL     OW18418   0.197   2.653   6.852 -0.1346 -0.0418  0.1025
 2261SOL    HW118419   0.169   2.663   6.761  2.4791  2.1214 -0.4633
 2261SOL    HW218420   0.218   2.746   6.866 -0.7688 -0.0942  1.3968
 2262SOL     OW18421   4.493   3.714   9.874  0.3597  0.1889 -0.3715
 2262SOL    HW118422   4.580   3.700   9.912  1.6910  0.1187 -3.4726
 2262SOL    HW218423   4.482   3.809   9.882 -1.0024 -0.1300  1.6130
 2263SOL     OW18424   4.213   2.825  12.060 -0.2339  0.1480 -0.0318
 2263SOL    HW118425   4.162   2.840  11.980 -0.2132  0.2734 -0.0224
 2263SOL    HW218426   4.291   2.783  12.024 -0.7219 -2.2502  1.7430
 2264SOL     OW18427   2.560   2.965  12.693  0.0814 -0.2312 -0.1429
 2264SOL    HW118428   2.619   2.925  12.630 -0.8837 -3.0753  0.7515
 2264SOL    HW218429   2.475   2.981  12.651 -0.3377  0.6145  1.0231
 2265SOL     OW18430   1.315   3.536  16.107  0.3118 -0.3074 -0.3669
 2265SOL    HW118431   1.335   3.473  16.038  3.1462 -2.6957  2.6493
 2265SOL    HW218432   1.303   3.613  16.052  2.5028  2.1109  2.5570
 2266SOL     OW18433   2.561   0.769  13.508 -0.4191  0.1880 -0.3970
 2266SOL    HW118434   2.494   0.725  13.455  0.3664 -2.0658  0.4927
 2266SOL    HW218435   2.618   0.793  13.435 -0.6851 -0.5516 -0.8557
 2267SOL     OW18436   2.523   0.276   3.802 -0.2278  0.7562  0.7980
 2267SOL    HW118437   2.501   0.364   3.834  0.5304  2.0666 -2.2054
 2267SOL    HW218438   2.560   0.309   3.719 -2.1871 -0.3321 -0.4959
 2268SOL     OW18439   2.990   4.666   9.101  0.2348  0.3304  0.0544
 2268SOL    HW118440   2.909   4.683   9.148  0.5558  1.3722  0.2432
 2268SOL    HW218441   2.991   0.007   9.040  1.2915  0.4119  0.1622
 2269SOL     OW18442   2.444   4.340   1.550 -0.2615 -0.8066 -0.1894
 2269SOL    HW118443   2.434   4.248   1.576  0.0553 -0.8791 -0.3195
 2269SOL    HW218444   2.363   4.353   1.500  0.3141 -0.2763 -0.9862
 2270SOL     OW18445   3.130   0.931   5.277 -0.9782 -0.1084  0.7944
 2270SOL    HW118446   3.101   0.861   5.219 -1.0253  0.5409  0.0326
 2270SOL    HW218447   3.117   0.895   5.364  0.0915 -0.9682  0.6085
 2271SOL     OW18448   3.011   1.241  12.293  0.1454 -0.0402 -0.4068
 2271SOL    HW118449   3.049   1.320  12.254  1.5073 -0.6020 -0.2397
 2271SOL    HW218450   3.024   1.175  12.225  0.3532 -0.2825 -0.1349
 2272SOL     OW18451   4.080   4.026   5.212 -0.0043 -0.2371 -0.0903
 2272SOL    HW118452   4.117   4.109   5.242 -2.3110  0.9436 -0.5043
 2272SOL    HW218453   4.129   3.963   5.265  0.7811  0.4227 -0.0289
 2273SOL     OW18454   4.662   1.244  11.220  0.0136  0.2184 -0.1426
 2273SOL    HW118455   0.004   1.234  11.278  0.5344 -0.5046 -0.9360
 2273SOL    HW218456   4.615   1.160  11.222 -0.5831  0.5611  0.0719
 2274SOL     OW18457   2.369   2.322   6.360 -0.3532 -0.5723  0.0720
 2274SOL    HW118458   2.307   2.312   6.289 -1.9165 -0.9369  1.4891
 2274SOL    HW218459   2.354   2.415   6.378  1.0210 -0.6882  1.8946
 2275SOL     OW18460   0.382   1.127   7.273  0.2426 -0.5942 -0.5016
 2275SOL    HW118461   0.468   1.107   7.308  1.2035  1.3551 -1.7313
 2275SOL    HW218462   0.390   1.217   7.240  1.0901 -0.7220 -0.6285
 2276SOL     OW18463   3.780   0.906   6.037  0.0104  0.3094 -0.1478
 2276SOL    HW118464   3.846   0.875   6.100  0.8287  0.7721 -0.7825
 2276SOL    HW218465   3.836   0.968   5.990 -0.1230  0.1920 -0.4620
 2277SOL     OW18466   3.158   0.525   7.210 -0.0064  0.0635  0.3443
 2277SOL    HW118467   3.155   0.536   7.115 -1.0250  0.8709  0.4624
 2277SOL    HW218468   3.250   0.544   7.224 -0.0791  0.9438 -0.3692
 2278SOL     OW18469   1.187   0.178   4.013 -0.2073 -0.3142  0.7921
 2278SOL    HW118470   1.273   0.213   3.988 -0.6248 -0.4838 -0.9089
 2278SOL    HW218471   1.185   0.094   3.968 -0.0337  0.1808 -0.1516
 2279SOL     OW18472   2.307   1.721   3.712  0.1422  0.5350 -0.1941
 2279SOL    HW118473   2.375   1.660   3.682 -0.6341 -0.9138  1.0603
 2279SOL    HW218474   2.228   1.670   3.695 -1.4678  2.2880  2.0330
 2280SOL     OW18475   0.916   2.980  16.141  0.2042  0.0986  0.1687
 2280SOL    HW118476   0.992   3.020  16.099 -0.3560 -1.8746 -2.7438
 2280SOL    HW218477   0.888   3.057  16.191 -0.9865 -0.0749 -0.2265
 2281SOL     OW18478   4.380   3.561  11.205  0.4305  0.2065 -0.2006
 2281SOL    HW118479   4.401   3.528  11.292 -3.9761 -1.0340  0.3734
 2281SOL    HW218480   4.456   3.617  11.190 -0.0937  0.8550 -0.4064
 2282SOL     OW18481   1.534   0.385   0.449 -0.5327 -0.1669 -0.0364
 2282SOL    HW118482   1.498   0.383   0.538  1.8488  1.5991  0.9401
 2282SOL    HW218483   1.505   0.300   0.414 -0.9760  0.2293 -0.6444
 2283SOL     OW18484   4.509   2.227   3.289 -0.3371  0.0211  0.0984
 2283SOL    HW118485   4.569   2.154   3.304 -0.4540  0.5340  3.1950
 2283SOL    HW218486   4.450   2.181   3.230  0.8909  0.3091 -1.3679
 2284SOL     OW18487   4.316   1.059  10.985 -0.5541  0.2289  0.3124
 2284SOL    HW118488   4.269   1.135  10.952  0.5206  0.8432  0.2100
 2284SOL    HW218489   4.269   0.981  10.957  2.9159 -1.5151 -0.6148
 2285SOL     OW18490   3.042   4.379  14.593 -0.0620  0.5004  0.3197
 2285SOL    HW118491   3.061   4.469  14.568  3.8183 -0.3533  0.2418
 2285SOL    HW218492   3.014   4.344  14.509  0.9826  1.3939 -0.3919
 2286SOL     OW18493   0.230   1.696  11.656  0.4010  0.2556 -0.6887
 2286SOL    HW118494   0.300   1.698  11.721  1.1777 -1.0615 -1.4901
 2286SOL    HW218495   0.187   1.617  11.689  0.8919  0.2837  0.0097
 2287SOL     OW18496   1.527   2.854  17.483  0.4522 -0.0668  0.0950
 2287SOL    HW118497   1.603   2.836  17.427 -0.5630  2.9530 -2.2394
 2287SOL    HW218498   1.477   2.919  17.433  0.3390  0.2615  0.6327
 2288SOL     OW18499   0.793   3.379   2.901 -0.3220 -0.4635 -0.6273
 2288SOL    HW118500   0.840   3.323   2.840  0.8819 -0.9940  0.7862
 2288SOL    HW218501   0.784   3.459   2.849  1.5161  0.4694  0.5194
 2289SOL     OW18502   4.355   2.682   8.731 -0.4473  0.2614 -0.2732
 2289SOL    HW118503   4.306   2.709   8.808  1.3987  0.2656  0.9171
 2289SOL    HW218504   4.413   2.626   8.782 -1.2810  0.2280  0.6261
 2290SOL     OW18505   1.699   2.198   1.155  0.1938 -0.2330 -0.2151
 2290SOL    HW118506   1.676   2.269   1.214  0.8189 -1.0952  1.0687
 2290SOL    HW218507   1.672   2.120   1.204 -0.3457  0.4981  0.6325
 2291SOL     OW18508   2.187   0.400   7.198  0.2815 -0.3461 -0.7684
 2291SOL    HW118509   2.231   0.485   7.204  0.5762 -0.6664  1.5768
 2291SOL    HW218510   2.165   0.405   7.105  0.1707  1.3876 -0.6530
 2292SOL     OW18511   1.304   2.662   4.367  0.5267  0.3911 -0.2036
 2292SOL    HW118512   1.284   2.671   4.460 -1.4782  0.5783 -0.6485
 2292SOL    HW218513   1.285   2.751   4.336  1.7727  0.5009 -0.6730
 2293SOL     OW18514   4.559   2.388  11.927  0.1808  0.5410 -0.1979
 2293SOL    HW118515   4.484   2.396  11.868  1.5978 -2.0065 -2.3669
 2293SOL    HW218516   4.618   2.346  11.864 -0.3178  0.3669 -0.5512
 2294SOL     OW18517   1.916   1.995  17.414 -0.0840 -0.1470 -0.7142
 2294SOL    HW118518   1.931   1.908  17.450  1.4912  1.2307  1.9310
 2294SOL    HW218519   1.986   2.007  17.350  0.3177 -1.8702 -0.5773
 2295SOL     OW18520   4.190   2.884   8.509  0.7804  0.3912  0.2439
 2295SOL    HW118521   4.153   2.899   8.422 -1.5255 -1.2715  0.9267
 2295SOL    HW218522   4.110   2.847   8.546  0.6164  0.5421  0.0340
 2296SOL     OW18523   2.522   3.294   0.049  0.2431  0.5840 -0.0958
 2296SOL    HW118524   2.504   3.387   0.039 -1.4754  0.0765 -1.6304
 2296SOL    HW218525   2.582   3.269  17.711 -1.2923 -0.3895 -1.0633
 2297SOL     OW18526   0.960   4.055   2.765 -0.3949  0.4186  0.1234
 2297SOL    HW118527   1.016   3.995   2.813 -1.3677  0.8455  1.7995
 2297SOL    HW218528   0.972   4.139   2.810 -1.8793  0.0412  1.2278
 2298SOL     OW18529   1.903   2.092   5.593  0.3488  0.1858  0.3519
 2298SOL    HW118530   1.878   2.001   5.609 -1.0369  0.6814  1.0440
 2298SOL    HW218531   1.943   2.123   5.674  1.6999 -2.0777  0.5605
 2299SOL     OW18532   1.064   3.436   9.436  0.2883  0.5485 -0.3577
 2299SOL    HW118533   1.099   3.517   9.398 -1.1928  1.4792  0.2640
 2299SOL    HW218534   1.130   3.419   9.503  1.6040  1.5708 -1.3820
 2300SOL     OW18535   3.343   2.619   7.548 -0.4688 -0.5978 -0.1697
 2300SOL    HW118536   3.277   2.672   7.592  1.2997  0.0569  1.7138
 2300SOL    HW218537   3.426   2.649   7.586 -0.6536  0.4667 -0.6210
 2301SOL     OW18538   3.571   1.380   6.317 -0.3520 -0.3028 -0.8154
 2301SOL    HW118539   3.635   1.449   6.297 -1.1261 -0.1797 -2.8103
 2301SOL    HW218540   3.541   1.412   6.402  1.8169 -2.2605  0.6979
 2302SOL     OW18541   4.040   3.319   0.460  0.7800 -0.2186  0.2656
 2302SOL    HW118542   4.066   3.410   0.473 -0.4228  0.0487  0.7831
 2302SOL    HW218543   4.088   3.315   0.377  1.4936  1.6485  0.6011
 2303SOL     OW18544   4.218   2.292  16.735 -0.8894 -0.6298 -0.0267
 2303SOL    HW118545   4.302   2.327  16.704 -0.6019 -0.7962  0.5660
 2303SOL    HW218546   4.249   2.209  16.771  0.0905 -0.2553 -0.0052
 2304SOL     OW18547   3.677   3.081   4.280  0.3082 -0.5018  1.1017
 2304SOL    HW118548   3.701   2.994   4.247 -1.1063 -0.6234  0.4107
 2304SOL    HW218549   3.583   3.078   4.263  0.3500  1.8561  0.4056
 2305SOL     OW18550   2.286   4.252   4.513  0.4435  0.0831  0.2767
 2305SOL    HW118551   2.311   4.343   4.532 -0.6997  1.1064 -3.1386
 2305SOL    HW218552   2.247   4.225   4.596 -2.1223  3.7496  0.2664
 2306SOL     OW18553   0.823   3.584   0.469  0.4886  0.3761 -0.2782
 2306SOL    HW118554   0.831   3.497   0.429 -0.3803 -1.5295  3.7264
 2306SOL    HW218555   0.759   3.578   0.539  1.3622 -0.9187  0.4132
 2307SOL     OW18556   3.407   0.028   2.683  0.0825 -0.5172 -0.1022
 2307SOL    HW118557   3.413   4.705   2.606 -1.1549  0.4485 -0.9034
 2307SOL    HW218558   3.459   4.726   2.756 -2.4428 -2.1439  0.9038
 2308SOL     OW18559   1.982   1.074   8.536  0.2355  0.3246  0.1875
 2308SOL    HW118560   1.897   1.043   8.565 -1.2499  3.2449 -1.1405
 2308SOL    HW218561   1.962   1.098   8.445  1.9495  0.7519 -0.0797
 2309SOL     OW18562   3.704   1.731  12.722  0.4311  0.1754 -0.5746
 2309SOL    HW118563   3.614   1.730  12.756  0.5837 -4.4436 -0.3228
 2309SOL    HW218564   3.744   1.683  12.795  1.9335  2.7109  0.2516
 2310SOL     OW18565   0.925   4.478   6.717  0.2432  0.5112 -0.2154
 2310SOL    HW118566   0.998   4.416   6.713 -0.3875 -0.3787  2.0288
 2310SOL    HW218567   0.911   4.486   6.811  0.6639 -1.4978  0.0298
 2311SOL     OW18568   2.436   0.237   3.167 -0.2477  0.2114  0.2050
 2311SOL    HW118569   2.456   0.238   3.073 -0.8441 -1.6524  0.0570
 2311SOL    HW218570   2.371   0.307   3.172 -0.5484 -0.1909  1.7966
 2312SOL     OW18571   2.948   4.194   8.002  0.9537  0.2530  0.6677
 2312SOL    HW118572   2.955   4.131   7.931 -0.9673  0.3705  0.3687
 2312SOL    HW218573   2.881   4.154   8.057 -0.2265  0.7275 -0.4117
 2313SOL     OW18574   4.449   2.312   2.823  0.3567  0.2447  0.0993
 2313SOL    HW118575   4.379   2.305   2.758 -0.4952 -0.4244  1.0805
 2313SOL    HW218576   4.527   2.278   2.779  1.8854  3.9016 -0.0123
 2314SOL     OW18577   0.753   2.776   5.379  0.3960  0.6394  0.2545
 2314SOL    HW118578   0.698   2.705   5.412  0.0792  0.9128  0.3028
 2314SOL    HW218579   0.757   2.841   5.449  0.6068  0.0103  0.8323
 2315SOL     OW18580   1.666   0.984   4.146  0.2676 -0.3137  0.2307
 2315SOL    HW118581   1.596   1.028   4.194 -2.1855 -0.3288 -3.3452
 2315SOL    HW218582   1.658   1.023   4.059 -0.1407 -2.0251 -0.4982
 2316SOL     OW18583   2.623   1.945   7.134  0.0312 -0.0927 -0.0365
 2316SOL    HW118584   2.705   1.962   7.087  0.9744  0.1277  1.6960
 2316SOL    HW218585   2.568   2.008   7.087 -0.7903 -1.7560 -1.2913
 2317SOL     OW18586   2.122   0.660   8.893  0.5574  0.0840  0.1413
 2317SOL    HW118587   2.041   0.688   8.851 -0.5045 -1.4705  1.1758
 2317SOL    HW218588   2.093   0.603   8.964 -0.2435  0.6269  0.2427
 2318SOL     OW18589   1.654   0.612   7.783  0.7873 -0.3847 -0.3641
 2318SOL    HW118590   1.676   0.556   7.857  2.4312 -0.6000 -1.0026
 2318SOL    HW218591   1.634   0.692   7.832  2.2506  0.1583 -0.6541
 2319SOL     OW18592   4.137   1.105   9.176  0.4309 -0.4030  0.2280
 2319SOL    HW118593   4.069   1.038   9.177 -0.8077  0.8545  0.6797
 2319SOL    HW218594   4.096   1.166   9.237 -2.8701 -0.7334 -1.6338
 2320SOL     OW18595   0.170   2.334   3.577  0.0179  0.3933 -0.5469
 2320SOL    HW118596   0.264   2.318   3.572  0.2935  1.0974  2.3801
 2320SOL    HW218597   0.167   2.391   3.653  1.9670 -0.2843  0.0266
 2321SOL     OW18598   2.353   2.744   1.877  0.1389 -0.0574 -0.2432
 2321SOL    HW118599   2.390   2.685   1.942  1.3547  0.4401 -0.4951
 2321SOL    HW218600   2.291   2.798   1.925  1.6075  1.0243  0.4123
 2322SOL     OW18601   0.153   3.079   9.466  0.6147 -0.2818  0.1282
 2322SOL    HW118602   0.232   3.034   9.493 -0.6285 -2.2997  0.3761
 2322SOL    HW218603   0.119   3.022   9.397 -0.5859 -1.3576  1.6016
 2323SOL     OW18604   1.540   3.794   1.573 -0.1179 -0.5791  0.4430
 2323SOL    HW118605   1.518   3.882   1.603  2.4125  0.0666  0.4007
 2323SOL    HW218606   1.581   3.810   1.488  0.6972  0.0346  0.9567
 2324SOL     OW18607   1.058   2.769   6.805  0.1110  0.3693  0.3075
 2324SOL    HW118608   0.974   2.796   6.842  0.2563 -0.4823  1.2477
 2324SOL    HW218609   1.022   2.742   6.720 -0.9216  1.7311  0.3094
 2325SOL     OW18610   3.326   4.692   8.499 -0.4560  0.3358  0.5684
 2325SOL    HW118611   3.255   4.643   8.459  0.2324  0.0575 -0.3164
 2325SOL    HW218612   3.399   4.631   8.488  0.7188  2.0132 -1.0601
 2326SOL     OW18613   3.791   0.295   2.732 -0.1518  0.4600  0.1248
 2326SOL    HW118614   3.704   0.282   2.694 -0.1580 -0.2348  0.3755
 2326SOL    HW218615   3.788   0.231   2.803 -0.8071 -0.1304 -0.4416
 2327SOL     OW18616   1.518   4.545   4.522 -0.3916  0.8046 -0.6023
 2327SOL    HW118617   1.466   4.499   4.455 -0.1713 -3.5638  2.2023
 2327SOL    HW218618   1.574   4.478   4.561 -0.7776  0.0945 -1.2560
 2328SOL     OW18619   3.590   3.680   8.686  0.3590 -0.0535  0.1718
 2328SOL    HW118620   3.602   3.658   8.779  0.6603 -0.0708  0.1259
 2328SOL    HW218621   3.563   3.592   8.657  2.9275 -1.3250  1.6270
 2329SOL     OW18622   3.274   4.057   0.475 -0.2130 -0.0659 -0.2834
 2329SOL    HW118623   3.207   4.115   0.511 -1.8445 -1.3671 -1.2441
 2329SOL    HW218624   3.261   4.062   0.381 -0.8268 -1.6051 -0.2643
 2330SOL     OW18625   0.113   2.598   2.988 -0.2905 -0.0936  0.3427
 2330SOL    HW118626   0.018   2.608   2.985 -0.1302  1.3063  0.1151
 2330SOL    HW218627   0.133   2.603   2.895 -0.3918  0.3175  0.3460
 2331SOL     OW18628   3.096   0.332   7.562 -0.2003 -0.6533 -0.2519
 2331SOL    HW118629   3.153   0.378   7.624 -1.3016  1.6649 -0.9882
 2331SOL    HW218630   3.020   0.310   7.616 -0.3129 -0.3478 -0.2898
 2332SOL     OW18631   2.912   0.506   3.964  0.0895  0.4004  0.2603
 2332SOL    HW118632   2.992   0.455   3.953  0.6161  0.8104  2.0618
 2332SOL    HW218633   2.858   0.500   3.886 -1.8700  0.8492  1.5860
 2333SOL     OW18634   0.930   0.295   7.214  0.0095  0.0532 -0.0918
 2333SOL    HW118635   0.950   0.251   7.296 -0.6307  0.6790  0.3936
 2333SOL    HW218636   0.890   0.221   7.167  0.2777 -0.5534  0.6284
 2334SOL     OW18637   3.663   4.241  14.126 -0.2540  0.0807 -0.0877
 2334SOL    HW118638   3.711   4.283  14.198 -1.8834 -0.4298  1.2936
 2334SOL    HW218639   3.715   4.275  14.054 -0.7226  1.3175  0.1530
 2335SOL     OW18640   0.901   0.812   4.804 -0.7788  0.2204 -0.2305
 2335SOL    HW118641   0.882   0.819   4.898  0.4940 -2.6152  0.2507
 2335SOL    HW218642   0.849   0.739   4.771  1.9141 -1.6697 -0.2976
 2336SOL     OW18643   3.643   4.063   6.926 -0.6096  0.1600  0.3644
 2336SOL    HW118644   3.643   3.969   6.905 -0.7286  0.1465  0.4272
 2336SOL    HW218645   3.558   4.065   6.969 -0.5056 -1.0668  0.6529
 2337SOL     OW18646   3.260   0.792  15.097  0.2277 -0.5873 -0.6188
 2337SOL    HW118647   3.271   0.849  15.172 -2.6872 -0.9006  0.0529
 2337SOL    HW218648   3.248   0.710  15.145  2.8825 -0.3265  0.4900
 2338SOL     OW18649   3.115   0.377   2.819  0.3014 -0.0248 -0.0005
 2338SOL    HW118650   3.106   0.343   2.729  0.3600 -0.7482  0.2633
 2338SOL    HW218651   3.103   0.294   2.865 -1.1114 -0.5484 -1.2988
 2339SOL     OW18652   1.878   4.499   3.314 -0.9061  0.4653  0.2581
 2339SOL    HW118653   1.868   4.590   3.343 -0.5563 -0.4626  3.2659
 2339SOL    HW218654   1.944   4.507   3.245 -2.0434  0.4099 -0.8296
 2340SOL     OW18655   1.046   4.153  16.726  0.2838  0.1449  0.0242
 2340SOL    HW118656   1.065   4.071  16.773  1.2817 -0.1726 -0.9437
 2340SOL    HW218657   1.072   4.130  16.637  1.2913  4.2449 -0.7160
 2341SOL     OW18658   1.518   0.540  16.933 -0.2632  1.1248 -0.2083
 2341SOL    HW118659   1.467   0.534  16.852 -0.3069  0.1211 -0.1067
 2341SOL    HW218660   1.449   0.577  16.989 -0.2937  1.7859 -0.6875
 2342SOL     OW18661   1.059   0.905  16.640 -0.1740  0.4099 -0.1342
 2342SOL    HW118662   1.137   0.856  16.664 -1.3337 -1.4378 -0.1659
 2342SOL    HW218663   1.043   0.965  16.714 -2.6839  0.1769 -0.4668
 2343SOL     OW18664   2.903   1.936   0.362  0.0406 -0.2401  0.6280
 2343SOL    HW118665   2.884   1.976   0.277  0.0334  1.8942  1.6229
 2343SOL    HW218666   2.952   1.859   0.333 -2.0593 -1.2871 -0.0788
 2344SOL     OW18667   4.336   4.355   8.111 -0.8308 -0.2642  0.0401
 2344SOL    HW118668   4.326   4.450   8.102  2.9775  0.2565  0.9584
 2344SOL    HW218669   4.261   4.329   8.163 -1.6227 -1.6191 -1.7674
 2345SOL     OW18670   0.082   0.841   2.156  0.0957  0.1116  0.1476
 2345SOL    HW118671   0.160   0.871   2.203  0.9762 -1.7340 -0.1308
 2345SOL    HW218672   0.036   0.797   2.227 -0.3609 -1.1538 -0.9305
 2346SOL     OW18673   3.364   0.017  15.791 -0.2974 -0.2998 -0.0961
 2346SOL    HW118674   3.286   0.072  15.782  0.2382  0.2747 -1.2755
 2346SOL    HW218675   3.391   0.024  15.699  0.1268  0.2921  0.0720
 2347SOL     OW18676   0.915   1.344   7.527  0.2644  0.0966 -0.2069
 2347SOL    HW118677   0.924   1.284   7.453  1.5705  0.2720 -0.1856
 2347SOL    HW218678   0.969   1.419   7.503 -0.3646  1.0230  1.2516
 2348SOL     OW18679   3.127   1.116   9.096 -0.0749  0.3281 -0.8266
 2348SOL    HW118680   3.185   1.151   9.164 -1.2863 -1.0604  0.9192
 2348SOL    HW218681   3.195   1.083   9.038 -1.6339 -0.0635 -2.4429
 2349SOL     OW18682   0.235   3.837  14.563  0.7455  0.4158 -0.1194
 2349SOL    HW118683   0.310   3.876  14.608  1.2142  0.5515 -1.0011
 2349SOL    HW218684   0.240   3.880  14.477 -2.4168 -1.0006 -0.9965
 2350SOL     OW18685   4.031   1.580   7.399 -0.1672  0.1337 -0.3650
 2350SOL    HW118686   4.050   1.529   7.477 -0.6181 -1.4689 -1.3017
 2350SOL    HW218687   4.112   1.568   7.349  0.2361 -1.6206  0.7349
 2351SOL     OW18688   1.173   2.112  16.045  0.1114  0.2724 -0.0826
 2351SOL    HW118689   1.186   2.195  16.000  0.4763  1.1691  1.6904
 2351SOL    HW218690   1.180   2.133  16.138  3.5956 -1.1834 -0.0021
 2352SOL     OW18691   2.286   0.917   8.410  0.0929  0.5214  0.3660
 2352SOL    HW118692   2.213   0.855   8.407  0.0389  0.6938 -1.5738
 2352SOL    HW218693   2.234   0.996   8.399  2.2006  2.1105  2.0560
 2353SOL     OW18694   1.465   0.193   8.325  0.2905 -0.5142 -0.7957
 2353SOL    HW118695   1.413   0.264   8.289  0.5924  0.7033  1.1432
 2353SOL    HW218696   1.411   0.182   8.403 -0.1213 -0.7348 -1.1098
 2354SOL     OW18697   1.919   2.826   2.074  0.0543  0.0184  0.2660
 2354SOL    HW118698   1.927   2.918   2.048  0.3421 -0.5225 -1.6050
 2354SOL    HW218699   1.900   2.837   2.167 -1.2139 -0.2769  0.0440
 2355SOL     OW18700   0.179   1.955  12.320  0.8036 -0.1370 -0.0898
 2355SOL    HW118701   0.188   2.025  12.385  0.3189 -0.1029 -0.0577
 2355SOL    HW218702   0.101   1.904  12.344  1.0100 -0.2844  0.2698
 2356SOL     OW18703   1.241   4.112   3.841  0.0692 -0.4440 -0.5445
 2356SOL    HW118704   1.306   4.042   3.850 -0.7447 -1.3139 -1.4105
 2356SOL    HW218705   1.168   4.071   3.888  0.0248  0.7383  0.4132
 2357SOL     OW18706   1.873   0.441   1.819 -0.4509  0.5547 -0.2546
 2357SOL    HW118707   1.841   0.487   1.742  0.2679  0.8209 -0.3986
 2357SOL    HW218708   1.961   0.408   1.802 -0.3472  0.6246  0.1373
 2358SOL     OW18709   0.469   0.723   9.030  0.4396  0.0029 -0.6055
 2358SOL    HW118710   0.411   0.702   8.956 -0.9842 -0.9077  0.7765
 2358SOL    HW218711   0.448   0.650   9.088 -2.3972  0.6381 -0.8305
 2359SOL     OW18712   2.889   0.185   1.592  0.3139 -0.0191  0.0991
 2359SOL    HW118713   2.878   0.279   1.576 -1.4046 -0.6639 -2.4684
 2359SOL    HW218714   2.804   0.165   1.633 -0.2607  3.6265  0.6682
 2360SOL     OW18715   0.323   3.296   8.129 -0.2206  0.2693 -0.0363
 2360SOL    HW118716   0.325   3.251   8.214 -1.4770 -2.7371 -1.6080
 2360SOL    HW218717   0.344   3.220   8.074  1.4388  0.2895  0.5538
 2361SOL     OW18718   2.193   0.363   1.507 -0.4907 -0.4220  0.2961
 2361SOL    HW118719   2.200   0.392   1.598 -0.7909  0.8907 -0.0916
 2361SOL    HW218720   2.123   0.298   1.507 -0.6216 -0.2677  2.1462
 2362SOL     OW18721   0.672   0.025   3.732 -0.5779 -0.2181 -0.1300
 2362SOL    HW118722   0.596   0.074   3.763 -1.2582 -1.4638  0.2130
 2362SOL    HW218723   0.632   4.678   3.697 -1.7588 -0.3192  1.4396
 2363SOL     OW18724   0.281   0.030   7.118 -0.3481 -0.0368 -0.4216
 2363SOL    HW118725   0.340   4.688   7.121 -2.8749 -2.0658 -1.2145
 2363SOL    HW218726   0.266   0.045   7.212  1.3021 -1.1768  0.0201
 2364SOL     OW18727   2.765   2.918  14.653 -0.0273 -0.1619  0.2568
 2364SOL    HW118728   2.695   2.908  14.719 -1.8686 -3.3262 -2.2211
 2364SOL    HW218729   2.733   2.858  14.586  1.6126 -0.5210 -0.1894
 2365SOL     OW18730   2.425   3.819   7.839 -0.2668 -0.1997 -0.4478
 2365SOL    HW118731   2.387   3.889   7.892  1.0707  1.1596 -1.3115
 2365SOL    HW218732   2.387   3.740   7.879 -1.4806 -0.0770 -1.3781
 2366SOL     OW18733   1.187   1.526   8.398 -0.0518 -0.2500  0.2840
 2366SOL    HW118734   1.162   1.442   8.436 -1.6047 -0.8890 -2.1300
 2366SOL    HW218735   1.218   1.495   8.313 -0.4472  0.8921 -0.2791
 2367SOL     OW18736   3.931   2.729   2.587 -1.0586  0.2089  0.4619
 2367SOL    HW118737   3.956   2.636   2.592 -0.8464  0.1576 -1.4908
 2367SOL    HW218738   3.940   2.740   2.492  0.3081 -1.6537  0.3634
 2368SOL     OW18739   2.115   1.875   6.089 -0.4882  0.2226 -0.0306
 2368SOL    HW118740   2.188   1.920   6.046  0.6308  0.2303  1.8715
 2368SOL    HW218741   2.166   1.839   6.162  1.3688  1.1901 -0.8369
 2369SOL     OW18742   4.654   4.298   3.986  0.1843 -0.4785 -0.6747
 2369SOL    HW118743   4.560   4.277   3.985 -0.0756  0.5790  1.3849
 2369SOL    HW218744   4.694   4.213   3.999  2.0895  0.6318  0.5887
 2370SOL     OW18745   2.867   0.109  13.538 -0.4715 -0.1563  0.5961
 2370SOL    HW118746   2.826   0.069  13.615  2.5235 -0.4754  2.0134
 2370SOL    HW218747   2.954   0.113  13.576 -0.2849  1.6373 -0.0293
 2371SOL     OW18748   4.000   3.182   3.001 -0.1223  0.0123  0.0921
 2371SOL    HW118749   3.999   3.179   2.905 -1.8520 -0.7656  0.1406
 2371SOL    HW218750   3.923   3.129   3.022  0.7275 -0.6003  1.6642
 2372SOL     OW18751   2.515   0.111   3.453 -0.2389 -0.1756 -0.2982
 2372SOL    HW118752   2.587   0.138   3.510 -0.5727  1.3862 -0.6335
 2372SOL    HW218753   2.523   0.175   3.383  0.5055 -0.4690 -0.4810
 2373SOL     OW18754   3.580   4.652   6.814  0.2709  0.6270 -0.0428
 2373SOL    HW118755   3.639   4.628   6.885 -1.1973 -0.9017  0.6456
 2373SOL    HW218756   3.634   4.716   6.767  0.6032  0.6985  0.4411
 2374SOL     OW18757   3.940   1.833   7.440 -0.5464  0.0422  0.0236
 2374SOL    HW118758   3.966   1.745   7.415 -0.7488 -0.4216  1.4958
 2374SOL    HW218759   4.020   1.871   7.475  0.4551 -2.5698  0.5298
 2375SOL     OW18760   1.283   0.517   8.837 -0.3793  0.7641 -0.5423
 2375SOL    HW118761   1.283   0.595   8.892  1.0649  0.6166 -0.3480
 2375SOL    HW218762   1.292   0.448   8.903  0.5590  1.0553 -0.3738
 2376SOL     OW18763   4.217   0.891   2.210 -0.9096 -0.4061 -0.9408
 2376SOL    HW118764   4.144   0.838   2.179 -2.6540  1.6672 -0.3699
 2376SOL    HW218765   4.268   0.826   2.258  0.2896  1.7583  0.7340
 2377SOL     OW18766   0.188   3.104   1.918  0.3765  0.3689 -0.1096
 2377SOL    HW118767   0.110   3.159   1.902 -1.4419 -1.6593  1.8278
 2377SOL    HW218768   0.246   3.157   1.972  0.1908  0.1389  0.3126
 2378SOL     OW18769   3.952   3.927   7.521 -0.0480  0.6109 -0.3129
 2378SOL    HW118770   3.879   3.891   7.571  0.1828  1.6488  0.7673
 2378SOL    HW218771   3.928   3.899   7.432  0.8926  1.3480 -0.8066
 2379SOL     OW18772   0.200   3.981   4.263  0.2432 -0.4936  0.5420
 2379SOL    HW118773   0.251   4.060   4.245  0.4558 -0.6433  0.4897
 2379SOL    HW218774   0.195   3.977   4.358 -0.9057  0.0372  0.5014
 2380SOL     OW18775   0.689   3.952   5.773 -0.0297  0.1131 -0.6042
 2380SOL    HW118776   0.699   3.857   5.770  0.6011  0.2061 -1.9661
 2380SOL    HW218777   0.620   3.963   5.707 -0.0377  1.5524 -0.3591
 2381SOL     OW18778   1.279   3.863   6.183  0.4471  0.0286  0.1292
 2381SOL    HW118779   1.234   3.826   6.260 -0.6903 -0.7831 -0.9256
 2381SOL    HW218780   1.356   3.906   6.221  0.7069  0.5230 -0.9800
 2382SOL     OW18781   1.963   1.984   2.383 -0.1463  0.0233 -0.1858
 2382SOL    HW118782   1.906   1.909   2.369 -1.5385  1.5282 -2.4326
 2382SOL    HW218783   1.919   2.025   2.458 -1.5049 -0.2004 -0.8591
 2383SOL     OW18784   0.463   3.762   6.886 -0.2622  0.2291  0.0765
 2383SOL    HW118785   0.486   3.771   6.979  0.6617 -1.5640  0.0208
 2383SOL    HW218786   0.448   3.667   6.880  0.8959  0.0802 -0.4446
 2384SOL     OW18787   0.185   1.247  13.641  0.7097 -0.2200 -0.2240
 2384SOL    HW118788   0.258   1.240  13.704  1.1957  0.7191 -0.6852
 2384SOL    HW218789   0.202   1.167  13.593  1.1152  0.6471 -1.5284
 2385SOL     OW18790   2.149   2.498   8.358  0.0296 -0.3612 -0.2133
 2385SOL    HW118791   2.087   2.556   8.313 -0.6095 -1.2592 -0.4825
 2385SOL    HW218792   2.102   2.416   8.365 -2.4125  0.8850 -1.7576
 2386SOL     OW18793   3.539   1.961  17.644  0.3201  0.2959 -0.2034
 2386SOL    HW118794   3.507   1.916  17.566 -1.9909  2.1434 -0.3018
 2386SOL    HW218795   3.620   2.005  17.617  1.7306 -1.8098  0.6691
 2387SOL     OW18796   4.428   3.726   7.131  0.1754 -0.0064  0.3025
 2387SOL    HW118797   4.336   3.701   7.138 -0.1512  1.2084  0.3663
 2387SOL    HW218798   4.432   3.783   7.208  0.1855  1.1430 -0.5399
 2388SOL     OW18799   3.128   0.247   7.309  0.3217  0.2177  0.0479
 2388SOL    HW118800   3.129   0.271   7.401 -0.5675  1.1020 -0.1726
 2388SOL    HW218801   3.180   0.310   7.257 -0.2725 -0.1745 -1.0254
 2389SOL     OW18802   4.204   4.460   3.917 -0.4342 -0.4018  0.1753
 2389SOL    HW118803   4.166   4.377   3.947 -1.2041 -0.0819  0.0774
 2389SOL    HW218804   4.173   4.464   3.826  1.9155  0.2384 -0.5875
 2390SOL     OW18805   4.327   0.949   3.882  0.1556  0.5972  0.4291
 2390SOL    HW118806   4.349   0.919   3.970  0.0560 -0.0290  0.2449
 2390SOL    HW218807   4.234   0.972   3.885 -0.1679 -0.5335 -0.6390
 2391SOL     OW18808   2.225   4.002   3.232 -0.6758 -0.0452  0.4612
 2391SOL    HW118809   2.225   4.067   3.162  0.9217 -1.2720 -0.6736
 2391SOL    HW218810   2.223   4.061   3.307  0.1892 -1.7106  1.7813
 2392SOL     OW18811   1.116   3.432   6.240 -0.1859 -0.6207 -0.5873
 2392SOL    HW118812   1.134   3.512   6.190  2.2177  0.1594  1.5114
 2392SOL    HW218813   1.198   3.430   6.289 -1.1637 -0.7761  1.0414
 2393SOL     OW18814   1.991   4.668   5.012 -0.1418 -0.0983 -0.4228
 2393SOL    HW118815   1.964   4.701   5.098  0.3780  0.3667 -0.4404
 2393SOL    HW218816   2.086   4.669   5.024  0.0061 -1.2466 -1.4760
 2394SOL     OW18817   1.033   2.055   8.680  0.5375 -0.1856  0.3880
 2394SOL    HW118818   1.065   2.096   8.761  1.3664 -3.3121  1.6632
 2394SOL    HW218819   1.037   1.969   8.723 -2.6028  0.0219  1.0925
 2395SOL     OW18820   0.333   1.879   0.061  1.0096 -0.3453 -0.2801
 2395SOL    HW118821   0.333   1.949   0.126  0.2677  0.1710 -0.8307
 2395SOL    HW218822   0.284   1.814   0.112 -2.1892  0.7156 -1.9921
 2396SOL     OW18823   2.462   0.599  14.969 -0.4656 -0.3855 -1.2082
 2396SOL    HW118824   2.397   0.610  14.900  0.0131  1.2319 -1.4104
 2396SOL    HW218825   2.451   0.671  15.031  1.9024  1.7732 -3.2703
 2397SOL     OW18826   2.639   1.550   1.509 -0.3852 -0.0425 -0.5784
 2397SOL    HW118827   2.719   1.566   1.558 -2.6565  2.7352  2.2237
 2397SOL    HW218828   2.575   1.598   1.562  0.2733  2.1324 -1.7713
 2398SOL     OW18829   0.824   4.088   5.103 -0.2397  0.5890  0.6355
 2398SOL    HW118830   0.771   4.108   5.180 -0.2272  1.4869  0.4135
 2398SOL    HW218831   0.802   3.996   5.089 -0.3183  0.5106  1.2791
 2399SOL     OW18832   4.128   0.453  17.317 -0.3006  0.5138  0.2696
 2399SOL    HW118833   4.149   0.367  17.356  0.3607  0.7174  0.3704
 2399SOL    HW218834   4.211   0.495  17.292 -0.1577  0.3852  0.5226
 2400SOL     OW18835   3.162   2.465   3.898  0.0137  0.6369  0.4016
 2400SOL    HW118836   3.139   2.502   3.813 -2.8151  0.9139  1.2920
 2400SOL    HW218837   3.248   2.432   3.871 -1.3097 -2.2521 -0.3116
 2401SOL     OW18838   2.536   3.756   7.596  0.2427  0.4509 -0.4019
 2401SOL    HW118839   2.620   3.787   7.631  1.0749 -0.1517 -1.8471
 2401SOL    HW218840   2.476   3.798   7.657  0.6225  0.3591  0.0297
 2402SOL     OW18841   3.095   1.502   7.474  0.8422  0.3707  0.6988
 2402SOL    HW118842   3.112   1.437   7.405  2.3422  0.6617  0.7944
 2402SOL    HW218843   3.025   1.470   7.531 -1.3220  0.4367 -1.8743
 2403SOL     OW18844   1.206   2.070  11.278 -0.4945 -0.0230 -0.8067
 2403SOL    HW118845   1.250   1.986  11.274 -1.8931 -0.6654 -2.8409
 2403SOL    HW218846   1.277   2.130  11.255 -0.2567  0.5890  1.5013
 2404SOL     OW18847   3.302   2.209   1.732  0.0458 -0.3810 -0.0020
 2404SOL    HW118848   3.335   2.139   1.675  0.7099  0.5760 -0.7939
 2404SOL    HW218849   3.320   2.174   1.819  1.3268  1.3804  0.4255
 2405SOL     OW18850   2.330   2.821   8.103 -0.7494  0.5721 -0.0412
 2405SOL    HW118851   2.293   2.889   8.047  0.6849  0.5177 -1.0569
 2405SOL    HW218852   2.372   2.759   8.044  0.8320 -2.0510  3.8305
 2406SOL     OW18853   3.271   2.799   3.277 -0.0767 -0.2974  0.0858
 2406SOL    HW118854   3.326   2.848   3.216 -1.5297  0.7510 -0.3725
 2406SOL    HW218855   3.339   2.739   3.307  1.5139  0.7665 -1.3630
 2407SOL     OW18856   4.532   3.244   8.170 -0.5980  0.4077 -0.1901
 2407SOL    HW118857   4.472   3.220   8.240 -0.4369  0.2600 -0.1036
 2407SOL    HW218858   4.576   3.319   8.210 -0.7880  0.6185 -0.3780
 2408SOL     OW18859   2.548   1.679   5.562  0.1834 -0.1636 -0.0307
 2408SOL    HW118860   2.527   1.697   5.470 -2.7706 -0.6201  0.5544
 2408SOL    HW218861   2.620   1.620   5.539  1.4194  1.0573  0.6887
 2409SOL     OW18862   1.549   2.159   2.403 -0.7114  0.0356 -0.3049
 2409SOL    HW118863   1.608   2.152   2.328  0.0739  2.1103  0.1187
 2409SOL    HW218864   1.465   2.190   2.369 -2.5698 -1.1598  3.1105
 2410SOL     OW18865   1.432   1.113  13.608  0.1087  0.3916 -0.3696
 2410SOL    HW118866   1.420   1.140  13.699  1.1454 -1.5575  0.3659
 2410SOL    HW218867   1.461   1.021  13.610  1.2202  0.8059  2.3557
 2411SOL     OW18868   4.100   1.486   8.930  0.7006 -0.0188 -0.6167
 2411SOL    HW118869   4.176   1.517   8.979 -1.2860  2.7876  0.7359
 2411SOL    HW218870   4.137   1.411   8.883  0.2390 -0.9747  0.5299
 2412SOL     OW18871   0.324   3.610   3.769  0.4734  0.6022  0.5706
 2412SOL    HW118872   0.327   3.684   3.829 -1.4902  0.0224  1.3763
 2412SOL    HW218873   0.333   3.536   3.829  0.6910  1.2982  1.3942
 2413SOL     OW18874   2.350   3.757   1.604 -0.2723  0.8980 -0.3464
 2413SOL    HW118875   2.315   3.697   1.670  2.4550  0.2981  0.5544
 2413SOL    HW218876   2.324   3.842   1.640 -0.4700  0.9096 -0.5185
 2414SOL     OW18877   1.065   3.147   0.686 -0.3765  0.1006  0.0371
 2414SOL    HW118878   1.071   3.077   0.751 -2.7747  0.9378  1.1298
 2414SOL    HW218879   1.037   3.222   0.737 -0.0198  0.1336  0.1826
 2415SOL     OW18880   0.623   4.297  17.608  0.4547 -0.0715  0.2772
 2415SOL    HW118881   0.694   4.265  17.664  0.1958  0.7784  1.1043
 2415SOL    HW218882   0.652   4.329  17.523 -0.7962  0.1463 -0.0584
 2416SOL     OW18883   2.090   3.119   7.731 -0.5595 -0.3237  0.0511
 2416SOL    HW118884   2.135   3.145   7.651 -1.8659  2.0354  0.0961
 2416SOL    HW218885   1.999   3.099   7.706 -0.6522  0.0501  0.0921
 2417SOL     OW18886   2.491   2.096   2.760  0.4577  0.2174 -0.2038
 2417SOL    HW118887   2.421   2.153   2.728 -0.4286 -0.3948  0.6534
 2417SOL    HW218888   2.501   2.108   2.854  2.4295 -0.4991 -0.3116
 2418SOL     OW18889   1.225   4.543   5.228  0.2388  0.1343 -0.0274
 2418SOL    HW118890   1.171   4.581   5.296 -0.0391 -1.0135  0.3985
 2418SOL    HW218891   1.165   4.517   5.158 -0.4750  2.5365 -0.2903
 2419SOL     OW18892   0.890   1.924  16.462 -0.6374  0.1654 -0.5918
 2419SOL    HW118893   0.914   1.914  16.370 -1.7671 -1.4908 -0.7088
 2419SOL    HW218894   0.948   1.861  16.504 -1.3824 -0.8858 -1.1293
 2420SOL     OW18895   2.590   0.972   4.050 -0.1782  0.2354 -0.1834
 2420SOL    HW118896   2.511   0.924   4.025 -0.1864  0.4452 -0.5548
 2420SOL    HW218897   2.622   0.911   4.117 -0.4278  0.4898  0.1699
 2421SOL     OW18898   3.616   0.080   6.114  0.4366 -0.0237 -0.2943
 2421SOL    HW118899   3.682   0.146   6.136  0.4955 -0.3486  0.4992
 2421SOL    HW218900   3.651   0.034   6.038 -0.9854 -1.4859 -0.0539
 2422SOL     OW18901   2.909   1.357   4.081 -0.3947  0.5086  0.8546
 2422SOL    HW118902   2.874   1.437   4.043  0.6573  0.8814  0.6635
 2422SOL    HW218903   2.853   1.343   4.158 -0.6554 -2.7814  0.0372
 2423SOL     OW18904   3.869   3.062   8.548 -0.0032  0.3733 -0.3199
 2423SOL    HW118905   3.911   2.976   8.557  0.6139  0.6443 -0.6433
 2423SOL    HW218906   3.869   3.094   8.638 -0.6951 -0.5459  0.0100
 2424SOL     OW18907   3.200   2.728  14.071 -0.3200 -0.5025  0.4060
 2424SOL    HW118908   3.125   2.784  14.087 -0.1217 -0.0426 -0.2672
 2424SOL    HW218909   3.176   2.679  13.992 -0.8482  2.1935 -1.1013
 2425SOL     OW18910   1.608   4.290   7.240 -0.0695 -0.0584  0.4520
 2425SOL    HW118911   1.697   4.280   7.206 -0.3294 -2.2069  0.4543
 2425SOL    HW218912   1.583   4.377   7.209  1.0822 -0.5792 -1.8500
 2426SOL     OW18913   2.321   0.861   2.331  0.4654 -0.8119 -0.2332
 2426SOL    HW118914   2.385   0.798   2.298 -0.5822 -1.3260 -1.2718
 2426SOL    HW218915   2.341   0.928   2.265  1.8924 -2.9214 -1.9092
 2427SOL     OW18916   2.801   3.529  16.663  0.4782  0.1597  0.2735
 2427SOL    HW118917   2.875   3.576  16.701  0.4932  0.2433  0.1379
 2427SOL    HW218918   2.736   3.598  16.647 -2.0872 -2.1432  0.8044
 2428SOL     OW18919   0.971   4.524   8.561 -0.3969  0.4255 -0.8476
 2428SOL    HW118920   0.879   4.496   8.562 -0.7983  1.7788 -0.3552
 2428SOL    HW218921   0.993   4.493   8.473  1.9225 -1.4059  0.3919
 2429SOL     OW18922   2.211   3.800   8.320 -0.0633  0.4358 -0.2504
 2429SOL    HW118923   2.119   3.795   8.291 -0.6606 -0.3690  1.7832
 2429SOL    HW218924   2.245   3.723   8.275  0.2402 -0.0791  0.8587
 2430SOL     OW18925   2.915   0.945   7.906  0.2844 -0.6979  0.8264
 2430SOL    HW118926   2.953   0.924   7.821 -0.5714  0.7930  0.0702
 2430SOL    HW218927   2.826   0.969   7.878  0.9369 -2.2500 -2.5782
 2431SOL     OW18928   4.287   2.320   4.842  0.1431  0.0788  0.6003
 2431SOL    HW118929   4.272   2.233   4.804 -1.2683  1.2001 -1.3795
 2431SOL    HW218930   4.256   2.371   4.768 -0.3846 -1.4397 -0.2249
 2432SOL     OW18931   0.024   0.968   5.639 -0.0007  0.0297  0.2453
 2432SOL    HW118932   0.068   0.944   5.557  1.9449 -0.4598  1.4243
 2432SOL    HW218933   4.669   0.982   5.605  0.6625 -0.5123 -1.7115
 2433SOL     OW18934   3.422   0.699  15.756 -0.2243 -0.4564  0.0485
 2433SOL    HW118935   3.495   0.716  15.697 -1.7242  4.0923 -0.4951
 2433SOL    HW218936   3.455   0.627  15.809 -1.3734  0.1904  1.6678
 2434SOL     OW18937   1.873   1.112   3.387 -0.6632 -0.2903  0.1895
 2434SOL    HW118938   1.908   1.114   3.298  0.3240  1.1515  0.5948
 2434SOL    HW218939   1.910   1.027   3.410 -1.1657 -0.6490 -0.3487
 2435SOL     OW18940   3.181   3.384  13.244  0.1188  0.3598 -0.4059
 2435SOL    HW118941   3.202   3.297  13.278 -1.2449 -0.2329 -1.0661
 2435SOL    HW218942   3.192   3.441  13.319 -2.4097  0.6038 -0.1987
 2436SOL     OW18943   4.390   4.723  11.443 -0.5182  0.1887  0.3104
 2436SOL    HW118944   4.444   0.025  11.371 -1.8943  3.0943  0.7051
 2436SOL    HW218945   4.300   0.000  11.414 -0.2823 -2.2433 -1.3204
 2437SOL     OW18946   0.125   1.922  11.940 -0.2872  0.8500  0.4901
 2437SOL    HW118947   0.211   1.950  11.910 -0.5767 -2.2614 -3.2421
 2437SOL    HW218948   0.073   2.000  11.923 -0.7061  1.1520  3.0666
 2438SOL     OW18949   2.056   1.430   4.785 -0.7601 -0.0857  0.3745
 2438SOL    HW118950   2.100   1.468   4.709  1.9137  0.0026  1.9822
 2438SOL    HW218951   2.001   1.501   4.819 -0.3873  1.3517 -2.0423
 2439SOL     OW18952   3.361   3.925   8.330  0.0179 -0.6745  0.2627
 2439SOL    HW118953   3.427   3.990   8.354  0.2612 -0.9629  0.3750
 2439SOL    HW218954   3.289   3.982   8.304 -0.3473 -0.6498  1.3305
 2440SOL     OW18955   3.959   4.221   2.864 -0.2102  0.2100  0.1307
 2440SOL    HW118956   3.983   4.171   2.942 -1.6556  2.7142  2.1818
 2440SOL    HW218957   3.930   4.305   2.899  1.1624  0.7155  0.0438
 2441SOL     OW18958   1.169   1.462   0.636  0.4267 -0.1685  0.2851
 2441SOL    HW118959   1.143   1.481   0.546 -1.1833  0.7465  0.9531
 2441SOL    HW218960   1.247   1.515   0.651  0.5340 -0.2768  0.1177
 2442SOL     OW18961   2.021   2.876  14.992 -0.7013  0.4067  0.2754
 2442SOL    HW118962   2.014   2.877  15.087 -1.7401  0.9973  0.1920
 2442SOL    HW218963   1.945   2.931  14.974 -0.4166  0.9152  0.6390
 2443SOL     OW18964   2.443   2.288   0.588 -0.6163 -0.1995  0.0804
 2443SOL    HW118965   2.430   2.196   0.565 -2.0242 -0.4349  1.7945
 2443SOL    HW218966   2.412   2.303   0.678  2.0113 -0.2008  0.9813
 2444SOL     OW18967   0.378   2.121   2.125  0.4839 -0.3218  0.3998
 2444SOL    HW118968   0.463   2.163   2.115 -0.2533  1.5603  1.9474
 2444SOL    HW218969   0.353   2.136   2.216 -2.6905 -1.1057 -0.3402
 2445SOL     OW18970   0.408   1.958   9.071 -0.0733  0.0056 -0.3859
 2445SOL    HW118971   0.442   1.936   9.158 -1.2241 -1.9239 -0.4193
 2445SOL    HW218972   0.314   1.955   9.088 -0.4882 -0.2996 -2.6727
 2446SOL     OW18973   2.122   1.014   5.613  0.3357  0.4313  0.6014
 2446SOL    HW118974   2.190   1.023   5.547 -1.2375  0.4033 -1.0059
 2446SOL    HW218975   2.181   1.027   5.687  3.6067  1.1189 -2.1273
 2447SOL     OW18976   1.759   2.945   8.551 -0.3746  0.2635 -0.2610
 2447SOL    HW118977   1.823   3.016   8.555 -1.6297  1.3669  0.1653
 2447SOL    HW218978   1.806   2.886   8.491  0.5040 -0.4678  1.1400
 2448SOL     OW18979   1.718   3.194   5.205 -0.2600 -0.5926 -0.2091
 2448SOL    HW118980   1.697   3.259   5.272  2.3446 -1.2364  1.1975
 2448SOL    HW218981   1.802   3.224   5.170  1.9043 -1.9253  3.9460
 2449SOL     OW18982   0.465   0.714   8.291 -0.1617 -0.0161 -0.0824
 2449SOL    HW118983   0.459   0.748   8.380  0.3839  0.9277 -0.4049
 2449SOL    HW218984   0.524   0.639   8.301 -0.2240 -0.1201 -0.4672
 2450SOL     OW18985   2.074   1.465  15.310 -0.2869  0.2152 -0.0751
 2450SOL    HW118986   2.035   1.403  15.249  0.1815 -0.1810  0.0304
 2450SOL    HW218987   1.992   1.476  15.357 -0.3189  3.0710 -0.8044
 2451SOL     OW18988   0.078   2.687   4.146 -0.7022  0.1842 -0.0219
 2451SOL    HW118989   0.020   2.611   4.151  2.4633 -2.1056  2.2943
 2451SOL    HW218990   0.017   2.747   4.188 -1.0342 -0.9970  1.1805
 2452SOL     OW18991   1.158   2.731   2.542 -0.2994  0.2405 -0.0147
 2452SOL    HW118992   1.195   2.681   2.615 -1.1171 -1.4703 -0.7759
 2452SOL    HW218993   1.239   2.773   2.511  0.3648 -1.3330 -0.4532
 2453SOL     OW18994   2.409   4.037  13.582 -0.1275  0.1179 -0.1599
 2453SOL    HW118995   2.318   4.063  13.600 -0.7459 -1.6237 -0.7177
 2453SOL    HW218996   2.450   4.073  13.661 -2.2860  2.1152  0.0374
 2454SOL     OW18997   2.874   4.318  15.977 -0.1483  0.4130 -0.2380
 2454SOL    HW118998   2.868   4.267  15.896 -1.3589  0.1387  0.0295
 2454SOL    HW218999   2.935   4.386  15.948 -1.0706  0.8826 -1.0729
 2455SOL     OW19000   2.255   1.681   2.929  0.0817 -0.2660 -0.2630
 2455SOL    HW119001   2.272   1.708   3.019 -0.4482 -0.2754 -0.1641
 2455SOL    HW219002   2.306   1.600   2.922 -1.6898 -1.5271  1.5351
 2456SOL     OW19003   4.579   0.032   4.628  0.1777  0.7717 -0.3436
 2456SOL    HW119004   4.519   0.036   4.554 -0.8826 -1.0074  0.4199
 2456SOL    HW219005   4.619   0.117   4.610  0.0190  1.3695  2.0563
 2457SOL     OW19006   4.507   2.427   3.773  0.4501 -0.1608  0.0280
 2457SOL    HW119007   4.474   2.425   3.684 -0.0975 -2.4070  0.2859
 2457SOL    HW219008   4.572   2.496   3.755 -1.0800  0.4395 -3.1816
 2458SOL     OW19009   1.837   1.951   8.201 -0.3899 -0.1335 -0.7636
 2458SOL    HW119010   1.837   1.992   8.288  1.1757  0.5752 -1.0943
 2458SOL    HW219011   1.868   2.016   8.138  0.2285  0.3183  0.0026
 2459SOL     OW19012   2.973   4.522   8.780  0.3288  0.2491 -0.8687
 2459SOL    HW119013   2.895   4.515   8.835  0.5181 -1.0511 -0.7669
 2459SOL    HW219014   3.032   4.484   8.846 -0.5291  0.0776 -0.2087
 2460SOL     OW19015   2.288   3.568   9.285  0.5593 -0.1827 -0.3686
 2460SOL    HW119016   2.227   3.509   9.241  1.5177 -0.6154 -1.1208
 2460SOL    HW219017   2.277   3.536   9.374 -0.4146  0.1106 -0.3825
 2461SOL     OW19018   1.524   1.130   6.791 -0.4881 -0.4684  0.1638
 2461SOL    HW119019   1.439   1.130   6.835 -0.3173  1.1072  0.4671
 2461SOL    HW219020   1.566   1.077   6.859 -0.0709 -1.5311 -0.9168
 2462SOL     OW19021   0.669   3.560   8.620 -0.3252 -0.2822  0.5268
 2462SOL    HW119022   0.661   3.471   8.587  0.2206 -0.1321 -0.0058
 2462SOL    HW219023   0.736   3.596   8.562 -0.0765 -0.4834  0.6952
 2463SOL     OW19024   1.269   0.059   4.434 -0.2530 -0.0470 -0.2609
 2463SOL    HW119025   1.294   0.112   4.359  0.5737 -0.9294 -0.6109
 2463SOL    HW219026   1.245   4.714   4.384 -1.7307 -0.5287  1.1714
 2464SOL     OW19027   2.838   4.471  15.234 -0.2618  0.6074 -0.3077
 2464SOL    HW119028   2.851   4.561  15.264 -0.8186  0.9346 -1.0553
 2464SOL    HW219029   2.753   4.487  15.194 -0.3312  0.3612 -0.2571
 2465SOL     OW19030   2.802   1.780  17.600 -0.0514 -0.1469  0.2129
 2465SOL    HW119031   2.868   1.844  17.627  1.0189 -0.5775 -1.3705
 2465SOL    HW219032   2.723   1.831  17.584 -0.6955 -1.7013 -1.5567
 2466SOL     OW19033   1.094   1.450   3.049  0.3077  0.5404 -0.1224
 2466SOL    HW119034   1.171   1.480   3.000 -0.1270 -0.1581 -1.2335
 2466SOL    HW219035   1.131   1.398   3.121 -0.4685 -0.1902 -0.2458
 2467SOL     OW19036   3.832   0.865   4.031  0.1357 -0.6062 -0.4065
 2467SOL    HW119037   3.740   0.883   4.049  0.0592 -1.4324  0.0622
 2467SOL    HW219038   3.838   0.770   4.018  1.2175 -0.6956  0.6482
 2468SOL     OW19039   3.438   0.778   6.944  0.3099  0.3637 -0.2379
 2468SOL    HW119040   3.399   0.856   6.983  3.5351  2.0540 -0.4347
 2468SOL    HW219041   3.437   0.797   6.850 -2.2281 -1.4208 -0.5771
 2469SOL     OW19042   0.164   0.835   3.909 -0.3433 -1.0109  0.2416
 2469SOL    HW119043   0.090   0.802   3.960 -0.6117  1.0776  1.2128
 2469SOL    HW219044   0.202   0.899   3.969  0.4046 -2.2750  1.1302
 2470SOL     OW19045   3.878   0.454   8.073  0.3016 -0.1444 -0.3228
 2470SOL    HW119046   3.850   0.491   7.989  0.8421  2.7823  0.7872
 2470SOL    HW219047   3.857   0.362   8.061 -2.9453  0.4342  0.9166
 2471SOL     OW19048   1.599   0.069   3.906  0.6396 -0.0810  1.0693
 2471SOL    HW119049   1.667   0.108   3.851 -0.3020 -0.0861 -0.1237
 2471SOL    HW219050   1.579   4.727   3.850  0.9974 -2.2904  3.9574
 2472SOL     OW19051   1.086   2.405   3.490 -0.3801 -0.0094  0.0936
 2472SOL    HW119052   1.088   2.317   3.527 -0.5176  0.1132  0.3848
 2472SOL    HW219053   1.157   2.448   3.537  0.7497 -1.2935 -0.4097
 2473SOL     OW19054   2.392   3.117   3.520 -0.3916 -0.4975  0.3856
 2473SOL    HW119055   2.438   3.164   3.589 -0.6078 -0.1477  0.2943
 2473SOL    HW219056   2.446   3.038   3.515  0.3603  0.0424 -0.0055
 2474SOL     OW19057   1.874   1.502   5.144  0.0064 -0.4774  0.4189
 2474SOL    HW119058   1.802   1.565   5.147  0.0783 -0.4556  1.4721
 2474SOL    HW219059   1.833   1.416   5.130 -0.0165 -0.3973 -0.0068
 2475SOL     OW19060   4.714   2.279  11.051  0.6665 -0.0667 -0.0520
 2475SOL    HW119061   0.064   2.236  11.032  0.8673  0.0561  0.5499
 2475SOL    HW219062   4.714   2.292  11.145 -3.1494 -0.8441  0.0441
 2476SOL     OW19063   1.904   2.628   4.664 -0.2014 -0.2197 -0.0346
 2476SOL    HW119064   1.825   2.574   4.672 -0.5399  0.8189  3.3353
 2476SOL    HW219065   1.933   2.612   4.753 -1.4133  0.8559  0.5527
 2477SOL     OW19066   1.306   0.906  11.416  0.0619 -0.1718 -0.0921
 2477SOL    HW119067   1.252   0.946  11.485 -0.9066  1.4973 -1.8257
 2477SOL    HW219068   1.296   0.812  11.426 -1.2434 -0.3853 -3.3902
 2478SOL     OW19069   2.155   3.345   2.703 -0.1747 -0.3242  0.9306
 2478SOL    HW119070   2.081   3.298   2.664 -0.4113  2.2257 -1.6666
 2478SOL    HW219071   2.118   3.432   2.717  0.9823  0.3730 -0.3653
 2479SOL     OW19072   4.618   3.910   3.604  0.3221  0.0984  0.3695
 2479SOL    HW119073   4.689   3.857   3.639 -0.1319  0.0898  1.2777
 2479SOL    HW219074   4.597   3.863   3.523 -1.6469 -1.0591  1.5592
 2480SOL     OW19075   2.451   2.614  11.014  0.0114  0.2793 -0.0302
 2480SOL    HW119076   2.537   2.606  10.971  1.4635 -0.7192  3.0224
 2480SOL    HW219077   2.448   2.701  11.055  1.8507  0.9006 -1.2052
 2481SOL     OW19078   2.154   3.652   2.678  0.0870 -0.3156 -0.1962
 2481SOL    HW119079   2.245   3.626   2.664  0.1167  0.8976 -2.3479
 2481SOL    HW219080   2.137   3.723   2.616  0.4776 -1.5888 -1.7598
 2482SOL     OW19081   0.212   1.166   6.534 -0.4672  0.0914  0.6958
 2482SOL    HW119082   0.258   1.148   6.616  0.0878 -0.3859  0.2773
 2482SOL    HW219083   0.122   1.145   6.560  0.0717 -1.2699  1.4647
 2483SOL     OW19084   4.331   2.773   5.948 -0.9000 -0.0838 -0.2933
 2483SOL    HW119085   4.307   2.864   5.967 -3.2086 -1.1345  1.9215
 2483SOL    HW219086   4.330   2.746   6.040  2.4554  0.2472 -0.1766
 2484SOL     OW19087   3.938   1.096   7.682  0.4590 -0.0634 -0.0660
 2484SOL    HW119088   3.934   1.180   7.729 -0.0927  0.7262 -1.5140
 2484SOL    HW219089   4.020   1.061   7.716  0.0009 -0.1089  0.9875
 2485SOL     OW19090   3.120   1.023   4.454  0.1741 -1.2218 -0.3059
 2485SOL    HW119091   3.186   0.958   4.480  1.3330 -0.0958 -0.4264
 2485SOL    HW219092   3.055   0.971   4.408 -1.7251  0.8391  0.0672
 2486SOL     OW19093   1.406   2.893  10.672  0.4510  0.4088 -0.3053
 2486SOL    HW119094   1.414   2.950  10.748 -1.3209  0.1841  0.0553
 2486SOL    HW219095   1.340   2.832  10.703  1.9119 -2.2775 -2.4912
 2487SOL     OW19096   0.804   1.310  11.743 -0.0567  0.2303 -0.0558
 2487SOL    HW119097   0.855   1.362  11.680 -0.1513  1.5237  0.9331
 2487SOL    HW219098   0.787   1.230  11.694  0.4999  0.9795 -1.4848
 2488SOL     OW19099   2.121   1.896   6.565 -0.2019  0.1619  0.3462
 2488SOL    HW119100   2.119   1.802   6.544  1.8967  0.1022  0.3935
 2488SOL    HW219101   2.210   1.919   6.594 -1.5087  5.4148  0.1336
 2489SOL     OW19102   1.508   3.325   1.865  0.0709 -0.1063  0.3459
 2489SOL    HW119103   1.420   3.295   1.844 -0.1570 -2.2346  4.2452
 2489SOL    HW219104   1.484   3.418   1.862  2.0744  0.3977  0.0479
 2490SOL     OW19105   2.866   3.456   8.478  0.2479  0.2031 -0.6325
 2490SOL    HW119106   2.903   3.543   8.462  1.3778 -0.8634 -3.6493
 2490SOL    HW219107   2.828   3.436   8.393 -0.2647  0.0954 -0.3756
 2491SOL     OW19108   0.378   0.914   6.114 -0.1028 -0.4551  0.1112
 2491SOL    HW119109   0.471   0.931   6.105 -0.0406 -0.2562  1.1961
 2491SOL    HW219110   0.364   0.972   6.189  0.7731  0.9650 -0.8327
 2492SOL     OW19111   2.665   1.958   8.630 -0.4696  0.3648 -0.1631
 2492SOL    HW119112   2.702   2.029   8.577 -1.6241  2.8673  2.4021
 2492SOL    HW219113   2.604   2.009   8.683 -1.9310 -1.1944 -0.3848
 2493SOL     OW19114   1.358   4.225  11.130  0.9279 -0.7195 -0.1097
 2493SOL    HW119115   1.405   4.220  11.047  2.1149 -0.0505  0.5111
 2493SOL    HW219116   1.273   4.186  11.109  1.3321 -2.6482  1.8653
 2494SOL     OW19117   2.186   1.799   5.734 -0.1229  0.1064  0.7172
 2494SOL    HW119118   2.182   1.838   5.647 -0.1987 -0.4367  0.4808
 2494SOL    HW219119   2.231   1.867   5.785 -0.1822  1.7460 -1.3999
 2495SOL     OW19120   3.713   4.328  16.772 -0.2179  0.4663 -0.6427
 2495SOL    HW119121   3.670   4.253  16.730 -1.0134  0.3422  0.4128
 2495SOL    HW219122   3.702   4.304  16.864 -0.9871 -1.5390 -1.2547
 2496SOL     OW19123   0.607   4.402   8.317 -0.3298 -0.0284 -0.4344
 2496SOL    HW119124   0.514   4.382   8.332 -0.2885 -0.8226 -1.2148
 2496SOL    HW219125   0.640   4.456   8.389 -0.7821 -0.5853  0.1944
 2497SOL     OW19126   0.173   2.116   2.586  0.3992 -0.6384 -0.7450
 2497SOL    HW119127   0.177   2.059   2.510 -0.7617 -1.1907 -0.3915
 2497SOL    HW219128   0.233   2.070   2.645  0.8768 -1.1242 -1.6159
 2498SOL     OW19129   2.677   3.384   4.194 -0.1995 -0.0033 -0.1779
 2498SOL    HW119130   2.660   3.477   4.210  0.5618  0.2506 -0.7984
 2498SOL    HW219131   2.773   3.386   4.202 -0.1985 -3.7260  0.8795
 2499SOL     OW19132   3.381   0.907   1.789 -0.1084  0.2326  0.2670
 2499SOL    HW119133   3.346   0.819   1.775 -1.4867  0.4311  2.5809
 2499SOL    HW219134   3.391   0.947   1.703 -1.9301 -2.7544 -1.3362
 2500SOL     OW19135   1.744   3.095   4.135  0.4556 -0.1869 -0.4146
 2500SOL    HW119136   1.740   3.180   4.180  1.7813 -0.9282  1.1025
 2500SOL    HW219137   1.693   3.041   4.195 -0.4469 -1.3437 -2.2300
 2501SOL     OW19138   4.701   1.701   6.300 -0.0893  0.5263 -0.1402
 2501SOL    HW119139   4.608   1.704   6.324  0.4548 -0.2343  2.0560
 2501SOL    HW219140   4.702   1.676   6.208  1.5093 -1.7042  0.4654
 2502SOL     OW19141   2.480   2.868   6.740 -0.7774 -0.9821 -0.2242
 2502SOL    HW119142   2.479   2.810   6.664 -1.0297 -1.5605  0.2117
 2502SOL    HW219143   2.388   2.893   6.730 -0.5900 -0.0734  0.3223
 2503SOL     OW19144   3.271   2.471   1.795 -0.7054  0.5977 -0.6878
 2503SOL    HW119145   3.188   2.480   1.840 -1.2417 -1.7029 -1.2338
 2503SOL    HW219146   3.286   2.377   1.808 -1.2920  0.7555  1.0823
 2504SOL     OW19147   2.671   3.909   8.859 -0.5525  0.4529 -0.1253
 2504SOL    HW119148   2.674   3.909   8.955  2.0187  1.0723 -0.2192
 2504SOL    HW219149   2.587   3.865   8.846  0.0012 -0.7356  0.2958
 2505SOL     OW19150   3.678   2.998   6.517  0.1556 -0.0650 -0.3610
 2505SOL    HW119151   3.684   3.062   6.588  0.9411  0.1436 -0.6151
 2505SOL    HW219152   3.711   2.919   6.561  1.6287  0.9217  0.3200
 2506SOL     OW19153   1.633   0.070  14.273 -0.7035  0.4496 -0.8972
 2506SOL    HW119154   1.712   0.076  14.327 -1.3193  0.9563 -0.0445
 2506SOL    HW219155   1.660   0.015  14.200  0.0960 -0.6231  0.2085
 2507SOL     OW19156   4.405   4.557  17.036  0.4033  0.5578 -0.1898
 2507SOL    HW119157   4.362   4.495  17.096  0.6487 -0.8237 -1.4500
 2507SOL    HW219158   4.406   4.512  16.952 -1.1302 -1.6571  0.9453
 2508SOL     OW19159   3.687   1.276  13.878  0.1269  0.5279 -0.6837
 2508SOL    HW119160   3.637   1.273  13.960  1.4790  2.0886  0.2048
 2508SOL    HW219161   3.763   1.323  13.913 -0.8406  0.7785  1.0645
 2509SOL     OW19162   1.076   1.646   4.213  0.2684 -0.6381  0.3827
 2509SOL    HW119163   1.003   1.697   4.248  1.9333  3.1690 -1.7715
 2509SOL    HW219164   1.128   1.716   4.175 -0.7365  0.3970  0.9310
 2510SOL     OW19165   1.973   3.752   2.860 -0.2388 -0.1145  0.1280
 2510SOL    HW119166   2.009   3.696   2.791 -0.9392 -1.4457  0.8263
 2510SOL    HW219167   2.018   3.833   2.838 -0.6192  0.3975  1.2722
 2511SOL     OW19168   0.951   2.908  10.623 -0.3840 -0.0499 -0.2677
 2511SOL    HW119169   0.873   2.864  10.657  0.1287 -1.2676 -0.6356
 2511SOL    HW219170   1.010   2.891  10.696 -0.5266  0.0538 -0.1305
 2512SOL     OW19171   1.036   3.642  13.601  0.1006  0.1398  0.5906
 2512SOL    HW119172   0.953   3.614  13.562  1.0483  0.8972 -1.9643
 2512SOL    HW219173   1.059   3.569  13.658 -1.7866 -0.2638  0.8608
 2513SOL     OW19174   1.927   0.553   3.928 -0.4783 -0.1986 -0.4099
 2513SOL    HW119175   1.847   0.531   3.881 -1.4660  3.1245 -0.3122
 2513SOL    HW219176   1.894   0.629   3.976  0.0962 -0.2695  0.1103
 2514SOL     OW19177   3.539   3.721   7.975 -0.4893  0.0243 -0.1609
 2514SOL    HW119178   3.597   3.645   7.967  0.8498  0.9835  0.4832
 2514SOL    HW219179   3.567   3.777   7.903  2.8129 -0.4619  0.7619
 2515SOL     OW19180   1.634   2.784   9.928  0.1513 -0.3644  0.6178
 2515SOL    HW119181   1.652   2.793  10.022  1.8175  0.8720  0.1696
 2515SOL    HW219182   1.645   2.874   9.898 -0.9863 -0.5288 -0.2613
 2516SOL     OW19183   1.768   3.436   0.685 -0.8321 -0.3291 -0.0974
 2516SOL    HW119184   1.773   3.484   0.768  1.7323 -0.6057 -0.0893
 2516SOL    HW219185   1.809   3.497   0.623 -0.2809  0.2568  0.8393
 2517SOL     OW19186   0.317   0.325  10.798  0.0752 -0.5331 -0.7604
 2517SOL    HW119187   0.228   0.344  10.769 -0.0623 -1.1388 -0.7408
 2517SOL    HW219188   0.299   0.262  10.868  1.2808  0.0252  0.0539
 2518SOL     OW19189   0.139   3.250  11.630 -0.3167  0.1155  0.0649
 2518SOL    HW119190   0.061   3.202  11.602  0.3640  0.1222 -1.8029
 2518SOL    HW219191   0.192   3.250  11.551 -1.7865  1.2083 -0.9118
 2519SOL     OW19192   2.078   0.310   8.602  0.3811 -0.0612  0.1894
 2519SOL    HW119193   2.061   0.354   8.685  2.0981 -3.4440  2.3417
 2519SOL    HW219194   2.115   0.378   8.546 -0.1414  0.8796  0.9837
 2520SOL     OW19195   2.278   0.128   4.561 -0.0754 -0.2161  0.0395
 2520SOL    HW119196   2.330   0.088   4.631  2.3015  2.9289  0.0755
 2520SOL    HW219197   2.211   0.064   4.538  0.2729  0.1535 -2.0072
 2521SOL     OW19198   4.683   3.631   3.505  0.1201 -0.0029 -0.1614
 2521SOL    HW119199   4.631   3.553   3.486 -1.3160  0.6046  1.2539
 2521SOL    HW219200   4.654   3.692   3.437  1.1101  2.8873  1.9742
 2522SOL     OW19201   0.007   3.771   5.937  0.3203  0.1087 -0.2418
 2522SOL    HW119202   4.677   3.842   5.948  0.9322  1.0111 -2.6861
 2522SOL    HW219203   0.008   3.765   5.842 -1.2774  1.2133 -0.3319
 2523SOL     OW19204   3.736   1.128  16.830 -0.3584 -0.2792  0.3117
 2523SOL    HW119205   3.647   1.148  16.804 -0.3539 -0.5995  0.0539
 2523SOL    HW219206   3.782   1.212  16.820 -1.8382  0.2967 -1.5992
 2524SOL     OW19207   4.694   0.702   6.476  0.6381  0.5220 -0.1209
 2524SOL    HW119208   4.672   0.618   6.434 -1.0884  1.1235 -0.3976
 2524SOL    HW219209   0.012   0.745   6.408  0.3405  1.3301  0.1765
 2525SOL     OW19210   0.448   2.255   9.031  0.1669  0.0961  0.2941
 2525SOL    HW119211   0.511   2.319   8.999  0.6171  0.6557  2.3625
 2525SOL    HW219212   0.491   2.170   9.041  0.4270  0.2123  0.1482
 2526SOL     OW19213   0.714   0.054   6.725  0.2303  0.0379  0.1071
 2526SOL    HW119214   0.748   0.118   6.662  2.5439 -1.7098 -0.3917
 2526SOL    HW219215   0.624   0.086   6.734  0.0464 -0.1772 -1.0389
 2527SOL     OW19216   1.209   0.983   3.575  0.2676 -0.0503 -0.2133
 2527SOL    HW119217   1.195   1.046   3.504 -2.2759  1.3087  1.5303
 2527SOL    HW219218   1.172   1.039   3.642  1.0527 -0.8971  0.9236
 2528SOL     OW19219   1.043   0.405   6.410  0.3431  0.1820  0.6371
 2528SOL    HW119220   1.107   0.377   6.475 -0.2766 -0.8369  0.8056
 2528SOL    HW219221   1.106   0.452   6.355  1.1980  0.3260  1.7532
 2529SOL     OW19222   3.539   0.971   0.527  0.3005 -0.4583 -0.3987
 2529SOL    HW119223   3.482   0.895   0.515  0.1724 -0.6953  1.6085
 2529SOL    HW219224   3.560   0.997   0.438  0.8177  0.9790  0.1488
 2530SOL     OW19225   4.282   2.113   4.685  0.6270  0.7427  0.1171
 2530SOL    HW119226   4.201   2.074   4.651 -0.0032  2.3270 -0.2100
 2530SOL    HW219227   4.349   2.045   4.692 -1.8541 -1.7095  0.4266
 2531SOL     OW19228   4.461   3.568   6.871  0.2392 -0.3718 -0.0712
 2531SOL    HW119229   4.497   3.636   6.814  0.6988 -2.0176 -1.7360
 2531SOL    HW219230   4.454   3.623   6.949  0.6403  1.5667 -1.4199
 2532SOL     OW19231   1.091   0.898   9.910  0.4854 -0.1567  0.0731
 2532SOL    HW119232   1.002   0.876   9.938  0.2097  1.7842  0.6954
 2532SOL    HW219233   1.104   0.834   9.839  0.3370  0.8972 -0.8981
 2533SOL     OW19234   4.524   3.488   9.734 -0.1463  0.2747  0.4654
 2533SOL    HW119235   4.590   3.540   9.688 -2.3068  2.8972  0.3650
 2533SOL    HW219236   4.509   3.541   9.812 -1.3955 -1.8030  1.6413
 2534SOL     OW19237   2.883   1.353   2.878  0.1914 -0.6101  0.8577
 2534SOL    HW119238   2.894   1.387   2.967  2.4928 -1.2507  0.8307
 2534SOL    HW219239   2.836   1.271   2.890  0.4179 -0.7772  0.5985
 2535SOL     OW19240   0.319   3.130   8.325 -0.1270  0.1124 -0.2422
 2535SOL    HW119241   0.337   3.137   8.419 -0.9348 -0.8564 -0.0134
 2535SOL    HW219242   0.232   3.091   8.320 -0.5027  0.6658  2.0919
 2536SOL     OW19243   2.725   4.203  11.209  0.4133  0.2071  0.2971
 2536SOL    HW119244   2.805   4.152  11.200  0.9709  1.3032 -0.9153
 2536SOL    HW219245   2.658   4.136  11.193 -0.1987  0.2887  2.5055
 2537SOL     OW19246   1.477   4.277   6.891  0.7118  0.3493  0.4615
 2537SOL    HW119247   1.548   4.295   6.829 -1.6939 -2.0464 -2.9931
 2537SOL    HW219248   1.520   4.213   6.948  0.6366  1.0012  1.2476
 2538SOL     OW19249   3.052   2.571  10.650  0.6516 -0.4983  0.0256
 2538SOL    HW119250   2.976   2.521  10.621  1.7848  0.0530 -3.9021
 2538SOL    HW219251   3.104   2.496  10.677  0.0747 -0.3036  1.6801
 2539SOL     OW19252   3.058   3.012  16.604  0.2677 -0.4577 -0.0269
 2539SOL    HW119253   3.065   3.005  16.509 -0.3880  1.2210 -0.1864
 2539SOL    HW219254   2.969   3.044  16.616  0.7041  0.0754  1.8191
 2540SOL     OW19255   3.154   3.058  10.594  0.0622  0.3750  0.4608
 2540SOL    HW119256   3.202   3.021  10.668  0.0604  0.2432  0.3957
 2540SOL    HW219257   3.072   3.009  10.599  0.4611 -0.0996  2.1697
 2541SOL     OW19258   1.505   0.568   6.680 -0.1967 -0.5850 -0.7696
 2541SOL    HW119259   1.547   0.496   6.727  0.0393 -0.4710 -0.8094
 2541SOL    HW219260   1.417   0.557   6.717 -0.6576  1.4118 -1.2680
 2542SOL     OW19261   1.246   1.813   3.645  0.5026  0.5648 -0.1305
 2542SOL    HW119262   1.195   1.798   3.725 -0.2808 -1.2510 -0.9435
 2542SOL    HW219263   1.262   1.907   3.652  0.8169  0.4854  0.1759
 2543SOL     OW19264   2.617   3.746   3.178 -0.4235  0.0197 -0.3642
 2543SOL    HW119265   2.623   3.841   3.188 -0.4017  0.1424 -1.4508
 2543SOL    HW219266   2.524   3.738   3.197  0.0649 -0.9311  1.5691
 2544SOL     OW19267   2.791   3.391   5.134 -0.1847 -0.3354  0.4941
 2544SOL    HW119268   2.843   3.315   5.109 -1.8699 -0.5358 -2.3021
 2544SOL    HW219269   2.696   3.379   5.135 -0.4599  1.5956 -3.7973
 2545SOL     OW19270   0.423   0.211   6.021  0.4943 -0.2812 -0.0422
 2545SOL    HW119271   0.509   0.178   6.043  0.5194  0.5548  1.1205
 2545SOL    HW219272   0.381   0.151   6.082 -1.3457  1.5779  0.5272
 2546SOL     OW19273   2.078   2.777   8.682 -0.0146 -0.6130 -0.1486
 2546SOL    HW119274   1.998   2.728   8.664 -0.9873  1.5139 -1.6523
 2546SOL    HW219275   2.051   2.868   8.677  0.9182 -0.4489 -2.4595
 2547SOL     OW19276   1.269   1.368  13.785 -0.0058 -0.4564  0.0008
 2547SOL    HW119277   1.258   1.459  13.757 -1.0722 -1.0080 -1.3730
 2547SOL    HW219278   1.304   1.374  13.874 -0.3999  0.6279  0.0926
 2548SOL     OW19279   4.224   0.428   3.697 -0.3885 -0.4377  0.2687
 2548SOL    HW119280   4.257   0.373   3.768  2.2098 -0.1604 -0.7150
 2548SOL    HW219281   4.293   0.493   3.708  0.5335 -1.2913 -0.4636
 2549SOL     OW19282   1.765   0.085   2.724 -0.5207  0.0690 -0.3562
 2549SOL    HW119283   1.805   0.056   2.806 -2.3692 -0.4770  0.3496
 2549SOL    HW219284   1.791   0.012   2.668 -1.7083 -1.2935  0.8833
 2550SOL     OW19285   3.386   1.788   6.824 -0.6247 -0.1762  0.1336
 2550SOL    HW119286   3.299   1.827   6.818 -0.1138  0.8382 -0.5803
 2550SOL    HW219287   3.435   1.856   6.871 -1.0913  0.6951 -0.6650
 2551SOL     OW19288   0.995   3.385   1.475 -0.0362  0.5913 -0.0318
 2551SOL    HW119289   1.053   3.309   1.487  0.0249  0.5105 -0.7954
 2551SOL    HW219290   1.053   3.426   1.410 -0.4095  0.9100 -0.1618
 2552SOL     OW19291   1.163   1.305   2.169  0.0435 -0.2196 -0.0069
 2552SOL    HW119292   1.177   1.363   2.094  0.6680  0.5402  0.6949
 2552SOL    HW219293   1.069   1.313   2.179  0.1367  1.0047 -0.0876
 2553SOL     OW19294   3.925   2.180   2.599 -0.2129 -0.0965 -0.4221
 2553SOL    HW119295   3.933   2.223   2.514  1.0696 -1.4017 -0.9537
 2553SOL    HW219296   3.851   2.127   2.568 -0.6369 -0.0271  0.4930
 2554SOL     OW19297   2.326   2.418   8.763  0.2588  0.4294 -0.3156
 2554SOL    HW119298   2.351   2.420   8.855  0.0631 -0.1698 -0.2494
 2554SOL    HW219299   2.377   2.490   8.726  0.9640  1.6973  3.0898
 2555SOL     OW19300   3.561   1.045  15.765 -0.4955 -0.2366 -0.0340
 2555SOL    HW119301   3.498   1.114  15.744 -1.0184 -0.8910 -0.6410
 2555SOL    HW219302   3.505   0.991  15.821  0.3914  1.0219  2.0675
 2556SOL     OW19303   3.206   2.046   8.421 -0.6305  0.1754  0.6468
 2556SOL    HW119304   3.277   2.087   8.371  0.1652 -2.2239 -0.2045
 2556SOL    HW219305   3.134   2.064   8.359 -1.3906  1.7383  1.9788
 2557SOL     OW19306   4.091   0.919   5.010  0.0628  0.3250 -0.0646
 2557SOL    HW119307   4.130   0.876   5.087 -1.0997 -0.0792  0.3141
 2557SOL    HW219308   4.075   1.008   5.040 -0.7130  0.1498  0.0480
 2558SOL     OW19309   3.020   4.346   6.972 -0.7767 -0.0938 -0.5952
 2558SOL    HW119310   3.006   4.342   7.067  1.5963  0.1172 -0.2505
 2558SOL    HW219311   2.972   4.425   6.947  0.6659  0.0604 -2.8348
 2559SOL     OW19312   1.861   0.674   4.336 -0.7573  0.2363  0.6002
 2559SOL    HW119313   1.851   0.582   4.361 -0.8272 -0.2626 -1.2264
 2559SOL    HW219314   1.891   0.711   4.419 -0.0206  0.7751  0.1077
 2560SOL     OW19315   0.264   1.975   3.687  0.0071  0.2170  0.1647
 2560SOL    HW119316   0.171   1.997   3.682 -0.2262 -0.9814 -0.7632
 2560SOL    HW219317   0.299   2.063   3.672  2.5185 -0.4077  2.3433
 2561SOL     OW19318   3.633   0.180   8.924 -0.0380 -0.4314 -0.3201
 2561SOL    HW119319   3.660   0.216   9.008  1.5081  0.6327 -1.2838
 2561SOL    HW219320   3.543   0.148   8.937 -0.1577  1.1245  2.6845
 2562SOL     OW19321   0.713   1.733   3.733  0.3383  0.2540 -0.0065
 2562SOL    HW119322   0.726   1.662   3.670  2.7869 -0.5616  1.4384
 2562SOL    HW219323   0.720   1.811   3.678 -1.5251  1.0778  0.9311
 2563SOL     OW19324   3.167   1.425  15.346 -0.1497  0.7879 -0.7472
 2563SOL    HW119325   3.173   1.443  15.440  0.0718  1.9692 -0.9902
 2563SOL    HW219326   3.221   1.496  15.313  1.7970  0.3499  1.4868
 2564SOL     OW19327   4.238   2.631   3.502  0.0452  0.1652 -0.6206
 2564SOL    HW119328   4.290   2.565   3.548 -2.3225 -0.9700  0.4453
 2564SOL    HW219329   4.276   2.631   3.414  0.6721  0.7512 -0.3511
 2565SOL     OW19330   4.426   1.728   6.405 -0.7247 -0.2552 -0.0758
 2565SOL    HW119331   4.382   1.792   6.348 -2.3953 -0.7197  0.6841
 2565SOL    HW219332   4.414   1.647   6.356  0.4395  0.9216 -2.2884
 2566SOL     OW19333   0.790   0.909   1.532 -0.1848 -0.2829  0.1399
 2566SOL    HW119334   0.748   0.915   1.447 -0.2928  0.7296  0.2603
 2566SOL    HW219335   0.752   0.982   1.581 -1.4304  1.8226 -3.9735
 2567SOL     OW19336   1.071   4.465  13.775 -0.2467  0.5010 -0.6492
 2567SOL    HW119337   1.059   4.532  13.707 -1.7027 -2.0878 -2.9397
 2567SOL    HW219338   1.033   4.509  13.852 -2.2391 -0.8858 -0.8413
 2568SOL     OW19339   1.308   1.044   4.016  0.1672 -0.0846  0.0580
 2568SOL    HW119340   1.329   1.086   4.100 -0.8264  1.0292 -0.2526
 2568SOL    HW219341   1.384   0.986   4.009 -1.6889 -2.8235  2.5803
 2569SOL     OW19342   1.619   3.732  14.317  0.2200 -0.3707 -0.8966
 2569SOL    HW119343   1.528   3.707  14.334  0.7168 -1.7527 -0.2139
 2569SOL    HW219344   1.631   3.677  14.240 -0.1732  2.1542 -2.7149
 2570SOL     OW19345   4.107   4.239   2.348 -0.4789  0.5352 -0.0764
 2570SOL    HW119346   4.149   4.318   2.384  1.5614 -1.0106  0.9287
 2570SOL    HW219347   4.038   4.215   2.410  0.8355 -1.7686  0.4998
 2571SOL     OW19348   1.566   1.025   2.649 -0.4195 -0.5949 -0.6504
 2571SOL    HW119349   1.628   1.095   2.627 -2.5429  1.6042  0.3826
 2571SOL    HW219350   1.534   1.003   2.562 -2.5208  0.3873 -0.1273
 2572SOL     OW19351   4.154   0.807   4.791  0.3034  0.0718  0.3245
 2572SOL    HW119352   4.062   0.797   4.769  1.0863 -3.0154 -1.5777
 2572SOL    HW219353   4.137   0.863   4.866 -0.8107  0.4159 -0.1897
 2573SOL     OW19354   1.614   3.215  10.121 -0.5210 -0.2523 -0.8444
 2573SOL    HW119355   1.644   3.302  10.149 -1.1384 -0.4591  0.4585
 2573SOL    HW219356   1.662   3.223  10.038 -0.7586 -2.0130 -1.1591
 2574SOL     OW19357   2.097   2.731   7.809  0.1886 -0.0688 -0.1813
 2574SOL    HW119358   2.028   2.664   7.814  0.4092 -0.3274 -0.5961
 2574SOL    HW219359   2.087   2.766   7.720  0.2390  3.0440  1.0631
 2575SOL     OW19360   3.368   3.412   8.625  0.4148  0.0764  0.0875
 2575SOL    HW119361   3.293   3.352   8.629  0.2249  0.2665 -0.6898
 2575SOL    HW219362   3.340   3.483   8.567  0.6481  0.3622  0.3236
 2576SOL     OW19363   3.956   0.459   6.501  0.4050  0.2634  0.0641
 2576SOL    HW119364   4.022   0.495   6.443 -1.3808 -0.1759 -2.2588
 2576SOL    HW219365   3.919   0.538   6.541 -1.3545 -1.5337  2.0379
 2577SOL     OW19366   0.060   1.531   5.871  0.7146  0.2665 -1.1087
 2577SOL    HW119367   4.727   1.549   5.938  1.5459 -1.5610  0.1954
 2577SOL    HW219368   4.733   1.516   5.798  1.9696 -1.2719 -1.8307
 2578SOL     OW19369   1.150   0.853   5.230 -0.0788 -0.0422 -0.9551
 2578SOL    HW119370   1.131   0.765   5.198  1.2110 -0.2626 -1.1119
 2578SOL    HW219371   1.245   0.850   5.239 -0.0108  1.1951 -1.1238
 2579SOL     OW19372   3.464   1.614   5.743  0.0943  0.2155 -0.6494
 2579SOL    HW119373   3.402   1.672   5.788  1.6206  0.5419  1.0504
 2579SOL    HW219374   3.424   1.528   5.739  1.3914 -0.4725  1.4740
 2580SOL     OW19375   4.667   2.211  12.624 -0.0594  0.0107  0.3455
 2580SOL    HW119376   4.629   2.297  12.601  1.4661  0.8530  0.9851
 2580SOL    HW219377   4.621   2.165  12.553 -1.9122  1.0695  0.8340
 2581SOL     OW19378   3.033   1.708  15.740 -0.7606  0.2893  0.2013
 2581SOL    HW119379   2.941   1.734  15.746 -0.2999  2.0619 -0.5133
 2581SOL    HW219380   3.055   1.688  15.832  0.2806  1.0712  0.1188
 2582SOL     OW19381   4.712   4.004   8.155 -0.0925  0.0800  0.3158
 2582SOL    HW119382   4.649   4.036   8.219 -0.4594  1.0106 -0.5223
 2582SOL    HW219383   0.055   3.967   8.200 -0.7902 -1.2485  0.3946
 2583SOL     OW19384   2.222   1.445  11.408 -0.2859  0.2952  0.2375
 2583SOL    HW119385   2.267   1.514  11.456  1.9675  0.7755 -2.5953
 2583SOL    HW219386   2.298   1.406  11.366 -1.7277 -1.0713 -1.1057
 2584SOL     OW19387   2.971   0.823   2.530 -0.0535 -0.5954 -0.3717
 2584SOL    HW119388   2.997   0.776   2.451  3.2419 -0.3758  0.5861
 2584SOL    HW219389   3.008   0.768   2.599  1.2258  0.6601 -0.0293
 2585SOL     OW19390   2.318   2.512   6.969 -0.4211 -0.5807  0.2360
 2585SOL    HW119391   2.320   2.498   7.064 -0.8097 -1.5006  0.1144
 2585SOL    HW219392   2.396   2.566   6.958  0.5448 -1.8091  1.0080
 2586SOL     OW19393   3.117   0.928  12.666 -0.1576 -0.3217 -0.1695
 2586SOL    HW119394   3.201   0.947  12.707 -0.5841 -1.3567  1.1990
 2586SOL    HW219395   3.116   1.000  12.603  0.8647 -0.7297 -0.6384
 2587SOL     OW19396   1.437   0.575   4.640  0.7258  0.3654  0.1644
 2587SOL    HW119397   1.441   0.480   4.635  1.2309  0.4299 -0.5518
 2587SOL    HW219398   1.530   0.595   4.628  0.2348  2.1600 -0.6763
 2588SOL     OW19399   2.380   4.682   7.142 -0.3318 -0.0039 -0.2291
 2588SOL    HW119400   2.389   0.015   7.074 -1.3076  0.2963 -0.0599
 2588SOL    HW219401   2.345   0.002   7.213  0.9049  1.8167 -0.9610
 2589SOL     OW19402   0.625   3.085   5.400 -0.4730  0.5284 -0.1828
 2589SOL    HW119403   0.672   3.035   5.467  0.7394 -0.3202 -1.6346
 2589SOL    HW219404   0.574   3.133   5.464  0.4639 -0.8554  1.5988
 2590SOL     OW19405   0.403   2.846   8.337  0.2378 -0.8310 -0.1159
 2590SOL    HW119406   0.384   2.914   8.402  0.6477 -1.4218  0.6200
 2590SOL    HW219407   0.426   2.901   8.262  0.0305  1.1865  1.2957
 2591SOL     OW19408   4.633   2.182   2.652  1.2790 -0.5473  1.0539
 2591SOL    HW119409   4.717   2.193   2.608  0.9896 -1.8601  0.1525
 2591SOL    HW219410   4.656   2.116   2.718 -0.2618 -1.8181  0.3067
 2592SOL     OW19411   1.106   2.365   2.448 -0.1722  0.4028  0.0689
 2592SOL    HW119412   1.175   2.407   2.398  0.1858  0.7421  0.8416
 2592SOL    HW219413   1.143   2.374   2.536  0.4991  0.0980 -0.1801
 2593SOL     OW19414   4.335   1.219  15.949  0.3376  0.5200  0.6202
 2593SOL    HW119415   4.287   1.263  16.019 -2.0347 -1.1744  0.0308
 2593SOL    HW219416   4.404   1.166  15.987 -0.8894 -1.4903  0.0477
 2594SOL     OW19417   3.070   3.254   8.839  0.2002  0.7617 -0.2402
 2594SOL    HW119418   3.053   3.347   8.854  0.8210  0.8634 -0.1821
 2594SOL    HW219419   3.058   3.237   8.745 -0.5438  0.3841 -0.0793
 2595SOL     OW19420   0.289   4.238   5.662 -0.2868  0.0749 -0.2303
 2595SOL    HW119421   0.312   4.322   5.700 -3.6996  0.7440  0.3451
 2595SOL    HW219422   0.295   4.188   5.743  2.7640 -0.6571 -0.9174
 2596SOL     OW19423   0.272   1.909  11.457  0.2688  0.2939 -0.2499
 2596SOL    HW119424   0.221   1.974  11.506  1.9292  1.1354  0.3516
 2596SOL    HW219425   0.284   1.840  11.522 -1.1907  0.2088 -0.0765
 2597SOL     OW19426   1.006   0.208  11.553  0.0860 -0.1830 -0.7349
 2597SOL    HW119427   0.969   0.160  11.628  0.4271  1.8768  0.7542
 2597SOL    HW219428   1.074   0.154  11.513  0.5254 -0.6712  0.6593
 2598SOL     OW19429   0.857   3.612   2.461 -1.1162  0.1358 -0.3815
 2598SOL    HW119430   0.905   3.534   2.433  1.4439  1.4483  0.3144
 2598SOL    HW219431   0.862   3.676   2.391  1.5211  3.0422  2.4854
 2599SOL     OW19432   0.524   0.180   8.068  0.1506  0.3071 -0.3578
 2599SOL    HW119433   0.469   0.246   8.027 -0.5767  1.0001  1.7362
 2599SOL    HW219434   0.497   0.192   8.159  1.4270 -1.3151  0.2411
 2600SOL     OW19435   4.191   3.395   6.394 -0.6048  0.2413  0.0363
 2600SOL    HW119436   4.120   3.454   6.421  1.2748  1.9782  1.1495
 2600SOL    HW219437   4.200   3.415   6.301  0.0749 -0.6709 -0.0888
 2601SOL     OW19438   2.987   3.885   9.036 -0.1214  0.1888  0.1291
 2601SOL    HW119439   2.951   3.914   8.952  2.0222  0.4308 -0.7187
 2601SOL    HW219440   3.080   3.894   9.015 -0.1374  1.0916  0.4193
 2602SOL     OW19441   2.425   3.616   0.737 -0.1813 -0.0741  0.0933
 2602SOL    HW119442   2.494   3.552   0.721 -0.9569 -0.1477 -2.8080
 2602SOL    HW219443   2.395   3.591   0.825  2.3303 -1.3200  0.6050
 2603SOL     OW19444   2.132   2.017  17.244  0.2384 -0.4642  0.0013
 2603SOL    HW119445   2.211   1.964  17.251 -0.1326 -1.3119 -2.4319
 2603SOL    HW219446   2.154   2.073  17.169  1.1018 -1.9148 -0.8163
 2604SOL     OW19447   1.483   1.456   9.040  0.0468  0.1623  0.0310
 2604SOL    HW119448   1.390   1.448   9.015 -0.5465  0.2815  2.2224
 2604SOL    HW219449   1.506   1.548   9.024  0.7104 -0.1171 -0.6021
 2605SOL     OW19450   4.010   4.731  10.371 -0.3279  0.0108  0.0652
 2605SOL    HW119451   3.936   4.671  10.381 -0.3983 -0.0207 -0.6467
 2605SOL    HW219452   4.027   0.003  10.277  1.2616  1.2852  0.4149
 2606SOL     OW19453   3.758   1.251  14.512 -0.7285  0.7213  0.2549
 2606SOL    HW119454   3.811   1.312  14.564 -1.3245  0.8739  0.6805
 2606SOL    HW219455   3.676   1.265  14.560 -0.4318  1.4235  0.5731
 2607SOL     OW19456   3.366   0.276  12.765 -0.2284 -0.5616 -0.1399
 2607SOL    HW119457   3.330   0.363  12.745  0.7152  0.4945  2.7876
 2607SOL    HW219458   3.309   0.248  12.837 -1.7515  2.8575 -0.0139
 2608SOL     OW19459   0.244   3.208  12.439 -0.4114  0.3269  0.3144
 2608SOL    HW119460   0.157   3.231  12.405 -0.0334 -0.8881 -1.4400
 2608SOL    HW219461   0.274   3.294  12.470  0.0065  0.3351 -0.1182
 2609SOL     OW19462   0.483   3.505   7.969 -0.7715 -0.0135 -0.1182
 2609SOL    HW119463   0.442   3.490   7.884 -0.1801  0.0738 -0.4232
 2609SOL    HW219464   0.440   3.441   8.025  1.8209 -2.3884 -0.8025
 2610SOL     OW19465   2.768   0.013  15.159 -0.0087 -0.2584  0.2491
 2610SOL    HW119466   2.759   0.014  15.063  2.2053  0.4409  0.0573
 2610SOL    HW219467   2.704   0.072  15.200  0.8541  0.3862  0.6609
 2611SOL     OW19468   4.549   4.193   5.783  0.4696  0.4712  0.4029
 2611SOL    HW119469   4.624   4.191   5.725  0.0422 -1.4467 -0.0850
 2611SOL    HW219470   4.582   4.163   5.868 -0.9529 -3.0688 -0.2949
 2612SOL     OW19471   3.669   3.213   1.237  0.1988  0.0534  0.0335
 2612SOL    HW119472   3.677   3.188   1.145  0.1358  0.2877 -0.0367
 2612SOL    HW219473   3.757   3.224   1.272  0.4858 -1.5123 -0.2075
 2613SOL     OW19474   3.078   0.019   7.036 -0.0758  0.1431 -0.1458
 2613SOL    HW119475   3.145   4.690   7.065 -1.8524 -0.9989  1.5610
 2613SOL    HW219476   3.001   4.705   7.069 -0.9965 -0.3012 -2.9547
 2614SOL     OW19477   4.583   4.673   2.342 -0.5728 -0.2130 -0.7243
 2614SOL    HW119478   4.496   4.711   2.334 -0.5401  0.3472  1.6071
 2614SOL    HW219479   4.567   4.591   2.295 -2.6757 -0.6781  0.8386
 2615SOL     OW19480   1.170   2.928   6.343 -0.3179 -0.0663  0.3603
 2615SOL    HW119481   1.176   2.836   6.317 -0.3225 -0.8008  2.9641
 2615SOL    HW219482   1.148   2.966   6.258 -0.3070  0.4443  0.5815
 2616SOL     OW19483   3.390   1.551   0.984  0.2338 -0.4842 -0.1521
 2616SOL    HW119484   3.474   1.584   1.015  0.5931 -1.2132 -0.3514
 2616SOL    HW219485   3.393   1.527   0.891  0.5721  3.1258 -1.0537
 2617SOL     OW19486   1.625   1.330  11.652  0.5760  0.2848 -0.3230
 2617SOL    HW119487   1.714   1.295  11.646  1.2763  1.6658  1.8405
 2617SOL    HW219488   1.596   1.304  11.565 -2.6066 -0.7690  1.0953
 2618SOL     OW19489   3.696   0.174   6.854 -0.1841 -0.4912  0.7191
 2618SOL    HW119490   3.674   0.147   6.943  0.5316  1.0499  1.3645
 2618SOL    HW219491   3.627   0.235   6.829  0.4063  0.5286  1.5801
 2619SOL     OW19492   4.430   1.982   4.348 -0.3349  0.2143  0.0342
 2619SOL    HW119493   4.437   1.970   4.442  3.2584  1.1197 -0.1071
 2619SOL    HW219494   4.353   2.039   4.344  0.6740  1.5377 -0.6989
 2620SOL     OW19495   2.183   3.150   5.371  0.5863  0.1777  0.4650
 2620SOL    HW119496   2.144   3.066   5.347 -0.2869  1.0431 -1.1255
 2620SOL    HW219497   2.194   3.177   5.280 -0.7591 -1.0465 -0.0680
 2621SOL     OW19498   4.526   4.047  12.578 -0.4568 -0.4183 -0.4566
 2621SOL    HW119499   4.478   4.125  12.610  0.1632 -0.6648  1.0813
 2621SOL    HW219500   4.585   4.095  12.521  1.7290  0.0983  2.2287
 2622SOL     OW19501   0.478   0.167   6.797 -0.2308 -0.7430 -0.2055
 2622SOL    HW119502   0.418   0.152   6.870  1.7063 -1.2630  1.3003
 2622SOL    HW219503   0.533   0.239   6.827 -2.5663  0.7693  0.4067
 2623SOL     OW19504   3.216   4.494   6.394 -0.2654  0.5902 -0.4293
 2623SOL    HW119505   3.311   4.507   6.399  0.1673 -2.1041 -1.5062
 2623SOL    HW219506   3.200   4.575   6.345 -1.1616  1.5041  1.3563
 2624SOL     OW19507   2.609   3.382  15.665  0.2402 -0.4289  0.1276
 2624SOL    HW119508   2.671   3.397  15.593  0.0569 -0.4140 -0.0287
 2624SOL    HW219509   2.651   3.433  15.733 -0.0977  1.1288 -0.8427
 2625SOL     OW19510   2.212   0.150   5.147 -0.1473  0.7199  0.7363
 2625SOL    HW119511   2.247   0.060   5.146 -1.3207  0.2531  1.3814
 2625SOL    HW219512   2.207   0.166   5.053 -0.3888  0.8183  0.7663
 2626SOL     OW19513   2.521   1.419   9.822  0.0170  0.0338 -0.3909
 2626SOL    HW119514   2.520   1.498   9.769  0.2077 -0.1834 -0.7175
 2626SOL    HW219515   2.582   1.361   9.777 -0.5454 -1.3843  0.6273
 2627SOL     OW19516   3.265   3.677   4.746 -0.0791  0.1993  0.2330
 2627SOL    HW119517   3.283   3.662   4.839  0.1050  1.1317  0.3534
 2627SOL    HW219518   3.296   3.594   4.710 -2.2498 -0.1323 -0.8595
 2628SOL     OW19519   4.457   3.919   5.132 -0.4566 -0.0323  0.2851
 2628SOL    HW119520   4.512   3.845   5.157 -0.2679 -0.3196 -0.9631
 2628SOL    HW219521   4.489   3.988   5.190  1.2835  0.8320 -1.7032
 2629SOL     OW19522   0.146   2.593  10.240 -0.1468 -0.0633 -0.2014
 2629SOL    HW119523   0.167   2.564  10.328  2.5118  0.1314 -0.7711
 2629SOL    HW219524   0.051   2.581  10.237 -0.2252  0.1039  1.6267
 2630SOL     OW19525   0.831   0.291  15.479 -0.2571  0.3358  0.4902
 2630SOL    HW119526   0.909   0.297  15.534  0.4094 -3.5529 -0.0277
 2630SOL    HW219527   0.874   0.258  15.400  0.7505 -0.3011  1.3024
 2631SOL     OW19528   2.176   1.934   8.043 -0.3747  0.1492  0.2870
 2631SOL    HW119529   2.238   1.865   8.019  0.8495  1.4991 -0.4397
 2631SOL    HW219530   2.158   1.974   7.958 -1.3632 -0.2078  0.3279
 2632SOL     OW19531   2.717   4.312   8.382  0.2342  0.5547 -0.1970
 2632SOL    HW119532   2.800   4.264   8.378 -0.7120 -1.0448 -0.3133
 2632SOL    HW219533   2.703   4.323   8.288 -2.6771  0.2402  0.2176
 2633SOL     OW19534   4.461   3.184   8.687  0.7640  0.0193 -0.1282
 2633SOL    HW119535   4.469   3.096   8.722  2.5479  0.4902  0.6547
 2633SOL    HW219536   4.525   3.236   8.736  0.8262 -1.1368  0.9905
 2634SOL     OW19537   0.536   2.642   0.261 -0.2359 -0.1666  0.1719
 2634SOL    HW119538   0.513   2.629   0.353  2.5349  3.1185  1.3296
 2634SOL    HW219539   0.535   2.554   0.223 -2.5312  0.1724 -0.5566
 2635SOL     OW19540   4.541   0.347   4.952 -0.0522 -0.4042 -0.5152
 2635SOL    HW119541   4.606   0.417   4.959 -0.6850  0.2189 -0.8740
 2635SOL    HW219542   4.580   0.295   5.023 -1.5484 -0.7514  0.0630
 2636SOL     OW19543   1.322   4.485   8.992 -0.0016  0.1133 -0.2795
 2636SOL    HW119544   1.337   4.398   9.028  0.8641  1.5460  2.8035
 2636SOL    HW219545   1.295   4.463   8.903  0.7378 -1.0323 -0.2299
 2637SOL     OW19546   3.402   2.803  13.495  0.1060  0.1346  0.5376
 2637SOL    HW119547   3.416   2.726  13.550  0.5620  0.2966  0.6506
 2637SOL    HW219548   3.426   2.775  13.407 -0.4428 -1.8247  1.0236
 2638SOL     OW19549   1.373   1.264   5.186  0.1838  0.2895  0.0291
 2638SOL    HW119550   1.306   1.333   5.191  0.1592  0.4815 -2.6367
 2638SOL    HW219551   1.329   1.186   5.218  0.7277 -0.1141 -0.2093
 2639SOL     OW19552   0.375   1.078  11.386  0.1964 -0.4715  0.6410
 2639SOL    HW119553   0.445   1.126  11.431  0.9935 -0.1417 -0.9481
 2639SOL    HW219554   0.413   0.992  11.402  1.1503 -0.4006 -1.2515
 2640SOL     OW19555   1.746   1.737   7.065  0.0789 -0.3209  0.4992
 2640SOL    HW119556   1.669   1.771   7.019  0.0501  0.8290  1.3981
 2640SOL    HW219557   1.793   1.818   7.085  1.2675 -1.0111  0.4860
 2641SOL     OW19558   0.546   4.128  11.779  1.1000  0.3629 -0.1992
 2641SOL    HW119559   0.622   4.150  11.833  0.0753  0.9040  0.9943
 2641SOL    HW219560   0.541   4.201  11.717  2.3363 -0.4004 -1.1972
 2642SOL     OW19561   2.145   0.280   2.540 -0.3916 -0.3985 -0.3234
 2642SOL    HW119562   2.235   0.248   2.534  0.0957  0.2460  3.6983
 2642SOL    HW219563   2.111   0.221   2.608  0.1286  0.6152  0.8100
 2643SOL     OW19564   0.897   4.594   2.996 -0.5054 -0.4500 -0.1140
 2643SOL    HW119565   0.817   4.572   2.947  0.2085 -0.3065 -1.3548
 2643SOL    HW219566   0.905   4.523   3.060 -2.7385 -0.8098 -0.2169
 2644SOL     OW19567   4.569   2.568   6.748  0.4208  0.1831 -0.4206
 2644SOL    HW119568   4.564   2.663   6.761 -0.8658  0.2295 -1.2606
 2644SOL    HW219569   4.485   2.560   6.703  0.9254 -0.5265 -1.2455
 2645SOL     OW19570   0.458   3.564   5.953  0.8828  0.2480 -0.1945
 2645SOL    HW119571   0.364   3.544   5.951  0.9017 -0.0998  3.0537
 2645SOL    HW219572   0.478   3.574   6.046 -0.7199  2.4312 -0.0804
 2646SOL     OW19573   2.623   2.694   4.217  0.8635 -0.1434 -0.0913
 2646SOL    HW119574   2.717   2.705   4.205  1.0867 -2.0598 -0.1479
 2646SOL    HW219575   2.594   2.698   4.125 -0.9736 -3.4374  0.3383
 2647SOL     OW19576   4.657   1.555   3.216 -0.2466  0.1599  0.0624
 2647SOL    HW119577   4.653   1.562   3.311 -0.8675 -0.5256  0.0832
 2647SOL    HW219578   4.611   1.472   3.209  0.8033 -0.6123  2.2721
 2648SOL     OW19579   3.553   4.478  16.171  0.5530  0.5956 -0.4127
 2648SOL    HW119580   3.596   4.562  16.186  2.0978 -0.3500  0.4108
 2648SOL    HW219581   3.484   4.518  16.119  0.7712 -0.2513 -1.3316
 2649SOL     OW19582   1.131   1.661  15.025  0.6484 -0.7500 -0.2665
 2649SOL    HW119583   1.184   1.731  15.063 -0.4393 -1.3219  2.3292
 2649SOL    HW219584   1.122   1.693  14.935 -0.2168 -0.3993 -0.0597
 2650SOL     OW19585   4.382   0.721  14.397  0.3777 -0.0129 -0.4917
 2650SOL    HW119586   4.321   0.777  14.349 -1.3702 -1.1393  0.4534
 2650SOL    HW219587   4.401   0.779  14.472  2.6880  1.3445 -2.1157
 2651SOL     OW19588   1.193   3.109   4.643 -0.0911 -0.0408  0.7704
 2651SOL    HW119589   1.115   3.163   4.630  1.0134  1.3165 -0.1795
 2651SOL    HW219590   1.160   3.051   4.575 -1.0893  2.3451 -0.7962
 2652SOL     OW19591   1.205   2.888   6.984  0.4039 -0.0127 -0.1170
 2652SOL    HW119592   1.142   2.849   6.923 -1.4098 -0.4176  2.0157
 2652SOL    HW219593   1.254   2.807   6.997  3.1215  1.5023 -0.9710
 2653SOL     OW19594   1.341   4.468  13.814  0.1052 -0.3241 -0.6120
 2653SOL    HW119595   1.252   4.464  13.780 -0.5044  0.7819  0.8577
 2653SOL    HW219596   1.380   4.536  13.759  1.8682 -1.1380 -0.3548
 2654SOL     OW19597   1.247   0.557   3.042  0.2381 -0.1782 -0.2581
 2654SOL    HW119598   1.211   0.629   3.094 -1.5340 -1.0636 -0.2796
 2654SOL    HW219599   1.173   0.498   3.036  1.4248 -1.3067 -3.4355
 2655SOL     OW19600   2.561   0.173   5.399  0.1436 -0.2396 -0.5496
 2655SOL    HW119601   2.475   0.130   5.402  0.2513 -0.3799  0.6875
 2655SOL    HW219602   2.529   0.262   5.388 -1.6660 -0.6088  1.5582
 2656SOL     OW19603   1.907   1.201   6.275 -0.7684  0.6582 -0.1479
 2656SOL    HW119604   1.977   1.204   6.210 -2.3864  0.6336 -1.8660
 2656SOL    HW219605   1.867   1.116   6.259 -2.7392  1.5461  0.1265
 2657SOL     OW19606   0.582   1.358   5.121 -0.0878  0.2637  0.4039
 2657SOL    HW119607   0.553   1.285   5.175  1.3971 -1.0825 -0.6361
 2657SOL    HW219608   0.567   1.436   5.174  1.3406 -1.2217  2.9424
 2658SOL     OW19609   3.714   1.017   9.600 -0.0039  0.8942 -0.1901
 2658SOL    HW119610   3.644   1.012   9.665 -0.4566 -1.3809 -0.8420
 2658SOL    HW219611   3.707   1.112   9.594 -0.2910  1.0053  2.1188
 2659SOL     OW19612   2.332   1.932   3.126 -0.7786 -0.3511  0.4150
 2659SOL    HW119613   2.418   1.910   3.090 -0.2051  1.6939  0.5113
 2659SOL    HW219614   2.369   1.934   3.214  1.5056 -2.2889 -0.4939
 2660SOL     OW19615   1.298   0.416   6.039  0.0622 -0.6028 -0.2330
 2660SOL    HW119616   1.336   0.351   6.098 -0.7914 -0.4369  0.4935
 2660SOL    HW219617   1.317   0.363   5.961 -1.3093  0.0293 -1.0041
 2661SOL     OW19618   4.284   3.728  12.639  0.1183 -0.5715  0.4805
 2661SOL    HW119619   4.347   3.772  12.582 -0.4526 -0.3825 -0.0021
 2661SOL    HW219620   4.346   3.697  12.705  0.8267  0.3393  0.2431
 2662SOL     OW19621   0.704   3.045   4.672 -0.8992 -0.3396 -0.1068
 2662SOL    HW119622   0.613   3.057   4.701  0.4006  2.1821  3.0019
 2662SOL    HW219623   0.744   3.020   4.755  0.4268  0.1250 -0.6111
 2663SOL     OW19624   1.888   1.440   7.151 -0.3927  0.6604 -0.3217
 2663SOL    HW119625   1.801   1.408   7.129 -0.5058  1.5940 -1.2581
 2663SOL    HW219626   1.928   1.398   7.075  0.7542  0.9443  0.1210
 2664SOL     OW19627   4.492   2.741   8.001  0.2247  0.1905 -0.4770
 2664SOL    HW119628   4.557   2.678   7.971  3.0555  2.8880 -0.0102
 2664SOL    HW219629   4.526   2.787   8.078  3.6332 -2.5402 -0.3176
 2665SOL     OW19630   4.604   2.871   2.721 -0.0028  0.3202  0.6116
 2665SOL    HW119631   4.543   2.939   2.750 -0.5535 -0.4043  1.1809
 2665SOL    HW219632   4.604   2.814   2.798 -0.3731  2.1987  1.9781
 2666SOL     OW19633   1.680   1.302  13.623 -0.0810  0.5384  0.1110
 2666SOL    HW119634   1.605   1.252  13.591  1.4504 -1.4348 -0.3915
 2666SOL    HW219635   1.647   1.384  13.661 -0.7112  1.3975 -2.3111
 2667SOL     OW19636   1.445   1.528   0.797 -0.2490  0.1599 -0.0530
 2667SOL    HW119637   1.530   1.493   0.771 -0.0681  0.2258  0.4480
 2667SOL    HW219638   1.404   1.451   0.837  0.0903 -0.9363 -1.8290
 2668SOL     OW19639   3.600   2.674   6.344  0.0831  0.7276  0.1566
 2668SOL    HW119640   3.545   2.752   6.344 -0.2956  0.4589 -2.8083
 2668SOL    HW219641   3.683   2.721   6.356 -0.5875  2.3638 -1.6850
 2669SOL     OW19642   2.868   3.867   5.668 -0.0031 -0.2564 -0.5319
 2669SOL    HW119643   2.850   3.826   5.753 -2.1712 -0.0267 -0.8898
 2669SOL    HW219644   2.807   3.823   5.610 -0.1655 -0.4174 -0.2375
 2670SOL     OW19645   2.355   3.975   7.530 -0.0140  0.1201  0.3374
 2670SOL    HW119646   2.294   3.990   7.602  1.4124 -2.6909  2.1493
 2670SOL    HW219647   2.436   4.004   7.573  0.7577 -0.6958 -0.5397
 2671SOL     OW19648   2.109   1.250   9.777  0.0800  0.3233  0.3064
 2671SOL    HW119649   2.097   1.291   9.863 -0.0486  0.0049  0.4405
 2671SOL    HW219650   2.038   1.187   9.766  0.7166 -0.1603 -1.0316
 2672SOL     OW19651   1.055   2.054   2.687 -0.6235  0.0360  0.1017
 2672SOL    HW119652   1.072   2.076   2.596  0.1010  4.6854  1.3822
 2672SOL    HW219653   0.959   2.054   2.683 -0.6664  0.7766  1.3291
 2673SOL     OW19654   1.380   4.530   6.546 -0.4953  0.0624  0.5741
 2673SOL    HW119655   1.438   4.508   6.472 -0.1333 -0.6237  1.0553
 2673SOL    HW219656   1.304   4.480   6.516  0.5977 -0.4519 -1.4183
 2674SOL     OW19657   3.142   1.242  15.143 -0.3961 -0.4745  0.0285
 2674SOL    HW119658   3.205   1.296  15.095 -1.4686 -1.5242 -2.5294
 2674SOL    HW219659   3.158   1.274  15.232 -0.9297 -0.7231  0.2154
 2675SOL     OW19660   2.635   4.691   3.265 -0.0336 -0.3760 -0.3437
 2675SOL    HW119661   2.579   0.010   3.322 -0.5988 -1.2081 -0.1406
 2675SOL    HW219662   2.659   4.615   3.317  0.5354  1.3038  1.8375
 2676SOL     OW19663   1.385   3.831   1.874 -0.3897  0.4522 -0.4302
 2676SOL    HW119664   1.424   3.766   1.815  0.2393  0.5988 -0.1769
 2676SOL    HW219665   1.296   3.843   1.840 -0.8772  0.8429  1.0032
 2677SOL     OW19666   2.411   1.485   2.171  0.0723  0.3321  0.1853
 2677SOL    HW119667   2.465   1.453   2.243  0.5247  1.6138  0.4199
 2677SOL    HW219668   2.334   1.523   2.214 -0.2525  0.2643 -0.3460
 2678SOL     OW19669   3.015   1.295   4.455  0.3314 -0.2801 -0.0195
 2678SOL    HW119670   3.030   1.328   4.544 -0.8876  1.3421 -0.4328
 2678SOL    HW219671   3.045   1.206   4.472 -1.1184 -0.7013  0.3208
 2679SOL     OW19672   1.567   3.892   4.698 -0.2965 -0.3465  0.1107
 2679SOL    HW119673   1.534   3.804   4.720  0.8644 -0.7491  0.2110
 2679SOL    HW219674   1.589   3.912   4.789 -1.3305 -1.0821  0.5294
 2680SOL     OW19675   0.844   3.353   9.245 -0.0827  0.4551 -0.2478
 2680SOL    HW119676   0.850   3.264   9.279  0.6432  0.7339  0.3456
 2680SOL    HW219677   0.918   3.396   9.287 -0.0421  1.3372 -1.2227
 2681SOL     OW19678   2.798   3.197   7.777  0.0844 -0.0496  0.0389
 2681SOL    HW119679   2.722   3.245   7.746 -1.5968 -1.6170  1.6821
 2681SOL    HW219680   2.830   3.159   7.695 -1.3593 -0.1003 -0.4972
 2682SOL     OW19681   4.457   3.061   2.880  0.8368 -0.5962  0.7487
 2682SOL    HW119682   4.439   3.114   2.802  2.3576  0.5659  1.1985
 2682SOL    HW219683   4.531   3.107   2.919  0.7081  0.1853  0.0827
 2683SOL     OW19684   0.666   3.458   6.749 -1.0274  0.0341 -0.3727
 2683SOL    HW119685   0.707   3.541   6.724 -0.6185  0.5412  1.9746
 2683SOL    HW219686   0.590   3.488   6.799 -0.6495 -0.9763  0.8094
 2684SOL     OW19687   2.029   2.318   8.032 -0.4269 -0.5587  0.7510
 2684SOL    HW119688   2.031   2.301   7.938  0.8394 -1.0638  0.8660
 2684SOL    HW219689   2.122   2.315   8.056 -0.0997  0.0363 -0.4249
 2685SOL     OW19690   0.522   2.966   3.525  0.7441 -0.4215  0.7383
 2685SOL    HW119691   0.470   2.955   3.445  2.0356 -2.4270  0.1919
 2685SOL    HW219692   0.597   3.008   3.484  0.2733  0.5948  0.8953
 2686SOL     OW19693   3.669   3.486   7.964  0.8793  0.4166 -0.0684
 2686SOL    HW119694   3.694   3.455   8.051 -1.7948  0.5955  0.7744
 2686SOL    HW219695   3.611   3.417   7.932  2.8245 -1.1332 -0.2318
 2687SOL     OW19696   2.108   4.246   2.276  0.1676  0.0082 -0.1448
 2687SOL    HW119697   2.118   4.151   2.268  1.1435  0.1131 -0.1776
 2687SOL    HW219698   2.201   4.267   2.287  0.6022 -1.6302 -0.5745
 2688SOL     OW19699   1.407   1.863  10.393 -0.2021 -0.0537 -0.2245
 2688SOL    HW119700   1.336   1.904  10.443  0.7483 -1.6519  2.4451
 2688SOL    HW219701   1.402   1.900  10.305 -1.7147 -0.1335 -0.1831
 2689SOL     OW19702   2.927   4.142   8.402 -0.7895  0.5476  0.1978
 2689SOL    HW119703   2.997   4.160   8.465  0.6774  1.0267 -1.5489
 2689SOL    HW219704   2.980   4.126   8.324 -0.0678  0.7742  0.6431
 2690SOL     OW19705   2.965   1.577  17.712 -0.0836 -0.0653 -0.0334
 2690SOL    HW119706   2.903   1.646  17.689  0.7825  1.2002  1.4418
 2690SOL    HW219707   2.984   1.547  17.624  1.1810  0.5260  0.0451
 2691SOL     OW19708   3.970   4.120  15.924 -0.0160 -0.3000  0.0395
 2691SOL    HW119709   3.958   4.180  15.851 -2.0613 -1.1788 -0.3600
 2691SOL    HW219710   3.881   4.088  15.943  1.5316 -3.5458  1.9293
 2692SOL     OW19711   0.916   0.126   3.091 -0.1539 -0.1741 -0.0813
 2692SOL    HW119712   0.953   0.038   3.087 -3.2233 -1.5329  1.3877
 2692SOL    HW219713   0.832   0.115   3.047  0.0652 -1.0006 -0.2949
 2693SOL     OW19714   0.649   1.779   3.125  0.4125 -0.4644 -0.3420
 2693SOL    HW119715   0.696   1.699   3.104 -0.1097 -0.7526 -0.4168
 2693SOL    HW219716   0.709   1.850   3.105  0.4913  0.4851  3.2451
 2694SOL     OW19717   0.483   3.340  16.381  0.3228  0.1806 -0.4734
 2694SOL    HW119718   0.449   3.395  16.311 -1.9688  0.8511  1.1818
 2694SOL    HW219719   0.411   3.330  16.443  1.6649  0.0633  1.1054
 2695SOL     OW19720   1.825   4.609   7.098 -0.0585  0.9796 -0.4211
 2695SOL    HW119721   1.843   4.516   7.083 -0.4306  0.8197  0.1037
 2695SOL    HW219722   1.911   4.651   7.103  0.3997  0.0664 -0.5350
 2696SOL     OW19723   3.969   2.747   4.588 -0.7743 -0.0069  0.1426
 2696SOL    HW119724   3.974   2.679   4.521 -2.3279  0.8012 -0.8131
 2696SOL    HW219725   3.881   2.779   4.568 -0.9315 -0.2927  0.3889
 2697SOL     OW19726   3.562   1.223   1.955  0.3013 -0.2617  0.1144
 2697SOL    HW119727   3.588   1.211   2.046 -2.2337 -1.1491  0.7155
 2697SOL    HW219728   3.498   1.292   1.969  0.8879  0.7237 -1.9817
 2698SOL     OW19729   3.297   2.870   2.187 -0.2535 -1.1629 -0.3137
 2698SOL    HW119730   3.376   2.828   2.152 -0.3868 -0.7847 -1.0599
 2698SOL    HW219731   3.265   2.807   2.252 -1.9526  0.4598  0.4321
 2699SOL     OW19732   3.805   2.135   3.630  0.0570 -0.3990 -0.4551
 2699SOL    HW119733   3.852   2.072   3.575  2.1644  0.0167  0.8611
 2699SOL    HW219734   3.842   2.220   3.606  2.4647 -1.0913  0.8042
 2700SOL     OW19735   1.909   3.550   6.441  0.1459 -0.6005  0.0120
 2700SOL    HW119736   1.916   3.642   6.465 -1.1677 -0.5574  0.2158
 2700SOL    HW219737   1.862   3.520   6.519  0.3339  1.9353  1.1101
 2701SOL     OW19738   1.038   1.617   8.129  0.4392  0.0968  0.1186
 2701SOL    HW119739   1.107   1.556   8.103 -0.8844 -0.8253 -1.2709
 2701SOL    HW219740   1.076   1.702   8.107  1.4778  0.0806  1.8736
 2702SOL     OW19741   0.799   2.303   6.546  0.1634  0.2047  0.4367
 2702SOL    HW119742   0.793   2.339   6.458  0.4143 -0.0891  0.2976
 2702SOL    HW219743   0.706   2.315   6.565 -0.1885  0.2901 -1.3971
 2703SOL     OW19744   1.972   0.861   7.127 -0.5373 -0.0321 -0.2099
 2703SOL    HW119745   1.985   0.786   7.068  0.3515 -1.7084  2.1281
 2703SOL    HW219746   1.963   0.812   7.208 -1.0801  0.6060  0.1195
 2704SOL     OW19747   3.509   0.750   2.551  0.4167  0.4271 -0.0709
 2704SOL    HW119748   3.567   0.747   2.474 -1.6357  0.6402 -1.6256
 2704SOL    HW219749   3.574   0.732   2.619 -1.5420  2.7958  2.4198
 2705SOL     OW19750   1.672   0.253  13.537  0.1954 -0.0463  0.7659
 2705SOL    HW119751   1.594   0.211  13.501 -0.1106 -0.0684  1.4539
 2705SOL    HW219752   1.628   0.318  13.592 -0.6738  0.2545 -0.2963
 2706SOL     OW19753   3.932   4.494   8.934 -0.3122  0.4916  0.3805
 2706SOL    HW119754   3.858   4.509   8.875  1.0600  1.0665 -1.1768
 2706SOL    HW219755   3.966   4.580   8.958 -2.4187  1.0573  1.3738
 2707SOL     OW19756   1.826   1.231  10.041 -0.5139 -0.0345 -0.1128
 2707SOL    HW119757   1.799   1.170  10.110 -2.5721  0.4043 -0.5277
 2707SOL    HW219758   1.841   1.166   9.972 -2.0729 -1.3694  0.8087
 2708SOL     OW19759   3.640   2.662   6.835 -0.2623  1.0138  0.4933
 2708SOL    HW119760   3.628   2.673   6.929  0.2607  1.3445  0.5210
 2708SOL    HW219761   3.560   2.702   6.804  1.0766  2.1745 -1.4199
 2709SOL     OW19762   0.434   2.396   9.381 -0.4439 -0.5860  0.6546
 2709SOL    HW119763   0.489   2.360   9.450 -0.7213 -0.0051  1.1800
 2709SOL    HW219764   0.452   2.490   9.394  1.8833 -0.8282 -0.8026
 2710SOL     OW19765   2.522   4.180   4.416 -0.1877  0.0767  0.7972
 2710SOL    HW119766   2.428   4.184   4.435 -0.1613  1.4529  0.6258
 2710SOL    HW219767   2.544   4.270   4.441  1.2120 -0.2768  0.8775
 2711SOL     OW19768   0.993   1.720   3.132 -0.6053  0.0856  0.0760
 2711SOL    HW119769   0.975   1.638   3.087  0.1423 -0.7788  1.3677
 2711SOL    HW219770   1.047   1.682   3.202  1.3221 -1.0200 -2.0144
 2712SOL     OW19771   2.457   1.583   1.168  0.0105  0.2367  0.0822
 2712SOL    HW119772   2.371   1.625   1.170  0.8154  1.8944  0.2154
 2712SOL    HW219773   2.461   1.526   1.091  1.2997  0.9382 -0.3724
 2713SOL     OW19774   2.121   1.238   6.102 -0.3134  0.4187  0.1359
 2713SOL    HW119775   2.188   1.235   6.033 -0.1160  0.1247  0.3404
 2713SOL    HW219776   2.053   1.268   6.041  0.9774  0.0679 -1.4891
 2714SOL     OW19777   1.253   0.154   3.198  0.4606 -0.3498  0.1361
 2714SOL    HW119778   1.175   0.106   3.225  1.1653 -0.8868  1.2040
 2714SOL    HW219779   1.221   0.242   3.178 -2.9788 -1.5716  0.3918
 2715SOL     OW19780   1.400   0.023   6.332  0.4418  0.4023  0.0261
 2715SOL    HW119781   1.465   4.713   6.387  0.4461 -1.9413 -1.8407
 2715SOL    HW219782   1.434   4.731   6.246  2.7998  0.1568  1.0255
 2716SOL     OW19783   1.090   3.586   8.418  0.0640 -0.1005 -0.2704
 2716SOL    HW119784   1.129   3.514   8.468 -0.9899 -0.5566 -0.0927
 2716SOL    HW219785   1.164   3.646   8.412  0.3904 -0.5718 -1.0369
 2717SOL     OW19786   3.930   3.636  10.400  0.4792 -0.2201 -0.3100
 2717SOL    HW119787   3.883   3.570  10.350  3.6986 -1.6849 -1.4309
 2717SOL    HW219788   3.858   3.665  10.455  0.4728 -0.5316 -0.1534
 2718SOL     OW19789   3.665   4.181  12.071  0.1375  0.4378  0.5628
 2718SOL    HW119790   3.730   4.120  12.105 -0.3143 -0.0226  0.6107
 2718SOL    HW219791   3.594   4.165  12.133  0.0892  1.2216  0.7083
 2719SOL     OW19792   3.947   2.313  12.295 -0.1307 -0.1123 -0.1803
 2719SOL    HW119793   3.891   2.268  12.359 -1.1371  0.3129 -0.7564
 2719SOL    HW219794   3.994   2.239  12.256 -2.3039 -1.0460 -1.0328
 2720SOL     OW19795   1.072   3.287  12.353 -0.1368  0.0250 -0.1023
 2720SOL    HW119796   1.026   3.216  12.309  0.5903 -1.2531  1.1789
 2720SOL    HW219797   1.162   3.255  12.359  0.0085  0.7478  1.5109
 2721SOL     OW19798   2.504   0.802   9.876 -0.5570  0.0806 -0.5092
 2721SOL    HW119799   2.415   0.808   9.842 -0.1769 -3.4855 -2.0798
 2721SOL    HW219800   2.525   0.878   9.930  1.3930 -0.4521 -0.5081
 2722SOL     OW19801   0.838   2.595   7.412 -0.6591  0.3957 -0.2808
 2722SOL    HW119802   0.899   2.526   7.386 -0.8687  1.0919 -2.6334
 2722SOL    HW219803   0.897   2.667   7.432 -0.5503  0.0564  0.6166
 2723SOL     OW19804   1.369   1.230   2.696  0.0448  0.3003 -0.2156
 2723SOL    HW119805   1.399   1.152   2.650  0.0676 -0.0186  0.3388
 2723SOL    HW219806   1.274   1.218   2.701  0.1322 -0.8610 -1.3403
 2724SOL     OW19807   3.415   0.676   3.696 -0.0907  0.0961 -0.1294
 2724SOL    HW119808   3.399   0.651   3.787  1.1675  2.6567  0.8028
 2724SOL    HW219809   3.493   0.732   3.702 -0.0714 -0.1980  2.2306
 2725SOL     OW19810   3.009   3.924   7.865  0.2060  0.2365 -0.1804
 2725SOL    HW119811   2.960   3.850   7.902  0.0832 -1.0198 -2.8936
 2725SOL    HW219812   3.102   3.899   7.875 -0.0548 -0.0886  1.5491
 2726SOL     OW19813   4.505   4.477  11.517  0.0070  0.1090 -0.0748
 2726SOL    HW119814   4.440   4.547  11.510 -0.0549  0.3027  2.2525
 2726SOL    HW219815   4.455   4.402  11.551  0.4921  0.8089  2.2341
 2727SOL     OW19816   3.009   4.040  17.125 -0.4349 -0.2354 -0.5351
 2727SOL    HW119817   2.956   4.071  17.199  0.2303  0.6652 -0.4486
 2727SOL    HW219818   2.977   3.949  17.120 -0.6624 -0.2193  0.6527
 2728SOL     OW19819   4.534   2.072   6.153 -0.2222 -0.1220  0.1123
 2728SOL    HW119820   4.546   2.114   6.068  2.4550 -1.1860 -0.0462
 2728SOL    HW219821   4.605   2.110   6.205 -1.6995  1.1764  1.1652
 2729SOL     OW19822   0.546   4.059   2.773  0.3949  0.1768  0.2299
 2729SOL    HW119823   0.603   4.128   2.808 -0.1639  1.7948 -2.0936
 2729SOL    HW219824   0.531   4.004   2.850 -0.7763 -0.2304 -0.3080
 2730SOL     OW19825   0.749   2.337   1.055  0.0799  0.3420 -0.2700
 2730SOL    HW119826   0.730   2.406   1.119  0.3731  0.4897 -0.3408
 2730SOL    HW219827   0.844   2.336   1.070 -0.0751 -1.5908  0.6119
 2731SOL     OW19828   1.646   3.972   1.050  0.4206  0.2022  0.4261
 2731SOL    HW119829   1.693   3.934   0.976  1.7611  2.0479  0.3342
 2731SOL    HW219830   1.720   3.956   1.109  1.4667 -1.2092 -1.2767
 2732SOL     OW19831   0.444   4.340   0.953 -0.1487  0.5697  0.1686
 2732SOL    HW119832   0.496   4.420   0.940  0.1675  0.2341 -0.6622
 2732SOL    HW219833   0.446   4.338   1.048 -1.2086 -4.1304  0.0962
 2733SOL     OW19834   3.831   4.471  15.988  0.3358  0.0879  0.1050
 2733SOL    HW119835   3.768   4.530  15.946  1.1480  0.2828 -0.8469
 2733SOL    HW219836   3.887   4.447  15.914  2.5345  0.0332  1.7976
 2734SOL     OW19837   0.846   1.325   3.309 -0.0632 -0.8291 -0.8377
 2734SOL    HW119838   0.928   1.360   3.341 -0.4433 -0.1954 -0.5627
 2734SOL    HW219839   0.865   1.232   3.321 -0.2448 -0.5996  1.2065
 2735SOL     OW19840   4.350   2.076   5.365 -0.2075  0.6526 -0.4565
 2735SOL    HW119841   4.293   2.014   5.321  0.4328 -2.1458  2.6824
 2735SOL    HW219842   4.429   2.077   5.310 -1.2876 -0.6523 -1.9960
 2736SOL     OW19843   3.768   3.753   7.410 -0.0950  0.2553  0.6727
 2736SOL    HW119844   3.751   3.706   7.491  1.8566  0.3510  1.1481
 2736SOL    HW219845   3.697   3.717   7.357  3.1825 -3.2674 -1.3849
 2737SOL     OW19846   3.231   1.478   3.010 -0.4509  0.5967  0.0036
 2737SOL    HW119847   3.164   1.525   2.961 -0.4205  0.6155 -0.0199
 2737SOL    HW219848   3.279   1.447   2.933  0.1120  1.1053  0.1465
 2738SOL     OW19849   4.250   1.363  16.198  0.2002 -0.0812 -0.0597
 2738SOL    HW119850   4.224   1.425  16.266 -0.8282 -2.4755  1.7019
 2738SOL    HW219851   4.343   1.373  16.216  0.1878  0.9488 -0.5442
 2739SOL     OW19852   3.449   2.888   5.352 -0.4379 -0.2075  0.0561
 2739SOL    HW119853   3.453   2.891   5.447  0.3232 -0.7336  0.0407
 2739SOL    HW219854   3.361   2.860   5.326 -0.7247 -0.8932  1.7974
 2740SOL     OW19855   3.811   1.764  13.150  0.0528 -0.1938  0.8795
 2740SOL    HW119856   3.876   1.757  13.221 -0.1593  1.9502  1.2892
 2740SOL    HW219857   3.843   1.837  13.099  0.5661 -0.3585  0.9650
 2741SOL     OW19858   1.775   2.293   8.644  0.5972  0.1459  0.2389
 2741SOL    HW119859   1.775   2.332   8.731  0.4965 -0.5116  0.5328
 2741SOL    HW219860   1.697   2.332   8.603  1.2960 -0.1530 -1.3945
 2742SOL     OW19861   4.024   1.527   0.856 -0.3424  0.3592  0.4737
 2742SOL    HW119862   4.002   1.456   0.796 -0.4796  1.1102 -0.3625
 2742SOL    HW219863   3.991   1.490   0.938  0.8939 -0.5623  0.5558
 2743SOL     OW19864   0.197   3.981  17.316 -0.0626  0.3492 -0.3170
 2743SOL    HW119865   0.149   3.996  17.234  0.2237  1.0187 -0.3587
 2743SOL    HW219866   0.268   4.043  17.300  0.5885 -0.8012 -1.9393
 2744SOL     OW19867   1.322   2.203   4.978 -0.1408  0.4763 -0.8117
 2744SOL    HW119868   1.415   2.183   4.963 -0.2744 -0.9529  0.2339
 2744SOL    HW219869   1.340   2.264   5.049 -0.2615  0.8697 -1.1216
 2745SOL     OW19870   4.518   0.936  13.703 -0.1176  0.2115 -0.4037
 2745SOL    HW119871   4.507   0.996  13.629  1.2657 -0.6346 -1.3083
 2745SOL    HW219872   4.585   0.987  13.749  0.0349  2.9377 -3.6596
 2746SOL     OW19873   4.235   3.765   6.183 -0.0924 -0.2980  0.1511
 2746SOL    HW119874   4.330   3.756   6.186  0.1304  2.1747 -0.2559
 2746SOL    HW219875   4.208   3.680   6.148  0.2352 -1.5722  2.9733
 2747SOL     OW19876   1.288   1.057   6.959 -0.4103 -0.2081 -0.1745
 2747SOL    HW119877   1.311   0.967   6.982  1.7382  0.1517 -0.9181
 2747SOL    HW219878   1.282   1.104   7.042  2.0176  0.9803 -0.6863
 2748SOL     OW19879   2.141   2.072  13.012 -0.1561  0.4696 -0.8999
 2748SOL    HW119880   2.093   2.080  13.095 -1.4144  0.5629 -1.6359
 2748SOL    HW219881   2.217   2.024  13.045 -1.3772  0.2567  1.6331
 2749SOL     OW19882   4.730   3.235   3.672  0.0686 -0.2923  0.6156
 2749SOL    HW119883   0.004   3.283   3.754 -0.1357  0.3191  0.2779
 2749SOL    HW219884   0.041   3.154   3.695 -0.3593 -0.9999 -1.0645
 2750SOL     OW19885   0.951   4.532  15.412  0.2946 -0.2656 -0.0957
 2750SOL    HW119886   1.020   4.468  15.397 -0.8991 -1.3216 -1.1295
 2750SOL    HW219887   0.996   4.594  15.470  1.7378 -0.4990 -0.9662
 2751SOL     OW19888   0.963   1.395  16.456 -0.2920 -0.1094  0.3192
 2751SOL    HW119889   0.935   1.312  16.493 -0.5888 -0.8197 -1.4988
 2751SOL    HW219890   0.878   1.430  16.428  0.8611  0.2899 -2.6616
 2752SOL     OW19891   1.857   1.567   8.489 -0.3608 -0.0177  0.2863
 2752SOL    HW119892   1.924   1.606   8.545  0.5800 -1.4201  0.1286
 2752SOL    HW219893   1.802   1.642   8.467 -1.3958 -0.5333  1.1549
 2753SOL     OW19894   4.270   1.328   8.743 -0.2656  0.4177  0.2460
 2753SOL    HW119895   4.251   1.285   8.660 -0.7656  0.1004  0.5267
 2753SOL    HW219896   4.343   1.381   8.711 -1.6376  1.8665 -0.5335
 2754SOL     OW19897   0.480   2.786  12.576 -0.1721 -0.1614 -0.4823
 2754SOL    HW119898   0.432   2.817  12.652  1.7608 -1.5552  1.3093
 2754SOL    HW219899   0.436   2.702  12.559 -1.5590  0.6550 -0.8314
 2755SOL     OW19900   1.771   2.698  15.005  0.4858 -0.4343 -0.1362
 2755SOL    HW119901   1.858   2.732  15.023  1.1933 -2.6429  0.6548
 2755SOL    HW219902   1.710   2.763  15.040  0.9545  0.4697 -1.0175
 2756SOL     OW19903   0.144   1.342   2.741 -0.1492  0.0189  0.1802
 2756SOL    HW119904   0.087   1.314   2.812  1.6863 -2.2193  0.7822
 2756SOL    HW219905   0.094   1.410   2.696  0.3147  0.2951  0.0829
 2757SOL     OW19906   0.349   3.777  15.319 -0.9490 -0.5408 -0.2887
 2757SOL    HW119907   0.334   3.869  15.297 -0.8715 -0.4202  0.1678
 2757SOL    HW219908   0.272   3.743  15.274  0.0875 -1.7006 -1.1697
 2758SOL     OW19909   0.471   1.082   3.563  0.3756  0.0041 -0.7929
 2758SOL    HW119910   0.473   1.165   3.516  0.4219 -0.2040 -1.1610
 2758SOL    HW219911   0.547   1.094   3.620 -1.9440  2.3276  1.7723
 2759SOL     OW19912   1.898   1.111   5.746  0.4266  0.8156  0.1312
 2759SOL    HW119913   1.899   1.083   5.837  4.0839 -0.6058 -0.3389
 2759SOL    HW219914   1.970   1.061   5.707 -0.3128  0.0686 -0.2618
 2760SOL     OW19915   0.804   4.543  15.190 -0.1861  0.3816 -0.1580
 2760SOL    HW119916   0.875   4.527  15.253  2.0435 -0.7972 -2.9690
 2760SOL    HW219917   0.746   4.588  15.251  1.7034  0.7369  1.3958
 2761SOL     OW19918   4.466   1.772   9.293  0.3283  0.3269  0.4490
 2761SOL    HW119919   4.494   1.683   9.274 -0.9264 -0.3529  1.8044
 2761SOL    HW219920   4.483   1.767   9.387  1.7886 -1.9304  0.0675
 2762SOL     OW19921   3.155   4.114   8.586  0.3313 -0.3557 -0.0677
 2762SOL    HW119922   3.107   4.155   8.657  0.5777  0.7660 -0.5455
 2762SOL    HW219923   3.244   4.148   8.591  0.6734 -1.2342 -0.1934
 2763SOL     OW19924   3.188   1.190   3.157  0.5015  0.0194 -0.4001
 2763SOL    HW119925   3.184   1.124   3.088 -2.1252 -1.1975  0.9124
 2763SOL    HW219926   3.173   1.275   3.116 -0.1034  0.1974  0.2089
 2764SOL     OW19927   3.039   2.991   4.704  0.2029 -0.5910  0.2430
 2764SOL    HW119928   3.092   2.912   4.700  0.8074 -0.1536 -0.4575
 2764SOL    HW219929   2.954   2.948   4.712 -0.8020  1.2310 -0.5646
 2765SOL     OW19930   1.518   0.874   2.071  0.0485 -0.4933 -0.0794
 2765SOL    HW119931   1.450   0.867   2.005 -0.2506  1.9878 -0.0293
 2765SOL    HW219932   1.461   0.836   2.138  0.4472 -0.7711  0.1027
 2766SOL     OW19933   1.291   1.755   2.627 -0.7505  0.3278  0.3658
 2766SOL    HW119934   1.289   1.851   2.624 -1.1310  0.3004 -0.2206
 2766SOL    HW219935   1.309   1.750   2.721  0.1692  0.3051  0.1838
 2767SOL     OW19936   3.206   1.190   1.873  0.1568  0.1176  0.0708
 2767SOL    HW119937   3.217   1.106   1.827  1.7628 -0.2270  1.1199
 2767SOL    HW219938   3.125   1.228   1.837 -0.9112 -1.3141  0.9527
 2768SOL     OW19939   4.375   1.612  12.898  0.0856  0.5472 -0.4409
 2768SOL    HW119940   4.319   1.571  12.832  1.0672 -0.6076 -0.5487
 2768SOL    HW219941   4.445   1.651  12.846 -0.0395 -0.3836 -1.2977
 2769SOL     OW19942   4.129   3.402   7.806 -0.4961  0.3614 -0.0511
 2769SOL    HW119943   4.177   3.415   7.724 -1.3534 -0.7931 -0.7386
 2769SOL    HW219944   4.178   3.461   7.864 -1.0582  2.1181 -1.3573
 2770SOL     OW19945   2.329   0.962   6.117 -0.4916 -0.3856  0.3784
 2770SOL    HW119946   2.252   0.907   6.133 -1.2842  0.4070 -0.7232
 2770SOL    HW219947   2.374   0.958   6.201  1.8150 -2.5467 -0.9606
 2771SOL     OW19948   3.887   3.784   9.343 -0.0959 -1.0513  0.2811
 2771SOL    HW119949   3.906   3.730   9.267  0.5958 -0.9887  0.4100
 2771SOL    HW219950   3.952   3.853   9.324 -1.3695  0.3220  0.9079
 2772SOL     OW19951   4.176   4.224   4.327  0.0863 -0.2148 -0.2521
 2772SOL    HW119952   4.212   4.211   4.415 -0.9904 -0.8504  0.1049
 2772SOL    HW219953   4.239   4.173   4.276  0.8426 -0.7156  1.1637
 2773SOL     OW19954   2.874   4.117   3.307  0.0006 -0.3651  0.1517
 2773SOL    HW119955   2.854   4.025   3.327  0.6645  0.2221  3.5032
 2773SOL    HW219956   2.942   4.097   3.243 -0.7979  0.3059 -0.9063
 2774SOL     OW19957   3.125   0.601  16.271  0.3178 -0.7938 -0.1764
 2774SOL    HW119958   3.131   0.679  16.328 -1.9509 -1.1828  0.5653
 2774SOL    HW219959   3.031   0.598  16.254 -0.0898  3.8055  1.2280
 2775SOL     OW19960   3.555   2.116   3.030 -0.4586 -0.0757 -0.0489
 2775SOL    HW119961   3.639   2.110   3.074 -2.1024 -0.2874  3.0808
 2775SOL    HW219962   3.578   2.139   2.940  2.0730 -0.4417  0.5114
 2776SOL     OW19963   3.508   0.312   6.571 -0.1769  0.1701 -0.5099
 2776SOL    HW119964   3.480   0.227   6.537  1.3568 -0.5009 -0.0821
 2776SOL    HW219965   3.602   0.313   6.556 -0.0592  0.2439  0.2142
 2777SOL     OW19966   1.289   1.763   4.549  0.0974  0.4177  0.4265
 2777SOL    HW119967   1.272   1.849   4.511 -1.8106 -0.0376  0.2492
 2777SOL    HW219968   1.303   1.779   4.642  0.8048  1.3602  0.1582
 2778SOL     OW19969   2.943   4.562  11.725 -0.0684 -0.1354  0.2388
 2778SOL    HW119970   2.989   4.592  11.647 -1.8343  2.3134  0.1529
 2778SOL    HW219971   2.884   4.637  11.722  0.3226  0.1891  0.6911
 2779SOL     OW19972   4.412   3.772   2.709  0.4607  0.0350 -0.2931
 2779SOL    HW119973   4.378   3.715   2.641 -0.7998  2.2428 -1.5262
 2779SOL    HW219974   4.332   3.787   2.759  1.4175 -1.3915  1.6661
 2780SOL     OW19975   2.059   2.054  12.235 -0.3938  0.5786  0.2955
 2780SOL    HW119976   2.147   2.086  12.251 -0.0139 -0.6064  0.5782
 2780SOL    HW219977   2.088   1.991  12.170  0.8343  1.2106  0.2386
 2781SOL     OW19978   4.177   3.376   4.047  0.4254 -0.1244  0.1386
 2781SOL    HW119979   4.195   3.376   4.141  0.5492 -3.2540  0.1291
 2781SOL    HW219980   4.186   3.285   4.018 -0.8242 -0.0520 -0.4513
 2782SOL     OW19981   3.487   0.981   5.600  0.2388  0.1890 -0.0269
 2782SOL    HW119982   3.527   0.927   5.669 -1.7223 -1.2969 -0.0825
 2782SOL    HW219983   3.558   1.044   5.585  0.1114  0.2950 -0.1833
 2783SOL     OW19984   2.137   1.950   2.174  0.4132  0.4839  0.2862
 2783SOL    HW119985   2.129   1.864   2.216 -0.2152 -0.9409 -2.7647
 2783SOL    HW219986   2.079   1.992   2.237 -0.8759 -0.4670 -0.2593
 2784SOL     OW19987   2.122   0.356   1.800  1.1134  0.0371 -0.2575
 2784SOL    HW119988   2.175   0.423   1.843  0.8930 -0.3550  0.6073
 2784SOL    HW219989   2.152   0.272   1.835  1.0494 -0.9201 -2.4721
 2785SOL     OW19990   3.166   3.304   8.329  0.5841  0.5389  0.8143
 2785SOL    HW119991   3.247   3.341   8.293  0.1045  0.1976 -0.5862
 2785SOL    HW219992   3.109   3.370   8.290 -3.9343 -2.5614  2.1923
 2786SOL     OW19993   3.176   4.300   4.344  0.2661 -0.2143  0.0726
 2786SOL    HW119994   3.130   4.354   4.280  0.4194 -2.3498 -1.8419
 2786SOL    HW219995   3.138   4.332   4.426 -0.4466 -0.9073  0.0188
 2787SOL     OW19996   4.701   1.286   0.698 -0.1983  0.1090 -0.0806
 2787SOL    HW119997   0.017   1.204   0.691 -0.6391 -0.1492 -0.2376
 2787SOL    HW219998   4.715   1.329   0.614 -2.1188  2.5364  0.8678
 2788SOL     OW19999   4.304   4.395  17.245 -0.2005  0.2428  0.2182
 2788SOL    HW120000   4.342   4.460  17.303  1.0658 -0.4433  0.1597
 2788SOL    HW220001   4.238   4.346  17.294  0.1330 -0.3913  0.0411
 2789SOL     OW20002   3.140   0.742   3.675 -0.1712 -0.2922 -0.4031
 2789SOL    HW120003   3.178   0.797   3.743  0.6263 -0.8053 -0.4405
 2789SOL    HW220004   3.217   0.695   3.644  0.4775 -0.2936  1.2300
 2790SOL     OW20005   0.539   2.009   2.441  0.3598 -0.1765  0.3399
 2790SOL    HW120006   0.491   2.091   2.448 -0.6638 -0.6965 -0.6095
 2790SOL    HW220007   0.466   1.951   2.418  0.6449  0.4003 -2.0556
 2791SOL     OW20008   2.858   4.419  11.123  0.4087 -0.2126 -0.1679
 2791SOL    HW120009   2.811   4.480  11.179  0.9532 -1.1709  1.3299
 2791SOL    HW220010   2.818   4.335  11.145 -1.9927  0.9072 -0.2902
 2792SOL     OW20011   2.669   4.578   8.880 -0.0094 -0.3141 -0.0384
 2792SOL    HW120012   2.595   4.548   8.934  1.0987  0.1422  1.7523
 2792SOL    HW220013   2.638   4.535   8.801 -2.4360  0.6559  0.3775
 2793SOL     OW20014   1.297   2.437   2.262 -0.4033  0.3641  0.1248
 2793SOL    HW120015   1.237   2.413   2.191  0.9082  0.7196 -1.1130
 2793SOL    HW220016   1.383   2.425   2.221 -1.2650  0.8820 -1.8268
 2794SOL     OW20017   1.323   3.100   7.926  0.0520  0.1744  0.2359
 2794SOL    HW120018   1.254   3.065   7.869 -0.0531  2.1046 -0.8321
 2794SOL    HW220019   1.271   3.111   8.005  1.3047 -0.3187  1.1131
 2795SOL     OW20020   4.051   3.158   4.948  0.4221  0.5105  0.1670
 2795SOL    HW120021   3.979   3.104   4.914 -0.2830  0.4723  1.7422
 2795SOL    HW220022   4.019   3.246   4.929 -0.7889 -0.4556 -2.3034
 2796SOL     OW20023   3.565   1.618   3.158 -0.1814 -0.2363  0.0074
 2796SOL    HW120024   3.518   1.553   3.106 -0.6678  0.3775 -0.3249
 2796SOL    HW220025   3.564   1.570   3.241 -1.9056 -0.0547  0.0854
 2797SOL     OW20026   3.434   1.789  17.447 -0.2064  0.5857  0.1324
 2797SOL    HW120027   3.355   1.741  17.424  1.0035 -0.5660 -1.5931
 2797SOL    HW220028   3.466   1.815  17.361  0.2146 -0.6014 -0.0600
 2798SOL     OW20029   4.347   4.349   8.877  0.1067  0.8225  0.5166
 2798SOL    HW120030   4.346   4.260   8.913  0.6052  0.0985 -1.2647
 2798SOL    HW220031   4.254   4.357   8.857  0.3254  1.1288 -0.3514
 2799SOL     OW20032   4.232   0.070   8.185  0.1344  0.1216  0.5622
 2799SOL    HW120033   4.149   0.084   8.139  0.4532 -1.7160 -0.5899
 2799SOL    HW220034   4.288   0.120   8.125  1.8508 -0.2062  1.8918
 2800SOL     OW20035   1.244   0.478   3.360 -0.2066  0.0006  0.1508
 2800SOL    HW120036   1.165   0.518   3.323  0.0809  0.1457 -0.3093
 2800SOL    HW220037   1.199   0.411   3.410 -1.7777  0.0656 -1.1766
 2801SOL     OW20038   1.990   0.840   2.734  0.1193 -0.5223 -0.0774
 2801SOL    HW120039   1.905   0.797   2.723  0.3570 -1.4987  1.9883
 2801SOL    HW220040   2.008   0.869   2.644 -3.0628 -1.1510 -0.9250
 2802SOL     OW20041   2.766   0.543   0.927  0.4419  0.4649  0.4299
 2802SOL    HW120042   2.748   0.511   1.015  1.0484 -1.1457 -0.0350
 2802SOL    HW220043   2.736   0.634   0.933  0.5623  0.4199  1.5895
 2803SOL     OW20044   2.368   4.062  15.823  0.6100 -0.1640 -0.6338
 2803SOL    HW120045   2.347   4.124  15.893  1.4595 -2.6708  1.8377
 2803SOL    HW220046   2.435   4.118  15.784  1.5426  1.3678  3.2434
 2804SOL     OW20047   1.996   1.100  10.333 -0.3300 -0.2841  0.6511
 2804SOL    HW120048   2.008   1.194  10.339 -1.0305 -0.1750  0.3995
 2804SOL    HW220049   1.901   1.103  10.319 -0.4173 -0.8263  1.1038
 2805SOL     OW20050   4.131   2.192   2.792 -0.2952  0.2986 -0.4451
 2805SOL    HW120051   4.095   2.108   2.819 -0.7882  0.2196 -1.3266
 2805SOL    HW220052   4.096   2.192   2.702  0.9898  0.3693 -0.9440
 2806SOL     OW20053   2.818   1.586  13.994  0.2930 -0.2401 -0.5811
 2806SOL    HW120054   2.844   1.494  14.007 -0.9000 -0.6584 -1.1212
 2806SOL    HW220055   2.906   1.622  13.996 -0.3848  1.3032  0.9864
 2807SOL     OW20056   1.463   3.429   0.103 -0.4995  0.2993  0.1176
 2807SOL    HW120057   1.481   3.350   0.154 -0.6674 -0.1030 -0.4382
 2807SOL    HW220058   1.537   3.424   0.041 -0.5179  0.7454  0.0575
 2808SOL     OW20059   4.526   1.667   1.803 -0.6860  0.3611 -0.0507
 2808SOL    HW120060   4.459   1.648   1.737 -2.6515 -2.4655  2.7712
 2808SOL    HW220061   4.512   1.594   1.864 -2.7370  0.7554 -0.0434
 2809SOL     OW20062   2.252   1.687   2.352 -0.0384  0.1296 -0.4858
 2809SOL    HW120063   2.248   1.776   2.387  0.7376  0.7950 -2.1144
 2809SOL    HW220064   2.305   1.643   2.419 -0.4025  0.3155 -0.0773
 2810SOL     OW20065   2.123   3.826   4.730  0.0464 -0.0151  0.1383
 2810SOL    HW120066   2.113   3.781   4.814 -1.0331  1.2642  0.6697
 2810SOL    HW220067   2.198   3.783   4.687 -0.6630 -0.2422 -0.8941
 2811SOL     OW20068   2.487   2.357   6.627  0.0326 -0.3282  0.7282
 2811SOL    HW120069   2.504   2.318   6.713 -0.4572  0.4920  1.2025
 2811SOL    HW220070   2.531   2.290   6.575 -0.6182 -1.4534  1.6222
 2812SOL     OW20071   2.182   2.508   2.993  0.6506 -0.0027 -0.2417
 2812SOL    HW120072   2.216   2.597   2.995 -1.7186  0.8413  1.7164
 2812SOL    HW220073   2.158   2.505   2.901 -2.1937 -0.1275  0.4979
 2813SOL     OW20074   4.353   1.919   7.938  0.3152 -0.2554 -0.4237
 2813SOL    HW120075   4.398   1.915   7.854  1.9911  1.4970  0.4175
 2813SOL    HW220076   4.372   1.828   7.962  0.1164  0.1503  1.3179
 2814SOL     OW20077   4.193   4.079   3.900 -0.4141  0.0152  0.3499
 2814SOL    HW120078   4.144   4.059   3.980  0.1998 -0.1851  0.6753
 2814SOL    HW220079   4.176   3.997   3.854 -1.0802 -0.2906  1.1385
 2815SOL     OW20080   4.385   3.206   7.099 -0.0802 -0.4686 -0.4788
 2815SOL    HW120081   4.408   3.121   7.061  0.7350 -0.6469  0.4009
 2815SOL    HW220082   4.329   3.172   7.168  0.1525 -1.1547 -0.6240
 2816SOL     OW20083   2.967   2.341  13.528 -0.0077 -0.1281 -0.7267
 2816SOL    HW120084   2.884   2.309  13.492  0.1632 -1.2088 -0.1627
 2816SOL    HW220085   2.933   2.413  13.582  1.0366 -0.8190  0.8579
 2817SOL     OW20086   0.370   0.776   4.299  0.4879  0.4053 -0.0462
 2817SOL    HW120087   0.362   0.804   4.390 -1.2849  1.4163 -0.5006
 2817SOL    HW220088   0.349   0.856   4.250  1.2501  1.1120  0.7827
 2818SOL     OW20089   0.171   1.176   2.375 -0.4068 -0.4059  0.6112
 2818SOL    HW120090   0.095   1.147   2.324  0.4656 -2.8378  0.7359
 2818SOL    HW220091   0.233   1.185   2.302 -0.6145 -0.8718  0.3822
 2819SOL     OW20092   2.942   2.289   4.038  0.2443  0.5383 -0.3251
 2819SOL    HW120093   2.846   2.296   4.037  0.2194  0.3871  1.2460
 2819SOL    HW220094   2.956   2.237   3.959 -0.0986  0.6929 -0.4904
 2820SOL     OW20095   3.509   0.469  14.857 -0.0473  0.0196 -0.6743
 2820SOL    HW120096   3.510   0.563  14.875 -1.3859 -0.0215 -0.3602
 2820SOL    HW220097   3.531   0.464  14.764 -1.9903 -2.0015 -1.0368
 2821SOL     OW20098   4.098   3.541   3.456  0.0152 -0.4556 -0.7176
 2821SOL    HW120099   4.061   3.629   3.467 -0.8296 -0.8811 -0.1963
 2821SOL    HW220100   4.046   3.489   3.517 -0.4966  1.4923  0.4945
 2822SOL     OW20101   4.190   2.632  15.072  0.2695  0.4815 -0.4353
 2822SOL    HW120102   4.109   2.649  15.025  0.6228 -0.7024 -1.4585
 2822SOL    HW220103   4.244   2.633  14.994  2.6892  2.6485  1.2510
 2823SOL     OW20104   1.050   4.194   5.623  0.4563 -0.3950  0.5175
 2823SOL    HW120105   0.987   4.267   5.619 -1.7970 -2.3781  0.0916
 2823SOL    HW220106   1.135   4.238   5.627  0.2715 -0.0169  0.2604
 2824SOL     OW20107   4.230   4.584   3.246  0.6739 -0.1232 -0.0863
 2824SOL    HW120108   4.272   4.608   3.163  3.0720 -1.2051  0.8258
 2824SOL    HW220109   4.274   4.506   3.278  0.2364 -0.4510 -0.2844
 2825SOL     OW20110   3.305   2.359  14.300 -0.4890 -0.1032  0.8983
 2825SOL    HW120111   3.385   2.373  14.350  0.3083 -1.2869 -0.0579
 2825SOL    HW220112   3.342   2.354  14.212 -2.7213  0.6428 -0.0846
 2826SOL     OW20113   0.395   0.386  13.062 -0.4227 -0.0630  0.1957
 2826SOL    HW120114   0.455   0.437  13.117  1.3309  0.2076 -1.9475
 2826SOL    HW220115   0.414   0.438  12.984 -1.9087 -0.0712 -0.1721
 2827SOL     OW20116   2.395   2.499   7.650  0.6641 -0.0263 -0.1006
 2827SOL    HW120117   2.380   2.551   7.571 -1.7168  0.9584  0.9993
 2827SOL    HW220118   2.476   2.450   7.639 -0.6730 -1.5874 -2.9222
 2828SOL     OW20119   2.113   2.255   3.079 -0.0370  0.0036 -0.3435
 2828SOL    HW120120   2.166   2.326   3.043 -0.8060  0.8787  0.2592
 2828SOL    HW220121   2.140   2.261   3.171 -2.0410  0.5191  0.2170
 2829SOL     OW20122   2.172   0.830   9.168  0.1248  0.2685  0.1943
 2829SOL    HW120123   2.234   0.812   9.097 -1.3487 -0.0822 -0.9870
 2829SOL    HW220124   2.249   0.838   9.225  0.9499  0.4920 -0.9692
 2830SOL     OW20125   3.603   2.915   6.944  0.3644 -0.4830  0.0417
 2830SOL    HW120126   3.597   2.990   7.004 -0.9119 -1.4615  1.1478
 2830SOL    HW220127   3.534   2.925   6.878 -0.4936  0.8146  1.1308
 2831SOL     OW20128   4.244   0.415  14.828  0.5049  0.1892 -0.4424
 2831SOL    HW120129   4.170   0.379  14.877 -0.0907  2.1843  0.1251
 2831SOL    HW220130   4.190   0.411  14.750  0.6340  1.5137 -0.5966
 2832SOL     OW20131   2.480   1.351   8.847 -0.3554  0.0121 -0.4012
 2832SOL    HW120132   2.457   1.438   8.881  3.5512  0.6817  0.4709
 2832SOL    HW220133   2.476   1.295   8.925  1.7278 -1.1056 -1.1033
 2833SOL     OW20134   4.566   3.516   1.613 -0.1692 -0.3329  0.5532
 2833SOL    HW120135   4.661   3.531   1.610 -0.1921 -0.5663 -1.7408
 2833SOL    HW220136   4.551   3.445   1.676  0.5663 -1.3553 -0.4131
 2834SOL     OW20137   0.059   4.573   7.812  0.5638 -0.2314  0.0011
 2834SOL    HW120138   0.038   4.637   7.880 -3.2660  0.0005 -1.3509
 2834SOL    HW220139   4.724   4.582   7.745  0.8118 -0.9448 -0.3441
 2835SOL     OW20140   0.660   0.737  15.470 -0.2161  0.0056  0.1255
 2835SOL    HW120141   0.579   0.709  15.511  0.5600  1.0692  2.3480
 2835SOL    HW220142   0.636   0.740  15.377 -0.5767 -1.9040  0.1541
 2836SOL     OW20143   4.199   3.188   1.896 -0.2846  0.3910  0.3400
 2836SOL    HW120144   4.133   3.119   1.896 -0.6986  0.7702  1.8719
 2836SOL    HW220145   4.256   3.163   1.824 -0.2045  2.8170 -0.4298
 2837SOL     OW20146   1.742   1.537   3.174 -0.0277 -0.0097  0.4545
 2837SOL    HW120147   1.803   1.579   3.113 -1.4900  2.6496  0.8249
 2837SOL    HW220148   1.692   1.615   3.199  2.6616  1.3736  1.6125
 2838SOL     OW20149   1.489   2.044   8.626 -0.9760 -0.3894 -0.3272
 2838SOL    HW120150   1.512   2.088   8.708  1.5035 -0.8491 -0.7778
 2838SOL    HW220151   1.424   2.103   8.588  0.0463  0.0986 -1.3328
 2839SOL     OW20152   3.552   2.070   3.313 -0.0166  0.3548 -0.3556
 2839SOL    HW120153   3.638   2.028   3.305 -0.6949 -1.2303  0.8998
 2839SOL    HW220154   3.572   2.158   3.344 -0.0690 -0.0034  0.6717
 2840SOL     OW20155   3.777   3.023   8.282  0.6324  0.0101 -0.0258
 2840SOL    HW120156   3.840   2.957   8.254  1.3535 -0.0570  1.7488
 2840SOL    HW220157   3.809   3.041   8.370 -1.7557  0.5552  0.7371
 2841SOL     OW20158   2.633   4.617   7.648  0.4192  0.1500  0.4602
 2841SOL    HW120159   2.548   4.657   7.632 -0.3646 -2.1388 -1.0297
 2841SOL    HW220160   2.650   4.645   7.738  0.2173  1.3632  0.1160
 2842SOL     OW20161   0.090   3.726  14.942  0.2799 -0.3082 -0.1014
 2842SOL    HW120162   0.117   3.810  14.905 -1.0871 -0.6385 -1.8866
 2842SOL    HW220163   0.074   3.675  14.862 -1.5341 -0.4671  0.3457
 2843SOL     OW20164   4.555   3.053   1.207 -0.5225  0.4666  0.2454
 2843SOL    HW120165   4.595   3.134   1.175  0.7846 -0.1501  0.3082
 2843SOL    HW220166   4.554   2.986   1.139 -0.5366  2.3066 -1.5861
 2844SOL     OW20167   1.418   3.769   5.973 -0.9551 -0.0991 -0.3368
 2844SOL    HW120168   1.377   3.819   6.043 -0.9240  1.7810 -1.6656
 2844SOL    HW220169   1.442   3.834   5.907 -0.2998  0.3398  0.3286
 2845SOL     OW20170   1.463   0.655  16.658  0.1797  0.0458 -0.4226
 2845SOL    HW120171   1.442   0.738  16.614 -0.3695 -0.1251 -0.4767
 2845SOL    HW220172   1.558   0.667  16.656  0.3147 -1.0167 -0.2940
 2846SOL     OW20173   1.763   3.455  10.153  0.1924 -0.1138 -0.3974
 2846SOL    HW120174   1.724   3.540  10.129  0.8421  0.9460  2.2778
 2846SOL    HW220175   1.855   3.477  10.141  0.0257 -0.0567 -1.5221
 2847SOL     OW20176   1.180   3.163   3.704  0.1658 -0.0424 -0.3880
 2847SOL    HW120177   1.198   3.134   3.794 -0.6670  0.1473 -0.1586
 2847SOL    HW220178   1.176   3.258   3.717  1.4315 -0.1303  0.7584
 2848SOL     OW20179   1.681   3.175   9.238  0.0610 -0.5728 -0.7028
 2848SOL    HW120180   1.691   3.252   9.182 -0.4834 -0.5433 -0.7580
 2848SOL    HW220181   1.772   3.145   9.230  0.7608  1.1505  0.6969
 2849SOL     OW20182   0.214   4.136  10.571 -0.3284 -0.4060 -0.2151
 2849SOL    HW120183   0.175   4.073  10.510  2.3101 -1.6507 -0.6260
 2849SOL    HW220184   0.206   4.221  10.529 -0.2561 -1.1452 -1.7433
 2850SOL     OW20185   2.028   3.851   6.784  0.3280 -0.2015  0.6503
 2850SOL    HW120186   1.969   3.895   6.723  2.0842 -0.8423 -1.5414
 2850SOL    HW220187   2.111   3.867   6.738 -0.4451 -0.9137 -1.0140
 2851SOL     OW20188   1.346   0.644   3.580  0.3621  0.1533  0.0736
 2851SOL    HW120189   1.319   0.568   3.529 -2.0521 -0.7111  2.6389
 2851SOL    HW220190   1.352   0.595   3.663 -1.0738  0.6257  0.4705
 2852SOL     OW20191   2.654   1.521   8.159  0.0381  0.1246 -0.4755
 2852SOL    HW120192   2.559   1.525   8.150 -0.1631 -0.5623  1.4211
 2852SOL    HW220193   2.676   1.606   8.197 -0.0249  0.8285 -2.0057
 2853SOL     OW20194   4.593   0.636   4.900  0.1763 -0.1816  0.8430
 2853SOL    HW120195   4.602   0.635   4.995 -3.1111 -1.2472  1.1550
 2853SOL    HW220196   4.498   0.644   4.886  0.1689  2.6417  2.7145
 2854SOL     OW20197   1.890   2.978  14.461  0.1171 -0.5671  0.5844
 2854SOL    HW120198   1.815   3.035  14.447 -0.5393 -1.6223 -0.1670
 2854SOL    HW220199   1.854   2.934  14.538 -2.8174  4.2610  1.9810
 2855SOL     OW20200   4.559   1.368  14.779  0.6696 -0.6916 -0.4891
 2855SOL    HW120201   4.499   1.303  14.741  0.1129 -0.7502  0.5150
 2855SOL    HW220202   4.513   1.451  14.774  1.1171 -0.3539  1.0020
 2856SOL     OW20203   0.146   1.015  15.064  0.7271 -0.0617 -0.4715
 2856SOL    HW120204   0.234   1.017  15.101  0.8894 -0.3684 -0.8414
 2856SOL    HW220205   0.105   1.084  15.118  0.8668  0.3518 -0.8953
 2857SOL     OW20206   1.450   4.274   2.223 -0.2897 -0.0716 -0.8224
 2857SOL    HW120207   1.432   4.187   2.259  2.5904 -1.4178 -2.6369
 2857SOL    HW220208   1.465   4.312   2.309  0.5332 -2.1122 -0.0676
 2858SOL     OW20209   1.528   3.397   4.007  0.1929 -0.9514 -0.4822
 2858SOL    HW120210   1.542   3.354   4.092  0.1379  1.6315  0.8441
 2858SOL    HW220211   1.520   3.486   4.043 -1.2671 -1.0299 -0.6378
 2859SOL     OW20212   1.511   0.850   6.583 -0.5073 -0.3507 -0.4093
 2859SOL    HW120213   1.507   0.754   6.577  0.4722 -0.6479  3.4520
 2859SOL    HW220214   1.604   0.862   6.569 -0.3872  0.3137  0.9377
 2860SOL     OW20215   0.827   3.694   6.738 -0.1227 -0.2666 -0.0166
 2860SOL    HW120216   0.814   3.789   6.742 -1.1216 -0.4248  0.4927
 2860SOL    HW220217   0.850   3.677   6.830 -1.7026 -1.5180  0.1444
 2861SOL     OW20218   2.613   0.824   2.973  0.2297  0.2322 -0.2083
 2861SOL    HW120219   2.688   0.769   2.948 -0.4184 -0.2582 -1.0862
 2861SOL    HW220220   2.545   0.758   2.987  1.7113 -1.5471 -1.3086
 2862SOL     OW20221   3.738   3.225  10.661 -0.1323 -0.6268  0.2699
 2862SOL    HW120222   3.687   3.259  10.735 -0.2796 -1.8244  0.7228
 2862SOL    HW220223   3.723   3.300  10.604 -1.5971 -0.1327  1.3109
 2863SOL     OW20224   2.426   2.596  16.238 -0.2361 -0.8692 -0.0810
 2863SOL    HW120225   2.366   2.545  16.292 -1.7731 -0.6122 -1.5602
 2863SOL    HW220226   2.391   2.683  16.255  2.9707  0.2656  0.7635
 2864SOL     OW20227   0.660   1.875   0.501 -0.3126  0.6578  0.3433
 2864SOL    HW120228   0.734   1.901   0.446  0.8512 -0.3724  1.4284
 2864SOL    HW220229   0.668   1.931   0.579  1.1710 -0.4736  1.0134
 2865SOL     OW20230   4.061   1.731  11.004  0.7205  0.3390  0.0721
 2865SOL    HW120231   4.060   1.790  10.928 -0.1894 -0.1343 -0.2800
 2865SOL    HW220232   4.002   1.658  10.984  1.7315 -0.0762 -1.3781
 2866SOL     OW20233   2.595   4.646   6.184  0.0108 -0.3606  0.1679
 2866SOL    HW120234   2.595   4.709   6.112 -1.8230 -0.1474  0.3516
 2866SOL    HW220235   2.652   4.678   6.253  0.3636  0.1189 -0.3417
 2867SOL     OW20236   3.726   3.978   8.865 -0.5232  0.4808 -1.0029
 2867SOL    HW120237   3.641   3.967   8.907 -0.1768  1.0089 -0.1586
 2867SOL    HW220238   3.749   4.069   8.885 -0.3643  0.8019 -2.6303
 2868SOL     OW20239   0.879   1.349   2.127 -0.0608  0.3276 -0.3588
 2868SOL    HW120240   0.843   1.292   2.060 -1.5636  0.8751 -0.0403
 2868SOL    HW220241   0.830   1.315   2.202 -1.6858  0.3175 -1.4264
 2869SOL     OW20242   1.841   0.734   3.351 -0.3027  0.0004  0.4060
 2869SOL    HW120243   1.795   0.734   3.435 -0.1357  0.1778  0.4971
 2869SOL    HW220244   1.806   0.648   3.326 -1.1477  0.3749  0.2898
 2870SOL     OW20245   1.980   2.494   5.944  0.4636 -0.1598 -0.2806
 2870SOL    HW120246   1.899   2.518   5.899 -0.1677 -1.5390  0.1404
 2870SOL    HW220247   1.980   2.548   6.023  1.1456  1.3793 -1.3290
 2871SOL     OW20248   2.215   3.148   9.149  0.4286 -0.1637 -0.3415
 2871SOL    HW120249   2.121   3.132   9.154  0.4212 -0.4079 -1.2860
 2871SOL    HW220250   2.243   3.109   9.066  0.0094 -0.0554 -0.5342
 2872SOL     OW20251   2.656   3.443   3.517 -0.0610  0.1528 -0.1938
 2872SOL    HW120252   2.705   3.374   3.473  0.5836 -0.4071  1.3963
 2872SOL    HW220253   2.574   3.450   3.467  0.3204  0.1038 -0.8311
 2873SOL     OW20254   0.441   3.863   7.454 -0.1793  0.1043 -0.0977
 2873SOL    HW120255   0.441   3.946   7.503  0.2929  0.2921 -0.4096
 2873SOL    HW220256   0.355   3.826   7.473 -0.6130  0.7686 -0.7939
 2874SOL     OW20257   0.165   2.740   2.196 -0.4025  0.0570  0.4588
 2874SOL    HW120258   0.144   2.716   2.286 -0.0896 -0.6086  0.3597
 2874SOL    HW220259   0.126   2.674   2.138  1.8568 -2.0609  1.3415
 2875SOL     OW20260   1.414   3.244   9.013  0.4349  0.5892  0.4811
 2875SOL    HW120261   1.470   3.319   9.031  0.4743  0.5368  0.5814
 2875SOL    HW220262   1.437   3.187   9.087  1.7171  1.9070  1.0860
 2876SOL     OW20263   3.375   3.715   3.830 -0.3281  0.4679  0.0803
 2876SOL    HW120264   3.351   3.726   3.922 -1.4341 -2.8034  0.1957
 2876SOL    HW220265   3.291   3.682   3.798  0.7443 -2.5894  0.3562
 2877SOL     OW20266   0.125   2.669  11.282 -0.3234  0.3834 -0.3295
 2877SOL    HW120267   0.195   2.620  11.240 -2.1577 -0.0052 -2.9896
 2877SOL    HW220268   0.102   2.729  11.211  2.6476  0.5659 -1.1315
 2878SOL     OW20269   2.222   0.015  11.414  0.2162  0.0029 -0.3443
 2878SOL    HW120270   2.205   4.654  11.417  1.3433 -0.1616  0.6936
 2878SOL    HW220271   2.150   0.015  11.477  0.6354  1.4377  0.1245
 2879SOL     OW20272   1.420   4.078   6.532 -0.2432  0.1719 -0.2658
 2879SOL    HW120273   1.423   4.165   6.574  0.5329  0.2977 -0.5860
 2879SOL    HW220274   1.464   4.091   6.448  0.0503  1.1726  0.0365
 2880SOL     OW20275   1.779   1.826   1.967 -0.3675  0.1933 -0.0287
 2880SOL    HW120276   1.801   1.747   1.918  2.4263  0.0037  1.5386
 2880SOL    HW220277   1.850   1.884   1.939 -0.2550  0.0199 -0.1040
 2881SOL     OW20278   3.263   1.630   9.110 -0.7269 -0.0055 -0.0038
 2881SOL    HW120279   3.282   1.645   9.018 -1.7771 -0.2992 -0.2672
 2881SOL    HW220280   3.241   1.537   9.108  0.1156 -0.2723  2.6393
 2882SOL     OW20281   0.753   3.014   6.735 -0.1315 -0.2391 -0.3394
 2882SOL    HW120282   0.659   3.004   6.720 -0.4327  1.5354  0.3523
 2882SOL    HW220283   0.787   2.926   6.752  2.8241  1.1698  1.1373
 2883SOL     OW20284   3.790   4.495  15.372 -0.9853 -0.2468  0.1262
 2883SOL    HW120285   3.816   4.403  15.375 -1.7217 -0.4185  1.1103
 2883SOL    HW220286   3.815   4.518  15.282  0.2406 -0.7491  0.3452
 2884SOL     OW20287   1.749   0.098   5.744 -0.5523 -0.6564  0.1189
 2884SOL    HW120288   1.836   0.061   5.726 -0.6426 -1.8499  2.1527
 2884SOL    HW220289   1.737   0.164   5.676  2.0053 -2.1150 -1.7465
 2885SOL     OW20290   1.673   2.473   8.043  0.4575 -0.3268 -0.2583
 2885SOL    HW120291   1.642   2.564   8.048  0.0541 -0.4550 -0.4639
 2885SOL    HW220292   1.610   2.427   7.988  0.6697  1.0566 -1.6631
 2886SOL     OW20293   4.557   2.545   3.292  0.0792 -0.1126  0.6580
 2886SOL    HW120294   4.648   2.559   3.320  1.0436 -3.4305 -0.8407
 2886SOL    HW220295   4.568   2.474   3.228  2.2283  1.7419 -1.0447
 2887SOL     OW20296   3.209   2.596   4.685 -0.7417 -0.8749  0.3671
 2887SOL    HW120297   3.193   2.517   4.635 -1.6527  0.7165 -1.8483
 2887SOL    HW220298   3.224   2.558   4.772  2.4131 -0.6222 -0.0783
 2888SOL     OW20299   3.442   1.175  15.479  0.1222 -0.5212  0.4323
 2888SOL    HW120300   3.494   1.241  15.434  1.5266 -1.7103  0.2979
 2888SOL    HW220301   3.513   1.124  15.520  0.9175  1.6229  1.7046
 2889SOL     OW20302   3.641   2.636   8.518  0.6425  0.0586  0.6672
 2889SOL    HW120303   3.726   2.660   8.482  0.3062 -2.4616 -1.7394
 2889SOL    HW220304   3.633   2.546   8.485  1.6047  0.4233 -0.5377
 2890SOL     OW20305   1.847   2.083  11.664 -0.5817  0.3240 -0.1398
 2890SOL    HW120306   1.871   2.008  11.610 -2.2277 -0.0601 -0.3451
 2890SOL    HW220307   1.865   2.050  11.752 -0.2610 -0.8761 -0.6544
 2891SOL     OW20308   1.385   1.681   1.606  0.0050  0.7580  0.1268
 2891SOL    HW120309   1.394   1.773   1.632  0.5573  0.9108 -0.6184
 2891SOL    HW220310   1.453   1.665   1.541 -1.3657 -0.2799 -1.0417
 2892SOL     OW20311   0.672   0.888   6.343 -0.1669 -0.0520 -0.2288
 2892SOL    HW120312   0.766   0.901   6.352  0.2787 -1.5678 -2.6161
 2892SOL    HW220313   0.652   0.945   6.269 -1.7111 -0.3477 -0.0363
 2893SOL     OW20314   3.276   1.939   8.096  0.3530 -0.1093  0.2032
 2893SOL    HW120315   3.200   1.996   8.085 -0.6135 -1.4712 -0.1956
 2893SOL    HW220316   3.234   1.855   8.115  1.1749 -0.5352  0.1052
 2894SOL     OW20317   1.291   1.897   6.293  0.5034 -0.5757  0.1341
 2894SOL    HW120318   1.282   1.858   6.380  0.9287 -1.1873 -0.0948
 2894SOL    HW220319   1.239   1.977   6.304  1.6076  0.1516  0.1302
 2895SOL     OW20320   1.037   3.451   5.018  0.2104 -0.8783  0.1539
 2895SOL    HW120321   1.052   3.460   5.112 -2.4044 -0.3722  0.5374
 2895SOL    HW220322   1.033   3.355   5.024  1.3245 -0.9348 -0.0472
 2896SOL     OW20323   3.395   1.950  16.280 -0.0235 -0.5541  0.1510
 2896SOL    HW120324   3.335   1.895  16.231 -0.2210 -0.0002 -0.2338
 2896SOL    HW220325   3.381   2.029  16.228  1.1371  0.3419  1.1985
 2897SOL     OW20326   3.263   2.541   7.923 -0.9332  0.1072  0.4289
 2897SOL    HW120327   3.253   2.461   7.872 -0.5925  0.3693 -0.0540
 2897SOL    HW220328   3.229   2.518   8.010 -3.1711  2.7957  0.2685
 2898SOL     OW20329   3.556   1.666   8.685  0.1937  0.5868 -0.3595
 2898SOL    HW120330   3.573   1.666   8.591  1.1635  1.0005 -0.1839
 2898SOL    HW220331   3.633   1.618   8.715 -0.4509 -0.1523  0.1127
 2899SOL     OW20332   1.521   3.870   9.465  0.8205 -0.4892  0.5951
 2899SOL    HW120333   1.597   3.917   9.431  0.4970  1.2229  2.2468
 2899SOL    HW220334   1.481   3.841   9.383  0.4721  1.4055  0.1061
 2900SOL     OW20335   3.103   4.092   7.668 -0.4038  0.3439 -0.9095
 2900SOL    HW120336   3.068   4.033   7.735  0.1155 -0.5692 -1.4424
 2900SOL    HW220337   3.161   4.151   7.717 -0.3151 -0.8466  0.4150
 2901SOL     OW20338   4.013   3.010   4.258  0.3931  0.3243  0.2473
 2901SOL    HW120339   4.040   2.920   4.238  1.6338  1.2597 -2.1283
 2901SOL    HW220340   4.069   3.047   4.191  0.3640  2.5426  1.4428
 2902SOL     OW20341   2.287   1.121   3.157  0.0469  0.0886 -0.4207
 2902SOL    HW120342   2.316   1.208   3.186  2.1198 -0.8031  0.2180
 2902SOL    HW220343   2.356   1.099   3.095  0.5023 -0.1895  0.1808
 2903SOL     OW20344   2.679   3.838  17.091  0.7456  0.6313  0.6329
 2903SOL    HW120345   2.747   3.784  17.130  0.1221 -1.3100 -0.9452
 2903SOL    HW220346   2.728   3.915  17.062 -0.1245  0.8893 -0.1916
 2904SOL     OW20347   3.717   4.267   8.944  0.2360  0.1004 -0.3956
 2904SOL    HW120348   3.794   4.306   8.986  0.6662 -1.6286  0.4583
 2904SOL    HW220349   3.706   4.307   8.858  1.5865  2.0807  0.3642
 2905SOL     OW20350   2.313   2.961  15.783 -0.1128  0.1980  0.3690
 2905SOL    HW120351   2.326   2.897  15.714  0.7533 -0.2611  0.9562
 2905SOL    HW220352   2.385   3.023  15.766 -0.7966  1.6797  2.7918
 2906SOL     OW20353   2.080   1.558   4.532  0.4253 -0.1691 -0.1109
 2906SOL    HW120354   2.166   1.588   4.503  0.0616  0.2192 -0.7971
 2906SOL    HW220355   2.037   1.639   4.559  1.7004  1.0044 -1.6080
 2907SOL     OW20356   0.076   4.047  17.063 -0.0534 -0.0145  0.4966
 2907SOL    HW120357   0.052   4.133  17.098 -1.7470  0.3057 -1.4894
 2907SOL    HW220358   0.134   4.066  16.990 -0.1977 -1.2387  0.0654
 2908SOL     OW20359   4.706   0.235   3.512 -0.1719  0.1272  0.1091
 2908SOL    HW120360   4.717   0.302   3.580 -1.9039 -0.8456  1.3474
 2908SOL    HW220361   4.698   0.159   3.569  2.0274 -0.5700 -0.5115
 2909SOL     OW20362   4.724   1.737   6.024 -0.1947  0.2379  0.0161
 2909SOL    HW120363   4.646   1.752   5.970 -0.8778 -2.0638  0.3473
 2909SOL    HW220364   0.056   1.715   5.958  0.7382  2.7787  0.0791
 2910SOL     OW20365   2.669   2.582   3.438 -0.0534  0.3200 -0.2963
 2910SOL    HW120366   2.593   2.640   3.431 -0.8259 -0.5212  1.2673
 2910SOL    HW220367   2.644   2.499   3.398  0.5616 -0.5658  1.1472
 2911SOL     OW20368   1.852   3.342   4.603  0.4568 -0.1006  0.3483
 2911SOL    HW120369   1.898   3.266   4.568 -2.8327 -1.4851 -0.9646
 2911SOL    HW220370   1.928   3.399   4.609  0.3019  0.1290  0.1046
 2912SOL     OW20371   2.699   4.101   8.147  0.0021 -0.0591 -0.4220
 2912SOL    HW120372   2.604   4.093   8.155  0.1114 -0.7788  0.1735
 2912SOL    HW220373   2.714   4.014   8.109 -0.7944  0.3682 -1.7145
 2913SOL     OW20374   4.337   3.852   3.537  0.3529 -0.1645  0.2431
 2913SOL    HW120375   4.268   3.857   3.604  0.8028  0.2043  0.6740
 2913SOL    HW220376   4.364   3.944   3.538  2.0511 -0.6894  1.9789
 2914SOL     OW20377   4.439   1.067   2.079 -0.4397 -0.2522  0.0551
 2914SOL    HW120378   4.532   1.057   2.099 -0.5629 -1.6143 -0.1076
 2914SOL    HW220379   4.407   0.978   2.071  0.9031 -0.9818  2.8708
 2915SOL     OW20380   4.499   1.179  10.066  0.0861 -0.5244  0.1533
 2915SOL    HW120381   4.483   1.157  10.157  0.3393 -3.1204 -0.4460
 2915SOL    HW220382   4.574   1.239  10.074 -3.1568  3.3844  1.0659
 2916SOL     OW20383   1.306   3.099   2.258 -0.3772  0.2719 -0.2864
 2916SOL    HW120384   1.222   3.146   2.252 -0.1741  0.9533  2.0048
 2916SOL    HW220385   1.322   3.140   2.343  0.2583  0.6884 -0.6128
 2917SOL     OW20386   1.542   1.513  15.498 -0.1014  0.1670 -0.1152
 2917SOL    HW120387   1.636   1.513  15.478 -0.7704  0.7732 -3.2352
 2917SOL    HW220388   1.514   1.427  15.468  0.1562 -0.4416  1.4129
 2918SOL     OW20389   3.804   2.013  14.423 -0.3102  0.6337  0.5783
 2918SOL    HW120390   3.841   2.098  14.400 -1.8278  0.6784 -1.6840
 2918SOL    HW220391   3.858   1.950  14.470 -2.4212 -1.7492 -0.1813
 2919SOL     OW20392   0.046   4.001   4.929 -0.1308 -0.0141 -0.4540
 2919SOL    HW120393   4.708   4.008   4.993 -1.2464 -0.5347 -1.6299
 2919SOL    HW220394   0.000   3.944   4.866  2.2927 -2.1116 -0.3206
 2920SOL     OW20395   1.768   0.183  13.840  0.2507  0.5803  0.4893
 2920SOL    HW120396   1.815   0.267  13.841  1.5740 -0.1696  1.7829
 2920SOL    HW220397   1.676   0.202  13.859  0.1076 -0.9505  1.3018
 2921SOL     OW20398   4.421   1.861  12.498 -0.3240 -0.5388  0.2664
 2921SOL    HW120399   4.366   1.939  12.498 -0.5053 -0.6809 -1.0180
 2921SOL    HW220400   4.408   1.820  12.413 -1.8194 -0.8302  0.6241
 2922SOL     OW20401   1.615   3.889   2.048 -0.1971  0.4542  0.0858
 2922SOL    HW120402   1.665   3.967   2.024 -1.9212  1.5654  0.1006
 2922SOL    HW220403   1.554   3.872   1.976 -0.7409  2.5628  0.0740
 2923SOL     OW20404   3.996   1.448  11.211  0.1077  0.7094 -0.2670
 2923SOL    HW120405   3.909   1.411  11.193  1.2534 -1.2594 -1.7758
 2923SOL    HW220406   4.066   1.395  11.172 -0.0580 -0.6123  1.1948
 2924SOL     OW20407   1.071   3.338   8.296 -0.8514  0.7825  0.2687
 2924SOL    HW120408   1.076   3.313   8.388  0.6669 -0.6826 -0.2111
 2924SOL    HW220409   1.080   3.433   8.306 -2.2199  0.6092  2.9779
 2925SOL     OW20410   2.688   4.531   4.989  0.7756 -0.2168  0.1468
 2925SOL    HW120411   2.767   4.539   4.936 -0.0970  0.9911 -0.9585
 2925SOL    HW220412   2.698   4.593   5.061 -1.3189  1.3137 -0.9065
 2926SOL     OW20413   2.508   4.107   9.680  0.0236  0.0222 -0.2125
 2926SOL    HW120414   2.575   4.056   9.725 -0.1826  0.7077  0.8711
 2926SOL    HW220415   2.469   4.023   9.655 -0.2253  1.0978 -3.4202
 2927SOL     OW20416   1.195   1.170  17.489  0.1832  0.0918  0.3469
 2927SOL    HW120417   1.170   1.180  17.397  2.3957  2.0335 -0.0443
 2927SOL    HW220418   1.288   1.191  17.488  0.6613 -2.0417  1.4592
 2928SOL     OW20419   2.325   1.415   8.621 -0.0333  0.2345  0.2434
 2928SOL    HW120420   2.319   1.510   8.613 -2.1625 -0.0269 -1.1210
 2928SOL    HW220421   2.391   1.396   8.688  1.0703  0.2319 -0.8419
 2929SOL     OW20422   3.975   1.731  10.136 -0.2769  0.5640  0.4458
 2929SOL    HW120423   3.936   1.759  10.219 -3.1028  0.7691 -0.9290
 2929SOL    HW220424   3.943   1.800  10.077  1.8848  3.1513  2.2653
 2930SOL     OW20425   1.889   0.771  17.199  0.3267  0.0785 -0.0331
 2930SOL    HW120426   1.955   0.834  17.171 -0.0466  0.1849 -0.6749
 2930SOL    HW220427   1.901   0.792  17.291 -1.5750  1.2811 -0.0643
 2931SOL     OW20428   3.646   3.694   4.367  0.4862  0.6894  0.2471
 2931SOL    HW120429   3.604   3.613   4.338  0.3620  0.9592 -0.3224
 2931SOL    HW220430   3.687   3.665   4.448  0.0123  2.2188  1.0194
 2932SOL     OW20431   2.880   2.628  10.434 -0.3544  0.2081 -0.0774
 2932SOL    HW120432   2.841   2.705  10.474  0.9312  1.8672 -2.0676
 2932SOL    HW220433   2.970   2.652  10.454 -1.1699  0.5305  3.2553
 2933SOL     OW20434   2.979   0.214   6.533 -0.4630 -0.4650  0.7392
 2933SOL    HW120435   3.011   0.247   6.449 -0.5171  0.1087  0.9465
 2933SOL    HW220436   3.044   0.146   6.551 -1.4002 -2.3567 -2.9477
 2934SOL     OW20437   1.678   4.309   4.584  0.1016 -0.0647 -0.2402
 2934SOL    HW120438   1.633   4.225   4.586 -0.0763 -0.0089 -2.1609
 2934SOL    HW220439   1.713   4.318   4.496  1.3480 -0.8786  0.1734
 2935SOL     OW20440   1.272   3.478  13.421 -0.5151 -0.4869 -0.2035
 2935SOL    HW120441   1.197   3.460  13.365 -0.4278 -0.0491 -0.4620
 2935SOL    HW220442   1.247   3.568  13.444 -0.5278 -0.6795  0.5238
 2936SOL     OW20443   2.390   0.805  10.506  0.2431 -0.5380 -0.6486
 2936SOL    HW120444   2.459   0.855  10.461  0.9694 -0.6362  0.3582
 2936SOL    HW220445   2.310   0.829  10.459  0.0973  1.3114  0.5407
 2937SOL     OW20446   2.545   4.047  11.950  0.2899  0.1054  0.4526
 2937SOL    HW120447   2.491   3.977  11.912  0.3741 -1.3331  2.9797
 2937SOL    HW220448   2.549   4.026  12.043 -0.0690  5.3571  1.6230
 2938SOL     OW20449   3.292   3.757  11.167  0.0395  0.4682  0.8450
 2938SOL    HW120450   3.354   3.686  11.185 -2.1932 -2.0065 -1.0317
 2938SOL    HW220451   3.323   3.823  11.228 -0.4875  1.9687 -0.5245
 2939SOL     OW20452   4.325   0.314   3.142  0.0314  0.2465 -0.2043
 2939SOL    HW120453   4.412   0.334   3.177 -0.6971 -0.3389  1.9418
 2939SOL    HW220454   4.314   0.394   3.090  0.4933  0.1124 -0.4983
 2940SOL     OW20455   3.835   0.967  15.816 -0.2096  0.2193 -0.4284
 2940SOL    HW120456   3.741   0.979  15.800 -0.1508  2.4137  0.8101
 2940SOL    HW220457   3.849   1.049  15.863  0.3859 -0.2270  0.1877
 2941SOL     OW20458   4.575   0.878   6.659  0.3505  0.6701  0.1699
 2941SOL    HW120459   4.613   0.820   6.593  0.5623  2.1891 -1.0303
 2941SOL    HW220460   4.581   0.827   6.740 -1.7393  1.8988  1.0946
 2942SOL     OW20461   2.719   1.198   7.675 -0.3106 -0.3299 -0.1841
 2942SOL    HW120462   2.635   1.241   7.661  1.1453  2.3960 -0.5978
 2942SOL    HW220463   2.751   1.241   7.754 -0.7496  2.0667 -1.3165
 2943SOL     OW20464   4.286   0.339   9.708  0.4617  0.3453  0.4812
 2943SOL    HW120465   4.223   0.383   9.765 -1.0746 -1.0328 -0.1594
 2943SOL    HW220466   4.354   0.406   9.703  1.0143 -0.2961 -0.3854
 2944SOL     OW20467   0.145   2.422   4.506 -0.0608 -0.0309 -0.4661
 2944SOL    HW120468   0.212   2.454   4.446  0.4670 -0.7811 -0.2806
 2944SOL    HW220469   0.201   2.368   4.563  0.1680 -0.0939 -0.7506
 2945SOL     OW20470   2.823   3.583   2.858  0.3411 -0.0533 -0.2810
 2945SOL    HW120471   2.747   3.638   2.836  1.1328  1.2506  0.2096
 2945SOL    HW220472   2.864   3.570   2.772  3.6959  0.5964  1.2415
 2946SOL     OW20473   2.027   3.507  10.082 -0.3218 -0.2534  0.4782
 2946SOL    HW120474   2.098   3.450  10.111 -0.0012 -1.2164 -2.1310
 2946SOL    HW220475   2.076   3.580  10.043  3.1364 -3.0440 -0.3255
 2947SOL     OW20476   2.521   2.706   5.501 -0.0018  1.0211 -0.6341
 2947SOL    HW120477   2.436   2.700   5.457  0.6409  0.6798 -1.8358
 2947SOL    HW220478   2.529   2.617   5.533  0.2311  1.5621  0.8285
 2948SOL     OW20479   4.033   2.404   6.800  0.2728 -0.5187  0.8461
 2948SOL    HW120480   4.064   2.405   6.710 -2.0833  0.7160  0.0435
 2948SOL    HW220481   3.944   2.370   6.788  0.1483  0.7599 -1.7712
 2949SOL     OW20482   3.091   2.155   6.461 -0.2260 -0.0954 -0.0266
 2949SOL    HW120483   3.084   2.236   6.510 -0.6793  0.2192 -0.6167
 2949SOL    HW220484   3.005   2.150   6.418  1.5197 -1.4665 -3.3681
 2950SOL     OW20485   1.419   2.882   8.211  0.3105  0.7993 -0.1394
 2950SOL    HW120486   1.333   2.920   8.193 -0.4125 -2.0293 -2.6544
 2950SOL    HW220487   1.442   2.932   8.289  1.3143 -0.3299  0.2783
 2951SOL     OW20488   2.723   0.961  16.045  0.1601  0.2208 -0.3132
 2951SOL    HW120489   2.665   1.036  16.040  0.9486  0.9663  1.6109
 2951SOL    HW220490   2.680   0.906  15.980  1.5741  0.8842 -1.7980
 2952SOL     OW20491   2.636   3.236  12.688  0.3943 -0.3385  0.0644
 2952SOL    HW120492   2.631   3.140  12.683 -0.7025 -0.3532  1.8130
 2952SOL    HW220493   2.577   3.253  12.760  0.2401  0.7124 -0.3128
 2953SOL     OW20494   2.456   3.542  11.956 -0.3609  0.4224 -0.6972
 2953SOL    HW120495   2.538   3.503  11.925 -0.9940 -1.9170  0.5544
 2953SOL    HW220496   2.397   3.466  11.949  0.3574 -0.2859  0.8645
 2954SOL     OW20497   3.116   1.226   6.788 -0.1993  0.6746 -0.0007
 2954SOL    HW120498   3.133   1.301   6.731  0.4032 -2.5624 -4.1222
 2954SOL    HW220499   3.173   1.250   6.861  0.2659 -0.9224  0.1721
 2955SOL     OW20500   4.002   4.572   1.649  0.2998 -0.6420  0.7871
 2955SOL    HW120501   4.047   4.612   1.724 -1.5686  0.6061  1.2105
 2955SOL    HW220502   4.075   4.562   1.588 -0.3905 -1.3184  0.0722
 2956SOL     OW20503   1.611   0.853   0.632 -0.0716  0.4553 -0.2570
 2956SOL    HW120504   1.640   0.764   0.615 -0.2464  0.4188 -0.3640
 2956SOL    HW220505   1.689   0.901   0.604  1.1049  0.2868  2.6950
 2957SOL     OW20506   1.839   3.981   5.422  0.2066 -0.0686  0.0608
 2957SOL    HW120507   1.932   4.002   5.420  0.4550 -1.0273  1.3545
 2957SOL    HW220508   1.822   3.975   5.516 -2.0396 -2.5532 -0.5021
 2958SOL     OW20509   1.319   0.801   6.979  0.0067  0.2267  0.1502
 2958SOL    HW120510   1.238   0.758   7.007 -0.5449  1.0254 -0.2347
 2958SOL    HW220511   1.382   0.734   7.005 -0.0685  0.7018  1.5536
 2959SOL     OW20512   0.134   2.858  10.301 -0.0361 -0.1104  0.1572
 2959SOL    HW120513   0.160   2.769  10.278  0.7853  0.3184 -0.5655
 2959SOL    HW220514   0.150   2.894  10.214  1.1698  0.0256  0.4343
 2960SOL     OW20515   1.962   0.385  14.557  0.4945  0.0791  0.3792
 2960SOL    HW120516   1.963   0.302  14.605 -1.9797 -1.0863 -1.6243
 2960SOL    HW220517   1.874   0.380  14.521  0.8300  0.6893 -0.5230
 2961SOL     OW20518   4.082   4.168   7.588  0.0242  0.4881 -0.1665
 2961SOL    HW120519   4.012   4.206   7.535 -0.9292  1.5926  1.9099
 2961SOL    HW220520   4.073   4.080   7.552 -0.5483  0.1589  0.7759
 2962SOL     OW20521   0.822   1.347   4.613  0.2332  0.3422  0.2289
 2962SOL    HW120522   0.805   1.348   4.519  3.2326 -2.9288 -0.3478
 2962SOL    HW220523   0.809   1.253   4.626 -2.2214  0.6530  0.0703
 2963SOL     OW20524   3.718   3.663  10.575  0.5289  0.2087 -0.3108
 2963SOL    HW120525   3.770   3.642  10.652 -0.3572 -1.0733 -0.0570
 2963SOL    HW220526   3.668   3.738  10.609  1.6189 -0.7877  3.3892
 2964SOL     OW20527   4.312   0.967   6.722 -0.0133 -0.9046  0.5669
 2964SOL    HW120528   4.321   1.012   6.806 -0.8606 -0.6731  0.5378
 2964SOL    HW220529   4.401   0.936   6.703  0.0764 -0.9712  1.0909
 2965SOL     OW20530   0.759   3.707   8.020  0.3521  0.0757  0.0369
 2965SOL    HW120531   0.708   3.780   7.985 -1.5552 -0.3836  1.8421
 2965SOL    HW220532   0.837   3.744   8.061  0.1929 -0.2650  0.6562
 2966SOL     OW20533   1.471   3.302   5.136  0.3885 -0.1359 -0.2402
 2966SOL    HW120534   1.450   3.316   5.044 -1.5486  0.4727  0.3054
 2966SOL    HW220535   1.552   3.253   5.125 -0.6673 -2.1638  1.1207
 2967SOL     OW20536   1.533   1.414   8.733 -0.2570 -0.2646 -0.4601
 2967SOL    HW120537   1.554   1.474   8.804 -0.3691 -1.3879  0.5237
 2967SOL    HW220538   1.618   1.372   8.714 -1.3406 -2.2687 -0.9253
 2968SOL     OW20539   2.458   4.099   3.011  0.7174 -0.3984  0.4184
 2968SOL    HW120540   2.551   4.083   2.993  0.2625 -2.7686  0.1929
 2968SOL    HW220541   2.456   4.162   3.083  0.2550 -2.1854  1.9381
 2969SOL     OW20542   1.983   3.538   5.890 -0.9022 -0.2940 -0.4048
 2969SOL    HW120543   2.078   3.526   5.883 -1.0092 -1.0513 -0.5698
 2969SOL    HW220544   1.975   3.505   5.979 -1.1292 -1.1505 -0.7332
 2970SOL     OW20545   3.723   2.636   0.065 -0.3953 -0.0278  0.4790
 2970SOL    HW120546   3.716   2.684  17.714  1.4521 -1.2888 -0.4024
 2970SOL    HW220547   3.705   2.696   0.137 -1.6127 -3.1869  2.8198
 2971SOL     OW20548   1.865   1.116   4.343  0.2206  0.3186  0.0759
 2971SOL    HW120549   1.900   1.205   4.348  0.3696  0.3138 -0.8301
 2971SOL    HW220550   1.828   1.108   4.255  1.1736 -0.8042 -0.2131
 2972SOL     OW20551   4.693   2.305   5.235  0.1353 -0.2378  0.3635
 2972SOL    HW120552   4.668   2.381   5.183 -1.8772  0.2124  1.9942
 2972SOL    HW220553   4.642   2.230   5.205  0.4983 -0.7602  1.0383
 2973SOL     OW20554   1.858   1.487  15.082  0.3215  0.1431  0.3840
 2973SOL    HW120555   1.932   1.494  15.022  0.2783  0.8676  0.4255
 2973SOL    HW220556   1.872   1.399  15.120  0.4935 -0.3682 -0.8788
 2974SOL     OW20557   2.200   0.196   2.256 -0.4834  0.0845 -0.3225
 2974SOL    HW120558   2.236   0.113   2.288  1.0533  1.1087  0.5950
 2974SOL    HW220559   2.209   0.253   2.332 -1.3406 -0.7114  0.3770
 2975SOL     OW20560   3.378   1.571  16.301  0.0411  0.6420 -0.1432
 2975SOL    HW120561   3.285   1.568  16.276  0.1297 -0.5597 -0.2991
 2975SOL    HW220562   3.398   1.660  16.272 -0.0859  0.1619 -1.6980
 2976SOL     OW20563   2.065   4.494   4.753 -0.3991  0.7030 -0.0227
 2976SOL    HW120564   2.077   4.589   4.752  0.7243  0.5197 -2.4952
 2976SOL    HW220565   2.153   4.458   4.763 -1.5825 -2.4427 -1.0663
 2977SOL     OW20566   1.599   0.665   1.268  0.1904 -0.2173  0.6121
 2977SOL    HW120567   1.622   0.746   1.221  2.5332 -1.2702 -0.0522
 2977SOL    HW220568   1.576   0.691   1.357  1.0623  0.0149  0.7725
 2978SOL     OW20569   2.923   2.724   7.491 -0.1351 -0.5186  0.1176
 2978SOL    HW120570   2.972   2.648   7.458 -0.7728 -1.3744  1.1291
 2978SOL    HW220571   2.959   2.735   7.579 -1.1342 -0.5843  0.5351
 2979SOL     OW20572   0.292   4.111  16.899 -0.1305  0.0142  0.0092
 2979SOL    HW120573   0.283   4.077  16.810  0.3378  0.5669 -0.2570
 2979SOL    HW220574   0.384   4.090  16.914  0.4147  3.3779  1.5967
 2980SOL     OW20575   2.241   2.428   3.297 -0.4650  0.1576 -0.5935
 2980SOL    HW120576   2.273   2.453   3.384  1.1391 -1.3673 -0.7418
 2980SOL    HW220577   2.218   2.515   3.264  1.1185  0.8871  0.1884
 2981SOL     OW20578   3.967   0.937   2.958  0.1115 -0.0395  0.1273
 2981SOL    HW120579   3.949   1.015   2.906 -1.3379 -0.1488  0.4590
 2981SOL    HW220580   3.990   0.979   3.041  2.4882 -4.7463  1.8328
 2982SOL     OW20581   1.432   0.196   8.634  0.2967 -0.0724 -0.0358
 2982SOL    HW120582   1.494   0.130   8.666  1.1261  0.8110  0.1873
 2982SOL    HW220583   1.481   0.275   8.659  0.0897  0.0996 -0.1727
 2983SOL     OW20584   0.358   0.740   7.958 -0.1206 -0.0688  0.4050
 2983SOL    HW120585   0.326   0.718   7.870  0.4570  0.4145  0.0728
 2983SOL    HW220586   0.339   0.662   8.010  1.1526  0.4448  1.6517
 2984SOL     OW20587   4.490   2.787  10.396  0.1041  0.3306  0.5475
 2984SOL    HW120588   4.429   2.765  10.467  0.3050  2.3750  1.3810
 2984SOL    HW220589   4.456   2.870  10.364  0.0058  0.5861  1.3084
 2985SOL     OW20590   2.354   4.668   2.388  0.6535  0.0242 -0.3772
 2985SOL    HW120591   2.360   4.578   2.420  0.4301  0.4634  0.9209
 2985SOL    HW220592   2.383   4.659   2.298  2.5758 -2.5151  0.4736
 2986SOL     OW20593   4.004   1.190  15.049 -0.8552  0.3975  1.0021
 2986SOL    HW120594   3.914   1.207  15.022 -1.5360 -2.1328  1.6446
 2986SOL    HW220595   3.990   1.160  15.139 -1.3295 -1.6592  0.2570
 2987SOL     OW20596   4.723   3.249  12.410  0.7248 -0.4961 -0.4146
 2987SOL    HW120597   4.690   3.323  12.360  1.1650 -1.2647 -1.8379
 2987SOL    HW220598   4.646   3.203  12.444  0.4569 -2.2537 -3.4138
 2988SOL     OW20599   4.259   0.587  11.537  0.5850 -0.4035 -0.6103
 2988SOL    HW120600   4.264   0.616  11.628 -2.8105 -1.5218 -0.0584
 2988SOL    HW220601   4.272   0.670  11.490  0.0024 -0.6707 -1.2476
 2989SOL     OW20602   2.730   3.593   7.455 -0.0090  0.0968 -0.2859
 2989SOL    HW120603   2.689   3.635   7.531  1.1791 -0.0999  0.4708
 2989SOL    HW220604   2.810   3.561   7.497  0.0010 -0.6872 -0.9219
 2990SOL     OW20605   4.123   0.441   8.172 -0.3386 -0.4515 -0.0386
 2990SOL    HW120606   4.161   0.371   8.119 -0.8873  0.2228 -1.3342
 2990SOL    HW220607   4.028   0.441   8.159 -0.5296 -2.5462  1.4970
 2991SOL     OW20608   0.792   0.992   1.255  1.1407 -0.4221  0.6435
 2991SOL    HW120609   0.855   0.921   1.247  2.8963  1.1993  0.0777
 2991SOL    HW220610   0.804   1.035   1.170  0.5413 -2.6773 -0.5972
 2992SOL     OW20611   3.135   2.724   7.718  0.1559 -0.7252 -0.7135
 2992SOL    HW120612   3.161   2.696   7.806 -1.8070 -2.4438 -0.6981
 2992SOL    HW220613   3.135   2.819   7.729  0.3042 -0.6637 -1.2414
 2993SOL     OW20614   2.698   0.390   2.588  0.6202  0.1135  0.0812
 2993SOL    HW120615   2.694   0.407   2.682 -1.2644  1.2941 -0.2198
 2993SOL    HW220616   2.733   0.301   2.590  0.4814  0.0787  1.1580
 2994SOL     OW20617   3.418   3.048   8.435 -0.0031 -0.1731 -0.1762
 2994SOL    HW120618   3.492   2.998   8.470  0.6385  1.1249  0.3241
 2994SOL    HW220619   3.406   3.118   8.499  0.6360 -0.1869 -0.0361
 2995SOL     OW20620   1.404   2.589   7.883  0.0825 -0.6504  0.6113
 2995SOL    HW120621   1.460   2.646   7.937  0.3302  0.4309 -0.8017
 2995SOL    HW220622   1.336   2.579   7.951 -0.7174 -1.2032 -0.2688
 2996SOL     OW20623   3.570   1.146   9.172  0.1822 -0.5932 -0.3780
 2996SOL    HW120624   3.556   1.051   9.164  1.0492 -0.7044 -0.6002
 2996SOL    HW220625   3.665   1.159   9.167  0.1240 -0.8519 -2.3497
 2997SOL     OW20626   0.960   2.322   3.893 -0.1040 -0.7791  0.3503
 2997SOL    HW120627   1.044   2.359   3.866  0.4171 -1.4935  0.9749
 2997SOL    HW220628   0.912   2.368   3.824  1.7034 -2.0609 -1.7553
 2998SOL     OW20629   1.954   1.298   3.589  0.5221 -0.0599  0.5600
 2998SOL    HW120630   1.877   1.348   3.564 -1.0290 -3.0494 -0.6878
 2998SOL    HW220631   1.953   1.226   3.525 -1.7170  0.2126  0.3043
 2999SOL     OW20632   3.037   3.951   6.380  0.0696 -0.0110 -0.9884
 2999SOL    HW120633   2.943   3.965   6.391  0.2218  0.7790 -0.6462
 2999SOL    HW220634   3.076   4.036   6.402 -0.3508 -0.1186  0.1914
 3000SOL     OW20635   1.703   4.605  15.315  0.2549  0.1450 -0.0304
 3000SOL    HW120636   1.719   4.610  15.409  0.8422  0.7963 -0.1673
 3000SOL    HW220637   1.744   4.521  15.295 -0.5100 -0.4307  0.7927
 3001SOL     OW20638   3.067   0.851   1.220  0.2926  0.1841 -0.6956
 3001SOL    HW120639   2.982   0.892   1.237  0.2650  0.2782 -1.0721
 3001SOL    HW220640   3.072   0.873   1.127  0.5495  0.5164 -0.6038
 3002SOL     OW20641   2.886   0.696   4.565 -0.0609 -0.4449  0.4642
 3002SOL    HW120642   2.941   0.637   4.513  1.6903  0.8437  0.8628
 3002SOL    HW220643   2.921   0.781   4.539  2.9412 -0.9670  2.8514
 3003SOL     OW20644   1.912   1.365   2.172  0.0870  0.4124  0.1010
 3003SOL    HW120645   1.989   1.421   2.163 -2.3522  3.6187 -0.8399
 3003SOL    HW220646   1.859   1.376   2.093  2.4284  0.7127 -1.4302
 3004SOL     OW20647   3.616   4.026   5.765  0.2144 -0.0050  0.2231
 3004SOL    HW120648   3.538   3.984   5.729 -1.1290  1.4920  1.4233
 3004SOL    HW220649   3.680   4.040   5.695  0.1967  1.5339  0.5053
 3005SOL     OW20650   2.653   1.653   1.816 -0.3869  0.2582 -0.2384
 3005SOL    HW120651   2.603   1.578   1.848 -0.0222  0.7216  1.4663
 3005SOL    HW220652   2.581   1.711   1.792  0.6024  0.9889 -1.4385
 3006SOL     OW20653   3.485   1.424  17.063  0.3672 -0.2545 -0.1830
 3006SOL    HW120654   3.484   1.512  17.026 -0.3546 -0.5503 -0.8945
 3006SOL    HW220655   3.463   1.380  16.981 -1.1202 -0.1550  0.1619
 3007SOL     OW20656   1.665   2.440   1.904 -0.0610 -0.3222  0.7098
 3007SOL    HW120657   1.618   2.471   1.982 -0.6365  0.3776  0.0736
 3007SOL    HW220658   1.739   2.500   1.912 -0.8293  0.8533 -1.1949
 3008SOL     OW20659   2.708   2.003   9.963  0.9376 -0.4301 -0.3100
 3008SOL    HW120660   2.797   1.972   9.948  0.8872 -0.1977 -1.1244
 3008SOL    HW220661   2.729   2.089   9.926  1.3839 -0.2788  0.3055
 3009SOL     OW20662   2.005   3.334  10.997  0.2458  0.3916 -0.1538
 3009SOL    HW120663   1.909   3.328  10.994  0.4288 -1.7470 -1.3766
 3009SOL    HW220664   2.029   3.413  10.948 -0.0568  0.5877  0.0080
 3010SOL     OW20665   1.068   3.198   3.437 -0.1179 -0.0607 -0.0140
 3010SOL    HW120666   1.110   3.256   3.373 -0.7351  0.0496 -0.3182
 3010SOL    HW220667   1.096   3.220   3.526  0.7000 -0.5572 -0.1514
 3011SOL     OW20668   0.898   1.987   4.668 -0.5497  0.0684  0.2673
 3011SOL    HW120669   0.857   2.051   4.610 -1.7891 -0.3796  0.6451
 3011SOL    HW220670   0.860   2.018   4.750 -0.0675  0.1129  0.4752
 3012SOL     OW20671   2.764   4.729   9.209  0.0866  0.5911  0.0843
 3012SOL    HW120672   2.676   0.016   9.178  0.2255 -0.4305 -0.9657
 3012SOL    HW220673   2.749   4.643   9.249 -1.0297 -0.2376 -2.1319
 3013SOL     OW20674   2.131   1.533   3.614 -0.3375  0.1474 -0.2383
 3013SOL    HW120675   2.118   1.439   3.621  1.8660 -0.2782 -1.7602
 3013SOL    HW220676   2.139   1.552   3.521  1.4273 -1.3485 -0.4137
 3014SOL     OW20677   3.122   1.915   5.343 -0.8894 -0.5406 -0.2099
 3014SOL    HW120678   3.042   1.883   5.302 -1.0063  1.0835 -1.2448
 3014SOL    HW220679   3.179   1.843   5.317  1.7500  0.9016  1.5887
 3015SOL     OW20680   2.117   1.988   3.390 -0.0008 -0.1253 -0.4122
 3015SOL    HW120681   2.069   1.959   3.467 -1.1399  2.4227 -0.1776
 3015SOL    HW220682   2.185   1.920   3.383  0.4609  0.4236 -1.2353
 3016SOL     OW20683   2.088   2.518   0.265  0.3263 -0.3289 -0.8311
 3016SOL    HW120684   2.068   2.582   0.333  1.2207  0.0942 -0.9688
 3016SOL    HW220685   2.109   2.438   0.314  1.2980  0.8152  0.6289
 3017SOL     OW20686   3.926   1.348   3.848 -0.5270 -0.3943 -0.0867
 3017SOL    HW120687   4.012   1.369   3.812 -1.0318 -1.0849 -1.7370
 3017SOL    HW220688   3.876   1.341   3.766 -0.5743 -2.2247  0.1097
 3018SOL     OW20689   3.034   0.770   2.252  0.0881  0.0465 -0.1110
 3018SOL    HW120690   2.941   0.758   2.268 -0.3708  2.0101 -1.1935
 3018SOL    HW220691   3.028   0.865   2.240  0.9355 -0.0063 -1.0362
 3019SOL     OW20692   4.028   3.914   4.833  0.5429 -0.1026  0.0163
 3019SOL    HW120693   3.970   3.862   4.890 -0.6556 -0.2716 -1.3630
 3019SOL    HW220694   4.115   3.881   4.853  2.0062  3.0451 -1.2185
 3020SOL     OW20695   0.856   3.796   6.098  0.1962 -0.1944 -0.2622
 3020SOL    HW120696   0.831   3.823   6.187 -0.5750 -1.8513  0.0165
 3020SOL    HW220697   0.920   3.726   6.114  0.6450  0.5012  1.0081
 3021SOL     OW20698   2.692   2.998   0.332  0.0629  0.6142  0.2069
 3021SOL    HW120699   2.762   3.053   0.296  0.8860  0.9058  2.2101
 3021SOL    HW220700   2.728   2.911   0.347 -0.5544  0.6384  1.7792
 3022SOL     OW20701   1.861   2.340  10.459 -0.6380  0.0792  0.2329
 3022SOL    HW120702   1.783   2.309  10.412  0.5618 -2.3721 -0.1214
 3022SOL    HW220703   1.878   2.280  10.532 -1.2857  0.0867  0.3905
 3023SOL     OW20704   3.368   0.913   2.290  1.1046  0.8733 -0.2637
 3023SOL    HW120705   3.373   0.818   2.300  0.8291  1.0062  1.1788
 3023SOL    HW220706   3.417   0.933   2.211  2.1757  1.5339  0.5707
 3024SOL     OW20707   1.432   0.059   9.794 -0.0258 -0.1701  0.0259
 3024SOL    HW120708   1.423   4.722   9.730 -1.7441  0.1892 -0.1398
 3024SOL    HW220709   1.458   0.130   9.735 -1.1544  0.5690  0.4165
 3025SOL     OW20710   0.798   4.193   1.966  0.7846 -0.5642 -0.0352
 3025SOL    HW120711   0.819   4.216   2.056 -0.1876  1.0208 -0.2131
 3025SOL    HW220712   0.803   4.274   1.915  0.0246  0.5510  1.6520
 3026SOL     OW20713   4.206   1.205   6.635 -0.0490  0.5500 -0.0828
 3026SOL    HW120714   4.243   1.125   6.672 -1.4374  1.0094  2.3071
 3026SOL    HW220715   4.126   1.210   6.688  1.2387  1.0278  1.8373
 3027SOL     OW20716   2.235   2.678   1.646 -0.1777 -0.2446 -0.2299
 3027SOL    HW120717   2.293   2.706   1.717  0.0938  2.2715 -1.4532
 3027SOL    HW220718   2.166   2.744   1.650  0.3694  0.2306  1.5469
 3028SOL     OW20719   1.223   4.661   7.242 -0.4121 -0.2756  0.0296
 3028SOL    HW120720   1.150   4.601   7.257 -1.3744  0.6703 -0.9031
 3028SOL    HW220721   1.195   0.012   7.278  0.4982  0.6416 -1.4399
 3029SOL     OW20722   1.531   4.629   1.768 -0.8172 -0.0206 -0.0452
 3029SOL    HW120723   1.508   4.715   1.733 -3.1555 -0.9538 -0.8029
 3029SOL    HW220724   1.494   4.630   1.856 -1.9908 -0.6634 -0.5234
 3030SOL     OW20725   0.862   2.329   3.260 -0.2182 -0.2895  0.7258
 3030SOL    HW120726   0.797   2.398   3.245 -1.5515 -1.3333  1.6776
 3030SOL    HW220727   0.943   2.378   3.245 -0.6985  0.5712  0.8894
 3031SOL     OW20728   3.480   0.139  16.290  0.9929 -0.0321 -0.1520
 3031SOL    HW120729   3.462   0.213  16.349 -0.2060  0.5522 -1.2597
 3031SOL    HW220730   3.550   0.100  16.343  1.0817 -2.1679 -1.8189
 3032SOL     OW20731   3.324   3.941   5.655  0.4798 -0.3383 -0.1067
 3032SOL    HW120732   3.280   3.999   5.593  0.2500 -1.9658 -1.4451
 3032SOL    HW220733   3.253   3.917   5.715  1.0732 -1.4631  0.1574
 3033SOL     OW20734   1.484   0.430   2.305 -0.1862  0.0006 -0.3732
 3033SOL    HW120735   1.482   0.335   2.299  0.5653  0.0736 -1.8886
 3033SOL    HW220736   1.428   0.442   2.382  1.3615 -1.6774  1.0110
 3034SOL     OW20737   3.272   0.950   7.656 -0.3248  0.3166 -0.3295
 3034SOL    HW120738   3.292   0.913   7.742 -1.5281 -1.8290 -0.9904
 3034SOL    HW220739   3.338   0.915   7.597 -0.4610 -0.8298  0.1908
 3035SOL     OW20740   2.275   0.847   6.868  0.3167  0.5620  0.0762
 3035SOL    HW120741   2.186   0.842   6.832  0.5805 -2.5309 -0.1906
 3035SOL    HW220742   2.335   0.802   6.809 -3.2680 -2.6267 -1.1297
 3036SOL     OW20743   1.564   2.957   6.469  0.2795  0.4986  0.6402
 3036SOL    HW120744   1.496   3.024   6.471 -0.0636  0.2426 -2.3916
 3036SOL    HW220745   1.567   2.935   6.562 -0.8892 -0.4943  0.4452
 3037SOL     OW20746   2.997   1.625  12.538 -0.2941 -0.0794 -0.0120
 3037SOL    HW120747   3.053   1.660  12.469  2.8535 -3.8747  0.5852
 3037SOL    HW220748   2.912   1.654  12.506 -0.4474 -0.8842 -0.3187
 3038SOL     OW20749   0.964   2.248  15.018  0.0229  0.3824  0.3415
 3038SOL    HW120750   1.048   2.209  15.042  0.5308  2.0626  1.2729
 3038SOL    HW220751   0.998   2.316  14.960  2.7781 -1.2507  0.0353
 3039SOL     OW20752   3.845   3.566   6.573  0.2403  0.5205  0.4555
 3039SOL    HW120753   3.877   3.544   6.486 -1.7153 -0.1436 -0.0972
 3039SOL    HW220754   3.902   3.510   6.626 -0.9642 -0.1220  1.0855
 3040SOL     OW20755   3.406   4.390   5.146 -0.4952 -0.1837  0.0743
 3040SOL    HW120756   3.351   4.467   5.131 -2.7576 -1.6931  0.4909
 3040SOL    HW220757   3.476   4.416   5.088 -1.8287 -2.0785 -2.3869
 3041SOL     OW20758   3.383   3.739   9.783 -0.0761 -0.3901  0.2499
 3041SOL    HW120759   3.366   3.659   9.733  0.7200 -0.5074  0.1554
 3041SOL    HW220760   3.477   3.755   9.773 -0.0636  0.4193  1.7028
 3042SOL     OW20761   3.715   4.673  15.573  0.2342  0.8810  0.0820
 3042SOL    HW120762   3.637   4.729  15.566 -0.6575 -0.6660 -2.1886
 3042SOL    HW220763   3.714   4.614  15.498  2.4444  1.0302 -0.0615
 3043SOL     OW20764   1.000   4.502   7.793 -0.0505  0.5272 -0.2203
 3043SOL    HW120765   0.927   4.446   7.818 -1.2126  2.3149  0.3955
 3043SOL    HW220766   1.070   4.448   7.829 -1.0153  0.9083  2.2476
 3044SOL     OW20767   3.720   3.981   3.877  0.1028 -0.5646  0.5655
 3044SOL    HW120768   3.682   3.912   3.932  1.0675 -2.0919 -0.6981
 3044SOL    HW220769   3.740   3.939   3.794  2.3126 -0.1499  0.8882
 3045SOL     OW20770   1.948   3.232   2.306  0.5149 -0.0213 -0.0521
 3045SOL    HW120771   1.962   3.323   2.331 -0.0069 -0.7040  2.6688
 3045SOL    HW220772   2.039   3.203   2.300  0.2804 -0.2567 -2.5099
 3046SOL     OW20773   2.480   1.050   2.961 -0.1395 -0.1360 -0.0074
 3046SOL    HW120774   2.409   1.031   2.900 -0.0045 -1.0876  0.1455
 3046SOL    HW220775   2.527   0.968   2.979 -1.2575 -0.5763  0.8613
 3047SOL     OW20776   1.946   0.202   0.425  0.1573  0.7352 -0.2260
 3047SOL    HW120777   1.939   0.176   0.333  0.5211  0.7423 -0.2553
 3047SOL    HW220778   2.039   0.223   0.434  0.4005  0.0810 -1.3356
 3048SOL     OW20779   0.234   2.371   6.902 -0.5541  0.0880  0.2241
 3048SOL    HW120780   0.299   2.399   6.965  1.3019 -0.6882 -1.3325
 3048SOL    HW220781   0.203   2.454   6.866  1.8148  2.1332  2.8785
 3049SOL     OW20782   2.203   0.494  14.517 -0.1631  0.0107  0.6084
 3049SOL    HW120783   2.222   0.486  14.424  0.0651  0.8008  0.5910
 3049SOL    HW220784   2.108   0.485  14.521 -0.1915  0.5560  1.0732
 3050SOL     OW20785   3.642   1.440   4.294  0.1639 -0.3648  0.2776
 3050SOL    HW120786   3.624   1.456   4.201  0.8490 -1.3403 -0.0211
 3050SOL    HW220787   3.723   1.388   4.290  0.1008 -0.4769  0.4681
 3051SOL     OW20788   1.123   1.445   1.940 -0.4649  0.0741 -0.2891
 3051SOL    HW120789   1.154   1.376   1.881 -0.9743  0.0782 -0.5651
 3051SOL    HW220790   1.170   1.516   1.897  1.0069  0.3856  1.8897
 3052SOL     OW20791   4.215   1.289  16.675 -0.0523  0.3682 -0.2034
 3052SOL    HW120792   4.196   1.201  16.643 -3.4738  0.6025  1.1246
 3052SOL    HW220793   4.183   1.336  16.598  2.1632  0.8542 -0.8069
 3053SOL     OW20794   1.314   4.212  15.176 -0.1353 -0.0647  0.3209
 3053SOL    HW120795   1.396   4.261  15.188 -1.8365  3.0213 -0.6854
 3053SOL    HW220796   1.257   4.281  15.211  0.9027  1.2350 -0.5303
 3054SOL     OW20797   4.377   0.717   6.970  0.0700 -0.1905  0.1016
 3054SOL    HW120798   4.452   0.747   6.919  1.4819 -1.8611  1.2452
 3054SOL    HW220799   4.315   0.700   6.899 -1.0755  2.0364  0.5370
 3055SOL     OW20800   4.403   2.988  14.828  0.0714  0.3394 -0.3198
 3055SOL    HW120801   4.332   3.046  14.858 -1.7175 -1.3771 -1.2283
 3055SOL    HW220802   4.432   3.030  14.747 -1.6194  2.4139  0.1303
 3056SOL     OW20803   4.451   2.048   9.111  0.2379 -0.2479  0.0040
 3056SOL    HW120804   4.364   2.085   9.102  0.2622 -0.3193 -0.5006
 3056SOL    HW220805   4.439   1.980   9.178 -0.3395  0.2391  0.3936
 3057SOL     OW20806   4.476   2.040   9.616 -0.1114 -0.3482  0.4606
 3057SOL    HW120807   4.384   2.064   9.605  0.2035  0.6421 -0.0146
 3057SOL    HW220808   4.499   2.088   9.695 -0.9682 -2.0419  1.7380
 3058SOL     OW20809   4.082   1.486   8.564 -0.1757  0.8658 -0.0061
 3058SOL    HW120810   4.142   1.486   8.489  0.1188 -5.0959  0.2690
 3058SOL    HW220811   4.147   1.464   8.630  0.5277  0.9027 -0.6825
 3059SOL     OW20812   2.898   4.501   7.643 -0.7513 -0.7021 -0.0687
 3059SOL    HW120813   2.901   4.416   7.599  2.3299 -1.1750  1.0753
 3059SOL    HW220814   2.809   4.526   7.620 -0.3876 -0.2143 -0.9359
 3060SOL     OW20815   4.240   1.384  13.543 -0.4480  0.5577  0.2068
 3060SOL    HW120816   4.233   1.458  13.482 -0.9520  1.8241  1.8052
 3060SOL    HW220817   4.285   1.409  13.623  0.9791 -0.2260 -0.3493
 3061SOL     OW20818   3.441   0.447   9.132  0.1706  0.5168 -0.2807
 3061SOL    HW120819   3.441   0.535   9.093 -0.6182  0.6579  0.0444
 3061SOL    HW220820   3.410   0.392   9.060  1.1460 -1.2443  0.6514
 3062SOL     OW20821   3.768   3.754  11.331 -0.2464 -0.4993 -0.4775
 3062SOL    HW120822   3.826   3.829  11.315 -2.6882  1.1884 -1.3938
 3062SOL    HW220823   3.793   3.694  11.260  2.0661  2.3033 -2.0493
 3063SOL     OW20824   3.241   4.048   8.957  0.5979  0.0452  0.1637
 3063SOL    HW120825   3.174   4.115   8.945  1.1848  0.9238  1.7419
 3063SOL    HW220826   3.206   3.981   8.898 -1.4465  0.8093  0.5154
 3064SOL     OW20827   4.033   0.039   5.338 -0.4679 -0.2612  0.0767
 3064SOL    HW120828   4.045   4.680   5.315  0.2226  0.3252 -1.8660
 3064SOL    HW220829   4.056   0.076   5.253  1.5711 -1.4021  0.1456
 3065SOL     OW20830   0.466   3.788   1.616  0.0493 -0.0966 -0.3448
 3065SOL    HW120831   0.481   3.850   1.688  1.8519 -0.3275 -0.5087
 3065SOL    HW220832   0.399   3.728   1.648 -0.0485 -0.0548 -0.4729
 3066SOL     OW20833   4.398   1.598  14.683 -0.3016  0.5496  0.1844
 3066SOL    HW120834   4.366   1.565  14.598 -0.2889 -2.4723  1.3450
 3066SOL    HW220835   4.402   1.690  14.658 -1.1381  0.9984  1.6932
 3067SOL     OW20836   0.410   1.258   2.775  0.0762  1.0764 -0.7026
 3067SOL    HW120837   0.330   1.307   2.757 -0.5298  0.1696 -0.4911
 3067SOL    HW220838   0.374   1.171   2.792  0.4580  0.7755 -1.4393
 3068SOL     OW20839   4.255   4.033   6.888  0.0947  0.2360 -0.2096
 3068SOL    HW120840   4.162   4.015   6.879  0.9061 -3.7248 -0.6496
 3068SOL    HW220841   4.249   4.122   6.922  0.8198  0.3607 -0.3947
 3069SOL     OW20842   3.679   0.031   9.319 -0.1775 -0.6111 -0.3912
 3069SOL    HW120843   3.593   0.054   9.284  0.4638 -0.6044 -1.9410
 3069SOL    HW220844   3.666   0.023   9.414 -2.9119 -0.1396 -0.7145
 3070SOL     OW20845   4.534   1.516   4.446 -0.2756  0.7050  0.6144
 3070SOL    HW120846   4.544   1.513   4.351 -3.0794  0.2266  0.3235
 3070SOL    HW220847   4.592   1.446   4.476 -0.5578 -0.4148 -1.4349
 3071SOL     OW20848   4.231   2.362  11.835 -0.4371 -0.1950  0.6884
 3071SOL    HW120849   4.240   2.448  11.877 -1.2728  0.3297 -0.1897
 3071SOL    HW220850   4.160   2.320  11.883 -0.1020 -0.6247  0.8075
 3072SOL     OW20851   2.531   0.940   6.704  0.3022  0.4342  0.3523
 3072SOL    HW120852   2.513   0.847   6.691  1.9338  0.4672 -2.3533
 3072SOL    HW220853   2.589   0.925   6.778  1.3848 -1.1252 -0.7929
 3073SOL     OW20854   4.011   1.537   9.500 -0.1956  0.6451 -0.2914
 3073SOL    HW120855   3.964   1.572   9.575  1.6616 -0.2781  1.2984
 3073SOL    HW220856   3.992   1.602   9.433  0.5851  1.8748  0.6700
 3074SOL     OW20857   2.246   3.102  12.034 -0.3236 -0.4807 -0.3150
 3074SOL    HW120858   2.151   3.105  12.045 -0.3104  1.1300 -0.7454
 3074SOL    HW220859   2.242   3.067  11.945 -0.0430  2.3211 -1.4046
 3075SOL     OW20860   1.172   3.401  17.100  0.2685 -0.4232  0.2027
 3075SOL    HW120861   1.201   3.316  17.065 -0.7064 -1.5242  2.0396
 3075SOL    HW220862   1.081   3.376  17.118  0.0624 -0.5744 -1.0148
 3076SOL     OW20863   4.710   2.879  10.524 -0.2838 -0.2272 -0.2696
 3076SOL    HW120864   0.033   2.858  10.450  0.2959  2.5341 -0.6222
 3076SOL    HW220865   4.623   2.847  10.497  0.3494 -0.1119 -2.4872
 3077SOL     OW20866   2.613   0.191  13.395 -0.5428  0.3647  0.2410
 3077SOL    HW120867   2.656   0.194  13.481 -1.9542  1.0935  0.9159
 3077SOL    HW220868   2.524   0.171  13.423 -0.8380 -0.6517 -1.3990
 3078SOL     OW20869   1.546   0.219   7.848 -0.3867 -0.2611 -0.1861
 3078SOL    HW120870   1.540   0.125   7.867  0.9041 -0.5621 -1.2850
 3078SOL    HW220871   1.635   0.240   7.875 -0.7971  0.4068  0.6370
 3079SOL     OW20872   2.784   2.221   4.872  0.5031 -0.0863  0.4987
 3079SOL    HW120873   2.810   2.148   4.816  1.8512  3.3819 -3.4358
 3079SOL    HW220874   2.696   2.243   4.842  0.4879 -0.5992  0.1731
 3080SOL     OW20875   3.264   3.716  16.626  0.2100 -0.0373 -0.3426
 3080SOL    HW120876   3.213   3.740  16.549 -0.2753 -1.7112 -0.5510
 3080SOL    HW220877   3.302   3.635  16.592 -2.1142 -0.7861 -1.2210
 3081SOL     OW20878   1.989   0.056   7.583 -0.5228  0.4171  0.1957
 3081SOL    HW120879   2.020   0.120   7.519  2.1714 -1.6010 -0.5785
 3081SOL    HW220880   1.918   0.017   7.532 -0.6438 -1.3639  1.7259
 3082SOL     OW20881   3.569   0.790   4.682  0.0015  0.6859 -0.0478
 3082SOL    HW120882   3.559   0.743   4.765 -1.0597 -0.8365 -1.0237
 3082SOL    HW220883   3.552   0.883   4.698 -2.2752  0.6936 -2.5230
 3083SOL     OW20884   3.355   2.210   3.872 -0.5167  0.2897  0.1771
 3083SOL    HW120885   3.391   2.155   3.802  1.0359 -1.8401  2.6124
 3083SOL    HW220886   3.394   2.294   3.849  1.4396 -0.8507 -0.6620
 3084SOL     OW20887   3.170   1.182  15.550 -0.5515 -0.2863  0.1052
 3084SOL    HW120888   3.264   1.175  15.533 -0.5999  0.8229 -0.6616
 3084SOL    HW220889   3.150   1.260  15.498 -1.6315 -0.3424  0.4261
 3085SOL     OW20890   4.603   4.089   9.522 -0.1207  0.5132 -0.0538
 3085SOL    HW120891   4.565   4.067   9.437  0.2961  0.2585 -0.1748
 3085SOL    HW220892   4.525   4.080   9.576 -1.6863  1.6050 -2.1771
 3086SOL     OW20893   2.631   0.496   9.203  0.5094  0.0940 -0.4230
 3086SOL    HW120894   2.585   0.421   9.239  0.4098  0.9255  1.1872
 3086SOL    HW220895   2.696   0.455   9.147 -0.5269  0.7931 -2.1682
 3087SOL     OW20896   1.919   0.145   6.314  0.1138 -0.6386  0.1473
 3087SOL    HW120897   1.924   0.164   6.221 -0.7821  0.4665  0.3192
 3087SOL    HW220898   2.009   0.137   6.346  0.5595  0.1461 -0.9110
 3088SOL     OW20899   3.025   2.829  14.697 -0.1413 -0.3864 -0.5016
 3088SOL    HW120900   2.960   2.899  14.694  2.1539  1.8264  1.1925
 3088SOL    HW220901   3.051   2.833  14.605  3.3385  0.5421  0.5286
 3089SOL     OW20902   3.167   0.230   2.050 -0.3459  0.0063 -0.6131
 3089SOL    HW120903   3.254   0.246   2.087 -0.5434  0.8244 -0.5181
 3089SOL    HW220904   3.189   0.255   1.961  2.5754 -3.2529 -0.8235
 3090SOL     OW20905   3.109   3.566   8.228  0.6692  0.0747 -0.1800
 3090SOL    HW120906   3.177   3.626   8.198 -0.1931  0.1453 -2.0097
 3090SOL    HW220907   3.062   3.609   8.300  0.2517 -1.3970  0.4070
 3091SOL     OW20908   0.772   1.059   4.409  0.8428 -0.2382  0.2419
 3091SOL    HW120909   0.727   1.068   4.493  0.7279  2.7512 -0.1458
 3091SOL    HW220910   0.739   1.136   4.364 -2.1090 -2.2445 -1.0275
 3092SOL     OW20911   1.541   3.968  10.350 -0.0550 -0.2604 -0.1608
 3092SOL    HW120912   1.543   4.023  10.429 -1.4255  1.5195 -1.3666
 3092SOL    HW220913   1.588   4.023  10.287  1.4142 -0.0573  1.0940
 3093SOL     OW20914   0.667   2.204   8.697  0.3849 -0.3422 -0.3301
 3093SOL    HW120915   0.594   2.181   8.640 -0.9925 -1.0935  1.7599
 3093SOL    HW220916   0.625   2.278   8.739 -0.3795 -1.6871  1.2755
 3094SOL     OW20917   2.859   2.438   2.646 -0.2359 -0.0346 -0.1567
 3094SOL    HW120918   2.791   2.503   2.629 -0.1464  0.4905  1.4962
 3094SOL    HW220919   2.819   2.358   2.613  0.1286 -0.5926  0.7408
 3095SOL     OW20920   3.842   4.471   3.815  0.0819  0.4182  0.1534
 3095SOL    HW120921   3.839   4.387   3.770 -3.7748  0.8722 -0.4008
 3095SOL    HW220922   3.910   4.516   3.765  0.8632 -1.1803 -0.2102
 3096SOL     OW20923   3.317   1.510   8.173 -0.3717  0.2778 -0.2765
 3096SOL    HW120924   3.301   1.416   8.183  1.2467 -0.1585 -1.8300
 3096SOL    HW220925   3.387   1.508   8.109 -0.4398 -1.9990 -0.2884
 3097SOL     OW20926   0.242   4.369   8.660  0.3122 -0.5332 -0.5110
 3097SOL    HW120927   0.174   4.311   8.696 -0.3377  1.9452  2.2666
 3097SOL    HW220928   0.226   4.448   8.713 -0.1636 -1.7366  1.1599
 3098SOL     OW20929   3.615   0.414   2.365 -0.1498  0.4241  0.4085
 3098SOL    HW120930   3.691   0.359   2.379 -0.4983 -0.3471 -0.7314
 3098SOL    HW220931   3.567   0.413   2.448 -0.2451  0.9281  0.3593
 3099SOL     OW20932   3.736   0.405   5.886  0.3790  0.1411  0.2853
 3099SOL    HW120933   3.736   0.463   5.961 -1.0074  1.4868 -0.7730
 3099SOL    HW220934   3.779   0.457   5.818 -0.7483  0.6125 -0.0504
 3100SOL     OW20935   2.402   3.104   2.797  0.2132  0.1775  0.0876
 3100SOL    HW120936   2.340   3.085   2.867 -1.8526  1.2947 -1.4239
 3100SOL    HW220937   2.444   3.185   2.826  0.8547 -0.5901  1.2642
 3101SOL     OW20938   1.432   1.229   6.379  0.1145 -0.3831  0.1387
 3101SOL    HW120939   1.484   1.153   6.350  2.4601  1.8050 -1.4248
 3101SOL    HW220940   1.342   1.198   6.376  0.6307 -1.8411 -0.5484
 3102SOL     OW20941   2.666   4.575  12.173  0.2593  0.0628 -0.0431
 3102SOL    HW120942   2.716   4.550  12.251  2.1842  0.2085 -1.2337
 3102SOL    HW220943   2.630   4.494  12.138  2.3713 -0.4074 -1.0866
 3103SOL     OW20944   4.310   0.037   6.337 -0.0082  0.2414  0.1390
 3103SOL    HW120945   4.378   0.103   6.351  0.6480 -0.4580  0.2907
 3103SOL    HW220946   4.348   4.720   6.265  2.1480 -0.4757  1.7666
 3104SOL     OW20947   3.655   2.430   1.684  0.6767 -0.1362  0.6784
 3104SOL    HW120948   3.749   2.428   1.700  1.1303 -0.4194 -2.0129
 3104SOL    HW220949   3.641   2.335   1.686 -0.9340  0.1285  2.3359
 3105SOL     OW20950   1.090   1.889  17.426 -0.3494  0.1816  0.5360
 3105SOL    HW120951   1.089   1.971  17.475  1.0977  0.8802 -0.6017
 3105SOL    HW220952   1.140   1.830  17.482 -0.2838 -2.3749 -2.2198
 3106SOL     OW20953   1.845   3.690   2.029 -0.0120  0.3584 -0.2625
 3106SOL    HW120954   1.913   3.716   1.967 -0.9565 -0.2675 -1.5604
 3106SOL    HW220955   1.795   3.771   2.033  1.0786  0.9528  1.2941
 3107SOL     OW20956   0.998   1.780  11.192 -0.4379 -0.0088 -0.3840
 3107SOL    HW120957   1.057   1.804  11.121 -0.7360 -0.2790 -0.7231
 3107SOL    HW220958   0.990   1.685  11.189 -4.9053  0.3326  0.7958
 3108SOL     OW20959   1.494   4.316   6.291 -0.1061 -1.4524 -0.3307
 3108SOL    HW120960   1.417   4.274   6.331 -1.2397 -0.8262 -1.8366
 3108SOL    HW220961   1.467   4.324   6.199  0.5527 -0.2181 -0.4151
 3109SOL     OW20962   0.351   4.176   2.611 -0.3493  0.3506  0.3939
 3109SOL    HW120963   0.423   4.135   2.659  0.5700 -0.2730 -1.5179
 3109SOL    HW220964   0.363   4.267   2.637  3.2944 -0.0453  0.0689
 3110SOL     OW20965   3.095   2.503  17.702  0.3429  0.3919  0.1143
 3110SOL    HW120966   3.035   2.435  17.670 -0.8160  1.0772  0.8118
 3110SOL    HW220967   3.046   2.577  17.666  0.1919  0.3759  0.2831
 3111SOL     OW20968   2.779   4.697   6.607  0.4476 -0.3057 -0.1410
 3111SOL    HW120969   2.847   0.026   6.580 -0.4513  0.8382  0.2282
 3111SOL    HW220970   2.731   0.023   6.664 -1.8266 -1.0179 -1.3270
 3112SOL     OW20971   2.204   0.541   4.439  0.0335  0.3873  0.9755
 3112SOL    HW120972   2.137   0.478   4.411  1.0008  0.3569 -1.2615
 3112SOL    HW220973   2.247   0.570   4.359 -0.8730  0.3737  0.4815
 3113SOL     OW20974   0.284   1.503  17.160 -0.2808  0.0288 -0.4697
 3113SOL    HW120975   0.234   1.558  17.220  1.8485  1.4235  0.0566
 3113SOL    HW220976   0.303   1.563  17.088  1.4017 -0.9269 -0.8160
 3114SOL     OW20977   4.164   3.671   7.157 -0.2574  0.7090 -0.3207
 3114SOL    HW120978   4.080   3.675   7.110 -0.2865  1.1282 -0.2388
 3114SOL    HW220979   4.151   3.596   7.214 -1.2103  0.5020 -0.8052
 3115SOL     OW20980   3.857   0.655   4.754  0.7904  0.3886 -0.0385
 3115SOL    HW120981   3.811   0.705   4.821  2.2292  1.2999  0.2790
 3115SOL    HW220982   3.816   0.684   4.672  2.3738  0.8271 -0.6822
 3116SOL     OW20983   3.773   1.307   3.621  0.1777 -0.0306 -0.1758
 3116SOL    HW120984   3.750   1.334   3.532  2.2845  1.8830 -0.1470
 3116SOL    HW220985   3.681   1.300   3.647 -0.5860 -0.3914 -2.9750
 3117SOL     OW20986   3.149   1.797  13.546 -0.4568 -0.2230  0.2293
 3117SOL    HW120987   3.121   1.788  13.637 -1.1743  1.4749  0.1637
 3117SOL    HW220988   3.241   1.770  13.553  0.3011  2.0103 -1.1419
 3118SOL     OW20989   1.116   1.657  14.332  0.0510 -0.2491  0.1370
 3118SOL    HW120990   1.041   1.691  14.382  1.5137  0.3272  1.9523
 3118SOL    HW220991   1.167   1.738  14.326 -2.0572  1.1999  1.8192
 3119SOL     OW20992   4.175   1.280  10.850  0.6307  0.1477  0.0222
 3119SOL    HW120993   4.175   1.370  10.817 -1.5402 -0.9317 -3.0073
 3119SOL    HW220994   4.116   1.280  10.925  3.7562  1.4782  2.4380
 3120SOL     OW20995   2.850   2.084   0.130 -0.3299  0.4478  0.0996
 3120SOL    HW120996   2.935   2.126   0.120  0.5428 -1.6895 -1.2776
 3120SOL    HW220997   2.811   2.113   0.047 -1.1259 -0.7085  0.0629
 3121SOL     OW20998   0.607   4.201   3.382 -0.1902  0.0109 -0.4684
 3121SOL    HW120999   0.620   4.168   3.471 -0.8060 -1.4760 -0.9312
 3121SOL    HW221000   0.674   4.268   3.374 -0.4119  0.0472 -1.8790
 3122SOL     OW21001   0.496   3.065  17.470 -0.0176 -0.0050 -0.1933
 3122SOL    HW121002   0.485   2.970  17.471 -1.6243  0.1834  0.9046
 3122SOL    HW221003   0.416   3.104  17.435 -0.1547 -0.1437 -0.0398
 3123SOL     OW21004   2.852   0.743  16.291  0.3223 -0.0513  0.4924
 3123SOL    HW121005   2.778   0.722  16.233  0.1926  2.5453 -0.3190
 3123SOL    HW221006   2.838   0.679  16.361 -0.7579 -0.4321 -0.0646
 3124SOL     OW21007   2.807   1.422  13.767  0.1949 -0.0153  0.2795
 3124SOL    HW121008   2.896   1.456  13.772  0.5413 -0.5624 -2.2123
 3124SOL    HW221009   2.808   1.369  13.847 -0.1531 -0.3840  0.0403
 3125SOL     OW21010   0.698   0.148   7.610  0.6468 -0.1368  0.0509
 3125SOL    HW121011   0.672   0.172   7.700  1.5960  1.1465 -0.0173
 3125SOL    HW221012   0.627   0.084   7.598 -1.7600  2.7558 -1.2018
 3126SOL     OW21013   3.592   4.536   4.239  0.4810  0.0971  0.4070
 3126SOL    HW121014   3.568   4.611   4.293 -2.9998  0.1710 -1.2828
 3126SOL    HW221015   3.550   4.461   4.279  2.8209 -0.3658  1.9992
 3127SOL     OW21016   3.550   0.361  17.060  0.0844 -0.2416 -0.1652
 3127SOL    HW121017   3.483   0.399  17.117  1.3149  0.0581  1.0718
 3127SOL    HW221018   3.633   0.382  17.103 -0.0752 -0.2754  0.1611
 3128SOL     OW21019   0.198   0.033   8.714  0.0787  0.4253  0.5181
 3128SOL    HW121020   0.104   0.026   8.696  0.1632  0.8546 -0.1019
 3128SOL    HW221021   0.214   4.687   8.765  0.5718  0.1890 -0.0038
 3129SOL     OW21022   4.490   3.985   9.279  0.0243 -0.2253  0.0359
 3129SOL    HW121023   4.413   3.938   9.312 -0.3266 -0.0012 -0.4658
 3129SOL    HW221024   4.542   3.913   9.244  1.7636  1.1399 -0.1882
 3130SOL     OW21025   4.337   1.592   4.885 -0.3122 -0.3168  0.7150
 3130SOL    HW121026   4.426   1.571   4.913 -0.1933  0.4670  0.9297
 3130SOL    HW221027   4.356   1.580   4.792  1.6617 -0.4968  1.1414
 3131SOL     OW21028   1.052   4.382  12.757 -0.5895 -0.0746  0.2225
 3131SOL    HW121029   1.050   4.447  12.828 -1.4032  0.4689 -0.2961
 3131SOL    HW221030   1.110   4.311  12.784 -0.1225 -0.0891 -0.8011
 3132SOL     OW21031   1.978   2.282   5.000  0.3146 -0.3434  0.2153
 3132SOL    HW121032   1.943   2.213   5.057  1.6684  0.0683  1.5434
 3132SOL    HW221033   1.972   2.237   4.916  0.4690 -1.6663  0.9215
 3133SOL     OW21034   2.998   2.499   1.179 -0.1605 -0.7059  0.3027
 3133SOL    HW121035   3.040   2.478   1.262 -1.7605 -4.4350  0.1591
 3133SOL    HW221036   3.067   2.522   1.116  0.0915 -2.3218 -0.0274
 3134SOL     OW21037   2.258   0.066   8.986  0.2892 -0.1998  0.0424
 3134SOL    HW121038   2.202   0.140   8.960 -0.3636  0.3142  2.9263
 3134SOL    HW221039   2.226   4.723   8.937 -0.5567 -0.3664  0.8542
 3135SOL     OW21040   1.829   4.008  14.183 -0.2048  0.3744  0.3777
 3135SOL    HW121041   1.781   3.934  14.145  1.8589 -1.4245  1.2489
 3135SOL    HW221042   1.793   4.010  14.272  2.4656 -1.3771  1.4999
 3136SOL     OW21043   1.765   4.073   1.632  0.1760 -0.4754 -0.0016
 3136SOL    HW121044   1.680   4.057   1.674 -0.3094  1.3834 -0.2995
 3136SOL    HW221045   1.804   4.141   1.686  0.5036 -0.5784 -0.1119
 3137SOL     OW21046   4.328   2.260  10.683 -0.1103 -0.2104  0.4391
 3137SOL    HW121047   4.381   2.286  10.758  1.7042 -2.4611 -0.0771
 3137SOL    HW221048   4.242   2.296  10.705 -0.9501 -2.6590  1.1023
 3138SOL     OW21049   0.215   0.360   3.772 -0.2255  0.0296 -0.5860
 3138SOL    HW121050   0.239   0.291   3.834 -1.4690  1.2824  1.2814
 3138SOL    HW221051   0.270   0.434   3.797 -0.8222  0.5299 -0.7546
 3139SOL     OW21052   0.723   0.367  12.149  0.4695  0.3304  0.3007
 3139SOL    HW121053   0.639   0.390  12.109  0.3111 -0.7965 -0.0142
 3139SOL    HW221054   0.774   0.432  12.101  2.7622 -1.9220 -0.2619
 3140SOL     OW21055   0.981   1.198   2.341 -0.0955  0.7000 -0.3288
 3140SOL    HW121056   0.891   1.203   2.310 -0.1264  2.5932  0.0531
 3140SOL    HW221057   0.970   1.262   2.412 -1.7118 -0.1226  0.1526
 3141SOL     OW21058   2.788   1.158   5.516 -0.2057 -0.0071  0.0325
 3141SOL    HW121059   2.843   1.080   5.524  0.8402  0.8779  1.4158
 3141SOL    HW221060   2.712   1.112   5.482 -0.0412  1.0965 -1.8858
 3142SOL     OW21061   4.452   3.115   3.247  0.4145  0.3907 -0.5159
 3142SOL    HW121062   4.419   3.048   3.186 -0.6950  0.0413  0.4588
 3142SOL    HW221063   4.405   3.195   3.224 -0.4868 -0.4151 -1.5146
 3143SOL     OW21064   2.882   3.955   2.778  0.5164  0.1112 -0.5007
 3143SOL    HW121065   2.937   3.957   2.856  1.2672 -1.7182 -0.9846
 3143SOL    HW221066   2.942   3.896   2.732  1.1847  0.0945  0.3922
 3144SOL     OW21067   1.855   1.616  12.552  0.2582  0.2545  0.4321
 3144SOL    HW121068   1.906   1.666  12.488  0.0224 -0.3420 -0.2147
 3144SOL    HW221069   1.860   1.678  12.625 -0.8868 -0.4814  1.1220
 3145SOL     OW21070   1.334   2.615   6.985 -0.0162  0.5475  0.2935
 3145SOL    HW121071   1.423   2.640   6.960 -0.3194  0.4654 -0.8757
 3145SOL    HW221072   1.331   2.648   7.074 -0.4522 -4.0139  2.0010
 3146SOL     OW21073   1.834   4.408   2.342 -0.3815 -0.0467 -0.1083
 3146SOL    HW121074   1.909   4.465   2.330 -2.2019  1.9917 -1.8409
 3146SOL    HW221075   1.800   4.413   2.252  1.5389  0.8356 -0.7799
 3147SOL     OW21076   3.856   2.113   8.749 -0.5941  0.0186 -0.1152
 3147SOL    HW121077   3.809   2.196   8.749  0.5120  0.6435  0.6838
 3147SOL    HW221078   3.798   2.062   8.692 -0.8912 -0.8156  0.9225
 3148SOL     OW21079   4.494   2.723  14.152 -0.2253 -0.2258  0.4655
 3148SOL    HW121080   4.498   2.734  14.057 -0.5939  0.7645  0.5643
 3148SOL    HW221081   4.458   2.810  14.170 -0.6181  0.0378 -1.5590
 3149SOL     OW21082   3.383   1.339   0.262 -0.0332  0.3937  0.2583
 3149SOL    HW121083   3.412   1.279   0.194  1.0652  0.1612  0.9293
 3149SOL    HW221084   3.310   1.382   0.218  0.3653 -0.5941 -1.3617
 3150SOL     OW21085   3.005   3.299   3.599 -0.1383 -0.2160 -0.1835
 3150SOL    HW121086   2.921   3.254   3.604 -0.1280 -0.2906 -0.6462
 3150SOL    HW221087   3.025   3.304   3.505  0.6222 -0.4658 -0.0324
 3151SOL     OW21088   1.448   4.633   7.515 -0.8744  0.0742  0.0794
 3151SOL    HW121089   1.428   4.610   7.425 -1.0988  0.0031  0.1467
 3151SOL    HW221090   1.360   4.657   7.545 -0.7603  1.4093 -0.6838
 3152SOL     OW21091   1.642   1.818   3.495 -1.0141 -0.1284 -0.0211
 3152SOL    HW121092   1.692   1.749   3.540  1.4192  0.7770 -1.3630
 3152SOL    HW221093   1.625   1.889   3.557 -2.0983  1.9322 -2.7363
 3153SOL     OW21094   3.791   4.334   6.285  0.0186  0.3690 -1.3497
 3153SOL    HW121095   3.777   4.240   6.289  0.2240  0.4648  2.3530
 3153SOL    HW221096   3.719   4.357   6.226 -1.0574 -1.7602 -0.8400
 3154SOL     OW21097   3.183   2.778  16.690  0.1246 -0.2924  0.2572
 3154SOL    HW121098   3.206   2.798  16.781 -0.7884  0.7687  0.2541
 3154SOL    HW221099   3.127   2.854  16.673  0.6428 -0.0213 -0.2680
 3155SOL     OW21100   0.262   3.387   6.401 -0.1624  0.3831 -0.3898
 3155SOL    HW121101   0.233   3.463   6.452 -2.7546 -2.9134  3.1301
 3155SOL    HW221102   0.350   3.370   6.434  0.1253  1.2636 -0.7088
 3156SOL     OW21103   1.763   2.328   5.622  0.5698  0.1788 -0.2696
 3156SOL    HW121104   1.796   2.272   5.552 -0.5373 -0.1763 -0.4923
 3156SOL    HW221105   1.682   2.281   5.636  2.1390 -2.0491  1.2912
 3157SOL     OW21106   4.411   3.400   0.191 -0.1894  0.1424 -0.2564
 3157SOL    HW121107   4.478   3.374   0.127  1.9458 -3.5496  3.4814
 3157SOL    HW221108   4.452   3.467   0.245 -0.1845  0.0322 -0.1222
 3158SOL     OW21109   3.590   3.750  12.375 -0.1541 -0.4322  0.7474
 3158SOL    HW121110   3.556   3.672  12.420  1.0744 -0.7334  1.1302
 3158SOL    HW221111   3.652   3.775  12.443  1.0318  0.3952 -0.6288
 3159SOL     OW21112   1.306   4.023   4.590  0.2073 -0.8272 -0.5258
 3159SOL    HW121113   1.398   4.006   4.610  0.0938 -0.5811  0.2022
 3159SOL    HW221114   1.280   4.065   4.672  0.4281 -0.7338 -0.5031
 3160SOL     OW21115   3.585   0.290   0.207 -0.0344 -0.0812 -0.2148
 3160SOL    HW121116   3.641   0.329   0.274  0.1492 -0.1925 -0.3045
 3160SOL    HW221117   3.626   0.318   0.125 -0.5754 -0.4401 -0.6089
 3161SOL     OW21118   1.123   1.400  14.986 -0.5002 -0.2274 -0.2932
 3161SOL    HW121119   1.197   1.369  15.038  2.2578  0.1434 -3.9447
 3161SOL    HW221120   1.119   1.493  15.008 -0.4017 -0.0068 -1.2104
 3162SOL     OW21121   3.728   3.015  15.248  0.3028  0.5961  0.2314
 3162SOL    HW121122   3.652   3.018  15.190  0.4227  0.8082  0.0838
 3162SOL    HW221123   3.690   3.076  15.311  0.8938  0.9120  0.2839
 3163SOL     OW21124   0.382   0.859  10.553  0.1506  0.2435  0.1202
 3163SOL    HW121125   0.345   0.791  10.497  1.9911 -0.1414 -0.6401
 3163SOL    HW221126   0.477   0.852  10.547  0.1665 -1.3029  2.6907
 3164SOL     OW21127   0.627   4.119  12.819 -0.0171  0.1925  0.0166
 3164SOL    HW121128   0.623   4.163  12.734  1.4570 -0.7196 -0.5297
 3164SOL    HW221129   0.714   4.145  12.849  0.6582 -2.0475  0.0198
 3165SOL     OW21130   4.122   3.594   9.416 -0.5481 -0.1190  0.1513
 3165SOL    HW121131   4.182   3.665   9.393 -1.8402  0.3243 -1.8524
 3165SOL    HW221132   4.061   3.647   9.467 -1.6108  0.3572 -1.6208
 3166SOL     OW21133   1.537   2.259   6.807  0.0138  0.0511 -0.8897
 3166SOL    HW121134   1.518   2.184   6.750 -1.1701 -1.7710  1.8870
 3166SOL    HW221135   1.539   2.210   6.890 -1.3868  0.5875 -0.5426
 3167SOL     OW21136   4.187   3.768   5.587  0.2106 -0.2201 -0.1308
 3167SOL    HW121137   4.121   3.770   5.656 -1.0957  1.2626 -1.4060
 3167SOL    HW221138   4.244   3.841   5.612 -4.3007  2.6172  1.7291
 3168SOL     OW21139   3.805   0.334  14.753  0.3234 -0.4051  0.4158
 3168SOL    HW121140   3.752   0.400  14.709  1.9659 -0.4003 -1.5960
 3168SOL    HW221141   3.886   0.378  14.781  0.7311  0.1302 -1.5849
 3169SOL     OW21142   1.182   3.379   8.557 -0.5751  0.7191  0.1057
 3169SOL    HW121143   1.253   3.317   8.546  0.3932  1.8569 -0.1132
 3169SOL    HW221144   1.151   3.365   8.646  0.3199 -0.7663  0.1748
 3170SOL     OW21145   0.989   3.769   5.202 -0.8013 -0.6283 -0.1569
 3170SOL    HW121146   0.965   3.828   5.274  1.1083  1.2978 -1.0887
 3170SOL    HW221147   0.908   3.756   5.152 -1.0683 -2.4928  0.7795
 3171SOL     OW21148   1.305   1.354   8.163  0.2718 -0.5405 -0.1330
 3171SOL    HW121149   1.345   1.329   8.080 -0.9952  0.0325 -0.9110
 3171SOL    HW221150   1.219   1.316   8.146 -0.8051  1.1797  1.3813
 3172SOL     OW21151   1.035   1.381   4.239  0.4030  0.1268 -0.0141
 3172SOL    HW121152   1.059   1.472   4.219  1.8307 -0.0646  0.8349
 3172SOL    HW221153   1.097   1.359   4.309 -0.5325  3.6276  1.9045
 3173SOL     OW21154   0.512   4.113   7.195 -0.1649  0.7347 -0.3192
 3173SOL    HW121155   0.585   4.055   7.171 -0.6607  0.2340 -0.6183
 3173SOL    HW221156   0.528   4.187   7.137 -1.4512  1.0310 -0.2900
 3174SOL     OW21157   0.686   0.993   5.457  0.1215  0.1162  0.0942
 3174SOL    HW121158   0.688   0.947   5.541  1.7462  1.3308  0.7151
 3174SOL    HW221159   0.760   0.943   5.422  0.1632 -0.7419  1.4184
 3175SOL     OW21160   1.859   1.847   5.700 -0.2189 -0.1744  0.3575
 3175SOL    HW121161   1.810   1.801   5.769 -0.0960 -0.1535  0.4601
 3175SOL    HW221162   1.950   1.834   5.729  0.8488  1.1178 -2.4451
 3176SOL     OW21163   2.149   0.327   7.904 -0.9688 -0.4240  0.0567
 3176SOL    HW121164   2.149   0.392   7.833  0.0855 -0.1388  0.3209
 3176SOL    HW221165   2.058   0.339   7.932 -0.9368 -1.7131  0.6847
 3177SOL     OW21166   3.528   2.417  17.154  0.3740 -0.0525 -0.2977
 3177SOL    HW121167   3.552   2.501  17.115  2.4548  1.1487  3.6513
 3177SOL    HW221168   3.605   2.411  17.209  1.4691 -3.2568 -2.2076
 3178SOL     OW21169   2.450   1.337   7.247 -0.4625  0.4096  0.1548
 3178SOL    HW121170   2.416   1.327   7.336 -0.1844  0.4432  0.2680
 3178SOL    HW221171   2.375   1.376   7.203 -0.5699 -1.1583 -1.0746
 3179SOL     OW21172   1.500   0.979   6.287  0.4468  0.4465 -0.6233
 3179SOL    HW121173   1.455   0.896   6.268  0.3381  0.3928 -0.1292
 3179SOL    HW221174   1.546   0.963   6.369  1.0335  2.1786 -0.6173
 3180SOL     OW21175   1.630   4.396   7.910 -0.1094  0.7540 -0.4577
 3180SOL    HW121176   1.725   4.391   7.901 -0.2155 -0.5906 -0.8599
 3180SOL    HW221177   1.602   4.361   7.826 -1.6754 -1.7054  1.0931
 3181SOL     OW21178   2.865   3.508  10.097 -0.1779  0.2587 -0.1932
 3181SOL    HW121179   2.959   3.499  10.088 -0.2117 -1.2976  0.9946
 3181SOL    HW221180   2.837   3.465  10.017 -0.6978  1.8992 -0.9013
 3182SOL     OW21181   0.608   0.227   9.842 -0.4641 -0.1428  0.3211
 3182SOL    HW121182   0.564   0.270   9.769 -1.4068 -1.7188 -0.0354
 3182SOL    HW221183   0.537   0.228   9.906 -0.0053  1.4867  0.7904
 3183SOL     OW21184   1.886   4.396  17.092  0.2163  0.2359 -0.2673
 3183SOL    HW121185   1.900   4.403  17.187  2.3984 -1.3788 -0.4641
 3183SOL    HW221186   1.792   4.409  17.084  0.2121 -0.5918 -1.4061
 3184SOL     OW21187   0.148   0.727  12.114 -0.0098 -0.9683  0.4542
 3184SOL    HW121188   0.205   0.804  12.114 -2.6630  0.9658 -2.5571
 3184SOL    HW221189   0.075   0.766  12.162 -0.6451 -0.5838 -0.8289
 3185SOL     OW21190   0.247   4.557   1.991  0.3197 -0.2864  0.4913
 3185SOL    HW121191   0.257   4.462   1.980  2.0420  0.0756 -1.2440
 3185SOL    HW221192   0.217   4.557   2.082  1.0898 -1.1934  0.7491
 3186SOL     OW21193   4.159   3.881   0.024  0.7770  0.1616  0.4216
 3186SOL    HW121194   4.130   3.850  17.670 -1.9850  0.5707  1.2197
 3186SOL    HW221195   4.247   3.844   0.021  1.9085  2.6927  2.3555
 3187SOL     OW21196   1.099   0.697   3.247  0.2330  0.2027 -0.5128
 3187SOL    HW121197   1.091   0.746   3.330  0.9716 -1.2745  0.4304
 3187SOL    HW221198   1.145   0.766   3.198  2.4579  0.3317  1.7234
 3188SOL     OW21199   3.759   3.128   9.516 -0.0731  0.0329  0.0302
 3188SOL    HW121200   3.790   3.195   9.454  0.5182  0.2902  0.5997
 3188SOL    HW221201   3.794   3.159   9.599  0.1510 -0.3681  0.0850
 3189SOL     OW21202   3.955   1.258  12.314 -0.6788  0.4935  0.0489
 3189SOL    HW121203   3.985   1.349  12.312  2.8800 -0.6074  2.6405
 3189SOL    HW221204   3.862   1.265  12.333 -0.1231 -0.0654  3.0166
 3190SOL     OW21205   1.390   1.538   9.983 -0.3423  0.2192  0.1033
 3190SOL    HW121206   1.463   1.477   9.973 -1.8272 -1.3576 -1.0150
 3190SOL    HW221207   1.344   1.515   9.902  3.1184 -1.3533 -1.4169
 3191SOL     OW21208   4.262   2.699   5.372 -0.1355 -0.5264  0.0434
 3191SOL    HW121209   4.317   2.639   5.422 -0.3288 -1.3696 -0.7599
 3191SOL    HW221210   4.228   2.647   5.299  0.0780  0.1148 -0.5204
 3192SOL     OW21211   1.487   3.693   0.205  0.1058  0.1833  0.7827
 3192SOL    HW121212   1.447   3.639   0.137 -0.0767  1.2148  0.0689
 3192SOL    HW221213   1.563   3.638   0.224  0.3174  0.4211  0.6317
 3193SOL     OW21214   3.488   1.951   4.948 -0.0115  0.1279  0.2482
 3193SOL    HW121215   3.462   2.017   4.884  3.5041  1.2005 -0.0870
 3193SOL    HW221216   3.548   2.005   5.000  0.2170 -0.9235  1.0728
 3194SOL     OW21217   0.435   2.360   3.125  0.5398 -0.1307  0.1078
 3194SOL    HW121218   0.340   2.374   3.119  0.6341  1.2377  2.0755
 3194SOL    HW221219   0.454   2.362   3.031 -2.5848 -0.2195 -0.5192
 3195SOL     OW21220   0.831   0.309   9.593  0.2412  0.1181 -0.0180
 3195SOL    HW121221   0.821   0.383   9.653  1.3141 -0.0678  0.3906
 3195SOL    HW221222   0.782   0.241   9.639 -0.9046  1.6726  1.0596
 3196SOL     OW21223   0.182   2.338   3.082  0.1963 -0.0451 -0.6986
 3196SOL    HW121224   0.152   2.387   3.159 -2.3739 -0.7389 -1.2682
 3196SOL    HW221225   0.141   2.387   3.011  0.0550  1.0599  0.1333
 3197SOL     OW21226   3.609   3.923   1.809 -0.0869 -0.4156 -0.1588
 3197SOL    HW121227   3.677   3.986   1.835 -1.0500  0.4917  0.1904
 3197SOL    HW221228   3.641   3.899   1.722 -0.3767 -0.6559 -0.1986
 3198SOL     OW21229   3.567   3.557   9.228 -0.1727  0.1989 -0.3803
 3198SOL    HW121230   3.592   3.644   9.196 -1.6856  0.8939  0.3539
 3198SOL    HW221231   3.499   3.589   9.287  0.9432 -2.1418  2.1509
 3199SOL     OW21232   0.676   3.516   2.105  0.8687  0.2468  0.3298
 3199SOL    HW121233   0.630   3.481   2.180 -0.3231  0.3818 -0.3402
 3199SOL    HW221234   0.766   3.496   2.129  0.1883  0.1917  2.8170
 3200SOL     OW21235   1.858   2.320  10.814  0.5963 -0.2020  0.4120
 3200SOL    HW121236   1.906   2.322  10.896  2.3260 -0.8730 -0.5767
 3200SOL    HW221237   1.906   2.255  10.763 -1.7773 -1.2907 -0.4496
 3201SOL     OW21238   3.054   3.864   3.648 -0.0004 -0.0003  0.3781
 3201SOL    HW121239   2.973   3.912   3.629  0.5649  1.7427  2.4683
 3201SOL    HW221240   3.031   3.813   3.725 -0.9862  0.2653  0.2616
 3202SOL     OW21241   4.207   0.033  16.119 -0.1434  0.6261 -0.5924
 3202SOL    HW121242   4.247   4.706  16.056 -1.1253 -1.2155  0.5345
 3202SOL    HW221243   4.117   0.008  16.139 -0.7734  2.9904 -0.4402
 3203SOL     OW21244   1.571   0.423  14.907 -0.3172  0.4912  0.0438
 3203SOL    HW121245   1.512   0.359  14.867 -0.7868  0.0430  1.4541
 3203SOL    HW221246   1.602   0.479  14.836  2.3087  0.6543  1.3381
 3204SOL     OW21247   2.074   4.396  13.785 -0.0822  0.4330  0.2476
 3204SOL    HW121248   2.011   4.457  13.745  0.2779  0.9608  0.4905
 3204SOL    HW221249   2.142   4.459  13.810  2.5765 -2.2042 -0.3990
 3205SOL     OW21250   3.918   1.736   1.447  0.1439  0.2564 -0.1360
 3205SOL    HW121251   3.835   1.752   1.402  1.2693  0.0950 -2.2640
 3205SOL    HW221252   3.894   1.655   1.493  0.5804 -1.4920 -2.9627
 3206SOL     OW21253   3.421   4.255   9.494 -0.1871  0.1169 -0.2995
 3206SOL    HW121254   3.426   4.170   9.539 -0.1219  0.4369  0.3079
 3206SOL    HW221255   3.383   4.305   9.566 -0.6242 -0.1682 -0.3288
 3207SOL     OW21256   0.484   3.646   2.844 -0.4424 -0.6969  0.3192
 3207SOL    HW121257   0.407   3.615   2.892 -1.2937 -0.0747 -0.6351
 3207SOL    HW221258   0.472   3.739   2.864  0.0326 -0.4097 -0.7406
 3208SOL     OW21259   2.803   0.041   7.475 -0.5892  0.0520  0.7550
 3208SOL    HW121260   2.835   0.090   7.551  0.7264  2.7485 -1.5534
 3208SOL    HW221261   2.746   4.711   7.519 -2.4715  1.3756  0.2220
 3209SOL     OW21262   0.542   1.908  10.253  0.3269 -0.4201 -0.2790
 3209SOL    HW121263   0.520   2.000  10.266 -0.7028 -0.9056  1.3790
 3209SOL    HW221264   0.604   1.907  10.179 -0.1182 -0.8392 -0.6469
 3210SOL     OW21265   4.253   0.185   4.365 -0.5315 -0.3814 -0.4418
 3210SOL    HW121266   4.315   0.119   4.396 -0.4900 -0.4063 -0.5790
 3210SOL    HW221267   4.185   0.194   4.432  0.5489  1.9663  0.3308
 3211SOL     OW21268   2.047   1.078   4.000  0.3250 -0.1294 -0.4281
 3211SOL    HW121269   1.960   1.119   3.996 -0.0054 -0.6041  2.2723
 3211SOL    HW221270   2.079   1.064   3.911 -1.0569  0.1483 -0.9741
 3212SOL     OW21271   3.226   4.443   4.825 -0.0995 -0.3073  0.0724
 3212SOL    HW121272   3.227   4.348   4.839  1.6381 -0.1198  1.1910
 3212SOL    HW221273   3.298   4.451   4.763 -0.2404  3.3716  0.3730
 3213SOL     OW21274   2.436   2.248   3.062  0.5929  0.2122  0.1722
 3213SOL    HW121275   2.343   2.226   3.063  0.7686 -0.5348 -0.4573
 3213SOL    HW221276   2.430   2.317   2.996 -1.8037  0.4486  0.6540
 3214SOL     OW21277   2.823   2.903   5.357 -0.0035  0.2605 -0.2690
 3214SOL    HW121278   2.894   2.963   5.378 -0.1153  0.1467  0.4257
 3214SOL    HW221279   2.818   2.877   5.449 -1.6415  1.7867  0.0634
 3215SOL     OW21280   3.969   3.686   9.070  0.0637  0.2291 -0.6295
 3215SOL    HW121281   4.063   3.705   9.070  0.3331 -1.1326  0.9921
 3215SOL    HW221282   3.941   3.733   8.991 -2.1288  0.5649  0.3607
 3216SOL     OW21283   2.687   1.560  14.257 -0.0833 -0.2576 -0.2379
 3216SOL    HW121284   2.602   1.527  14.227 -0.3361  0.0746  0.1327
 3216SOL    HW221285   2.734   1.476  14.249  0.3007 -0.0802  0.1734
 3217SOL     OW21286   0.364   1.437  11.947  0.4258 -0.7176 -0.1739
 3217SOL    HW121287   0.377   1.523  11.907 -1.7045  1.2455  3.2824
 3217SOL    HW221288   0.443   1.425  12.000 -0.0899  0.1968  0.7998
 3218SOL     OW21289   2.560   3.319  11.841  0.1171  0.0518 -0.2022
 3218SOL    HW121290   2.497   3.266  11.793  0.4289  0.4419 -1.0558
 3218SOL    HW221291   2.631   3.255  11.838  0.2372  0.2472 -1.8805
 3219SOL     OW21292   4.691   3.380   6.409 -0.8984 -0.7120 -0.5434
 3219SOL    HW121293   4.715   3.299   6.363 -0.2051 -0.8739  0.1135
 3219SOL    HW221294   4.696   3.349   6.499 -3.6699 -0.4910 -0.3301
 3220SOL     OW21295   3.745   3.148  13.252 -0.5441  0.1177 -0.1464
 3220SOL    HW121296   3.669   3.192  13.215 -1.5792  0.7671  2.8034
 3220SOL    HW221297   3.708   3.060  13.253  1.2113 -0.6682 -2.3067
 3221SOL     OW21298   1.586   3.313  14.078  0.2650 -0.1877  0.0104
 3221SOL    HW121299   1.644   3.379  14.117  0.4176  0.0135 -0.5653
 3221SOL    HW221300   1.628   3.233  14.112  2.4153  1.1295  0.4432
 3222SOL     OW21301   1.156   0.486  13.954 -0.0724  0.0059  0.0406
 3222SOL    HW121302   1.192   0.512  13.869  1.6342 -0.4363  0.6180
 3222SOL    HW221303   1.077   0.440  13.926  0.0921  0.7920 -1.7499
 3223SOL     OW21304   3.676   2.999   2.834 -0.7463 -0.9859 -0.0386
 3223SOL    HW121305   3.755   2.980   2.885 -0.2462  1.4245  0.1000
 3223SOL    HW221306   3.622   3.033   2.906  0.1858  1.3157 -0.4412
 3224SOL     OW21307   3.257   4.277   7.832  0.2250  0.0109 -0.3270
 3224SOL    HW121308   3.210   4.350   7.790  0.8676  2.2548  2.8999
 3224SOL    HW221309   3.336   4.280   7.778  0.5387  2.6668  0.2820
 3225SOL     OW21310   3.320   1.397   6.245  0.1128  0.2509  0.2276
 3225SOL    HW121311   3.410   1.388   6.277 -0.6873 -2.3053  1.7980
 3225SOL    HW221312   3.329   1.469   6.182 -1.1086  1.2361  1.1906
 3226SOL     OW21313   2.066   1.254   2.378 -0.6188 -0.1824 -0.5173
 3226SOL    HW121314   2.101   1.326   2.431 -1.3237 -0.6834  0.6229
 3226SOL    HW221315   1.998   1.297   2.327  1.9857  3.3778 -0.9342
 3227SOL     OW21316   1.206   3.400   7.270  0.3223 -0.5626  0.4197
 3227SOL    HW121317   1.187   3.391   7.176 -0.5260  0.3155  0.5026
 3227SOL    HW221318   1.282   3.458   7.272 -0.8780  0.9946  0.7501
 3228SOL     OW21319   0.951   0.013   3.715 -0.0573 -0.5589 -0.0444
 3228SOL    HW121320   0.958   0.107   3.733 -1.7911 -0.5434  0.5400
 3228SOL    HW221321   0.856   0.000   3.723  0.0964 -1.5473  0.1722
 3229SOL     OW21322   3.808   3.876   6.404  0.0416 -0.2497 -0.0125
 3229SOL    HW121323   3.871   3.872   6.476  0.8331  0.1233 -0.6822
 3229SOL    HW221324   3.870   3.892   6.332  1.6270 -0.6267  1.2797
 3230SOL     OW21325   0.069   0.316   8.131  0.5351  0.4342  0.2883
 3230SOL    HW121326   4.707   0.329   8.125  0.3983 -0.2116  1.0138
 3230SOL    HW221327   0.093   0.392   8.184  0.2081 -0.6976  2.0737
 3231SOL     OW21328   0.395   1.931   8.168 -0.5837  0.0764 -0.6757
 3231SOL    HW121329   0.425   1.872   8.098 -0.8954 -1.2056  0.2748
 3231SOL    HW221330   0.468   1.925   8.229 -2.4619 -0.9283  1.4604
 3232SOL     OW21331   4.336   4.654   7.511 -0.3134 -0.4080  0.1394
 3232SOL    HW121332   4.240   4.651   7.512 -0.2914 -1.3630 -0.5309
 3232SOL    HW221333   4.353   4.583   7.449  0.7833 -0.1401  0.1319
 3233SOL     OW21334   1.278   3.113  13.471  0.3160 -0.4199  0.3517
 3233SOL    HW121335   1.303   3.194  13.517 -0.6286  0.6085 -0.9586
 3233SOL    HW221336   1.218   3.071  13.532 -0.1970 -0.7277 -0.3794
 3234SOL     OW21337   2.464   4.566  11.132 -0.8274  0.3893 -0.1947
 3234SOL    HW121338   2.496   4.511  11.061 -0.5921  0.4208 -0.1118
 3234SOL    HW221339   2.539   4.575  11.190 -1.4834 -0.3748  0.7567
 3235SOL     OW21340   4.329   0.062   2.313  0.0116  0.0698 -0.3525
 3235SOL    HW121341   4.236   0.081   2.324  0.0595 -1.1472  2.3205
 3235SOL    HW221342   4.367   0.147   2.337  1.6715  0.1076 -3.0899
 3236SOL     OW21343   1.487   4.432   9.409  0.2154 -0.2125  0.0278
 3236SOL    HW121344   1.581   4.426   9.395 -0.0971  0.0045 -2.1431
 3236SOL    HW221345   1.453   4.489   9.340 -1.0738 -2.4960 -1.2131
 3237SOL     OW21346   1.539   0.768   3.219  0.0750 -0.3818 -0.3541
 3237SOL    HW121347   1.549   0.800   3.309  1.4472  0.0513 -0.6612
 3237SOL    HW221348   1.463   0.821   3.196  1.4446  1.6941 -0.1719
 3238SOL     OW21349   1.231   3.883  10.392  0.3086 -0.4066 -0.2897
 3238SOL    HW121350   1.323   3.870  10.410  0.1036 -0.9647  0.3322
 3238SOL    HW221351   1.224   3.979  10.388 -1.3845 -0.5878 -1.6462
 3239SOL     OW21352   2.524   1.405   9.239 -0.1006 -0.3984  0.6670
 3239SOL    HW121353   2.447   1.462   9.235  1.2478  1.3108 -1.3219
 3239SOL    HW221354   2.592   1.469   9.218  0.6772 -1.0393  1.2734
 3240SOL     OW21355   1.382   3.056   0.089 -0.2362 -0.0650 -0.3262
 3240SOL    HW121356   1.306   3.072   0.145  0.5711 -2.3610  1.4492
 3240SOL    HW221357   1.449   3.113   0.126 -0.5366 -0.1257  0.3160
 3241SOL     OW21358   2.406   2.016   2.129 -0.0512  0.6349  0.0281
 3241SOL    HW121359   2.434   1.926   2.145 -0.7195 -0.0490 -2.5852
 3241SOL    HW221360   2.315   2.013   2.157  0.2305  2.2806  1.1069
 3242SOL     OW21361   2.580   0.710   1.816  0.3821 -0.0637  0.4865
 3242SOL    HW121362   2.671   0.740   1.815  0.2053  0.4643  0.5183
 3242SOL    HW221363   2.590   0.652   1.891  0.6607  1.0069  1.2857
 3243SOL     OW21364   4.032   1.536  10.746  0.0509 -0.2081 -0.4604
 3243SOL    HW121365   3.951   1.522  10.796 -1.0746  0.9865 -1.9512
 3243SOL    HW221366   4.005   1.620  10.711 -1.8566  0.8608  3.4784
 3244SOL     OW21367   2.299   4.403   3.611 -0.5397  0.2220  0.1814
 3244SOL    HW121368   2.292   4.426   3.703  0.4470 -0.5755  0.4547
 3244SOL    HW221369   2.262   4.481   3.569  1.4715  1.7025  1.2125
 3245SOL     OW21370   3.728   3.739   4.809  0.1187  0.2630  0.0437
 3245SOL    HW121371   3.690   3.809   4.862 -0.6441 -0.5057  0.5298
 3245SOL    HW221372   3.739   3.667   4.872 -0.3925  0.2500  0.1266
 3246SOL     OW21373   0.672   1.102   8.128 -0.0389  0.1122 -0.6214
 3246SOL    HW121374   0.691   1.009   8.139 -0.0067  0.2062  0.1259
 3246SOL    HW221375   0.622   1.124   8.206 -2.3658  0.5332 -2.2316
 3247SOL     OW21376   3.382   0.243   3.373 -0.1738 -0.5945 -0.3529
 3247SOL    HW121377   3.436   0.302   3.426  0.2187  0.6137 -2.1065
 3247SOL    HW221378   3.423   0.247   3.286  1.8122  0.7438  0.6346
 3248SOL     OW21379   1.396   3.877   4.004  0.3144 -0.2595  0.0508
 3248SOL    HW121380   1.341   3.930   4.062 -2.1129 -0.7913 -1.7847
 3248SOL    HW221381   1.326   3.851   3.945 -2.0099  3.7151  1.0256
 3249SOL     OW21382   3.725   2.108   1.042  0.8656 -0.2394  0.1254
 3249SOL    HW121383   3.639   2.067   1.053  2.1767 -3.6599 -2.0799
 3249SOL    HW221384   3.717   2.134   0.950 -0.6961  1.0348  0.6310
 3250SOL     OW21385   2.169   1.675   1.373 -0.2995  0.2396  0.0500
 3250SOL    HW121386   2.239   1.728   1.412  0.2924 -0.8416  0.4461
 3250SOL    HW221387   2.208   1.640   1.293 -0.2196  0.4926 -0.0211
 3251SOL     OW21388   0.118   1.274   1.632  0.3440  0.2160  0.6240
 3251SOL    HW121389   0.203   1.249   1.669  0.8243 -0.2483 -0.8178
 3251SOL    HW221390   0.070   1.301   1.711  0.2891  1.7749  0.0676
 3252SOL     OW21391   3.661   2.594   6.099 -0.0582 -0.2438 -0.5892
 3252SOL    HW121392   3.715   2.671   6.082 -1.6548  1.2274  1.0805
 3252SOL    HW221393   3.651   2.602   6.194 -2.5768  0.9956 -0.9649
 3253SOL     OW21394   4.622   4.210  12.373  0.4932  0.0396  0.0897
 3253SOL    HW121395   4.570   4.290  12.360  1.3859  0.6416  0.2599
 3253SOL    HW221396   4.679   4.205  12.297  0.2214  0.8327 -0.1716
 3254SOL     OW21397   2.214   0.760  17.556 -0.1343  0.0131 -0.3695
 3254SOL    HW121398   2.298   0.719  17.578 -1.4624 -2.4086  0.1183
 3254SOL    HW221399   2.162   0.760  17.637 -0.0530 -2.0505 -0.3241
 3255SOL     OW21400   3.035   3.975   1.526  0.1339 -0.3871 -0.1454
 3255SOL    HW121401   3.020   4.019   1.610 -1.0074 -1.0825  0.0159
 3255SOL    HW221402   2.983   3.895   1.522 -1.5746  0.6833  0.7398
 3256SOL     OW21403   2.381   2.361  14.643  0.4064  0.0642  0.4893
 3256SOL    HW121404   2.460   2.308  14.640 -0.7396 -1.7307  1.8965
 3256SOL    HW221405   2.427   2.445  14.650  0.0811  0.3650 -0.9033
 3257SOL     OW21406   2.367   4.690   7.648  0.0891 -0.7376  0.4582
 3257SOL    HW121407   2.287   4.643   7.622  0.1521 -1.5448  1.7791
 3257SOL    HW221408   2.346   0.042   7.608  0.0102 -0.2124  1.6365
 3258SOL     OW21409   1.255   3.167  16.936  0.3240 -0.0685  0.0480
 3258SOL    HW121410   1.342   3.144  16.903  1.9954  1.1880  3.5410
 3258SOL    HW221411   1.221   3.220  16.863 -1.2757 -0.5459  0.4383
 3259SOL     OW21412   4.548   2.187   7.950 -0.3885  0.4740  0.1623
 3259SOL    HW121413   4.540   2.092   7.942 -1.3819  0.6907 -1.3328
 3259SOL    HW221414   4.635   2.215   7.922 -0.4463 -2.1525 -2.5787
 3260SOL     OW21415   4.317   4.060   7.948 -0.1086 -0.1712  0.4722
 3260SOL    HW121416   4.298   4.144   7.989  0.1903 -0.5854  1.4623
 3260SOL    HW221417   4.283   4.011   8.023  0.6144 -1.3289  0.0444
 3261SOL     OW21418   3.825   1.236   9.215  0.3249  0.1455 -0.3905
 3261SOL    HW121419   3.881   1.291   9.270  0.0610 -0.3784  0.4113
 3261SOL    HW221420   3.856   1.148   9.234 -0.8952 -0.4352 -1.0558
 3262SOL     OW21421   0.202   3.531  12.168 -0.0724  0.2818  0.1237
 3262SOL    HW121422   0.196   3.623  12.142  0.1456 -0.3943 -2.3449
 3262SOL    HW221423   0.122   3.494  12.131 -0.3290 -0.0696  1.0572
 3263SOL     OW21424   0.590   4.579   3.181  0.2223 -0.0617 -0.3096
 3263SOL    HW121425   0.501   4.545   3.192  0.4130 -0.6439 -0.5703
 3263SOL    HW221426   0.620   4.535   3.102  0.9094  0.9885 -0.6377
 3264SOL     OW21427   4.149   1.650   4.457 -0.4710  0.4777  0.5043
 3264SOL    HW121428   4.079   1.643   4.522  0.0310 -2.4366  0.7353
 3264SOL    HW221429   4.115   1.704   4.386 -1.2139  2.3967  2.3051
 3265SOL     OW21430   3.380   3.576   4.973  0.2796  0.3667 -0.4047
 3265SOL    HW121431   3.383   3.482   4.958  2.3534  0.3185  0.4094
 3265SOL    HW221432   3.389   3.584   5.068 -2.5249  0.8575 -0.1813
 3266SOL     OW21433   0.114   4.244  10.141  0.1621  0.2109  0.3162
 3266SOL    HW121434   0.152   4.271  10.224 -1.7730 -0.6680  1.5204
 3266SOL    HW221435   0.142   4.153  10.130 -1.5323 -0.1404 -1.1886
 3267SOL     OW21436   0.282   0.962   8.157 -0.5921  0.3121 -0.0551
 3267SOL    HW121437   0.242   0.961   8.070  0.0616  0.7037 -0.3629
 3267SOL    HW221438   0.323   0.877   8.174 -1.9400 -0.2581  0.3359
 3268SOL     OW21439   3.540   0.504   6.126 -0.2913  0.0164  0.3414
 3268SOL    HW121440   3.623   0.502   6.174 -0.5641  1.3055  0.8623
 3268SOL    HW221441   3.501   0.426   6.164  0.4412 -0.0646  0.9292
 3269SOL     OW21442   1.919   2.195   0.846  0.0023 -0.0804  0.1860
 3269SOL    HW121443   1.950   2.130   0.909  2.1309  0.6230 -0.1399
 3269SOL    HW221444   1.991   2.184   0.785  0.1861 -0.1194  0.4118
 3270SOL     OW21445   2.795   2.099   1.955  0.0746  0.1026 -0.5511
 3270SOL    HW121446   2.771   2.022   1.903 -1.5165 -0.2627  0.7033
 3270SOL    HW221447   2.862   2.133   1.896 -2.4845  0.0354 -3.4924
 3271SOL     OW21448   0.608   3.789   4.490 -0.1285 -0.3290 -0.5757
 3271SOL    HW121449   0.647   3.803   4.576 -1.3309  1.8635 -0.3906
 3271SOL    HW221450   0.515   3.793   4.514 -0.2418  2.5745 -1.4749
 3272SOL     OW21451   1.658   1.143  10.939  0.0736 -0.2726 -0.6231
 3272SOL    HW121452   1.680   1.052  10.916  2.4963 -0.0563  0.8223
 3272SOL    HW221453   1.710   1.154  11.019 -1.1543 -0.0714  0.1486
 3273SOL     OW21454   2.094   0.582   2.830 -0.1447 -0.3118  0.8614
 3273SOL    HW121455   2.075   0.659   2.777  3.0130  2.0257  3.0794
 3273SOL    HW221456   2.021   0.580   2.892 -0.5408 -0.0764  0.4036
 3274SOL     OW21457   4.049   1.531  17.304  0.2883 -0.0074  1.0729
 3274SOL    HW121458   4.031   1.600  17.367  2.4093  1.6129 -0.0853
 3274SOL    HW221459   4.007   1.459  17.351  2.4693 -0.2455  2.6594
 3275SOL     OW21460   2.740   0.349   4.848 -0.0715  0.0088 -0.1185
 3275SOL    HW121461   2.670   0.414   4.847  0.6565  0.8188  0.8343
 3275SOL    HW221462   2.816   0.406   4.855  0.0643 -0.1824 -0.0321
 3276SOL     OW21463   3.423   0.886   7.255  0.6021  0.1698  0.0138
 3276SOL    HW121464   3.332   0.885   7.225 -0.1218 -3.0087  2.3333
 3276SOL    HW221465   3.441   0.980   7.258 -0.2495  0.3668 -0.8153
 3277SOL     OW21466   0.826   2.059  10.628  0.2219 -0.2618 -0.0296
 3277SOL    HW121467   0.778   1.983  10.595 -1.4636  0.1831  1.3979
 3277SOL    HW221468   0.863   2.027  10.710  1.4589 -2.5426 -1.4809
 3278SOL     OW21469   0.212   0.987  14.098 -0.7289  0.1140 -0.2876
 3278SOL    HW121470   0.299   1.000  14.060  0.0920 -0.5781  1.3899
 3278SOL    HW221471   0.215   1.042  14.176  0.9240 -0.2107 -0.1301
 3279SOL     OW21472   1.623   3.419  17.619  0.3218 -0.1963  0.0323
 3279SOL    HW121473   1.639   3.497  17.565  0.2691 -0.0161  0.2801
 3279SOL    HW221474   1.690   3.368  17.573  1.3108  1.2460 -0.1289
 3280SOL     OW21475   4.197   4.492  16.280 -0.1046  0.4262  0.3960
 3280SOL    HW121476   4.178   4.579  16.314 -0.8127  1.8794 -3.6621
 3280SOL    HW221477   4.240   4.506  16.196 -0.2558  0.1415  0.2687
 3281SOL     OW21478   1.840   3.781   5.809 -0.2101 -0.0518 -0.0226
 3281SOL    HW121479   1.928   3.816   5.798  0.7424 -2.1099  0.9601
 3281SOL    HW221480   1.867   3.692   5.835 -1.8560  0.3475  3.0696
 3282SOL     OW21481   3.457   4.040   4.757 -0.0607 -0.5644 -0.5727
 3282SOL    HW121482   3.489   4.001   4.675 -1.3782 -1.5741 -0.6142
 3282SOL    HW221483   3.501   3.985   4.822 -0.8857 -0.9607 -0.3492
 3283SOL     OW21484   0.610   2.753   2.780 -0.1005 -0.2635  0.6281
 3283SOL    HW121485   0.697   2.715   2.766 -0.8834 -2.1174  0.8361
 3283SOL    HW221486   0.625   2.841   2.746  0.4086 -0.3517  0.6160
 3284SOL     OW21487   2.516   1.922   5.041 -0.1936 -0.1062 -0.4898
 3284SOL    HW121488   2.492   1.851   5.102  0.9471 -0.9387 -1.0082
 3284SOL    HW221489   2.604   1.890   5.023  0.5279  1.5955 -0.0234
 3285SOL     OW21490   1.614   1.334  17.669  0.7185  0.5149 -0.1000
 3285SOL    HW121491   1.636   1.379   0.018  2.9186 -3.7831  1.7357
 3285SOL    HW221492   1.703   1.313  17.638  0.0101  0.2844 -1.9482
 3286SOL     OW21493   2.189   3.337   4.104 -0.8241  0.2522 -0.6068
 3286SOL    HW121494   2.252   3.284   4.055 -0.1139  0.4951  0.0325
 3286SOL    HW221495   2.167   3.273   4.171 -0.7408 -0.2390 -1.0518
 3287SOL     OW21496   0.402   1.088   0.725  0.3999 -0.0605  0.2342
 3287SOL    HW121497   0.416   1.102   0.631  2.3656 -2.4287  0.1976
 3287SOL    HW221498   0.360   1.002   0.721  0.5316 -0.2376  2.8773
 3288SOL     OW21499   4.534   1.771  12.724  0.0108 -0.1404  0.1843
 3288SOL    HW121500   4.488   1.809  12.649  2.6830  2.7694  0.0200
 3288SOL    HW221501   4.620   1.762  12.684 -0.9611 -1.5431 -1.5657
 3289SOL     OW21502   2.071   3.635   4.918 -0.2601 -0.1385  0.6833
 3289SOL    HW121503   1.986   3.615   4.880 -0.3514 -1.2904  1.5052
 3289SOL    HW221504   2.045   3.665   5.006  0.7798 -2.4863  1.7858
 3290SOL     OW21505   0.389   0.880   4.857 -0.0516 -0.1228 -0.4175
 3290SOL    HW121506   0.463   0.819   4.851  0.5374  0.4316  1.2058
 3290SOL    HW221507   0.435   0.961   4.879 -0.6036  0.2768 -0.7307
 3291SOL     OW21508   3.592   2.772   7.262  0.5333  0.9097  0.2280
 3291SOL    HW121509   3.663   2.710   7.246 -0.0450  0.7046 -1.5856
 3291SOL    HW221510   3.647   2.850   7.254 -0.2416  1.1720 -2.6276
 3292SOL     OW21511   3.693   1.384   3.336 -0.1865  0.0495 -0.1031
 3292SOL    HW121512   3.681   1.343   3.250  0.5289  1.0354 -0.6673
 3292SOL    HW221513   3.604   1.414   3.354 -0.6206 -1.4966  0.3952
 3293SOL     OW21514   2.293   1.089   6.993  0.1614 -0.2757 -0.0673
 3293SOL    HW121515   2.284   1.020   6.927 -0.9900 -0.0407 -0.1586
 3293SOL    HW221516   2.332   1.035   7.062  2.4831 -1.9448 -2.7106
 3294SOL     OW21517   3.707   3.275  16.835 -0.3856 -0.6601  0.1836
 3294SOL    HW121518   3.764   3.200  16.855  1.2362  0.6645  0.4907
 3294SOL    HW221519   3.721   3.285  16.741  1.4934  2.4121  0.8102
 3295SOL     OW21520   0.094   1.053   0.634  0.3340 -0.6155  0.1124
 3295SOL    HW121521   0.165   1.008   0.589  2.6851  1.1308  2.0822
 3295SOL    HW221522   0.048   0.978   0.672 -0.2853  0.0905  0.7533
 3296SOL     OW21523   2.075   1.875   8.408  0.0963  0.0870  0.0870
 3296SOL    HW121524   2.110   1.800   8.361  2.2270  0.3014  1.3716
 3296SOL    HW221525   1.997   1.855   8.460  1.0977 -1.6072  0.9111
 3297SOL     OW21526   1.850   4.555   7.466  0.0366 -0.7080  0.6288
 3297SOL    HW121527   1.836   4.516   7.552 -0.0065 -0.1791  0.8611
 3297SOL    HW221528   1.844   4.481   7.405  2.9900 -0.0600 -0.4695
 3298SOL     OW21529   0.616   3.839  11.291  0.1874  0.0563  0.3958
 3298SOL    HW121530   0.684   3.880  11.238  0.6394  0.4379  1.2764
 3298SOL    HW221531   0.671   3.816  11.366  0.8874 -0.2353 -0.2084
 3299SOL     OW21532   2.467   0.375   8.565 -0.6980 -0.3034 -0.3079
 3299SOL    HW121533   2.486   0.290   8.604  1.6784  0.1385 -0.4782
 3299SOL    HW221534   2.397   0.408   8.621 -1.3331 -0.7758 -0.8306
 3300SOL     OW21535   1.090   3.443   3.724 -0.3513 -0.1060 -0.0701
 3300SOL    HW121536   1.050   3.528   3.709 -0.5243  0.1187  1.6572
 3300SOL    HW221537   1.043   3.422   3.805 -1.1484  0.2026 -0.4499
 3301SOL     OW21538   1.912   2.959   6.966 -0.4584  0.0134  0.5569
 3301SOL    HW121539   1.829   2.920   6.992  0.6319 -2.0265  1.0039
 3301SOL    HW221540   1.885   3.022   6.899  0.4645 -0.9659 -0.7331
 3302SOL     OW21541   0.927   4.275  11.960  0.0528 -0.2865 -0.0888
 3302SOL    HW121542   0.968   4.196  11.923 -0.8814 -0.8524  0.0725
 3302SOL    HW221543   1.003   4.327  11.987 -0.6442 -0.5383  2.3416
 3303SOL     OW21544   3.579   0.773   8.729  0.0479  0.1183 -1.0475
 3303SOL    HW121545   3.600   0.862   8.757 -1.2399  0.5304 -1.3840
 3303SOL    HW221546   3.620   0.731   8.805 -0.5599  2.1300  0.3956
 3304SOL     OW21547   3.516   1.690   9.499  0.1762 -0.0100  0.0973
 3304SOL    HW121548   3.564   1.616   9.464  0.7873  1.5003 -2.2679
 3304SOL    HW221549   3.471   1.713   9.418  3.5791  0.2204 -1.7026
 3305SOL     OW21550   3.259   1.673   4.649  0.3455 -0.5151  0.0297
 3305SOL    HW121551   3.211   1.596   4.681  0.6379 -1.2032 -1.2198
 3305SOL    HW221552   3.332   1.633   4.602 -0.2475 -1.2643 -0.2599
 3306SOL     OW21553   4.533   1.673   7.269 -0.4036 -0.4328  0.3047
 3306SOL    HW121554   4.600   1.607   7.287 -2.2823 -1.9299  1.7459
 3306SOL    HW221555   4.551   1.685   7.175  2.6239 -0.7836  0.8216
 3307SOL     OW21556   3.091   1.239   0.533  0.0723 -0.0572  0.0060
 3307SOL    HW121557   3.151   1.311   0.513 -0.3416  0.2576 -0.1049
 3307SOL    HW221558   3.113   1.230   0.625 -1.3437  0.6684  0.4249
 3308SOL     OW21559   3.943   1.190   6.502 -0.3924 -0.1555 -0.4543
 3308SOL    HW121560   3.934   1.217   6.411  1.8207 -0.6129 -0.8018
 3308SOL    HW221561   4.035   1.179   6.523 -0.3934 -0.0315 -0.3853
 3309SOL     OW21562   0.920   2.856   7.658  0.0755 -0.7735  0.1171
 3309SOL    HW121563   0.842   2.908   7.678 -0.1787 -0.8396 -0.6943
 3309SOL    HW221564   0.900   2.773   7.703 -1.3198 -0.5433 -0.0722
 3310SOL     OW21565   4.012   1.256   5.706 -0.3430  0.9263 -0.0061
 3310SOL    HW121566   4.053   1.295   5.628  0.3050 -0.7946 -0.5409
 3310SOL    HW221567   3.999   1.337   5.755 -2.4105  1.4268 -1.3810
 3311SOL     OW21568   4.095   2.415   7.983 -0.6046  0.1058 -0.2388
 3311SOL    HW121569   4.044   2.442   7.907  1.3198 -0.1412 -1.6346
 3311SOL    HW221570   4.154   2.489   7.993 -1.2967  0.2422  2.9447
 3312SOL     OW21571   1.100   0.738   3.539 -0.0466 -0.7062 -0.2449
 3312SOL    HW121572   1.192   0.713   3.551 -0.8892 -3.5595  0.3593
 3312SOL    HW221573   1.112   0.831   3.556  0.1305 -1.2161  2.4248
 3313SOL     OW21574   4.516   3.445   7.260  0.1912 -0.2639  0.3246
 3313SOL    HW121575   4.509   3.479   7.171  1.1962 -1.1632 -0.0896
 3313SOL    HW221576   4.506   3.351   7.244  1.7356  0.0880 -2.6481
 3314SOL     OW21577   0.905   1.082   1.003  0.1343  0.1310  0.3951
 3314SOL    HW121578   0.972   1.052   0.941 -0.1604  1.2364 -0.4626
 3314SOL    HW221579   0.825   1.091   0.951  0.1515 -0.2769  0.3021
 3315SOL     OW21580   0.863   3.243   2.645  0.3763 -0.5970 -0.0251
 3315SOL    HW121581   0.800   3.179   2.613 -0.2124  1.5302 -3.1305
 3315SOL    HW221582   0.883   3.291   2.565  0.9035  0.1628  0.5558
 3316SOL     OW21583   3.834   1.402   8.561 -0.3228  0.2770  0.2442
 3316SOL    HW121584   3.928   1.419   8.559  0.1172 -1.9985  1.2892
 3316SOL    HW221585   3.809   1.461   8.632 -0.5456 -0.4975  0.8115
 3317SOL     OW21586   1.258   0.015   2.563  0.4161 -0.2490 -0.6820
 3317SOL    HW121587   1.345   0.049   2.583  0.5257 -0.8031 -0.2452
 3317SOL    HW221588   1.230   4.694   2.637 -0.5110 -0.7175 -1.3687
 3318SOL     OW21589   3.782   0.371  15.635 -0.3135  0.0041 -0.0915
 3318SOL    HW121590   3.852   0.382  15.699 -1.0197 -0.0819  0.6964
 3318SOL    HW221591   3.833   0.310  15.582  0.0358  0.0395  0.2043
 3319SOL     OW21592   4.335   4.118   3.281 -0.2286  0.4144 -0.1993
 3319SOL    HW121593   4.390   4.132   3.204 -0.4890 -0.4717 -0.5481
 3319SOL    HW221594   4.356   4.194   3.335  1.1447 -0.3579  0.3638
 3320SOL     OW21595   4.100   0.606   3.099  0.6830 -0.1754  0.4146
 3320SOL    HW121596   4.187   0.588   3.135  1.8022  2.9330 -0.7364
 3320SOL    HW221597   4.048   0.643   3.170 -1.2547  1.4869 -1.8626
 3321SOL     OW21598   2.428   4.134   8.212  0.2658  0.0441  0.3488
 3321SOL    HW121599   2.384   4.069   8.267  2.5015 -1.0728  0.8367
 3321SOL    HW221600   2.426   4.213   8.265  0.1350  0.9635 -1.0112
 3322SOL     OW21601   2.763   0.812   0.920  0.3826  0.0486 -0.3380
 3322SOL    HW121602   2.821   0.832   0.847  0.1379 -1.1353 -0.8678
 3322SOL    HW221603   2.767   0.894   0.968 -2.9595 -1.0300  1.7946
 3323SOL     OW21604   4.457   1.201  14.559  0.0807  0.3251  0.0961
 3323SOL    HW121605   4.533   1.185  14.503 -1.1244  0.4837 -1.5760
 3323SOL    HW221606   4.426   1.111  14.571  2.3548 -0.5719 -0.6487
 3324SOL     OW21607   2.588   1.730   9.984 -0.2256  0.0101  0.2363
 3324SOL    HW121608   2.609   1.821   9.963  0.5188 -0.3797 -0.6986
 3324SOL    HW221609   2.505   1.724   9.936 -0.7077 -1.5429  1.2730
 3325SOL     OW21610   1.067   1.794  13.995 -0.4095 -0.5597 -0.0589
 3325SOL    HW121611   1.096   1.847  14.069 -0.4454  3.3384 -2.8664
 3325SOL    HW221612   1.055   1.863  13.931 -3.1913 -1.2501 -0.2620
 3326SOL     OW21613   1.781   3.163   6.807  0.0301  0.2376  0.4187
 3326SOL    HW121614   1.735   3.198   6.731  0.9729  0.5146 -0.0189
 3326SOL    HW221615   1.842   3.234   6.827  0.3342  0.5220 -1.5267
 3327SOL     OW21616   0.913   2.771   9.047  0.2647  0.1553 -0.7940
 3327SOL    HW121617   0.997   2.737   9.080  1.3923  2.0786 -1.7472
 3327SOL    HW221618   0.872   2.814   9.122 -0.5638  1.6077 -2.0922
 3328SOL     OW21619   3.370   2.419  17.625 -0.2177  0.4806  0.0858
 3328SOL    HW121620   3.367   2.433  17.720 -2.8419 -0.2024  0.1031
 3328SOL    HW221621   3.288   2.458  17.594 -0.3656 -0.1987 -0.3716
 3329SOL     OW21622   1.691   3.955   6.765 -0.9325 -0.3390 -0.1253
 3329SOL    HW121623   1.766   3.984   6.713 -1.3290  1.4251  0.2670
 3329SOL    HW221624   1.644   3.906   6.698 -2.5268 -0.6389  1.2040
 3330SOL     OW21625   2.382   3.436   3.866  0.3980 -0.0360 -0.1143
 3330SOL    HW121626   2.360   3.346   3.888  0.4200 -0.3012 -1.1560
 3330SOL    HW221627   2.477   3.434   3.868  0.3536 -0.0752  1.4866
 3331SOL     OW21628   2.805   4.132   5.599 -0.0635 -0.6590  0.1179
 3331SOL    HW121629   2.820   4.164   5.510 -0.3862  1.5063  0.8470
 3331SOL    HW221630   2.845   4.045   5.596  0.9523 -0.2224  1.1482
 3332SOL     OW21631   2.569   0.082   4.058  0.0084 -0.7328 -0.4094
 3332SOL    HW121632   2.491   0.058   4.007  0.0878  0.5992 -1.1598
 3332SOL    HW221633   2.535   0.130   4.133  3.1623 -1.8036  1.7255
 3333SOL     OW21634   3.162   2.333  15.301 -0.0790 -0.0230 -0.6106
 3333SOL    HW121635   3.205   2.281  15.234  0.7184 -2.4209  1.7845
 3333SOL    HW221636   3.146   2.410  15.246 -1.6225  0.5413  0.6014
 3334SOL     OW21637   3.797   1.245  13.627 -0.4940  0.3478 -0.1961
 3334SOL    HW121638   3.790   1.264  13.721  0.8273 -0.4762  0.0569
 3334SOL    HW221639   3.746   1.165  13.611 -0.0862 -0.0698  0.5889
 3335SOL     OW21640   1.276   2.627  12.955  0.5307 -0.3783  0.1790
 3335SOL    HW121641   1.294   2.683  13.031  3.3812 -1.0388 -0.0021
 3335SOL    HW221642   1.200   2.580  12.991 -0.4054  0.3679 -0.8562
 3336SOL     OW21643   3.095   2.013   8.669  0.2257 -0.1373 -0.2701
 3336SOL    HW121644   3.162   1.949   8.693 -0.2917 -1.1151 -1.4279
 3336SOL    HW221645   3.116   2.054   8.585  1.8640  0.5240  0.4485
 3337SOL     OW21646   3.028   0.693   5.508 -0.3703 -0.6684 -0.6445
 3337SOL    HW121647   2.983   0.662   5.587  0.8632 -0.0572  0.3175
 3337SOL    HW221648   3.044   0.617   5.453 -0.5096 -0.6816 -0.6674
 3338SOL     OW21649   0.765   3.378   5.412  0.1412 -0.0218  0.2353
 3338SOL    HW121650   0.842   3.403   5.362 -0.6183  1.7449 -0.0526
 3338SOL    HW221651   0.747   3.459   5.460  0.8838  1.0594 -1.3130
 3339SOL     OW21652   4.160   3.847   7.865 -0.0069  0.4808  0.1762
 3339SOL    HW121653   4.079   3.851   7.916 -1.7483 -1.0181 -2.4702
 3339SOL    HW221654   4.190   3.938   7.870  0.2265  0.4041  0.1372
 3340SOL     OW21655   2.951   3.691   4.164 -0.0151 -0.5091  0.2633
 3340SOL    HW121656   3.018   3.744   4.209 -1.0167  0.7352  0.2925
 3340SOL    HW221657   2.962   3.729   4.077  3.2161 -0.7381  0.5650
 3341SOL     OW21658   4.638   0.583  13.622  0.5569 -0.1352  0.5404
 3341SOL    HW121659   4.551   0.542  13.625  0.4549  0.0801  0.4970
 3341SOL    HW221660   4.625   0.640  13.698  1.9698  2.6715 -1.3407
 3342SOL     OW21661   3.479   1.314   8.925 -0.0919  0.3940  0.3674
 3342SOL    HW121662   3.505   1.236   8.976  1.3512  0.5899 -0.0513
 3342SOL    HW221663   3.404   1.285   8.875 -0.9646  1.3684  1.1169
 3343SOL     OW21664   1.808   2.967   3.595  0.5457  0.6254 -0.3151
 3343SOL    HW121665   1.812   3.055   3.633  0.6821 -0.5099  2.3344
 3343SOL    HW221666   1.733   2.928   3.642  1.5328 -1.5341 -0.5520
 3344SOL     OW21667   4.686   0.877   5.322  0.1884  0.1120  0.5344
 3344SOL    HW121668   0.004   0.796   5.324 -1.5541 -0.9946 -0.1704
 3344SOL    HW221669   4.603   0.842   5.354  0.0104  2.2363  2.4077
 3345SOL     OW21670   1.959   1.708   5.478 -0.1565 -0.4979  0.6112
 3345SOL    HW121671   1.907   1.768   5.532 -0.7283 -0.1280 -0.3601
 3345SOL    HW221672   1.919   1.626   5.506  0.6200 -1.4969 -1.2094
 3346SOL     OW21673   3.675   0.516   8.407 -0.0345  0.2310 -0.0131
 3346SOL    HW121674   3.678   0.572   8.484 -2.3252 -0.2324  0.4138
 3346SOL    HW221675   3.588   0.478   8.419 -0.6587  1.2213 -1.3731
 3347SOL     OW21676   4.293   1.129   8.957  0.5233  0.2631 -0.2703
 3347SOL    HW121677   4.221   1.128   9.020 -0.7621  2.1875 -1.7033
 3347SOL    HW221678   4.245   1.142   8.876  0.6018  1.7313 -0.0780
 3348SOL     OW21679   0.176   0.008  12.686  0.0816 -0.4463  0.0626
 3348SOL    HW121680   0.253   4.720  12.739 -0.7034 -2.7804  0.2539
 3348SOL    HW221681   0.190   4.691  12.606 -0.0435 -1.5448  0.7276
 3349SOL     OW21682   2.543   2.503   8.140  0.5075  0.3057  0.3553
 3349SOL    HW121683   2.485   2.569   8.102 -1.4598 -0.1978  2.4655
 3349SOL    HW221684   2.533   2.521   8.234 -0.7522 -0.0404  0.2776
 3350SOL     OW21685   1.154   2.129  11.546  0.0250 -0.9017  0.7484
 3350SOL    HW121686   1.162   2.112  11.453 -0.8678  3.0852 -0.0418
 3350SOL    HW221687   1.101   2.208  11.540  2.4009  0.6574  0.4547
 3351SOL     OW21688   2.660   3.490   8.628 -0.4024  0.8782 -0.1747
 3351SOL    HW121689   2.741   3.454   8.592  0.3213  0.8694  1.4414
 3351SOL    HW221690   2.589   3.463   8.570  0.0707  0.1523 -0.4197
 3352SOL     OW21691   2.611   2.093   5.646  0.0466  0.5020  0.4897
 3352SOL    HW121692   2.567   2.025   5.696 -0.1844 -0.5485 -1.1416
 3352SOL    HW221693   2.586   2.060   5.560  1.4484 -0.3606  0.4019
 3353SOL     OW21694   1.654   1.961   1.269  0.1385 -0.2174  0.1778
 3353SOL    HW121695   1.599   1.893   1.231 -0.4955  0.6006 -0.3688
 3353SOL    HW221696   1.690   1.916   1.345 -0.3585 -1.3379 -0.2401
 3354SOL     OW21697   0.109   3.021   3.398 -0.2229 -0.0200  0.0772
 3354SOL    HW121698   0.028   3.044   3.444 -0.7465 -0.2531 -0.7219
 3354SOL    HW221699   0.171   3.048   3.466 -2.1978  0.9538  1.4952
 3355SOL     OW21700   2.902   0.111  11.925 -0.2316 -0.9077 -0.3998
 3355SOL    HW121701   2.849   0.114  12.005 -0.2743 -1.2678 -0.4127
 3355SOL    HW221702   2.850   0.164  11.865  1.2735  1.0356  0.0109
 3356SOL     OW21703   0.324   3.729  17.242 -0.5707  0.1227 -0.1479
 3356SOL    HW121704   0.256   3.784  17.280 -0.2523  0.4916 -0.1099
 3356SOL    HW221705   0.375   3.793  17.194 -0.1132  0.1653  0.3862
 3357SOL     OW21706   3.868   3.444   9.054 -0.5670  0.9309  0.1306
 3357SOL    HW121707   3.954   3.402   9.047 -0.4304  1.2724 -0.2402
 3357SOL    HW221708   3.893   3.536   9.060  1.9006  0.0681  3.2331
 3358SOL     OW21709   4.433   0.839   1.853 -0.1710 -0.0622  0.5623
 3358SOL    HW121710   4.489   0.903   1.810 -0.5108 -0.4799 -0.4964
 3358SOL    HW221711   4.468   0.764   1.806 -1.0999  0.4040 -0.8775
 3359SOL     OW21712   4.339   1.885   6.220  0.1244 -0.1984  0.0729
 3359SOL    HW121713   4.249   1.912   6.200  0.2867 -0.4722 -0.9797
 3359SOL    HW221714   4.398   1.957   6.194 -2.6129  2.2983  0.7488
 3360SOL     OW21715   0.760   1.219   5.697 -0.2683 -0.5735  0.3252
 3360SOL    HW121716   0.707   1.166   5.638 -1.9066  1.4383  0.0027
 3360SOL    HW221717   0.829   1.251   5.639 -2.2439 -0.0272 -1.7131
 3361SOL     OW21718   1.469   1.058  12.874  0.2580 -0.0142  0.4881
 3361SOL    HW121719   1.408   1.054  12.801  0.4629  1.1720  0.2496
 3361SOL    HW221720   1.546   1.020  12.834 -0.6626 -1.1692 -0.1736
 3362SOL     OW21721   3.870   1.707   4.941  0.3023 -0.2512 -0.5488
 3362SOL    HW121722   3.938   1.650   4.907 -2.1120 -3.5176  0.0276
 3362SOL    HW221723   3.851   1.655   5.020  2.5094  1.2854  0.9899
 3363SOL     OW21724   2.485   0.045   4.977 -0.3118 -0.2085 -0.5254
 3363SOL    HW121725   2.520   0.008   5.058 -1.8702 -0.4429  0.0440
 3363SOL    HW221726   2.528   0.131   4.979  0.7983 -0.8351  1.6774
 3364SOL     OW21727   1.214   0.410   4.422 -0.2492  0.4886 -0.4785
 3364SOL    HW121728   1.185   0.375   4.338  0.8136  2.1444 -1.5326
 3364SOL    HW221729   1.187   0.501   4.410 -1.4826  0.0941 -0.6882
 3365SOL     OW21730   1.166   4.254   1.879 -0.0964 -1.0964  0.5216
 3365SOL    HW121731   1.116   4.336   1.881  1.6845 -0.0007 -1.0442
 3365SOL    HW221732   1.253   4.284   1.853 -1.0683  1.5925  0.3059
 3366SOL     OW21733   0.564   2.524   3.769 -0.1722 -0.0792  0.5829
 3366SOL    HW121734   0.583   2.432   3.788  0.2506 -0.2379 -0.6467
 3366SOL    HW221735   0.555   2.560   3.858  1.0641  1.8192 -0.0672
 3367SOL     OW21736   3.992   2.666  12.608  0.1711 -0.1856 -0.1282
 3367SOL    HW121737   3.923   2.724  12.640 -1.7793 -1.6773 -1.6994
 3367SOL    HW221738   3.953   2.580  12.593 -1.8276  0.9976 -1.6144
 3368SOL     OW21739   4.661   3.029   7.752  0.4046  0.2430 -0.1382
 3368SOL    HW121740   4.719   3.094   7.791 -0.3134  2.6663 -3.1186
 3368SOL    HW221741   4.598   3.084   7.705  0.4924  1.0087  0.6309
 3369SOL     OW21742   0.470   4.600   9.335  0.5415 -0.0450 -0.5592
 3369SOL    HW121743   0.430   4.518   9.306  0.7177 -0.5339  0.5799
 3369SOL    HW221744   0.514   4.566   9.412 -0.8730  0.0702  0.3128
 3370SOL     OW21745   1.051   2.954   0.911  0.0066 -0.0270 -0.6419
 3370SOL    HW121746   1.044   2.860   0.923 -1.9170  0.0526 -1.0945
 3370SOL    HW221747   1.014   2.979   0.996 -2.5302 -1.7283 -1.2658
 3371SOL     OW21748   2.176   2.660   5.079  0.3331  0.4573  0.5920
 3371SOL    HW121749   2.112   2.721   5.041 -0.4664 -0.6711  0.1437
 3371SOL    HW221750   2.134   2.638   5.162 -0.8046  1.4727  0.2831
 3372SOL     OW21751   4.065   3.475   6.726  0.2199  0.2409  0.0502
 3372SOL    HW121752   4.116   3.450   6.803 -1.4564 -1.9564  0.4503
 3372SOL    HW221753   4.113   3.557   6.710  1.5520 -0.8244 -1.4878
 3373SOL     OW21754   2.284   1.790   5.409 -0.1965  0.2181  0.5509
 3373SOL    HW121755   2.220   1.726   5.377  1.0619 -0.4174 -0.6640
 3373SOL    HW221756   2.370   1.779   5.368  0.7243  1.3289  2.1893
 3374SOL     OW21757   0.571   0.514   3.949 -0.0973  0.1316  0.4244
 3374SOL    HW121758   0.536   0.531   3.861  1.3998 -1.6481 -0.5070
 3374SOL    HW221759   0.655   0.469   3.941 -0.8989 -0.8480 -2.2502
 3375SOL     OW21760   0.350   3.940   3.613 -0.1490  0.0164  0.0750
 3375SOL    HW121761   0.391   4.026   3.610 -2.2833  1.0498  0.2028
 3375SOL    HW221762   0.335   3.919   3.706 -1.1344 -1.7777 -0.4813
 3376SOL     OW21763   1.280   0.319   4.907  0.0454 -0.1914  0.8726
 3376SOL    HW121764   1.258   0.411   4.924  2.5830  0.4386  0.7339
 3376SOL    HW221765   1.292   0.320   4.812 -2.2189  0.2513  0.6067
 3377SOL     OW21766   2.074   1.632   6.435  0.4295  0.5335  0.0345
 3377SOL    HW121767   1.984   1.611   6.411  0.5599  1.8213 -1.5112
 3377SOL    HW221768   2.108   1.546   6.460 -0.8735  0.2208  0.7037
 3378SOL     OW21769   3.754   1.984   2.540  0.3425  0.0195  0.0297
 3378SOL    HW121770   3.660   1.982   2.559 -0.3982  1.2475 -3.4811
 3378SOL    HW221771   3.742   1.959   2.448  1.1284  2.0175 -0.6159
 3379SOL     OW21772   3.958   0.610   0.238 -0.0204 -0.5650  0.1313
 3379SOL    HW121773   3.920   0.537   0.287 -0.0280 -0.2605  0.5762
 3379SOL    HW221774   4.034   0.617   0.296 -1.1754 -0.1076  1.5734
 3380SOL     OW21775   2.954   4.089   3.791  0.0529  0.0415  0.3500
 3380SOL    HW121776   2.865   4.123   3.787  0.4000  0.7884 -1.0853
 3380SOL    HW221777   2.998   4.107   3.708 -2.6114  0.3690 -0.9835
 3381SOL     OW21778   2.131   0.762   1.675 -0.1443 -0.6227  0.0430
 3381SOL    HW121779   2.205   0.764   1.736 -0.7407  1.1151  0.6950
 3381SOL    HW221780   2.173   0.800   1.598  0.3547  2.1823  1.6841
 3382SOL     OW21781   1.387   0.566   5.024  0.1877  0.0547  0.2515
 3382SOL    HW121782   1.448   0.609   4.964  0.3954 -1.4643 -0.6373
 3382SOL    HW221783   1.309   0.621   5.025  1.0515  1.3114 -1.5339
 3383SOL     OW21784   1.521   2.891   7.629 -0.1039  0.0566 -0.3928
 3383SOL    HW121785   1.539   2.907   7.722 -0.8734 -0.0158 -0.2387
 3383SOL    HW221786   1.428   2.874   7.622  0.2833 -2.3086  0.1154
 3384SOL     OW21787   3.292   1.366   4.968 -0.0853 -0.0668 -0.0293
 3384SOL    HW121788   3.236   1.443   4.957  1.4425  0.8872 -1.0827
 3384SOL    HW221789   3.245   1.303   5.023  0.0292  1.6944  2.0663
 3385SOL     OW21790   2.706   4.193   3.775  0.2956  0.3215 -0.2453
 3385SOL    HW121791   2.630   4.140   3.751  0.9868 -0.7913  0.0371
 3385SOL    HW221792   2.661   4.262   3.825  0.7987  0.5361 -0.0824
 3386SOL     OW21793   1.694   1.859   4.973 -0.0276 -0.1051 -0.2310
 3386SOL    HW121794   1.670   1.801   5.045  1.4673  2.0590  2.0395
 3386SOL    HW221795   1.756   1.926   5.002 -0.4971 -0.5398  1.8116
 3387SOL     OW21796   3.161   4.387   9.948  0.1571 -0.1652  0.3731
 3387SOL    HW121797   3.088   4.370   9.889  0.0798  0.6470  0.2290
 3387SOL    HW221798   3.114   4.375  10.030  0.5584 -1.0276  0.4659
 3388SOL     OW21799   1.325   2.535   8.771 -0.1902  0.3068 -0.1202
 3388SOL    HW121800   1.409   2.507   8.732  0.0591 -0.5366  1.0076
 3388SOL    HW221801   1.287   2.450   8.794  0.7395 -0.7687 -2.5422
 3389SOL     OW21802   1.381   3.343   5.460 -0.2397  0.6070 -0.0687
 3389SOL    HW121803   1.447   3.274   5.465 -0.7904  0.0835 -0.1020
 3389SOL    HW221804   1.297   3.298   5.464 -0.4156  0.9277 -0.2070
 3390SOL     OW21805   1.084   3.076   7.769 -0.6205 -0.4202 -0.1109
 3390SOL    HW121806   1.075   3.025   7.688 -1.1891  0.0771 -0.3637
 3390SOL    HW221807   1.100   3.165   7.738 -3.3336 -0.0856 -0.5551
 3391SOL     OW21808   1.399   0.466  11.527  0.2089  0.1191  0.4324
 3391SOL    HW121809   1.490   0.493  11.515  0.4758 -1.1440 -0.4177
 3391SOL    HW221810   1.416   0.373  11.511 -0.5003  0.3684 -1.7513
 3392SOL     OW21811   2.468   1.649  17.586  0.0089  0.0856  0.3215
 3392SOL    HW121812   2.531   1.624  17.519 -0.1411 -1.6837  0.8556
 3392SOL    HW221813   2.492   1.583  17.650  0.8047 -0.5140 -0.5933
 3393SOL     OW21814   1.850   0.702   0.595 -0.2665  0.2030  0.0249
 3393SOL    HW121815   1.881   0.612   0.591 -1.0457 -0.0696  0.0672
 3393SOL    HW221816   1.915   0.744   0.539 -1.7509  2.4928  0.0076
 3394SOL     OW21817   0.305   0.871   5.402  0.5874  0.0462  0.5189
 3394SOL    HW121818   0.327   0.866   5.309 -0.2401 -0.2039  0.3336
 3394SOL    HW221819   0.330   0.783   5.429 -1.4366 -0.1904  1.6001
 3395SOL     OW21820   2.967   3.694   8.425 -0.0947 -0.0516  0.1113
 3395SOL    HW121821   2.902   3.762   8.408  0.0687 -0.0955 -0.6938
 3395SOL    HW221822   3.039   3.750   8.456 -0.6179 -0.5615  2.2979
 3396SOL     OW21823   2.178   2.401  16.866  0.1454  0.2849 -0.3048
 3396SOL    HW121824   2.221   2.480  16.833 -0.3239  1.2319  1.3407
 3396SOL    HW221825   2.099   2.422  16.916  1.8992  0.7989  2.2761
 3397SOL     OW21826   4.153   0.487  13.510  0.8783 -0.7617 -0.2951
 3397SOL    HW121827   4.129   0.477  13.417 -1.7134 -1.2820  0.4396
 3397SOL    HW221828   4.159   0.582  13.521  0.1950 -0.9701  1.7823
 3398SOL     OW21829   4.702   1.245  10.388 -0.3620 -0.1940  0.7568
 3398SOL    HW121830   4.709   1.281  10.300  0.1416 -0.9838  0.4748
 3398SOL    HW221831   0.042   1.274  10.442 -0.7406 -0.3480  1.3524
 3399SOL     OW21832   0.136   4.100   8.418  0.5208  0.0048 -0.3689
 3399SOL    HW121833   0.062   4.109   8.477  0.5046 -0.3121 -0.3367
 3399SOL    HW221834   0.168   4.012   8.441  1.7406  0.5756  0.1025
 3400SOL     OW21835   3.865   2.266   3.220  0.0043  0.4737  0.2529
 3400SOL    HW121836   3.895   2.337   3.163  4.1149 -1.4381  0.0235
 3400SOL    HW221837   3.882   2.195   3.158 -0.1783 -0.4548  1.2784
 3401SOL     OW21838   0.417   1.590   5.713 -0.0173 -0.1795  0.4956
 3401SOL    HW121839   0.498   1.541   5.700  0.1084  0.0918  0.2340
 3401SOL    HW221840   0.454   1.677   5.727  0.0870 -0.4754  2.0432
 3402SOL     OW21841   1.506   3.400   3.028 -0.1406 -0.1942 -0.5008
 3402SOL    HW121842   1.526   3.332   3.092  0.7965 -0.5953 -1.2083
 3402SOL    HW221843   1.450   3.348   2.970  0.9211 -1.5117 -0.3246
 3403SOL     OW21844   0.015   0.220  12.734 -0.1084  0.6394  0.9006
 3403SOL    HW121845   0.080   0.275  12.779  0.7134 -0.9866  1.7289
 3403SOL    HW221846   0.068   0.143  12.711  1.9510  1.8488  1.6201
 3404SOL     OW21847   1.855   3.361   4.952 -0.0009  0.8527 -0.1822
 3404SOL    HW121848   1.776   3.412   4.972 -0.1087  1.3142 -1.7413
 3404SOL    HW221849   1.811   3.296   4.898  0.5068  1.1778 -0.9864
 3405SOL     OW21850   3.558   3.236   3.505  0.1191 -0.5842  0.0371
 3405SOL    HW121851   3.567   3.281   3.589  0.0839  0.9642 -0.7830
 3405SOL    HW221852   3.542   3.323   3.469  0.8390 -0.1796  0.7012
 3406SOL     OW21853   1.216   2.079   4.272 -0.7440 -0.4078  0.3203
 3406SOL    HW121854   1.210   2.173   4.288 -1.7303 -0.6701  1.5091
 3406SOL    HW221855   1.212   2.045   4.361  1.8539  0.5185  0.7880
 3407SOL     OW21856   4.450   0.573   2.088 -0.2465  0.1027 -0.2296
 3407SOL    HW121857   4.424   0.665   2.088  3.1253  1.0112  4.5765
 3407SOL    HW221858   4.520   0.582   2.023 -1.3816  1.5545 -1.2641
 3408SOL     OW21859   3.352   0.486   0.064  0.3945  0.3310 -0.5748
 3408SOL    HW121860   3.323   0.496  17.706  1.1508  3.4026 -0.4647
 3408SOL    HW221861   3.360   0.391   0.078 -0.2511  0.3607 -0.0020
 3409SOL     OW21862   0.166   2.589  12.949  0.1890 -0.1411 -0.3583
 3409SOL    HW121863   0.165   2.684  12.964 -1.9300 -0.6361  2.4273
 3409SOL    HW221864   0.154   2.572  12.855 -0.7919 -3.8957  0.4628
 3410SOL     OW21865   3.584   3.250   8.672  0.0987 -0.1942 -0.0393
 3410SOL    HW121866   3.498   3.288   8.655  1.0723  1.0593 -2.2476
 3410SOL    HW221867   3.633   3.278   8.595  1.6703 -1.7323  0.3930
 3411SOL     OW21868   1.316   0.969   5.836  0.2607 -0.4828 -0.8210
 3411SOL    HW121869   1.349   1.007   5.918  1.6744  0.5350 -1.8433
 3411SOL    HW221870   1.387   0.907   5.823  2.2663  1.6795 -0.3783
 3412SOL     OW21871   0.779   0.364   3.896 -1.0016  0.1409 -0.0127
 3412SOL    HW121872   0.765   0.356   3.802 -1.7161  0.5529  0.0591
 3412SOL    HW221873   0.861   0.413   3.895 -1.0785  0.3606  3.6003
 3413SOL     OW21874   1.132   1.687   5.063 -0.4014 -0.3445  0.1148
 3413SOL    HW121875   1.166   1.776   5.054 -2.7699  0.4090 -1.1055
 3413SOL    HW221876   1.187   1.655   5.136  0.8466  0.3613 -0.5177
 3414SOL     OW21877   4.094   3.105   5.689 -0.2349 -0.4906 -0.3269
 3414SOL    HW121878   4.167   3.136   5.741 -0.6117  2.3612 -1.4914
 3414SOL    HW221879   4.099   3.154   5.607 -2.5108 -0.6188 -0.5601
 3415SOL     OW21880   0.343   2.080  11.809  0.5476 -0.3688 -0.2364
 3415SOL    HW121881   0.329   2.171  11.835  1.5117 -0.1521 -0.4381
 3415SOL    HW221882   0.436   2.085  11.783  0.5602 -1.2440 -0.3641
 3416SOL     OW21883   3.201   0.040  14.327  0.0663 -0.4662 -0.5039
 3416SOL    HW121884   3.286   4.729  14.333  0.8295  0.6740 -3.0885
 3416SOL    HW221885   3.152   0.006  14.252 -1.2301 -2.8185  1.3983
 3417SOL     OW21886   4.389   4.362   9.597  0.0018 -0.2014 -0.3306
 3417SOL    HW121887   4.315   4.354   9.537  0.3258 -1.4494 -0.5731
 3417SOL    HW221888   4.371   4.437   9.653 -0.8121  1.4582 -2.8620
 3418SOL     OW21889   3.057   2.498   4.244 -0.1035 -0.1565 -0.3133
 3418SOL    HW121890   3.110   2.418   4.248  0.5270  0.2220 -1.2046
 3418SOL    HW221891   2.984   2.461   4.195  1.9902 -1.2029 -2.6542
 3419SOL     OW21892   3.943   3.964   4.582 -0.1081 -0.3535  0.1752
 3419SOL    HW121893   3.963   3.872   4.566  1.9461  0.1121  0.1062
 3419SOL    HW221894   3.977   3.970   4.672  1.6288  1.0662 -0.5797
 3420SOL     OW21895   0.897   1.565   5.729 -0.1722  0.3379  0.4857
 3420SOL    HW121896   0.950   1.502   5.680 -1.6935 -2.4785  2.5070
 3420SOL    HW221897   0.934   1.565   5.817  0.2855  0.6388  0.2950
 3421SOL     OW21898   0.651   1.937   7.599 -0.2467  0.1174  0.7067
 3421SOL    HW121899   0.685   1.873   7.661  1.2115 -0.9389 -1.1716
 3421SOL    HW221900   0.579   1.969   7.654 -0.0456 -0.0726  1.0798
 3422SOL     OW21901   3.465   1.930  14.926 -0.4470  0.7228 -0.1559
 3422SOL    HW121902   3.451   2.018  14.891  1.0850  0.8025 -0.6090
 3422SOL    HW221903   3.409   1.865  14.885 -0.7098  1.1845 -0.5334
 3423SOL     OW21904   4.285   2.316  15.170 -0.0964  0.2020  0.0772
 3423SOL    HW121905   4.257   2.373  15.242  1.1910 -2.7657  2.9164
 3423SOL    HW221906   4.379   2.335  15.168 -0.3446  1.5370  0.9705
 3424SOL     OW21907   1.386   4.161  17.115 -0.3781  0.3646  0.0445
 3424SOL    HW121908   1.323   4.203  17.057 -1.5700 -3.2155 -1.2537
 3424SOL    HW221909   1.406   4.231  17.177  3.1917 -1.0806  0.5329
 3425SOL     OW21910   3.099   0.114  12.752  0.0469  0.9484 -0.0280
 3425SOL    HW121911   3.123   0.163  12.830 -1.4993 -0.2713  1.2158
 3425SOL    HW221912   3.164   0.044  12.751  0.1070  0.9726  2.3280
 3426SOL     OW21913   3.363   1.254  12.687  0.0731  0.2572  0.3631
 3426SOL    HW121914   3.294   1.296  12.739  1.0931  1.4544  0.7455
 3426SOL    HW221915   3.441   1.303  12.713 -0.5751  0.8772  1.1646
 3427SOL     OW21916   1.162   2.926   5.447 -1.1238  0.0833  0.7196
 3427SOL    HW121917   1.249   2.887   5.443 -1.0310  0.1922  1.7546
 3427SOL    HW221918   1.173   3.011   5.403  1.3543  0.3973  1.9838
 3428SOL     OW21919   1.981   3.970   8.562 -0.0373 -0.0556 -0.2772
 3428SOL    HW121920   2.042   3.897   8.575  0.0016  0.3311  1.7468
 3428SOL    HW221921   1.928   3.960   8.641  0.7898 -0.9568  0.1663
 3429SOL     OW21922   0.909   4.105  15.045  0.3764  0.7811  0.3692
 3429SOL    HW121923   0.926   4.158  14.967 -1.6678  1.2462  0.2642
 3429SOL    HW221924   0.816   4.107  15.064  0.5956  0.6651  1.4495
 3430SOL     OW21925   0.063   1.341  14.887  0.1172  0.2179 -0.3530
 3430SOL    HW121926   0.083   1.423  14.932  1.7486 -1.1792  1.4544
 3430SOL    HW221927   4.709   1.361  14.852  0.0673 -1.3471 -1.1271
 3431SOL     OW21928   1.859   1.626  16.920 -0.3815  0.3954 -0.0146
 3431SOL    HW121929   1.887   1.697  16.977 -0.5708  0.2176  0.3044
 3431SOL    HW221930   1.840   1.672  16.839  0.4436 -0.3697 -0.6347
 3432SOL     OW21931   1.986   1.801  12.355  0.4666 -0.5755 -0.1515
 3432SOL    HW121932   1.967   1.888  12.320 -1.2375  0.3075  2.9076
 3432SOL    HW221933   2.052   1.765  12.296  0.8726 -0.0829 -0.0006
 3433SOL     OW21934   3.492   2.350   4.693 -0.2811  0.3889 -0.1492
 3433SOL    HW121935   3.436   2.362   4.770 -0.2032 -3.6370  0.5582
 3433SOL    HW221936   3.550   2.279   4.720  1.1748  1.8631  0.5975
 3434SOL     OW21937   0.998   1.495   5.987 -0.5020  0.3280  0.0140
 3434SOL    HW121938   0.969   1.504   6.078 -0.2527 -0.1239  0.1370
 3434SOL    HW221939   1.022   1.403   5.981 -1.1501  0.1095  0.6133
 3435SOL     OW21940   0.864   3.887   8.219  0.2242 -0.5614  0.2714
 3435SOL    HW121941   0.791   3.936   8.255  0.8440 -0.8387  1.9336
 3435SOL    HW221942   0.877   3.817   8.284 -0.9698  0.2559  1.3850
 3436SOL     OW21943   1.340   1.501  11.498  0.0815 -0.3084 -0.2791
 3436SOL    HW121944   1.310   1.575  11.551 -0.7609 -2.8324  2.7449
 3436SOL    HW221945   1.275   1.433  11.520 -0.3427  0.0788 -0.3248
 3437SOL     OW21946   1.096   3.826   4.323 -0.1234 -0.3852  0.6354
 3437SOL    HW121947   1.001   3.833   4.316  0.2494  1.3537 -2.6427
 3437SOL    HW221948   1.108   3.758   4.389  1.3921 -1.5470 -0.8382
 3438SOL     OW21949   3.858   3.655   5.374 -0.0766  0.0261  0.0673
 3438SOL    HW121950   3.818   3.740   5.394  0.3634  0.1568  0.3959
 3438SOL    HW221951   3.786   3.606   5.335  0.9931 -0.9633 -0.6403
 3439SOL     OW21952   1.656   0.185   3.447  0.2105 -0.8895 -0.1386
 3439SOL    HW121953   1.605   0.119   3.495 -1.0083 -1.0238 -1.6102
 3439SOL    HW221954   1.623   0.168   3.359  2.3189  1.1986 -1.3250
 3440SOL     OW21955   1.797   2.662  12.506  0.0858 -0.6173 -0.2438
 3440SOL    HW121956   1.770   2.575  12.476 -1.6372  0.1006 -0.7846
 3440SOL    HW221957   1.849   2.690  12.431  2.0353 -1.0669  0.9625
 3441SOL     OW21958   3.256   1.089   9.946 -0.2827  0.0289  0.1339
 3441SOL    HW121959   3.219   1.122  10.028 -1.1630  2.4827 -1.2730
 3441SOL    HW221960   3.267   0.997   9.973 -0.9739 -0.0999 -0.0193
 3442SOL     OW21961   1.825   0.153   0.112  0.3804  0.0584  0.2939
 3442SOL    HW121962   1.762   0.084   0.092  0.4570 -0.1737  0.8518
 3442SOL    HW221963   1.778   0.220   0.162 -0.1196  0.5644 -0.8524
 3443SOL     OW21964   3.505   2.155   6.428 -0.1116 -0.3820  0.2868
 3443SOL    HW121965   3.462   2.115   6.503  0.6730 -0.8646  0.4746
 3443SOL    HW221966   3.554   2.226   6.469 -2.2713  1.1162  0.2391
 3444SOL     OW21967   1.945   3.780   7.107  0.2078 -0.2280  0.5682
 3444SOL    HW121968   1.981   3.820   7.028  2.4612  0.8541  2.1586
 3444SOL    HW221969   2.011   3.719   7.140  1.5526  0.3682 -0.9904
 3445SOL     OW21970   0.497   4.434  14.649  1.3048  0.0248  0.5428
 3445SOL    HW121971   0.491   4.391  14.735 -0.9705  0.6387  0.6882
 3445SOL    HW221972   0.569   4.393  14.602  3.0279  3.7792 -0.0899
 3446SOL     OW21973   1.171   3.649   3.455  0.3193 -0.0044  0.0748
 3446SOL    HW121974   1.081   3.618   3.443  1.0583 -1.7376 -1.1258
 3446SOL    HW221975   1.212   3.584   3.397 -2.6951  0.1091 -2.1670
 3447SOL     OW21976   1.521   3.021   3.690 -0.2013 -0.5192  0.4925
 3447SOL    HW121977   1.589   3.087   3.698 -1.8104  1.0553  1.0095
 3447SOL    HW221978   1.475   3.043   3.609  0.1831  0.9273  0.6750
 3448SOL     OW21979   0.564   1.586   8.912 -1.0371 -0.3760 -0.0846
 3448SOL    HW121980   0.556   1.675   8.878  0.7466  0.8027  2.5545
 3448SOL    HW221981   0.471   1.575   8.930 -1.3094  1.7120 -0.2556
 3449SOL     OW21982   3.091   2.495   2.525  0.5071 -0.4028 -0.1432
 3449SOL    HW121983   3.007   2.491   2.572 -0.1036  0.2301 -1.1767
 3449SOL    HW221984   3.146   2.449   2.589  1.5023  0.9695 -0.0246
 3450SOL     OW21985   0.040   0.563   7.540 -0.2017  0.4811 -0.2194
 3450SOL    HW121986   4.694   0.532   7.585  0.2351  1.4967  1.2399
 3450SOL    HW221987   4.732   0.639   7.500  2.0368  1.5969 -0.3620
 3451SOL     OW21988   1.109   2.375   8.382 -0.0723 -0.1830 -0.5129
 3451SOL    HW121989   1.106   2.470   8.381  3.7269 -0.0277  1.9020
 3451SOL    HW221990   1.020   2.353   8.354  0.1921 -0.8410 -0.8432
 3452SOL     OW21991   4.062   4.646   6.889 -0.3273 -0.3244  0.3904
 3452SOL    HW121992   4.150   4.616   6.866 -0.7020 -1.3015  0.2246
 3452SOL    HW221993   4.001   4.593   6.837 -2.3583  1.4174  0.9560
 3453SOL     OW21994   2.888   3.321  14.113  0.1048  0.2786  0.5203
 3453SOL    HW121995   2.865   3.400  14.163  3.0138 -0.0241  2.3458
 3453SOL    HW221996   2.801   3.288  14.093  0.3313 -0.4221  0.7167
 3454SOL     OW21997   2.064   3.435   9.145 -0.7793 -0.1561 -0.4064
 3454SOL    HW121998   2.006   3.503   9.112  1.1697  1.5185 -0.3625
 3454SOL    HW221999   2.122   3.429   9.069 -0.1636 -0.1149  0.0653
 3455SOL     OW22000   4.562   3.572   0.324  0.1957 -0.2851  0.1272
 3455SOL    HW122001   4.614   3.628   0.266 -0.5913  0.2261 -0.0738
 3455SOL    HW222002   4.603   3.594   0.408  0.7972 -1.3591  0.1231
 3456SOL     OW22003   4.668   0.126   5.092  0.0606  0.3326  0.1876
 3456SOL    HW122004   0.015   0.168   5.123  0.3077 -0.1031  0.1328
 3456SOL    HW222005   4.692   0.082   5.010 -1.4416 -0.3328  0.1119
 3457SOL     OW22006   1.255   3.975  15.088  0.3133  0.5738  0.4160
 3457SOL    HW122007   1.213   3.979  15.002 -2.8193 -1.7262  1.8221
 3457SOL    HW222008   1.274   4.067  15.108 -0.0069  0.7989 -0.3189
 3458SOL     OW22009   3.506   3.592  10.947  0.4976  0.3686  0.2471
 3458SOL    HW122010   3.428   3.566  10.996 -1.0244 -0.9527 -2.8874
 3458SOL    HW222011   3.528   3.671  10.996  1.7769  1.0006 -1.3652
 3459SOL     OW22012   4.683   1.252   3.401 -0.0711 -0.4989  0.0920
 3459SOL    HW122013   0.043   1.262   3.382  0.1223 -0.9531  0.7929
 3459SOL    HW222014   4.676   1.291   3.488  1.3187  1.1181 -0.5228
 3460SOL     OW22015   1.170   3.002  17.128  0.4138 -0.0040 -0.8665
 3460SOL    HW122016   1.240   2.942  17.102  0.3587  0.4261 -1.9816
 3460SOL    HW222017   1.183   3.068  17.060  2.1284 -1.3524 -1.8374
 3461SOL     OW22018   1.820   1.996   0.514 -0.5035  0.4489  0.3769
 3461SOL    HW122019   1.846   1.904   0.511 -1.0723  0.2856  0.3865
 3461SOL    HW222020   1.877   2.036   0.449  1.0081  0.0312  1.4431
 3462SOL     OW22021   4.413   4.527  10.022  0.8668 -0.4061 -0.3293
 3462SOL    HW122022   4.498   4.496  10.054 -0.0358 -0.2532  2.2212
 3462SOL    HW222023   4.349   4.480  10.076  0.8678  0.3998  0.3720
 3463SOL     OW22024   3.839   4.221   9.481  0.3366 -0.4462  0.3094
 3463SOL    HW122025   3.811   4.237   9.571 -0.8696  1.2715 -0.3751
 3463SOL    HW222026   3.787   4.270   9.417 -0.5579 -2.2701 -0.3719
 3464SOL     OW22027   3.842   3.329   7.601 -0.0470  0.1644  0.1021
 3464SOL    HW122028   3.783   3.264   7.639 -0.6050  1.7662  1.9524
 3464SOL    HW222029   3.918   3.274   7.585 -1.4143 -1.6383 -0.1934
 3465SOL     OW22030   2.963   1.798   3.146 -0.2386  0.2419 -0.3885
 3465SOL    HW122031   3.008   1.726   3.103  2.3795  0.8530  1.3258
 3465SOL    HW222032   3.041   1.840   3.182  0.2720  0.2502 -1.5189
 3466SOL     OW22033   2.960   3.087   5.730  0.1667 -0.3936  0.5229
 3466SOL    HW122034   2.894   3.072   5.798 -1.3905 -2.1033 -1.3641
 3466SOL    HW222035   3.029   3.036   5.773  0.6712  0.0217  0.1979
 3467SOL     OW22036   0.572   1.224  11.873 -0.3465 -0.6158  0.0974
 3467SOL    HW122037   0.538   1.300  11.921  2.4858  1.3923 -1.0303
 3467SOL    HW222038   0.663   1.251  11.859 -0.5641  0.5223  0.8665
 3468SOL     OW22039   1.222   1.431  15.464 -0.1359 -0.0497  0.4024
 3468SOL    HW122040   1.182   1.509  15.426 -0.5579 -0.9593 -1.0133
 3468SOL    HW222041   1.226   1.460  15.555 -2.1112  2.1789 -0.2380
 3469SOL     OW22042   3.163   0.613  11.016 -0.2008  0.2191  0.3215
 3469SOL    HW122043   3.104   0.576  11.082 -2.6025  0.2999 -1.8098
 3469SOL    HW222044   3.107   0.677  10.973 -1.5345 -1.1974 -0.0410
 3470SOL     OW22045   4.017   2.107  15.975  0.1781  0.5912  0.2301
 3470SOL    HW122046   4.090   2.052  15.947 -1.0854 -0.8296 -0.2349
 3470SOL    HW222047   3.999   2.157  15.895  1.6469 -0.1568 -0.5673
 3471SOL     OW22048   3.316   1.919   9.020  0.6908  0.2414 -0.0160
 3471SOL    HW122049   3.347   1.858   9.087 -0.4774 -1.4228 -1.0287
 3471SOL    HW222050   3.239   1.965   9.053  0.0414 -0.5841 -0.4069
 3472SOL     OW22051   2.442   3.272   8.522 -0.4358 -0.4666 -0.2703
 3472SOL    HW122052   2.365   3.320   8.553 -0.1674 -0.9514  1.1364
 3472SOL    HW222053   2.402   3.220   8.453  1.5963 -1.8417 -0.4010
 3473SOL     OW22054   0.962   3.217  12.088 -0.6189  0.4251 -0.1705
 3473SOL    HW122055   0.946   3.310  12.072  1.6039  0.5802 -1.5299
 3473SOL    HW222056   0.880   3.176  12.116  0.7341 -0.5851  2.3783
 3474SOL     OW22057   2.007   0.710   1.932  0.4965  0.0960 -0.5351
 3474SOL    HW122058   1.942   0.640   1.938  0.1746  0.4220 -0.1459
 3474SOL    HW222059   2.090   0.664   1.943  0.0596 -0.5027  0.2159
 3475SOL     OW22060   2.082   0.534   9.533  0.2639 -0.1044  0.5552
 3475SOL    HW122061   2.174   0.531   9.504 -0.4018 -0.6176 -1.5310
 3475SOL    HW222062   2.051   0.622   9.512 -1.1357 -0.3156  1.7879
 3476SOL     OW22063   2.974   4.142  14.723 -0.1422  0.0338 -0.9293
 3476SOL    HW122064   2.983   4.230  14.686  1.3627  0.9612  1.6519
 3476SOL    HW222065   2.879   4.136  14.713 -0.3793  1.5695  0.3503
 3477SOL     OW22066   1.517   1.754   6.495 -0.3845 -0.4428  0.1862
 3477SOL    HW122067   1.473   1.805   6.564  1.6700  1.3510  0.1723
 3477SOL    HW222068   1.607   1.750   6.529  0.6032  0.3501 -2.3541
 3478SOL     OW22069   2.319   2.298   8.045  0.5079 -0.3396 -0.2320
 3478SOL    HW122070   2.391   2.358   8.032  0.6288 -0.7437 -1.4357
 3478SOL    HW222071   2.359   2.249   8.117 -1.4568 -1.8114 -0.1176
 3479SOL     OW22072   2.674   0.190   5.803 -0.3847  0.0504  0.1700
 3479SOL    HW122073   2.621   0.114   5.830 -0.9506  1.7895  3.8863
 3479SOL    HW222074   2.740   0.142   5.754  0.6947  2.0609 -0.3273
 3480SOL     OW22075   2.990   1.285   1.735 -0.4325  0.0668 -0.4324
 3480SOL    HW122076   2.912   1.228   1.737  0.3273 -1.0211 -1.3099
 3480SOL    HW222077   2.979   1.346   1.662  0.5953 -1.5876 -1.9577
 3481SOL     OW22078   2.645   2.193   8.927 -0.1994 -0.9823  0.3201
 3481SOL    HW122079   2.700   2.235   8.860 -1.3191 -1.5742 -0.9894
 3481SOL    HW222080   2.617   2.263   8.986  0.2073  0.7917 -1.5616
 3482SOL     OW22081   1.262   1.639   5.780  0.2639  0.2846  0.4253
 3482SOL    HW122082   1.190   1.579   5.763 -2.1846  3.4060 -0.3609
 3482SOL    HW222083   1.314   1.592   5.845  1.8583 -0.6852 -1.5701
 3483SOL     OW22084   1.503   3.783   2.292 -0.1562  0.5389  0.2908
 3483SOL    HW122085   1.554   3.811   2.215  1.7771  2.3071  2.1866
 3483SOL    HW222086   1.548   3.823   2.367  1.4458 -0.6392 -0.0349
 3484SOL     OW22087   0.792   0.088   5.719  0.3747  0.1157 -0.5594
 3484SOL    HW122088   0.816   0.079   5.812 -2.3542  4.0699  0.5305
 3484SOL    HW222089   0.697   0.092   5.729  0.4793  0.4083  0.3824
 3485SOL     OW22090   3.503   0.465   3.464  0.1069 -0.2993 -0.1188
 3485SOL    HW122091   3.544   0.449   3.549 -0.9820 -3.0493 -0.1115
 3485SOL    HW222092   3.462   0.550   3.481 -0.7515 -0.2150 -2.5737
 3486SOL     OW22093   1.422   0.370   0.699  0.0812  0.0824  0.0988
 3486SOL    HW122094   1.464   0.436   0.754  1.7860 -0.7162 -0.2409
 3486SOL    HW222095   1.327   0.378   0.707 -0.1383 -2.7850  0.5047
 3487SOL     OW22096   0.792   0.827   2.410  0.3532  0.6215 -0.0849
 3487SOL    HW122097   0.732   0.896   2.438 -2.8650 -1.7071 -1.3782
 3487SOL    HW222098   0.802   0.851   2.318  1.0127 -0.1572 -0.2156
 3488SOL     OW22099   3.976   3.246  13.697 -1.0519  0.7965 -0.1195
 3488SOL    HW122100   3.962   3.238  13.791  0.6391  0.6414  0.1192
 3488SOL    HW222101   3.899   3.210  13.654 -1.8322 -1.1097  2.8709
 3489SOL     OW22102   4.281   1.552   3.571 -0.1260 -0.1698  0.6930
 3489SOL    HW122103   4.310   1.506   3.492 -1.6421  1.9851 -1.0811
 3489SOL    HW222104   4.249   1.628   3.523  0.8527  1.6095  2.8321
 3490SOL     OW22105   4.472   0.216   6.825  0.1061 -0.2750  0.0477
 3490SOL    HW122106   4.477   0.290   6.765 -1.5554 -0.5322 -0.4000
 3490SOL    HW222107   4.482   0.263   6.909 -0.4009  1.0874 -0.6452
 3491SOL     OW22108   1.858   1.990   7.124 -0.1025 -0.2292  0.5375
 3491SOL    HW122109   1.864   2.019   7.033 -0.9785 -0.5275  0.3774
 3491SOL    HW222110   1.845   2.079   7.155  0.4151  0.2298 -0.5663
 3492SOL     OW22111   1.928   2.039  11.934 -0.0969  0.5224  0.4643
 3492SOL    HW122112   1.975   1.973  11.985 -1.2603 -1.0061 -0.4357
 3492SOL    HW222113   1.956   2.118  11.980  1.8368  1.0596 -1.6663
 3493SOL     OW22114   2.562   4.281  13.605  0.5162  0.0640 -0.2772
 3493SOL    HW122115   2.502   4.318  13.669 -2.2254 -2.1465 -1.5587
 3493SOL    HW222116   2.526   4.309  13.521  0.3798 -1.5580 -0.7539
 3494SOL     OW22117   2.670   2.999   2.980 -0.3892 -0.4634 -0.0427
 3494SOL    HW122118   2.701   3.009   2.890  0.0371  0.7521  0.2492
 3494SOL    HW222119   2.640   3.089   2.988 -1.3104 -0.4895 -3.2928
 3495SOL     OW22120   4.570   1.575  12.426 -0.1777  0.3222 -0.0680
 3495SOL    HW122121   4.565   1.617  12.511  0.1174 -0.7347  0.4733
 3495SOL    HW222122   4.608   1.489  12.445  1.2498  0.6307 -1.5223
 3496SOL     OW22123   4.545   1.143   3.871  0.0450 -0.1578  0.4288
 3496SOL    HW122124   4.503   1.229   3.875  2.5284  0.9808  1.5964
 3496SOL    HW222125   4.469   1.087   3.854 -0.2246  0.2181  0.3879
 3497SOL     OW22126   1.929   0.805  17.464  0.0743 -0.1102 -0.2198
 3497SOL    HW122127   1.976   0.875  17.510  1.8168 -1.5927  0.2625
 3497SOL    HW222128   1.853   0.795  17.521  0.4394  3.0280  0.8063
 3498SOL     OW22129   0.413   3.478  16.765 -0.3117 -0.2094  0.3461
 3498SOL    HW122130   0.482   3.427  16.722  1.1671  1.3699  0.8597
 3498SOL    HW222131   0.452   3.561  16.792  0.4940 -0.6745  0.6152
 3499SOL     OW22132   4.006   0.710   2.118  0.3884 -0.0073 -0.6394
 3499SOL    HW122133   3.924   0.755   2.099  0.1682  0.2174  0.8609
 3499SOL    HW222134   4.033   0.662   2.040  1.2419 -3.1410  1.5843
 3500SOL     OW22135   3.219   1.248  11.464 -0.2727  0.0828 -0.8554
 3500SOL    HW122136   3.130   1.265  11.435 -0.8321 -1.0616  0.2010
 3500SOL    HW222137   3.212   1.275  11.555  0.3988  1.4002 -1.1975
 3501SOL     OW22138   3.099   1.639  15.986 -0.2060 -0.0701  0.1923
 3501SOL    HW122139   3.171   1.680  16.035  0.3844 -0.9065  0.0198
 3501SOL    HW222140   3.041   1.613  16.058  1.3167 -2.0636  0.7076
 3502SOL     OW22141   1.423   3.402   9.424 -0.5540 -0.2555 -0.2091
 3502SOL    HW122142   1.372   3.414   9.505 -0.7870 -0.5733 -0.3109
 3502SOL    HW222143   1.418   3.493   9.394  1.0651 -0.4051 -0.9224
 3503SOL     OW22144   0.783   4.162   2.564 -0.7284 -0.1847  0.2478
 3503SOL    HW122145   0.837   4.120   2.632 -1.2636 -0.4156  0.5332
 3503SOL    HW222146   0.808   4.114   2.485 -3.5130 -0.8708 -0.2126
 3504SOL     OW22147   4.043   3.616   2.072 -0.6866  0.2261 -0.4307
 3504SOL    HW122148   3.970   3.662   2.114 -0.6495  1.7007 -1.9809
 3504SOL    HW222149   4.000   3.541   2.032  0.1162 -0.6590  0.3630
 3505SOL     OW22150   1.279   3.029  10.418  0.7637  0.1968  0.5175
 3505SOL    HW122151   1.310   2.981  10.494 -1.3425 -0.6876  0.8234
 3505SOL    HW222152   1.308   3.117  10.442  0.2614  1.0787 -2.1336
 3506SOL     OW22153   1.398   2.815   2.835  0.0785  0.5145 -0.5641
 3506SOL    HW122154   1.458   2.742   2.818 -1.4615 -1.8161  3.8797
 3506SOL    HW222155   1.467   2.880   2.843  0.7812 -0.4576  1.2598
 3507SOL     OW22156   4.104   1.976   8.814  0.4479 -0.6303  0.0997
 3507SOL    HW122157   4.053   2.032   8.755 -2.5412 -1.3187  2.0564
 3507SOL    HW222158   4.064   1.890   8.797  0.9105 -1.0363  1.0694
 3508SOL     OW22159   2.712   4.183   6.977 -0.1125 -0.0993  1.0784
 3508SOL    HW122160   2.729   4.098   6.938 -0.1934  0.7000 -0.7120
 3508SOL    HW222161   2.791   4.183   7.031  0.8517 -1.0634 -0.3427
 3509SOL     OW22162   1.843   0.131  14.655  0.3321  0.1389 -0.3472
 3509SOL    HW122163   1.887   0.050  14.681  1.2535  0.5612 -0.6412
 3509SOL    HW222164   1.855   0.114  14.562 -0.3548 -2.5916  0.0341
 3510SOL     OW22165   0.976   4.014   5.982 -0.6973 -0.4170 -0.1028
 3510SOL    HW122166   0.907   3.956   6.016 -0.6403 -0.4179  0.0114
 3510SOL    HW222167   1.023   3.960   5.920 -1.1899 -2.0999  0.9740
 3511SOL     OW22168   0.190   1.407   5.167  0.0004 -0.2206  0.2465
 3511SOL    HW122169   0.218   1.364   5.086 -0.9145  1.0700 -0.7717
 3511SOL    HW222170   0.158   1.340   5.227  1.0250 -0.2731  0.7333
 3512SOL     OW22171   2.391   3.760  12.123 -0.3274  0.3472 -0.0536
 3512SOL    HW122172   2.416   3.687  12.067 -0.5956  0.8821 -0.8807
 3512SOL    HW222173   2.338   3.810  12.061  0.1538  0.8755 -0.0450
 3513SOL     OW22174   4.123   4.299   9.502 -0.2523  0.3057 -0.4087
 3513SOL    HW122175   4.091   4.355   9.432  1.4488  0.2644 -1.2267
 3513SOL    HW222176   4.051   4.238   9.519 -0.5794  0.6511 -0.5723
 3514SOL     OW22177   1.124   3.766   2.929  0.2617 -0.2551 -0.3568
 3514SOL    HW122178   1.189   3.715   2.881 -0.2924 -1.6687  0.4154
 3514SOL    HW222179   1.046   3.712   2.915  0.6653 -0.7762 -0.5910
 3515SOL     OW22180   3.880   4.661  11.604  0.6733 -0.2949 -0.3868
 3515SOL    HW122181   3.906   4.664  11.696  0.9755 -1.2274 -0.4400
 3515SOL    HW222182   3.934   4.594  11.561 -0.9247 -2.8329  1.6054
 3516SOL     OW22183   1.486   1.947   1.586 -0.0016 -0.2543  0.4887
 3516SOL    HW122184   1.510   2.020   1.643  2.0648 -1.3221  0.9955
 3516SOL    HW222185   1.576   1.917   1.570  0.4214  0.4269  1.5740
 3517SOL     OW22186   0.989   2.670   0.919 -0.3667  0.0377  0.3604
 3517SOL    HW122187   0.908   2.631   0.951  0.2197 -1.1271  0.4570
 3517SOL    HW222188   0.988   2.663   0.824 -0.2732 -0.2764  0.3824
 3518SOL     OW22189   0.665   3.526   8.181 -0.3513 -0.8690 -0.2505
 3518SOL    HW122190   0.691   3.612   8.147 -0.0691 -0.0731  1.9614
 3518SOL    HW222191   0.608   3.501   8.108 -0.2520  0.3403 -0.7487
 3519SOL     OW22192   1.166   0.441   7.140  0.1165 -0.1669  0.1301
 3519SOL    HW122193   1.071   0.429   7.140  0.0045  0.6648  3.2500
 3519SOL    HW222194   1.200   0.351   7.138  1.7034  0.4684 -1.1420
 3520SOL     OW22195   2.208   2.939  11.205  0.4726 -0.2966  0.2129
 3520SOL    HW122196   2.143   2.971  11.142  1.4487  1.6770  0.1968
 3520SOL    HW222197   2.149   2.928  11.279  0.4885  0.4636  0.3392
 3521SOL     OW22198   1.949   3.831   8.301 -0.3443 -0.2442  0.1187
 3521SOL    HW122199   1.906   3.775   8.365  0.5153 -2.4033 -1.1819
 3521SOL    HW222200   1.952   3.912   8.352  0.3987 -0.2526  0.0829
 3522SOL     OW22201   3.146   2.484   8.198  0.6065  0.1930  0.0270
 3522SOL    HW122202   3.097   2.417   8.150 -1.0068  1.4142 -0.0251
 3522SOL    HW222203   3.074   2.539   8.229  0.2109  0.7664 -1.9480
 3523SOL     OW22204   3.687   3.885   4.598  0.1280  0.2057 -0.8479
 3523SOL    HW122205   3.715   3.820   4.663 -2.9006  0.5387  0.8012
 3523SOL    HW222206   3.768   3.931   4.577  0.8019  0.4911  2.4283
 3524SOL     OW22207   2.474   3.427  14.897 -0.0581 -0.1909  0.1213
 3524SOL    HW122208   2.532   3.369  14.848 -0.6977 -1.0079  0.3367
 3524SOL    HW222209   2.389   3.401  14.861 -0.4481  0.9646  0.1968
 3525SOL     OW22210   2.698   1.805   6.581 -0.9069 -1.1431 -0.3068
 3525SOL    HW122211   2.676   1.828   6.671 -1.1236 -2.4725 -0.0201
 3525SOL    HW222212   2.619   1.776   6.536 -0.2840 -1.8464 -0.9501
 3526SOL     OW22213   0.481   2.527   2.858 -0.0327  0.8447  0.6104
 3526SOL    HW122214   0.566   2.483   2.861  0.0403  0.9902  0.6475
 3526SOL    HW222215   0.511   2.615   2.834  0.7345  1.3544  3.4311
 3527SOL     OW22216   2.093   2.324  12.877  0.3509 -0.2801  0.4374
 3527SOL    HW122217   2.098   2.380  12.954  2.1054  0.2402 -0.0346
 3527SOL    HW222218   2.096   2.237  12.917  0.3482  0.5349  2.1690
 3528SOL     OW22219   4.641   0.237   3.934  0.5766  0.6184  0.3640
 3528SOL    HW122220   4.626   0.308   3.996 -1.2773 -0.8555  1.5967
 3528SOL    HW222221   4.668   0.171   3.998 -1.0397 -2.9244 -2.5434
 3529SOL     OW22222   1.944   0.804   3.078  0.0106 -0.2287  0.1249
 3529SOL    HW122223   1.919   0.712   3.073  0.1913 -0.2396 -0.5920
 3529SOL    HW222224   1.928   0.816   3.171  0.3336 -1.7629  0.3725
 3530SOL     OW22225   2.190   3.063   2.982  0.2201 -0.3611 -0.6109
 3530SOL    HW122226   2.209   3.084   3.074  1.7591 -0.5340 -0.8822
 3530SOL    HW222227   2.118   3.124   2.967 -0.0737 -1.0444 -1.9520
 3531SOL     OW22228   0.155   1.833   2.014  0.2688 -0.0630 -0.3349
 3531SOL    HW122229   0.123   1.828   1.923  0.4599 -0.8246 -0.3563
 3531SOL    HW222230   0.247   1.806   2.005 -0.2931 -2.3869  0.9803
 3532SOL     OW22231   3.615   1.071   0.267 -0.3871  0.4840 -0.0344
 3532SOL    HW122232   3.672   1.009   0.220 -1.0318 -0.8810  0.9883
 3532SOL    HW222233   3.542   1.087   0.208 -1.2610 -0.0151  0.9090
 3533SOL     OW22234   0.497   3.479  11.974  0.8455 -0.2482 -0.3481
 3533SOL    HW122235   0.566   3.418  11.946  1.7146  0.1460  0.9390
 3533SOL    HW222236   0.489   3.457  12.067 -2.8346  1.3901 -0.2623
 3534SOL     OW22237   1.061   0.030   3.368 -0.4154 -0.4804  0.2881
 3534SOL    HW122238   1.071   4.692   3.431  0.7715 -0.7256 -0.1826
 3534SOL    HW222239   0.972   0.015   3.336 -0.9362 -0.1705  1.6081
 3535SOL     OW22240   2.676   3.118   6.293  0.1316  0.5216 -0.0102
 3535SOL    HW122241   2.606   3.167   6.337  0.7639  2.4573 -1.1494
 3535SOL    HW222242   2.717   3.072   6.366 -0.4624 -0.6727 -0.4153
 3536SOL     OW22243   1.405   0.527   8.204  0.2455 -0.4523  0.2300
 3536SOL    HW122244   1.394   0.461   8.135  1.6622 -1.7265  1.2327
 3536SOL    HW222245   1.316   0.529   8.239  0.0110  1.3913 -0.4729
 3537SOL     OW22246   4.354   3.298  17.131  0.8688 -0.1581 -0.2445
 3537SOL    HW122247   4.447   3.311  17.149  1.2773 -2.4932 -0.5619
 3537SOL    HW222248   4.306   3.309  17.213  0.9683  1.1418 -0.3720
 3538SOL     OW22249   3.958   1.119   0.803 -0.6576  0.9133 -0.3484
 3538SOL    HW122250   4.002   1.128   0.888 -0.3171 -1.5142 -0.2655
 3538SOL    HW222251   3.887   1.059   0.824  1.8523 -1.4265  1.5059
 3539SOL     OW22252   0.263   4.149   5.956 -0.0451  0.0760  0.0981
 3539SOL    HW122253   0.303   4.073   5.997  1.8087 -0.9283 -3.6014
 3539SOL    HW222254   0.282   4.225   6.011  0.0770 -0.2052  0.4391
 3540SOL     OW22255   0.966   4.291   2.865 -0.5566 -0.1579 -0.4744
 3540SOL    HW122256   0.988   4.321   2.953 -0.0520  0.1456 -0.7040
 3540SOL    HW222257   0.996   4.363   2.811 -1.1729  0.5922  0.1757
 3541SOL     OW22258   0.025   2.816   2.486  0.0303  0.6231  0.1974
 3541SOL    HW122259   4.702   2.813   2.563  0.3129 -1.7504  0.3107
 3541SOL    HW222260   0.036   2.911   2.481 -2.2076  0.7109 -2.6068
 3542SOL     OW22261   0.526   3.257   1.869  0.1354  0.2566 -0.2711
 3542SOL    HW122262   0.461   3.233   1.935  0.5250  0.4947  0.1986
 3542SOL    HW222263   0.600   3.294   1.918  1.0678 -1.5075 -0.3633
 3543SOL     OW22264   1.735   1.659  13.457 -0.1786  0.4390 -0.0352
 3543SOL    HW122265   1.746   1.574  13.416 -0.0753  0.3769  0.1211
 3543SOL    HW222266   1.667   1.648  13.523 -0.0746 -0.5736 -0.1084
 3544SOL     OW22267   0.377   1.922   6.069  0.2006 -0.3408 -0.4259
 3544SOL    HW122268   0.414   1.926   6.157 -1.0116  2.3164 -0.0503
 3544SOL    HW222269   0.285   1.924   6.094  0.2222 -0.1102 -0.3655
 3545SOL     OW22270   2.229   2.389   4.745  0.2820  0.7296 -0.1845
 3545SOL    HW122271   2.262   2.306   4.782  1.8377  1.9028  1.0586
 3545SOL    HW222272   2.278   2.454   4.795  0.4254 -0.9082  1.8084
 3546SOL     OW22273   2.870   3.759   8.754 -0.2440  0.5005  0.0190
 3546SOL    HW122274   2.857   3.786   8.663 -0.5195 -1.7234 -0.6054
 3546SOL    HW222275   2.807   3.820   8.792  0.9704  1.1746  0.9796
 3547SOL     OW22276   2.595   3.466  16.872 -0.0455  0.1561 -0.3674
 3547SOL    HW122277   2.666   3.467  16.808 -0.7596  1.7044 -1.1284
 3547SOL    HW222278   2.573   3.558  16.884 -1.0139  0.1009 -1.6864
 3548SOL     OW22279   3.007   2.104   8.252  0.0853 -0.1460  0.0730
 3548SOL    HW122280   2.970   2.062   8.175  0.8345 -1.0586  0.2098
 3548SOL    HW222281   2.989   2.197   8.237  1.4019  0.1079  0.0449
 3549SOL     OW22282   4.636   1.898   8.145 -0.3963  0.1497  0.1081
 3549SOL    HW122283   4.572   1.839   8.106 -0.2935  1.2291 -1.7029
 3549SOL    HW222284   4.586   1.922   8.223 -1.4740  0.3488 -0.6369
 3550SOL     OW22285   2.987   0.547   0.747  0.2786  0.3388  0.1755
 3550SOL    HW122286   2.968   0.613   0.681 -0.4131 -2.0247 -1.9957
 3550SOL    HW222287   2.905   0.539   0.797  0.3967  0.0505  0.3266
 3551SOL     OW22288   0.050   3.348   2.803  0.2257 -0.6257  0.5399
 3551SOL    HW122289   0.115   3.282   2.780  0.5139 -0.9872  2.3783
 3551SOL    HW222290   0.009   3.307   2.879 -2.0667 -0.3449 -0.5433
 3552SOL     OW22291   4.612   0.253   7.715  0.0829 -0.3437 -0.1436
 3552SOL    HW122292   4.554   0.329   7.717  1.8787  1.0850 -2.0803
 3552SOL    HW222293   4.669   0.285   7.646  0.9124  0.5024  0.9223
 3553SOL     OW22294   3.507   1.283   4.829 -0.1272  0.8197  0.0949
 3553SOL    HW122295   3.523   1.194   4.861  1.0162  0.6385 -1.0107
 3553SOL    HW222296   3.434   1.313   4.885 -1.2681 -1.0227 -0.4137
 3554SOL     OW22297   3.282   2.010  15.519 -0.5426 -0.4149  0.6228
 3554SOL    HW122298   3.282   1.922  15.556  1.0957  0.6893  3.2759
 3554SOL    HW222299   3.280   1.995  15.424 -0.4815  0.0616  0.5459
 3555SOL     OW22300   2.948   2.015   7.994  0.7516 -0.2207  0.0555
 3555SOL    HW122301   2.943   2.082   7.926 -3.3157  1.1442  1.7287
 3555SOL    HW222302   2.960   1.939   7.936  0.5326 -2.4819  2.9507
 3556SOL     OW22303   1.203   4.211   4.399 -0.3786 -0.5498 -0.0943
 3556SOL    HW122304   1.200   4.167   4.314  0.6522  2.4079 -1.6628
 3556SOL    HW222305   1.244   4.141   4.450  0.6269  0.1423  0.0598
 3557SOL     OW22306   0.796   1.941  11.345  0.1423 -0.1567 -0.0345
 3557SOL    HW122307   0.861   1.911  11.282  0.4715 -0.9718  0.6907
 3557SOL    HW222308   0.753   2.005  11.288  0.6775 -0.5954 -0.9276
 3558SOL     OW22309   2.944   0.139   3.366 -0.0905  0.1081 -0.0171
 3558SOL    HW122310   2.914   0.056   3.329  1.1946 -0.3837  0.0301
 3558SOL    HW222311   2.892   0.148   3.446  0.5856 -1.6389  0.6412
 3559SOL     OW22312   3.675   4.418  17.330  0.2234  0.4316 -0.5044
 3559SOL    HW122313   3.582   4.396  17.324 -0.4141  2.1311  3.0355
 3559SOL    HW222314   3.693   4.451  17.242 -1.0845  2.8004  0.1164
 3560SOL     OW22315   3.832   1.520   1.592  0.3498 -0.3371 -0.4080
 3560SOL    HW122316   3.839   1.540   1.685 -1.7498 -2.5644  0.2470
 3560SOL    HW222317   3.818   1.425   1.590  1.0347 -0.4418  0.1284
 3561SOL     OW22318   1.301   2.950   4.356 -0.4445 -0.1385  0.2958
 3561SOL    HW122319   1.355   3.002   4.414  0.8026 -2.2583  1.0157
 3561SOL    HW222320   1.261   3.012   4.294  1.9261  1.2714  0.1989
 3562SOL     OW22321   3.072   0.744   6.082 -0.0049  0.3135  0.6652
 3562SOL    HW122322   3.058   0.698   6.165  0.2123 -1.4251 -0.2663
 3562SOL    HW222323   2.991   0.795   6.076 -0.3921 -0.3800  0.0597
 3563SOL     OW22324   2.365   0.815   4.310  0.3177 -0.2287  0.1007
 3563SOL    HW122325   2.283   0.795   4.263  0.3310  0.8808 -0.3969
 3563SOL    HW222326   2.337   0.900   4.345  0.6021 -0.1163  0.0533
 3564SOL     OW22327   1.338   3.167   9.305  0.2687  0.5630  0.6467
 3564SOL    HW122328   1.385   3.250   9.296 -1.2096  1.1917 -1.3476
 3564SOL    HW222329   1.344   3.145   9.398  0.8097 -0.7156  0.3154
 3565SOL     OW22330   1.380   3.149   7.417  0.3143  0.1404 -0.4110
 3565SOL    HW122331   1.465   3.143   7.372  1.0078  0.1827  0.9045
 3565SOL    HW222332   1.339   3.218   7.366 -0.9303  0.0979  0.5324
 3566SOL     OW22333   3.145   3.618  10.085 -0.6656  0.1715 -0.7478
 3566SOL    HW122334   3.153   3.537  10.136 -3.0167  1.3119  1.4342
 3566SOL    HW222335   3.111   3.590  10.000  1.4124  2.9500 -2.4846
 3567SOL     OW22336   2.457   0.642  14.442  0.2698  0.5379  0.3096
 3567SOL    HW122337   2.524   0.624  14.508  0.1671  0.7503  0.4720
 3567SOL    HW222338   2.424   0.729  14.466  2.2383  1.0217  1.2821
 3568SOL     OW22339   3.153   2.583   9.506  0.3545  0.1133  0.0533
 3568SOL    HW122340   3.222   2.520   9.524 -2.0576 -3.3299 -2.7543
 3568SOL    HW222341   3.193   2.640   9.442  0.3653  0.2048  0.1411
 3569SOL     OW22342   4.151   0.417   4.206 -0.3202 -0.5832  0.5822
 3569SOL    HW122343   4.131   0.458   4.291  2.4923  1.9206  0.0025
 3569SOL    HW222344   4.212   0.346   4.227  0.0256 -0.0546  1.3500
 3570SOL     OW22345   2.592   3.668   4.201  0.5456  0.8179 -0.3475
 3570SOL    HW122346   2.641   3.726   4.142  0.5264  1.7047  0.5050
 3570SOL    HW222347   2.636   3.703   4.279  1.8783  0.8367 -1.0967
 3571SOL     OW22348   3.897   0.498   6.934 -0.1740 -0.3550 -0.3678
 3571SOL    HW122349   3.952   0.576   6.943 -0.7138  0.1055 -1.0382
 3571SOL    HW222350   3.960   0.438   6.894  0.8899  0.6403 -0.1979
 3572SOL     OW22351   0.875   4.676   9.002  0.3944  0.2114 -0.3776
 3572SOL    HW122352   0.808   4.626   8.955 -0.2160 -0.4914  1.2406
 3572SOL    HW222353   0.912   4.727   8.930  1.0674  1.8552  1.1153
 3573SOL     OW22354   0.004   4.228   3.622  0.0913  0.1345 -0.5204
 3573SOL    HW122355   4.720   4.173   3.546  2.7494  0.3630 -1.3053
 3573SOL    HW222356   0.020   4.156   3.683 -0.3021 -2.1818 -3.1665
 3574SOL     OW22357   1.008   0.823   0.357  0.0628 -0.0581  0.2107
 3574SOL    HW122358   1.084   0.828   0.300 -0.1761  2.0791  0.0559
 3574SOL    HW222359   0.976   0.914   0.355 -1.9159 -0.7789 -1.7467
 3575SOL     OW22360   1.609   4.412   5.786  0.5202 -0.2153 -0.1804
 3575SOL    HW122361   1.599   4.326   5.746  2.3447 -1.4530  1.9674
 3575SOL    HW222362   1.565   4.457   5.714 -1.6396 -0.0579  1.2281
 3576SOL     OW22363   4.419   3.916  14.454 -0.5613  0.2677 -0.8852
 3576SOL    HW122364   4.348   3.854  14.469  1.7772 -2.5612 -1.5846
 3576SOL    HW222365   4.448   3.935  14.543 -2.4820 -2.4351  0.2996
 3577SOL     OW22366   4.238   0.445   4.687  0.1093  0.1110  0.2266
 3577SOL    HW122367   4.254   0.351   4.701  0.3320  0.2919  1.1922
 3577SOL    HW222368   4.146   0.450   4.713  0.3283 -0.9430  1.2368
 3578SOL     OW22369   0.708   2.402   4.551  0.3907 -0.2021  0.4490
 3578SOL    HW122370   0.686   2.385   4.642 -1.2881  1.2927  0.3168
 3578SOL    HW222371   0.687   2.495   4.543 -1.8014 -0.8304 -1.4294
 3579SOL     OW22372   2.536   1.414  10.567 -0.1607  0.3626 -0.4475
 3579SOL    HW122373   2.578   1.474  10.629  0.9235 -0.6179 -0.2227
 3579SOL    HW222374   2.603   1.414  10.499 -1.1941  3.2066 -1.4541
 3580SOL     OW22375   4.696   4.542   9.185 -0.1017 -0.3156 -0.2544
 3580SOL    HW122376   4.619   4.584   9.145  0.0213 -1.4698 -1.6808
 3580SOL    HW222377   4.699   4.453   9.150  0.1859 -0.3505 -0.1344
 3581SOL     OW22378   2.316   4.359   7.612 -0.3100  0.2129 -0.1663
 3581SOL    HW122379   2.337   4.306   7.535 -0.5243 -1.6956  1.0893
 3581SOL    HW222380   2.324   4.447   7.577 -1.1817 -0.3220 -1.7190
 3582SOL     OW22381   3.561   4.044   7.625 -0.1958  0.4714 -0.3783
 3582SOL    HW122382   3.471   4.037   7.594 -0.0820 -2.0861 -0.1385
 3582SOL    HW222383   3.595   3.957   7.602 -0.7443 -0.0681  0.8514
 3583SOL     OW22384   0.999   2.322   5.967  0.4150  0.5536  0.4212
 3583SOL    HW122385   0.907   2.315   5.943  0.0447  0.8335  1.7686
 3583SOL    HW222386   1.029   2.400   5.920  1.5150  0.6412  1.2642
 3584SOL     OW22387   4.586   0.993   0.441  0.3063 -0.1273  0.2472
 3584SOL    HW122388   4.643   0.931   0.486  0.9751  0.8889  0.8136
 3584SOL    HW222389   4.528   1.029   0.507 -0.5403  0.1337 -0.6357
 3585SOL     OW22390   2.533   3.224   5.045  0.2205  0.9848  0.3140
 3585SOL    HW122391   2.591   3.183   4.981 -0.6649  0.3274 -0.0742
 3585SOL    HW222392   2.513   3.312   5.013 -1.3753  0.6950  0.4888
 3586SOL     OW22393   2.785   0.352   1.290  0.2739 -0.1850 -0.1418
 3586SOL    HW122394   2.698   0.387   1.273  0.2983 -1.5031 -2.9413
 3586SOL    HW222395   2.821   0.414   1.353  1.6501 -3.3677  2.2498
 3587SOL     OW22396   3.498   3.377   5.971 -0.0723  0.0183 -0.8068
 3587SOL    HW122397   3.507   3.472   5.973  0.9125 -0.1229  1.3198
 3587SOL    HW222398   3.460   3.368   6.059 -1.2408  1.9207 -1.1075
 3588SOL     OW22399   2.212   1.646   1.082 -0.1068  0.0645 -0.3119
 3588SOL    HW122400   2.236   1.588   1.010  1.0118 -1.8452  1.5562
 3588SOL    HW222401   2.216   1.726   1.030  0.3162  0.2803  0.0561
 3589SOL     OW22402   2.132   4.230   8.556 -0.2142  0.3161 -0.2993
 3589SOL    HW122403   2.209   4.174   8.546 -0.3609  0.0807 -0.0820
 3589SOL    HW222404   2.056   4.175   8.542 -0.3125  0.0043  1.3945
 3590SOL     OW22405   0.752   2.976  14.705  0.1112 -0.3051  0.6766
 3590SOL    HW122406   0.736   2.905  14.643  1.4268  0.5203 -0.6061
 3590SOL    HW222407   0.687   2.956  14.772 -1.5934 -0.5585 -1.0659
 3591SOL     OW22408   2.282   3.304  15.814  0.3978 -0.5758  0.4915
 3591SOL    HW122409   2.311   3.375  15.871 -3.3370  0.9131  0.5618
 3591SOL    HW222410   2.257   3.240  15.881 -0.0717  0.0682  0.9231
 3592SOL     OW22411   4.322   2.923  11.767  0.3705  0.5088  0.1993
 3592SOL    HW122412   4.267   3.001  11.758  0.1311  0.5659  2.2281
 3592SOL    HW222413   4.406   2.953  11.732 -0.0158  0.5054 -0.7452
 3593SOL     OW22414   4.269   1.385  12.678 -0.1953  0.6581 -0.4085
 3593SOL    HW122415   4.358   1.360  12.653  0.3568 -0.2092  2.3431
 3593SOL    HW222416   4.212   1.335  12.621 -0.3628  0.5621 -0.1546
 3594SOL     OW22417   4.493   3.113  15.077 -0.2709  0.0139  0.4156
 3594SOL    HW122418   4.583   3.139  15.056  0.0724 -0.4949  1.2788
 3594SOL    HW222419   4.450   3.094  14.993 -1.9115 -0.2736  1.3102
 3595SOL     OW22420   0.901   0.383   3.258 -0.3230  0.3815  0.2046
 3595SOL    HW122421   0.870   0.295   3.235  0.2055  0.2057  0.1714
 3595SOL    HW222422   0.995   0.367   3.256 -0.4959 -0.9001  2.5765
 3596SOL     OW22423   4.691   1.841  12.374 -0.0069 -0.0045  0.2242
 3596SOL    HW122424   4.603   1.876  12.390  0.2079  1.2825 -1.4466
 3596SOL    HW222425   4.683   1.745  12.368 -1.2728  0.0216  1.4677
 3597SOL     OW22426   4.065   3.178   6.168 -0.3634  0.2653 -0.0110
 3597SOL    HW122427   4.026   3.143   6.248  0.2811  0.0508  0.2177
 3597SOL    HW222428   4.002   3.246   6.146 -0.5596  1.1471  3.2930
 3598SOL     OW22429   1.741   1.242   2.557 -0.4670  0.2103  0.6557
 3598SOL    HW122430   1.742   1.333   2.529  1.7587  0.0048  0.0361
 3598SOL    HW222431   1.774   1.211   2.472  1.3044 -0.2162  1.4914
 3599SOL     OW22432   3.968   0.138   6.802 -0.4651 -0.0052 -0.4800
 3599SOL    HW122433   3.891   0.153   6.857  1.1905 -0.0693  1.8484
 3599SOL    HW222434   3.997   0.053   6.835 -0.8230  0.4604  1.0644
 3600SOL     OW22435   2.337   2.643   4.821  0.2547 -0.7923 -0.4140
 3600SOL    HW122436   2.426   2.649   4.857 -0.1945 -0.8707  0.6973
 3600SOL    HW222437   2.278   2.665   4.893  1.1194  1.4532 -0.3995
 3601SOL     OW22438   4.131   1.338   2.378  0.2759 -0.4796 -0.6170
 3601SOL    HW122439   4.088   1.254   2.363 -0.0745 -0.6457  1.3138
 3601SOL    HW222440   4.214   1.311   2.417  1.0687  0.6354 -1.5375
 3602SOL     OW22441   3.003   1.151   4.806 -0.0311  0.2024  0.0113
 3602SOL    HW122442   3.023   1.061   4.832  2.4276  0.9912  0.7718
 3602SOL    HW222443   2.908   1.137   4.801 -0.0796  0.7660 -0.6204
 3603SOL     OW22444   1.239   1.373   3.582  0.0155 -0.1336 -0.3313
 3603SOL    HW122445   1.263   1.436   3.650  0.0897  0.4449 -0.8877
 3603SOL    HW222446   1.247   1.298   3.641 -1.4461  0.4941  0.6592
 3604SOL     OW22447   1.428   0.644   1.877 -0.0806 -0.3662  0.4119
 3604SOL    HW122448   1.433   0.595   1.959 -2.5565 -0.7794  0.3102
 3604SOL    HW222449   1.338   0.676   1.871  0.3028  0.5287 -0.7557
 3605SOL     OW22450   1.695   3.384  14.348 -0.3358  0.3654 -0.4102
 3605SOL    HW122451   1.612   3.419  14.315 -0.4047 -0.1589 -0.7848
 3605SOL    HW222452   1.750   3.453  14.385 -0.5729 -0.1318  0.8716
 3606SOL     OW22453   1.094   0.340   3.054 -0.6463  0.6325 -0.3311
 3606SOL    HW122454   1.007   0.300   3.056 -0.7942  0.9988  0.3921
 3606SOL    HW222455   1.094   0.345   2.958  0.0022  0.3055 -0.3507
 3607SOL     OW22456   4.025   1.861   2.250  0.6662  0.0257 -0.0589
 3607SOL    HW122457   4.038   1.770   2.278  0.6623  1.1742  3.7081
 3607SOL    HW222458   4.107   1.900   2.221  0.6893  0.5099  0.6385
 3608SOL     OW22459   0.046   0.535   8.308 -0.3344 -0.2007 -0.1205
 3608SOL    HW122460   0.089   0.603   8.359 -1.9414  0.6908  0.0558
 3608SOL    HW222461   4.716   0.507   8.375 -0.1726  0.6288  0.3794
 3609SOL     OW22462   1.949   2.478  15.741  0.0060  0.1468 -0.7841
 3609SOL    HW122463   1.934   2.568  15.769  2.9995  1.1755 -2.5536
 3609SOL    HW222464   1.898   2.419  15.797  1.6074 -0.1388  0.3822
 3610SOL     OW22465   3.818   4.197   3.561  0.6949 -0.4259 -0.1578
 3610SOL    HW122466   3.837   4.163   3.649  0.7244  0.5732  0.2241
 3610SOL    HW222467   3.725   4.179   3.547  1.0799 -1.2850 -1.6078
 3611SOL     OW22468   1.820   1.494   2.463 -0.8648  0.5350 -0.5270
 3611SOL    HW122469   1.749   1.550   2.494 -1.4218 -0.8576  0.7390
 3611SOL    HW222470   1.846   1.554   2.393  2.9092 -1.3698 -0.7666
 3612SOL     OW22471   3.397   1.342   5.719  0.3218 -0.5283 -0.5880
 3612SOL    HW122472   3.360   1.308   5.637  0.1316 -0.4037 -0.5536
 3612SOL    HW222473   3.374   1.273   5.781  0.7968  0.3397  0.5368
 3613SOL     OW22474   1.310   3.902  17.067  0.0585  0.8442 -0.1727
 3613SOL    HW122475   1.354   3.864  17.144  0.4916  0.3289 -0.6738
 3613SOL    HW222476   1.317   3.993  17.095 -0.5984  0.3430  1.6553
 3614SOL     OW22477   1.335   1.885  14.468 -0.3557  0.3714  0.4328
 3614SOL    HW122478   1.424   1.858  14.489  0.1052  1.3264 -0.2873
 3614SOL    HW222479   1.305   1.889  14.559 -1.9996 -1.3694 -0.0416
 3615SOL     OW22480   4.115   2.111   6.350 -0.3720 -0.1703  0.2829
 3615SOL    HW122481   4.045   2.168   6.320  0.3799  1.2909  1.3163
 3615SOL    HW222482   4.188   2.167   6.323 -1.6323  1.6882  0.7517
 3616SOL     OW22483   1.413   0.414  16.481 -0.2456  0.6735 -0.1193
 3616SOL    HW122484   1.367   0.452  16.407 -1.8995  2.7977  2.0215
 3616SOL    HW222485   1.436   0.496  16.525 -2.7348  1.3403 -0.1115
 3617SOL     OW22486   0.371   4.550   0.318 -0.2969 -0.0243  0.1146
 3617SOL    HW122487   0.406   4.639   0.328 -0.5875  0.0783  0.2290
 3617SOL    HW222488   0.379   4.538   0.224 -1.9244 -0.8294  0.0779
 3618SOL     OW22489   2.530   2.337   5.078  0.1447  0.5330 -0.4170
 3618SOL    HW122490   2.439   2.364   5.091  0.3635  1.7317 -1.3964
 3618SOL    HW222491   2.525   2.279   5.002  1.2111  0.4108 -0.3964
 3619SOL     OW22492   4.195   0.187  17.095 -0.2539 -0.4356  0.0933
 3619SOL    HW122493   4.191   0.240  17.174 -1.3877  0.4533 -0.5572
 3619SOL    HW222494   4.285   0.156  17.097 -0.1353 -0.0801  0.0803
 3620SOL     OW22495   4.713   1.413   3.984  0.3991  0.2154 -0.3449
 3620SOL    HW122496   0.040   1.470   3.935  0.9026 -0.0811 -0.0807
 3620SOL    HW222497   0.006   1.332   3.941  0.1334  0.7324 -1.4898
 3621SOL     OW22498   0.964   3.236   1.764  0.1261  0.5156  0.0863
 3621SOL    HW122499   0.936   3.256   1.675 -3.3345  0.9209  1.2665
 3621SOL    HW222500   0.924   3.310   1.810 -0.4501  1.0698 -1.3052
 3622SOL     OW22501   4.133   1.234  12.510 -0.0862  0.2048 -0.0126
 3622SOL    HW122502   4.072   1.231  12.436  1.0953  5.2907 -1.2530
 3622SOL    HW222503   4.170   1.146  12.502 -2.8360 -1.1026  1.7242
 3623SOL     OW22504   1.056   4.108  15.306  0.1164  0.2349  0.3425
 3623SOL    HW122505   1.129   4.168  15.292  1.2657 -0.3655  3.8288
 3623SOL    HW222506   1.007   4.119  15.224  1.0561  1.0385 -0.1055
 3624SOL     OW22507   0.430   3.416  12.232 -0.1449  0.4276 -0.1253
 3624SOL    HW122508   0.415   3.326  12.204  1.0492 -0.0229  0.6785
 3624SOL    HW222509   0.345   3.455  12.212  0.0849  1.0661  0.1547
 3625SOL     OW22510   3.306   0.890   4.645 -0.2141  0.0321  0.7959
 3625SOL    HW122511   3.351   0.974   4.649  1.6167 -0.9845  1.5988
 3625SOL    HW222512   3.265   0.894   4.732 -0.0501 -2.1687  0.9634
 3626SOL     OW22513   0.413   3.874   8.939  0.0588 -0.0340 -0.2472
 3626SOL    HW122514   0.338   3.828   8.979 -0.1612 -0.1676 -0.8119
 3626SOL    HW222515   0.463   3.802   8.900 -1.1122 -0.8267 -0.2939
 3627SOL     OW22516   0.057   2.637   7.701 -0.9839  0.1581  0.6725
 3627SOL    HW122517   4.716   2.577   7.706 -1.4659  0.4323 -3.2670
 3627SOL    HW222518   0.110   2.614   7.777  1.1120  0.0800 -0.8100
 3628SOL     OW22519   4.725   2.056  14.588  0.0610  0.6736  0.9175
 3628SOL    HW122520   4.668   1.983  14.615  0.2035  1.0354  2.1608
 3628SOL    HW222521   4.670   2.127  14.554 -1.1927  0.1283  1.7919
 3629SOL     OW22522   1.979   3.358   3.354 -0.2427 -0.1913  0.7038
 3629SOL    HW122523   1.971   3.325   3.444 -2.9293 -0.3248  0.4018
 3629SOL    HW222524   1.892   3.391   3.335  0.9878  3.0195  0.7446
 3630SOL     OW22525   4.365   3.736   4.434 -0.3043 -0.4092  0.2162
 3630SOL    HW122526   4.366   3.679   4.511  2.3427 -0.1442  0.3532
 3630SOL    HW222527   4.381   3.818   4.482 -0.4351 -0.4766  0.3764
 3631SOL     OW22528   0.793   4.298   1.561 -0.2535  0.1517 -0.3491
 3631SOL    HW122529   0.860   4.266   1.621  0.6675 -1.2474 -2.1377
 3631SOL    HW222530   0.847   4.316   1.484  0.7688 -2.2960 -0.2131
 3632SOL     OW22531   4.001   0.334   1.419 -0.0188 -0.0112 -0.4117
 3632SOL    HW122532   4.048   0.326   1.336  2.0083  0.8753  0.6588
 3632SOL    HW222533   3.912   0.321   1.387 -0.4344 -2.2167  1.6461
 3633SOL     OW22534   4.388   3.199   7.905  0.3074  0.1293 -0.2348
 3633SOL    HW122535   4.457   3.209   7.971  1.0103 -0.0279 -0.9401
 3633SOL    HW222536   4.430   3.212   7.819  0.2738  0.6834 -0.1719
 3634SOL     OW22537   0.363   2.663   9.362 -0.3602  0.0353  0.1409
 3634SOL    HW122538   0.393   2.639   9.274  0.3236 -1.5188  0.7865
 3634SOL    HW222539   0.271   2.680   9.340 -1.2056 -0.6609  3.2364
 3635SOL     OW22540   3.225   4.654   7.927  0.2176 -0.6488 -0.0819
 3635SOL    HW122541   3.216   0.010   7.894 -1.7946 -1.7969 -2.6495
 3635SOL    HW222542   3.321   4.645   7.930  0.3231  0.0644 -1.5013
 3636SOL     OW22543   1.284   0.870   4.340  0.1195  0.2744  0.2285
 3636SOL    HW122544   1.235   0.935   4.290 -2.1817 -1.5535  0.1096
 3636SOL    HW222545   1.338   0.929   4.394  1.3998 -2.0211  1.4576
 3637SOL     OW22546   1.377   0.307   5.531 -0.1820 -0.1748  0.2563
 3637SOL    HW122547   1.425   0.322   5.449  0.3492  0.4864  0.6899
 3637SOL    HW222548   1.342   0.394   5.553 -0.0779 -0.0927  0.1017
 3638SOL     OW22549   1.931   4.230   1.801  0.3146 -0.4365 -0.2359
 3638SOL    HW122550   1.950   4.309   1.750  2.0592 -0.9996 -0.4754
 3638SOL    HW222551   1.972   4.247   1.886  2.3009  1.0311 -1.4896
 3639SOL     OW22552   3.695   2.052   9.184 -0.2968 -0.1585  0.0553
 3639SOL    HW122553   3.757   2.124   9.173  1.5467 -2.1226 -2.3041
 3639SOL    HW222554   3.658   2.044   9.096  2.1731  1.6907 -1.1498
 3640SOL     OW22555   0.846   0.562   4.465  0.1358  0.3662  0.2712
 3640SOL    HW122556   0.826   0.527   4.379  0.6347 -0.8717  0.6636
 3640SOL    HW222557   0.941   0.577   4.470  0.7248 -2.6177 -2.3152
 3641SOL     OW22558   1.171   4.116   3.497  0.0459  0.1109 -0.3678
 3641SOL    HW122559   1.262   4.116   3.527  0.1748  1.4548 -0.7647
 3641SOL    HW222560   1.162   4.206   3.466 -1.6817 -0.0892 -0.4524
 3642SOL     OW22561   2.738   3.377   0.672  0.4538  0.8917 -0.1549
 3642SOL    HW122562   2.700   3.374   0.585  1.1953 -0.6311 -0.4241
 3642SOL    HW222563   2.662   3.405   0.722 -0.3830 -0.9722 -0.3813
 3643SOL     OW22564   1.647   1.700   5.863  0.0339 -0.4781  0.2133
 3643SOL    HW122565   1.730   1.701   5.910 -0.8783  1.5824  1.7764
 3643SOL    HW222566   1.588   1.638   5.907 -1.0306 -1.2675 -2.3251
 3644SOL     OW22567   0.472   3.332   0.482 -0.7996 -0.5237  0.6057
 3644SOL    HW122568   0.450   3.242   0.505  0.9047 -1.3508 -0.9794
 3644SOL    HW222569   0.395   3.388   0.496 -0.1321  0.2706  1.1075
 3645SOL     OW22570   1.974   3.469   6.188  0.5266  0.0119 -0.0432
 3645SOL    HW122571   1.970   3.375   6.205  0.3982  0.0187 -0.0385
 3645SOL    HW222572   1.941   3.503   6.271 -2.0220 -0.7265 -0.7545
 3646SOL     OW22573   3.020   2.933   5.101  0.4456  0.0441  0.1807
 3646SOL    HW122574   2.939   2.906   5.056 -1.4062  1.0216  2.9245
 3646SOL    HW222575   3.040   2.870   5.170 -0.4828 -2.8576 -2.1745
 3647SOL     OW22576   0.325   3.904   3.887  0.3076  0.3717  0.4040
 3647SOL    HW122577   0.335   3.982   3.940 -0.0463  0.7588 -0.0920
 3647SOL    HW222578   0.393   3.850   3.927  0.1844 -0.5548 -0.6357
 3648SOL     OW22579   2.723   0.124   7.213  0.5923  0.1045  0.3788
 3648SOL    HW122580   2.718   0.110   7.308 -0.4132 -0.7638  0.2014
 3648SOL    HW222581   2.729   0.032   7.187 -0.0225  0.1820 -0.0529
 3649SOL     OW22582   0.910   4.052   4.119  0.5641  0.5108  0.3845
 3649SOL    HW122583   0.854   4.127   4.136  0.4850  1.1680 -2.7859
 3649SOL    HW222584   0.867   3.986   4.175 -1.4307  0.4349 -1.2212
 3650SOL     OW22585   1.887   3.406   7.674  0.6153 -0.2550 -0.0029
 3650SOL    HW122586   1.814   3.466   7.658  0.1091 -0.2331  2.4269
 3650SOL    HW222587   1.953   3.433   7.611 -0.0392  0.7869 -0.2409
 3651SOL     OW22588   2.769   3.914   3.557  0.1748  0.0359 -0.1211
 3651SOL    HW122589   2.747   3.835   3.508 -1.4223 -0.5973  1.6493
 3651SOL    HW222590   2.745   3.985   3.497  1.0518  0.1445 -0.3539
 3652SOL     OW22591   0.461   2.979   8.110 -0.0713  0.0838 -0.3082
 3652SOL    HW122592   0.369   2.960   8.092 -0.3010  1.9977 -1.2010
 3652SOL    HW222593   0.503   2.906   8.066  2.3751  0.1639  1.8769
 3653SOL     OW22594   2.849   0.926   6.044  0.0695  0.6436 -0.6290
 3653SOL    HW122595   2.837   0.873   5.966 -1.0261  0.0621 -0.0660
 3653SOL    HW222596   2.833   1.012   6.004  0.8312  1.0371 -0.0942
 3654SOL     OW22597   1.488   1.174   8.954  0.7288 -0.0534  0.4421
 3654SOL    HW122598   1.466   1.263   8.984 -0.8619  0.4280 -2.1030
 3654SOL    HW222599   1.583   1.174   8.964  0.8554 -0.3407 -0.7636
 3655SOL     OW22600   1.290   0.187  13.744 -0.9825  0.7330 -0.4518
 3655SOL    HW122601   1.221   0.124  13.722 -0.0170 -0.4083 -0.2268
 3655SOL    HW222602   1.247   0.271  13.729  0.5667  1.4027 -1.1645
 3656SOL     OW22603   4.141   4.383   5.006  0.9889  0.2340 -0.3425
 3656SOL    HW122604   4.118   4.444   5.075  0.9698 -0.8460  0.6055
 3656SOL    HW222605   4.063   4.342   4.968  1.1950  1.2842 -1.9134
 3657SOL     OW22606   2.498   0.677  12.579 -0.4095  0.2481 -0.2732
 3657SOL    HW122607   2.589   0.658  12.556 -1.0146 -1.3231 -1.3576
 3657SOL    HW222608   2.461   0.643  12.498  0.0831  1.6666 -1.0961
 3658SOL     OW22609   2.538   0.941   9.583 -0.3355 -0.2693  0.7130
 3658SOL    HW122610   2.552   1.032   9.558 -3.1549  0.5574  2.0646
 3658SOL    HW222611   2.464   0.955   9.642 -0.3353  1.3361  0.3190
 3659SOL     OW22612   1.785   0.034   7.908 -0.2504  0.2159 -0.3822
 3659SOL    HW122613   1.744   0.066   7.989 -0.9850 -0.4969 -0.4788
 3659SOL    HW222614   1.712   4.716   7.874 -0.5067  0.2585  0.0993
 3660SOL     OW22615   2.683   3.347   5.787 -0.0140 -0.0762  0.3353
 3660SOL    HW122616   2.687   3.301   5.870  1.6427 -0.8064 -0.1338
 3660SOL    HW222617   2.620   3.285   5.751  1.3153 -0.7575 -0.8454
 3661SOL     OW22618   1.981   2.357   4.556  0.0488  0.1324  0.1292
 3661SOL    HW122619   1.948   2.446   4.547 -0.6400 -0.1588 -0.2171
 3661SOL    HW222620   2.052   2.369   4.618 -1.1183  0.4252  1.4013
 3662SOL     OW22621   4.000   0.229   4.547 -0.6829 -0.0630 -0.2417
 3662SOL    HW122622   3.958   0.145   4.567 -0.2684  0.3270  2.2273
 3662SOL    HW222623   4.001   0.275   4.631 -1.0235 -0.6897  0.1106
 3663SOL     OW22624   2.502   2.438   2.850  0.1501  0.0151 -0.4904
 3663SOL    HW122625   2.584   2.479   2.820  1.3247 -0.4476  2.0939
 3663SOL    HW222626   2.472   2.517   2.894  2.0549  0.0405  0.7410
 3664SOL     OW22627   1.829   1.243   7.896 -0.3021 -0.7146 -0.1932
 3664SOL    HW122628   1.852   1.291   7.975 -0.6513  0.0830 -0.5822
 3664SOL    HW222629   1.871   1.297   7.829 -2.8287  1.1549 -0.2413
 3665SOL     OW22630   3.103   3.866   4.317  0.4859 -0.2145 -0.4410
 3665SOL    HW122631   3.088   3.882   4.410 -1.3184  0.0876 -0.7827
 3665SOL    HW222632   3.063   3.949   4.292  0.6016  0.1709  0.6320
 3666SOL     OW22633   2.834   1.813  17.306 -0.5998  0.4267  0.1784
 3666SOL    HW122634   2.868   1.825  17.394 -1.0726  2.2832  0.1197
 3666SOL    HW222635   2.898   1.766  17.253 -0.9949  0.6999 -0.5591
 3667SOL     OW22636   0.073   2.854   6.327  0.3276 -0.5524  0.1007
 3667SOL    HW122637   0.046   2.774   6.372  2.6610  0.0359  2.5155
 3667SOL    HW222638   0.071   2.835   6.233  1.8921  2.0721 -0.4633
 3668SOL     OW22639   1.799   2.507   0.230 -0.3835  0.0523  0.6285
 3668SOL    HW122640   1.893   2.521   0.243 -0.3990  0.3854  0.3857
 3668SOL    HW222641   1.811   2.445   0.158  0.6320  0.8806  0.0823
 3669SOL     OW22642   3.094   3.299   4.543  0.0026 -0.4302  0.1634
 3669SOL    HW122643   3.115   3.307   4.450  1.1604 -0.1290  0.4521
 3669SOL    HW222644   3.184   3.306   4.574  0.0115 -1.1003  0.2989
 3670SOL     OW22645   0.944   0.672   8.358 -0.2979 -0.3767  0.9871
 3670SOL    HW122646   1.001   0.610   8.312  0.3850 -0.3850  1.8443
 3670SOL    HW222647   0.884   0.607   8.393 -0.3802  0.3694  2.2156
 3671SOL     OW22648   0.627   3.971   7.720 -0.3469  0.1146  0.9868
 3671SOL    HW122649   0.707   4.011   7.754 -0.9017  2.8671 -0.9441
 3671SOL    HW222650   0.580   4.053   7.707  0.7415  0.7835  1.2491
 3672SOL     OW22651   1.089   4.065   7.214  0.7952 -0.3048 -0.3797
 3672SOL    HW122652   1.088   3.995   7.279 -0.0997 -0.9116 -1.0514
 3672SOL    HW222653   1.148   4.132   7.250  0.7820 -1.0504  1.0021
 3673SOL     OW22654   0.905   2.171   7.187 -0.2565  0.3683 -0.2160
 3673SOL    HW122655   0.815   2.144   7.205  0.5453 -2.4509 -0.3638
 3673SOL    HW222656   0.888   2.264   7.171  0.8253  0.6166  0.1327
 3674SOL     OW22657   2.395   3.812   3.465  0.2877 -0.1053  0.0886
 3674SOL    HW122658   2.380   3.784   3.375 -0.8120  2.4073 -0.5323
 3674SOL    HW222659   2.401   3.729   3.510 -2.7200  0.1886  1.0321
 3675SOL     OW22660   0.368   4.217  11.261 -0.2325 -0.3200 -0.7972
 3675SOL    HW122661   0.305   4.280  11.293  1.7942  0.7824  1.0158
 3675SOL    HW222662   0.334   4.204  11.172 -0.8722  0.2320 -0.6264
 3676SOL     OW22663   0.330   3.853  13.464  0.1351 -0.2004 -0.3503
 3676SOL    HW122664   0.270   3.877  13.534  0.8788 -1.9035  0.8655
 3676SOL    HW222665   0.385   3.930  13.475  1.2088 -1.1535  0.9726
 3677SOL     OW22666   0.482   2.221  14.529  0.3371  0.0469  0.0830
 3677SOL    HW122667   0.438   2.288  14.476  1.2768  0.4253 -0.2173
 3677SOL    HW222668   0.396   2.185  14.549  0.0511  0.5449 -0.2373
 3678SOL     OW22669   4.220   1.134   2.848  0.1498  0.2389  0.1430
 3678SOL    HW122670   4.178   1.127   2.762  0.3132  0.5475  0.0385
 3678SOL    HW222671   4.311   1.120   2.821  1.2388 -1.0009  4.3543
 3679SOL     OW22672   1.227   1.319  10.483 -0.3698 -0.5805  0.7662
 3679SOL    HW122673   1.148   1.348  10.528 -0.6216  0.1471 -0.1542
 3679SOL    HW222674   1.207   1.343  10.393  0.6834 -3.2148 -0.1644
 3680SOL     OW22675   0.096   3.383  14.160 -0.1304  0.7748 -0.5246
 3680SOL    HW122676   0.072   3.335  14.239 -1.5020  0.5885 -1.0412
 3680SOL    HW222677   0.138   3.314  14.109  1.1036  2.3821 -1.6561
 3681SOL     OW22678   4.111   0.062   8.543  0.1319 -0.0568  0.2233
 3681SOL    HW122679   4.149   0.042   8.629  0.5900 -1.0473 -0.2149
 3681SOL    HW222680   4.180   0.112   8.501 -2.2667  1.3277 -2.0872
 3682SOL     OW22681   3.143   3.583   7.383 -0.0176 -0.0777 -0.2445
 3682SOL    HW122682   3.232   3.571   7.415 -1.2716 -1.4491  2.7104
 3682SOL    HW222683   3.096   3.582   7.466 -1.2035  1.0550 -0.9086
 3683SOL     OW22684   0.871   2.565   8.869  0.0164  0.1702  0.2085
 3683SOL    HW122685   0.795   2.565   8.811 -1.1545  0.6420  1.7422
 3683SOL    HW222686   0.876   2.655   8.900 -1.7565  1.1816 -2.4440
 3684SOL     OW22687   4.509   1.516   2.017 -0.4099  0.5331  0.0466
 3684SOL    HW122688   4.466   1.594   2.053 -1.7857  0.0634 -0.5742
 3684SOL    HW222689   4.454   1.453   2.063  1.4047 -0.6243  0.6532
 3685SOL     OW22690   3.736   3.024   5.629  0.3805 -0.3031  0.0880
 3685SOL    HW122691   3.735   3.108   5.583 -0.3943  0.5390  1.6568
 3685SOL    HW222692   3.814   3.039   5.682 -0.6631 -0.4750  1.6812
 3686SOL     OW22693   2.992   3.629   3.495 -0.6561  0.5413 -0.0074
 3686SOL    HW122694   3.040   3.673   3.565 -1.3999 -1.4071  1.7025
 3686SOL    HW222695   2.900   3.626   3.521 -0.5134  1.6043  0.6257
 3687SOL     OW22696   4.686   0.810   4.075  0.6878  0.1814 -0.6852
 3687SOL    HW122697   4.677   0.901   4.103  1.1634  0.9434 -3.0568
 3687SOL    HW222698   4.614   0.765   4.121  1.5123 -1.9675 -1.5118
 3688SOL     OW22699   2.534   2.944   4.775  0.2056 -0.3047 -0.3588
 3688SOL    HW122700   2.577   2.880   4.718 -0.9081 -0.4921 -1.0082
 3688SOL    HW222701   2.603   3.002   4.805  0.2178 -0.0733 -0.8323
 3689SOL     OW22702   1.514   1.859   1.980  0.4693 -0.1246 -0.1235
 3689SOL    HW122703   1.548   1.776   1.946  3.1556  1.0329 -0.2178
 3689SOL    HW222704   1.602   1.896   1.987  0.1185  0.9140 -1.2795
 3690SOL     OW22705   0.691   3.601   5.595  0.1078  0.4460  0.3360
 3690SOL    HW122706   0.596   3.602   5.586  0.0860  1.7530  0.7679
 3690SOL    HW222707   0.705   3.604   5.689  0.4333 -0.5635  0.3152
 3691SOL     OW22708   1.325   0.514   2.119  0.5182  0.2011  0.1465
 3691SOL    HW122709   1.406   0.504   2.168  0.3239 -1.4052  0.1149
 3691SOL    HW222710   1.276   0.581   2.168 -1.7330  0.1326 -1.9729
 3692SOL     OW22711   4.379   4.495   7.299 -0.0189 -0.1409 -0.2099
 3692SOL    HW122712   4.329   4.422   7.262  1.9399 -2.3237  1.4410
 3692SOL    HW222713   4.398   4.539   7.217 -0.2608  0.7831  0.2346
 3693SOL     OW22714   1.139   1.256  11.928  0.5058  0.2642  0.4325
 3693SOL    HW122715   1.183   1.175  11.955 -0.8957 -0.4206  0.7047
 3693SOL    HW222716   1.207   1.294  11.873 -0.4330 -0.2089 -1.0713
 3694SOL     OW22717   3.884   1.662   9.710  0.0515  0.0168  0.6098
 3694SOL    HW122718   3.905   1.746   9.670  0.2679  0.0892  0.8762
 3694SOL    HW222719   3.798   1.682   9.749 -0.5851  0.2540 -0.9143
 3695SOL     OW22720   2.880   2.037   2.218 -0.0936 -0.1720 -0.0807
 3695SOL    HW122721   2.849   2.119   2.256 -0.3993 -0.1975 -0.2679
 3695SOL    HW222722   2.852   2.042   2.126  0.3552  2.1960 -0.0913
 3696SOL     OW22723   3.161   4.605   2.359  0.2604  0.1498 -0.4584
 3696SOL    HW122724   3.247   4.596   2.317 -0.8703 -4.0852 -1.9033
 3696SOL    HW222725   3.178   4.589   2.451  0.2812  1.2648 -0.2746
 3697SOL     OW22726   3.719   2.498   1.408 -0.9610 -0.4504  0.7045
 3697SOL    HW122727   3.688   2.504   1.498 -2.9392  1.1573 -0.0671
 3697SOL    HW222728   3.712   2.590   1.382 -1.1667 -0.5982  0.2209
 3698SOL     OW22729   1.065   1.000  11.606 -0.4011 -0.7343  0.1943
 3698SOL    HW122730   1.027   0.941  11.671  0.2677 -1.3871 -0.0077
 3698SOL    HW222731   1.029   0.963  11.526 -0.2240 -2.2572  0.8147
 3699SOL     OW22732   2.323   2.686   7.429 -0.5480  0.0609  0.2587
 3699SOL    HW122733   2.375   2.766   7.436  3.0030 -2.0610 -1.7576
 3699SOL    HW222734   2.241   2.728   7.455 -0.4681  0.0202  0.5727
 3700SOL     OW22735   0.706   3.208  10.138  0.1187  0.1373 -0.6880
 3700SOL    HW122736   0.683   3.295  10.171 -0.9329  0.2907 -1.8435
 3700SOL    HW222737   0.791   3.233  10.101  1.2325 -0.3176  1.5312
 3701SOL     OW22738   3.772   3.443   5.658 -0.2246  0.3294  0.4855
 3701SOL    HW122739   3.851   3.495   5.640 -0.3888  0.2025 -0.5719
 3701SOL    HW222740   3.777   3.370   5.597  0.8668  0.8014 -0.0020
 3702SOL     OW22741   1.947   3.380   9.372  0.3428  0.0546  0.4909
 3702SOL    HW122742   1.864   3.424   9.355  0.0571 -0.5247  0.3958
 3702SOL    HW222743   2.001   3.396   9.295 -0.2585 -0.8398 -0.1146
 3703SOL     OW22744   1.649   3.639   6.179  0.5290  0.2223 -0.1463
 3703SOL    HW122745   1.560   3.667   6.156 -0.2185 -0.4140  2.0446
 3703SOL    HW222746   1.656   3.567   6.116 -1.9215 -1.4852  1.5539
 3704SOL     OW22747   1.041   0.945   7.675 -0.1586 -0.0784 -0.6820
 3704SOL    HW122748   1.036   0.869   7.733  0.2958 -0.5740 -1.2874
 3704SOL    HW222749   0.968   0.928   7.615  0.1296  1.1396 -1.3582
 3705SOL     OW22750   0.160   3.783   8.169 -0.4416 -0.2156  0.1088
 3705SOL    HW122751   0.090   3.801   8.106 -0.7361  0.5244  0.6393
 3705SOL    HW222752   0.178   3.689   8.164  3.1890  0.4693  0.5438
 3706SOL     OW22753   3.024   4.226   6.435  0.1101  0.0368  0.1167
 3706SOL    HW122754   2.978   4.265   6.509 -0.8722 -0.7943 -0.0529
 3706SOL    HW222755   3.097   4.286   6.420  1.9534 -2.2287  0.1346
 3707SOL     OW22756   4.352   1.552   9.017  0.3186 -0.1361 -0.1876
 3707SOL    HW122757   4.428   1.494   9.013  0.2825 -0.1316 -1.0290
 3707SOL    HW222758   4.382   1.636   8.982 -1.4429  0.7044  0.3053
 3708SOL     OW22759   3.380   3.289   9.634  0.0580 -0.2573 -0.1996
 3708SOL    HW122760   3.358   3.322   9.721 -1.8325 -1.7063 -0.1326
 3708SOL    HW222761   3.290   3.281   9.603  0.2417  2.7657 -1.5364
 3709SOL     OW22762   1.068   2.483   6.850 -0.1499 -0.8297  0.3562
 3709SOL    HW122763   1.062   2.578   6.858  0.1830 -0.9280  1.6872
 3709SOL    HW222764   1.159   2.484   6.881 -0.3117  1.7728  0.7226
 3710SOL     OW22765   0.093   0.520  16.179  0.7958 -0.1620 -0.5151
 3710SOL    HW122766   0.156   0.582  16.214  1.9364  0.1758 -3.1337
 3710SOL    HW222767   0.041   0.571  16.117  0.6733  0.4224  0.0720
 3711SOL     OW22768   3.742   0.044  15.897  0.2177  0.2561  0.0091
 3711SOL    HW122769   3.675   0.068  15.832  1.4433 -0.8212 -1.6614
 3711SOL    HW222770   3.823   0.051  15.846  1.2563  0.0350  1.6332
 3712SOL     OW22771   2.844   3.010   7.989 -0.3096 -0.1113  0.1175
 3712SOL    HW122772   2.804   3.060   7.918 -0.2739 -0.0651  0.1305
 3712SOL    HW222773   2.919   3.066   8.008 -0.2562  0.4619 -1.7817
 3713SOL     OW22774   2.320   4.614   9.243 -0.6231  0.5657 -0.3310
 3713SOL    HW122775   2.380   4.541   9.259  0.7236  2.2574  2.3750
 3713SOL    HW222776   2.369   4.660   9.175  0.5589 -1.4502 -0.8292
 3714SOL     OW22777   4.553   2.447  12.542 -0.1161 -0.8464 -0.0732
 3714SOL    HW122778   4.574   2.540  12.557  0.6830 -1.1648  0.8488
 3714SOL    HW222779   4.468   2.443  12.499 -1.0339  2.0836  1.4154
 3715SOL     OW22780   1.948   4.195  13.968  0.1809 -0.4035  0.0063
 3715SOL    HW122781   2.008   4.256  13.925  0.0791  1.8811  3.1841
 3715SOL    HW222782   1.968   4.118  13.914  1.6157  1.8708 -2.7051
 3716SOL     OW22783   1.983   3.113   4.532 -1.0669  0.6099 -0.2011
 3716SOL    HW122784   1.916   3.045   4.534  1.0335 -1.5346 -1.8263
 3716SOL    HW222785   2.058   3.071   4.574 -0.8729 -1.2144 -2.3767
 3717SOL     OW22786   1.941   0.346   9.166  0.3795 -0.2590 -0.2884
 3717SOL    HW122787   1.945   0.305   9.252 -0.5682 -0.4245 -0.3265
 3717SOL    HW222788   2.025   0.391   9.176  0.9308 -1.0313 -1.4542
 3718SOL     OW22789   2.453   1.839   4.348  0.6985 -0.5540 -0.4435
 3718SOL    HW122790   2.389   1.866   4.282  0.7134  1.8000  0.4905
 3718SOL    HW222791   2.520   1.789   4.302  2.4540  2.1686 -0.8036
 3719SOL     OW22792   3.327   1.941   4.045 -0.6517  0.2638  0.4855
 3719SOL    HW122793   3.241   1.960   4.006  0.0984  1.6989 -0.4852
 3719SOL    HW222794   3.367   1.893   3.972  1.7630  0.9276  1.3800
 3720SOL     OW22795   3.316   1.369   2.030  0.8544  0.3359 -0.7796
 3720SOL    HW122796   3.291   1.305   1.962 -0.4550  0.2973 -0.2577
 3720SOL    HW222797   3.312   1.316   2.110  0.0912 -1.3688 -1.9279
 3721SOL     OW22798   0.597   0.345  11.150  0.4342  0.0619  0.4292
 3721SOL    HW122799   0.682   0.304  11.167  0.5933  0.7319  1.2716
 3721SOL    HW222800   0.537   0.271  11.143 -1.2825  1.6785 -1.9817
 3722SOL     OW22801   4.241   1.809   3.503  0.1307  0.2671 -0.7912
 3722SOL    HW122802   4.191   1.825   3.423  0.1731 -0.3699 -0.9439
 3722SOL    HW222803   4.175   1.839   3.565  1.7484  0.2926  0.9188
 3723SOL     OW22804   0.205   1.329   4.296  0.0586  0.5077  0.7126
 3723SOL    HW122805   0.119   1.332   4.255 -0.2938 -2.2664  1.2244
 3723SOL    HW222806   0.211   1.236   4.319 -1.1838  0.1949 -0.2566
 3724SOL     OW22807   1.534   0.824   7.176 -0.1344 -0.0321 -0.4931
 3724SOL    HW122808   1.504   0.735   7.190 -0.3071  0.1834  0.5063
 3724SOL    HW222809   1.546   0.856   7.265  3.2557  1.0709 -1.3207
 3725SOL     OW22810   3.436   2.408  16.589 -0.3082  0.4217 -0.2891
 3725SOL    HW122811   3.484   2.481  16.549  1.3118 -0.2643  0.4084
 3725SOL    HW222812   3.444   2.346  16.516  1.5088  2.0614 -1.4771
 3726SOL     OW22813   2.013   1.604   2.821 -0.3305 -0.7794  0.0735
 3726SOL    HW122814   1.949   1.637   2.884  1.9241  0.8225  1.5283
 3726SOL    HW222815   2.089   1.650   2.856  1.0868 -1.9069 -1.5460
 3727SOL     OW22816   4.584   3.307   6.657  0.0154  0.3850  0.2971
 3727SOL    HW122817   4.608   3.314   6.749  1.5059  0.0963 -0.0823
 3727SOL    HW222818   4.489   3.313   6.647  0.2245  2.9300 -0.1433
 3728SOL     OW22819   0.473   0.687   3.214 -0.5690  0.0028 -0.4378
 3728SOL    HW122820   0.501   0.692   3.306 -0.1809  2.3564 -0.6612
 3728SOL    HW222821   0.494   0.599   3.183 -0.6913 -1.3110  3.2177
 3729SOL     OW22822   4.520   1.394  15.449  0.2470  0.3816 -0.1330
 3729SOL    HW122823   4.508   1.308  15.408  2.4145  0.5337 -1.0860
 3729SOL    HW222824   4.454   1.391  15.519 -0.2062  1.4885 -0.5015
 3730SOL     OW22825   3.104   3.284   0.962  0.0023 -0.3092 -0.2053
 3730SOL    HW122826   3.031   3.342   0.983  1.0798  1.3641 -1.0443
 3730SOL    HW222827   3.095   3.289   0.867 -0.3664 -0.1090 -0.1608
 3731SOL     OW22828   1.628   1.224   5.045  0.0569  0.1409  0.5851
 3731SOL    HW122829   1.611   1.277   4.967  0.9116  1.6125  1.3801
 3731SOL    HW222830   1.544   1.209   5.086  0.7126 -1.5379  1.3111
 3732SOL     OW22831   4.643   1.835  16.643  0.0978 -0.9627 -0.5357
 3732SOL    HW122832   4.609   1.915  16.602  1.2671 -0.9495 -1.4711
 3732SOL    HW222833   4.585   1.769  16.606 -0.6795  0.1261 -1.2880
 3733SOL     OW22834   3.664   1.039  17.608 -0.3341  0.0530  0.5200
 3733SOL    HW122835   3.718   1.016  17.533  0.6961 -2.3346  2.0101
 3733SOL    HW222836   3.694   0.986  17.681 -1.6388 -1.4443 -0.0378
 3734SOL     OW22837   1.973   2.140   4.763  0.0490 -0.5328 -0.2904
 3734SOL    HW122838   1.895   2.085   4.753 -1.1852  0.9848  0.8515
 3734SOL    HW222839   1.976   2.194   4.684  0.3890  1.4384  1.0471
 3735SOL     OW22840   1.834   4.284  12.636 -0.0152  0.0898 -0.8737
 3735SOL    HW122841   1.749   4.317  12.665  0.1122  0.7090 -1.2021
 3735SOL    HW222842   1.883   4.274  12.718 -0.3279  0.8896 -0.5882
 3736SOL     OW22843   3.260   3.805   4.094  0.0307  0.2970 -0.4249
 3736SOL    HW122844   3.317   3.743   4.138  1.0920 -0.1552 -2.4493
 3736SOL    HW222845   3.231   3.858   4.168 -0.4675  0.9058 -1.0530
 3737SOL     OW22846   0.457   1.089   4.494 -0.3038  0.3173 -0.0646
 3737SOL    HW122847   0.386   1.141   4.532 -1.2300 -0.3638 -0.8583
 3737SOL    HW222848   0.520   1.089   4.566 -1.0210 -1.6855  0.5523
 3738SOL     OW22849   1.416   2.271  10.301 -0.1719  0.1309 -0.0336
 3738SOL    HW122850   1.511   2.279  10.296 -0.3308  0.5753 -2.6189
 3738SOL    HW222851   1.378   2.320  10.228  0.5211 -0.4319 -0.7778
 3739SOL     OW22852   3.936   2.332  15.198 -0.3500  0.0672  0.2313
 3739SOL    HW122853   4.015   2.352  15.248 -0.4680  2.6931 -0.6442
 3739SOL    HW222854   3.869   2.330  15.267  0.1368 -0.3312  0.6939
 3740SOL     OW22855   1.873   2.863   9.431 -0.1217 -0.3451 -0.1396
 3740SOL    HW122856   1.812   2.818   9.372  0.8308 -0.5074 -0.9968
 3740SOL    HW222857   1.836   2.850   9.518  1.8971 -1.0118  0.5955
 3741SOL     OW22858   4.438   0.081  17.052 -0.3245  0.1244 -0.6066
 3741SOL    HW122859   4.521   0.082  17.004  0.5656  0.2374  0.9540
 3741SOL    HW222860   4.423   4.720  17.046  0.0786 -0.0646  1.2383
 3742SOL     OW22861   2.464   3.967  17.206  0.1820 -0.4687 -0.2297
 3742SOL    HW122862   2.522   3.952  17.131  1.1848 -1.4224  0.7273
 3742SOL    HW222863   2.386   3.917  17.180 -1.5029  2.0338 -0.0169
 3743SOL     OW22864   0.637   2.401   9.577 -0.1853 -0.1937 -0.3538
 3743SOL    HW122865   0.610   2.492   9.590  1.9101  0.1796  1.4164
 3743SOL    HW222866   0.659   2.382   9.668  1.5969 -2.6170 -1.2857
 3744SOL     OW22867   3.421   0.597   4.155 -0.2906 -0.1356  0.4210
 3744SOL    HW122868   3.404   0.562   4.243 -2.2731  0.4484  0.2722
 3744SOL    HW222869   3.458   0.516   4.121  0.3235  0.0595  0.6220
 3745SOL     OW22870   3.129   2.177   3.033 -0.0055  0.3240  0.3185
 3745SOL    HW122871   3.081   2.244   3.083 -0.8437  0.3632 -0.5399
 3745SOL    HW222872   3.103   2.204   2.945  1.9038  0.3150 -0.2540
 3746SOL     OW22873   3.528   4.445  14.376 -0.4233  0.1253 -0.6968
 3746SOL    HW122874   3.467   4.515  14.401 -0.5184  0.4651 -1.8734
 3746SOL    HW222875   3.505   4.382  14.445 -2.4402  1.2315 -0.3648
 3747SOL     OW22876   2.392   1.161   2.032  0.8361  0.1944 -0.5637
 3747SOL    HW122877   2.310   1.144   1.985 -1.0883  0.1466  2.8091
 3747SOL    HW222878   2.450   1.171   1.956  1.0420  1.6408 -0.2192
 3748SOL     OW22879   2.741   2.494   5.179  0.1573 -0.0450 -0.2126
 3748SOL    HW122880   2.672   2.451   5.128  0.2676 -1.8398  1.1358
 3748SOL    HW222881   2.722   2.582   5.149 -2.0584 -0.4830 -0.1127
 3749SOL     OW22882   2.686   2.269   8.043 -0.0526  0.7327  0.2591
 3749SOL    HW122883   2.662   2.342   8.099 -0.6863  0.4458  0.3602
 3749SOL    HW222884   2.677   2.198   8.107 -0.6118  2.3266  1.9592
 3750SOL     OW22885   0.953   0.194  15.255  0.2235 -0.2734  0.4825
 3750SOL    HW122886   0.894   0.214  15.183  1.4944  2.9497  0.3542
 3750SOL    HW222887   1.042   0.207  15.224  0.3187 -0.7720  0.5409
 3751SOL     OW22888   4.277   2.671   5.684  0.2747 -0.2864 -0.3399
 3751SOL    HW122889   4.323   2.696   5.764  1.2524  0.2830 -1.0811
 3751SOL    HW222890   4.190   2.700   5.710  0.3739 -0.5339  0.2689
 3752SOL     OW22891   0.324   2.673   8.544  0.5994  0.1043  0.2707
 3752SOL    HW122892   0.270   2.600   8.512  0.2073  0.6064 -0.2045
 3752SOL    HW222893   0.364   2.707   8.464 -0.4689  0.3111 -0.1789
 3753SOL     OW22894   0.015   0.304   8.661  0.4479 -0.4843 -0.1914
 3753SOL    HW122895   0.011   0.215   8.625 -0.3634  0.6006 -2.8377
 3753SOL    HW222896   4.700   0.351   8.592  1.3958 -1.0054 -1.2152
 3754SOL     OW22897   0.007   3.967   4.057  0.0211 -0.5943  0.0536
 3754SOL    HW122898   0.068   3.955   4.130  0.6750 -2.7408 -0.8474
 3754SOL    HW222899   4.666   3.910   4.079  0.8253 -1.4676  0.4965
 3755SOL     OW22900   2.692   0.788   6.865 -0.2187 -0.1422  0.3847
 3755SOL    HW122901   2.690   0.695   6.888 -1.2418 -0.4861 -1.0784
 3755SOL    HW222902   2.736   0.835   6.936  1.4457 -1.4790  0.2225
 3756SOL     OW22903   4.604   2.064   9.373  0.2762 -0.3643  0.1810
 3756SOL    HW122904   4.551   2.072   9.453  1.9298  2.2498  0.9943
 3756SOL    HW222905   4.589   1.973   9.347 -0.8066 -0.5992  1.6472
 3757SOL     OW22906   1.461   2.977   0.713  0.2836 -0.0766  0.0958
 3757SOL    HW122907   1.403   2.911   0.676  0.2539 -1.3382  2.3928
 3757SOL    HW222908   1.548   2.952   0.682 -0.3394  1.3731 -2.8527
 3758SOL     OW22909   3.476   3.493   3.488  0.8421  0.3120  0.2487
 3758SOL    HW122910   3.482   3.470   3.581  1.4457 -2.2336 -0.4383
 3758SOL    HW222911   3.459   3.587   3.478 -2.5018 -0.2374  0.7663
 3759SOL     OW22912   2.407   3.270   4.644 -0.4010  0.5504 -0.2277
 3759SOL    HW122913   2.491   3.313   4.633 -0.8250  2.0274  2.2366
 3759SOL    HW222914   2.354   3.337   4.688  0.2539  0.0584  1.3055
 3760SOL     OW22915   3.004   4.274  15.257  0.2503  0.6116 -0.5523
 3760SOL    HW122916   3.042   4.269  15.344 -0.8979 -0.7406 -0.1198
 3760SOL    HW222917   2.949   4.350  15.272  1.6037  1.1729  1.5936
 3761SOL     OW22918   1.983   2.712   6.472  0.4644 -0.1846 -0.4927
 3761SOL    HW122919   1.897   2.671   6.480  1.5582 -2.5847 -0.9800
 3761SOL    HW222920   2.026   2.671   6.547  2.3027  2.0714 -0.3084
 3762SOL     OW22921   1.706   1.982  10.505 -0.2223  0.0363 -0.8516
 3762SOL    HW122922   1.736   2.026  10.426  2.5055  0.2303  0.2982
 3762SOL    HW222923   1.626   2.034  10.517  0.0984  0.4424 -0.4948
 3763SOL     OW22924   3.523   2.903  12.569  0.4894 -0.1121  0.1084
 3763SOL    HW122925   3.536   2.900  12.474 -0.4512  1.9320 -0.0742
 3763SOL    HW222926   3.483   2.987  12.587  1.3287  0.6626 -1.6099
 3764SOL     OW22927   2.778   1.727  15.785 -0.1057  0.4734  0.4442
 3764SOL    HW122928   2.763   1.643  15.829 -0.6421  1.2189  1.6608
 3764SOL    HW222929   2.744   1.787  15.850  1.1078  3.0569 -1.3075
 3765SOL     OW22930   1.778   3.675   8.802 -0.3827 -0.2406 -0.1246
 3765SOL    HW122931   1.788   3.770   8.803  1.1538 -0.3963 -1.8769
 3765SOL    HW222932   1.715   3.669   8.873 -1.5719  2.3116 -0.9630
 3766SOL     OW22933   2.241   3.254   6.455  0.6241  0.2119 -0.0570
 3766SOL    HW122934   2.158   3.272   6.411  1.1179  1.4480 -0.4807
 3766SOL    HW222935   2.205   3.200   6.525 -0.1933  0.6692 -0.1231
 3767SOL     OW22936   1.867   0.572   7.588 -0.4271  0.2888  0.4864
 3767SOL    HW122937   1.815   0.612   7.658 -2.0086  0.0002 -0.5248
 3767SOL    HW222938   1.893   0.489   7.629  0.5669  0.3453 -0.0354
 3768SOL     OW22939   3.145   2.738  10.440 -0.3038 -0.2564 -0.2563
 3768SOL    HW122940   3.155   2.688  10.521 -0.7261  0.5597  0.2912
 3768SOL    HW222941   3.237   2.748  10.419 -0.0238 -0.5213  0.8469
 3769SOL     OW22942   1.249   0.891   3.137 -0.0952 -0.6394  0.5633
 3769SOL    HW122943   1.298   0.971   3.156 -0.9240 -0.2693  1.1934
 3769SOL    HW222944   1.238   0.905   3.043  0.2623 -1.2758  0.4287
 3770SOL     OW22945   3.476   1.152  17.105 -0.1740  0.0903  0.0230
 3770SOL    HW122946   3.443   1.241  17.092 -0.3499 -0.0043 -0.1841
 3770SOL    HW222947   3.400   1.099  17.081 -1.1178  1.1503  0.6556
 3771SOL     OW22948   1.645   0.189   8.109 -0.1228 -0.1878 -0.4612
 3771SOL    HW122949   1.707   0.196   8.182 -0.4791 -1.0766 -0.0734
 3771SOL    HW222950   1.563   0.218   8.148 -1.9974 -2.9722 -2.3392
 3772SOL     OW22951   0.259   2.447   8.338  0.0398 -0.0406 -0.2511
 3772SOL    HW122952   0.250   2.396   8.419 -1.0604 -0.1898 -0.4588
 3772SOL    HW222953   0.292   2.378   8.280  0.1563 -0.8130  0.7339
 3773SOL     OW22954   1.812   3.983  11.805  0.6000 -0.4885  0.2306
 3773SOL    HW122955   1.775   3.933  11.732 -1.2005 -1.3330  1.7024
 3773SOL    HW222956   1.743   3.966  11.870  0.0201 -3.1033 -1.0673
 3774SOL     OW22957   0.155   3.448   2.019  0.5309 -0.3974  0.7513
 3774SOL    HW122958   0.080   3.390   2.035  2.0203 -2.7042 -0.6840
 3774SOL    HW222959   0.131   3.484   1.934  0.6090 -0.9179  0.5129
 3775SOL     OW22960   0.635   1.612   4.940  0.4039 -0.0352 -0.3957
 3775SOL    HW122961   0.712   1.664   4.963 -0.4372  1.0804 -0.1033
 3775SOL    HW222962   0.669   1.523   4.951 -3.3705 -1.0078  3.2500
 3776SOL     OW22963   4.582   2.168  10.438 -0.2978 -0.1463 -0.1896
 3776SOL    HW122964   4.658   2.111  10.428 -1.0049 -1.0931 -0.1550
 3776SOL    HW222965   4.561   2.149  10.530 -1.2799 -2.1337 -0.8386
 3777SOL     OW22966   2.707   3.831   1.541 -0.3270 -0.0604 -0.5684
 3777SOL    HW122967   2.622   3.871   1.558 -1.1571 -1.7680 -0.6944
 3777SOL    HW222968   2.735   3.883   1.466  1.2887 -1.1087 -0.6891
 3778SOL     OW22969   2.829   1.013   9.429  0.0188  0.2891 -0.4595
 3778SOL    HW122970   2.737   1.005   9.454 -0.4276  0.7890 -1.9643
 3778SOL    HW222971   2.864   0.932   9.466 -1.2880 -0.4297 -0.8013
 3779SOL     OW22972   2.646   2.299   6.349 -0.1487  0.0469 -0.1066
 3779SOL    HW122973   2.553   2.276   6.355  0.3761 -1.2905  2.7111
 3779SOL    HW222974   2.679   2.246   6.276  0.3779  0.5853 -0.2554
 3780SOL     OW22975   0.657   4.504  15.603  0.0569 -0.3041 -0.0911
 3780SOL    HW122976   0.661   4.568  15.532  0.7384  0.7333  0.8723
 3780SOL    HW222977   0.623   4.430  15.553  1.6037 -0.3605 -1.0540
 3781SOL     OW22978   1.816   0.326   2.490 -0.1629 -0.2604 -0.8024
 3781SOL    HW122979   1.821   0.291   2.579  0.0244 -2.2541 -1.6073
 3781SOL    HW222980   1.750   0.395   2.499  0.8287  0.5741 -0.0811
 3782SOL     OW22981   3.595   3.269   0.190  0.2010  0.4475  0.2393
 3782SOL    HW122982   3.686   3.284   0.215  0.3447 -0.7679  0.4279
 3782SOL    HW222983   3.577   3.344   0.133  0.9406  0.4039 -0.0454
 3783SOL     OW22984   3.723   4.344   7.015 -0.4047  0.2625 -0.6905
 3783SOL    HW122985   3.736   4.303   7.100 -1.4971  0.1246 -0.5980
 3783SOL    HW222986   3.674   4.271   6.978  1.4907 -0.9416 -0.8345
 3784SOL     OW22987   2.396   1.358   5.130 -0.2098  0.4847 -0.0792
 3784SOL    HW122988   2.402   1.438   5.078 -0.3820  0.7061  0.2417
 3784SOL    HW222989   2.308   1.322   5.125 -0.7543  1.8065 -0.0165
 3785SOL     OW22990   3.615   2.312   3.376 -0.1098  0.0537 -0.3047
 3785SOL    HW122991   3.696   2.308   3.324 -0.0792 -1.3372 -0.1605
 3785SOL    HW222992   3.594   2.405   3.376 -3.0510 -0.6280 -0.6136
 3786SOL     OW22993   4.686   3.190   2.992 -0.2586  0.1186 -0.4543
 3786SOL    HW122994   4.733   3.250   3.050 -0.3905  0.5210 -0.7641
 3786SOL    HW222995   0.005   3.110   2.986  1.7045  1.2387  1.3700
 3787SOL     OW22996   4.573   1.269   2.613  0.1735  0.1597  0.0995
 3787SOL    HW122997   4.500   1.330   2.604  1.7798  2.1425  0.5236
 3787SOL    HW222998   4.591   1.249   2.521 -3.0852  0.4724 -0.5883
 3788SOL     OW22999   3.438   2.773   3.698 -0.2382  0.5241 -0.0583
 3788SOL    HW123000   3.426   2.859   3.658 -0.8917  0.2297 -0.4859
 3788SOL    HW223001   3.505   2.800   3.762 -0.6414 -1.8577  1.3457
 3789SOL     OW23002   1.994   3.495  17.658  0.0642  0.2454  0.2001
 3789SOL    HW123003   1.968   3.428  17.594 -1.2677  0.1834  0.8042
 3789SOL    HW223004   1.955   3.456   0.005  1.1606 -1.4409 -0.0769
 3790SOL     OW23005   3.366   4.014   6.492  0.3104 -0.2904  1.1104
 3790SOL    HW123006   3.317   4.046   6.567 -0.4640  2.3475 -0.5428
 3790SOL    HW223007   3.392   4.098   6.454  1.4775  0.5040  3.6757
 3791SOL     OW23008   3.955   2.757   9.734 -0.2699  0.5363 -0.4675
 3791SOL    HW123009   4.006   2.837   9.727 -0.8050  0.8170 -1.1412
 3791SOL    HW223010   3.873   2.785   9.695 -0.2117  1.8599  0.3920
 3792SOL     OW23011   0.819   0.104   9.215 -0.5231  0.8705 -0.1507
 3792SOL    HW123012   0.828   0.051   9.136  2.1888 -0.8079  1.2653
 3792SOL    HW223013   0.881   0.174   9.198 -0.0513 -0.1682 -2.6781
 3793SOL     OW23014   4.256   2.732   7.530  0.1109  0.0518 -0.0881
 3793SOL    HW123015   4.312   2.713   7.455  0.2193 -1.2395  0.3101
 3793SOL    HW223016   4.325   2.754   7.593 -0.9363  0.7618  0.8011
 3794SOL     OW23017   3.135   4.432  11.101 -0.1927 -0.1611 -0.9492
 3794SOL    HW123018   3.045   4.448  11.131 -0.4193 -1.7529 -0.7789
 3794SOL    HW223019   3.171   4.380  11.173  1.7820 -0.2519 -2.0083
 3795SOL     OW23020   3.287   1.723  14.910  0.4096 -0.1702  0.2653
 3795SOL    HW123021   3.227   1.654  14.880 -1.5205  1.4665  0.4016
 3795SOL    HW223022   3.237   1.753  14.985 -0.4819 -1.5671  0.2419
 3796SOL     OW23023   1.410   4.581   9.628  0.7421  0.1250  0.2826
 3796SOL    HW123024   1.441   4.517   9.564  1.2387 -0.9223  1.5987
 3796SOL    HW223025   1.327   4.604   9.586  0.3931  1.9369  1.9670
 3797SOL     OW23026   2.735   4.624   4.164 -0.5295  0.0295 -0.3292
 3797SOL    HW123027   2.681   4.550   4.137 -0.0684  0.1784 -1.6364
 3797SOL    HW223028   2.677   4.700   4.153 -1.8876 -0.9726 -0.1062
 3798SOL     OW23029   0.974   1.931  16.215  0.0137 -0.1565 -0.1571
 3798SOL    HW123030   1.057   1.928  16.166 -0.7908  1.7172 -1.6680
 3798SOL    HW223031   0.941   2.017  16.189 -1.6690 -0.5830  0.6020
 3799SOL     OW23032   2.080   4.690  11.643  0.1498  0.1764  0.1942
 3799SOL    HW123033   1.986   4.676  11.633  0.2977 -1.1161  0.7044
 3799SOL    HW223034   2.107   4.610  11.688  2.3842  1.8030  1.7586
 3800SOL     OW23035   2.962   0.039   4.750  0.6752 -0.2586  0.0538
 3800SOL    HW123036   2.940   0.009   4.662  0.7910  1.7062 -0.6404
 3800SOL    HW223037   2.946   4.689   4.795 -1.7027  0.7154  1.0368
 3801SOL     OW23038   1.245   3.398   9.630  0.4346 -0.5346 -0.9168
 3801SOL    HW123039   1.267   3.460   9.700 -0.8567 -0.6991 -0.3696
 3801SOL    HW223040   1.287   3.318   9.661  1.8417  0.9481  0.9527
 3802SOL     OW23041   1.470   4.158   5.453  0.2735 -0.1274  0.5667
 3802SOL    HW123042   1.519   4.195   5.379 -1.0803  1.6331  0.5544
 3802SOL    HW223043   1.539   4.140   5.516  0.6607  0.9155  0.4525
 3803SOL     OW23044   3.140   4.331   3.885 -0.6896  0.1378 -0.3259
 3803SOL    HW123045   3.156   4.257   3.944  1.6268  1.5897  0.8799
 3803SOL    HW223046   3.205   4.311   3.819  0.5231  3.4126 -0.1470
 3804SOL     OW23047   4.412   0.804   5.352  0.4025 -0.3636 -0.5341
 3804SOL    HW123048   4.393   0.873   5.417  1.9203 -2.0701  1.7227
 3804SOL    HW223049   4.324   0.767   5.344  0.2710 -0.4536  1.1500
 3805SOL     OW23050   2.013   0.918   3.496 -0.2869 -0.3396  0.1433
 3805SOL    HW123051   1.964   0.836   3.493 -0.5801 -0.2021  1.3411
 3805SOL    HW223052   2.081   0.892   3.433  0.0645  1.8029 -0.3443
 3806SOL     OW23053   2.070   3.033  10.893  0.1330 -0.5878  0.1241
 3806SOL    HW123054   2.036   3.087  10.964  1.4362 -1.7836  1.6520
 3806SOL    HW223055   1.988   3.001  10.857 -1.0525  0.2275  2.1533
 3807SOL     OW23056   0.852   1.844   2.883 -0.0106  0.8204  0.3575
 3807SOL    HW123057   0.918   1.910   2.863  1.0442 -0.3465  0.0199
 3807SOL    HW223058   0.908   1.789   2.938  0.8113 -1.1274 -2.4496
 3808SOL     OW23059   0.644   2.637   9.243  0.1094 -0.2244  0.0527
 3808SOL    HW123060   0.619   2.726   9.270  2.6667 -0.1137  2.0287
 3808SOL    HW223061   0.737   2.638   9.263 -0.1708  0.4764  1.3217
 3809SOL     OW23062   2.392   2.564  15.439  0.2186  0.3272  0.1702
 3809SOL    HW123063   2.383   2.504  15.513 -0.3627  2.2004  1.6444
 3809SOL    HW223064   2.440   2.513  15.374  0.2051 -2.6145  2.4706
 3810SOL     OW23065   1.093   3.292   0.919 -0.3298  0.1209  0.2427
 3810SOL    HW123066   1.157   3.356   0.887  1.4030 -1.3903  0.7217
 3810SOL    HW223067   1.143   3.244   0.985 -0.3577 -1.1999 -0.7064
 3811SOL     OW23068   0.685   4.436  14.970 -0.3037  0.6164  0.2033
 3811SOL    HW123069   0.719   4.474  15.051  0.1466  0.2857  0.1661
 3811SOL    HW223070   0.759   4.452  14.911 -0.8397  0.7775 -0.4199
 3812SOL     OW23071   3.475   0.731  14.894 -0.2601  0.1079  0.4939
 3812SOL    HW123072   3.446   0.742  14.984 -2.7042 -1.7041 -0.0877
 3812SOL    HW223073   3.394   0.744  14.844 -0.0654 -0.9839 -0.1103
 3813SOL     OW23074   0.206   4.376  17.592 -0.0924 -0.5235 -0.2234
 3813SOL    HW123075   0.219   4.466  17.622 -0.8237 -0.1616 -0.9738
 3813SOL    HW223076   0.278   4.328  17.631 -0.9078  0.0605  2.0074
 3814SOL     OW23077   2.892   2.302   5.414  0.4662  0.1702  0.2435
 3814SOL    HW123078   2.906   2.395   5.396  2.9037 -0.4686 -1.2492
 3814SOL    HW223079   2.864   2.263   5.331  1.2581  0.7207 -0.2850
 3815SOL     OW23080   0.691   1.337   4.064  0.5234  0.6981 -0.8352
 3815SOL    HW123081   0.740   1.343   4.146 -1.3309 -0.5101  0.3563
 3815SOL    HW223082   0.606   1.374   4.088  0.0009  0.2312 -1.9552
 3816SOL     OW23083   4.252   4.350   1.622 -0.2856  0.1695  0.2275
 3816SOL    HW123084   4.327   4.410   1.621 -0.3040  0.1981  0.4239
 3816SOL    HW223085   4.230   4.376   1.712 -2.5459 -1.6847  0.2046
 3817SOL     OW23086   2.381   4.684   0.997  0.2948  0.6104  0.2504
 3817SOL    HW123087   2.474   4.689   1.016  0.7604  1.8773 -2.2984
 3817SOL    HW223088   2.377   4.615   0.930 -0.0987  0.5373  0.3450
 3818SOL     OW23089   3.118   3.652   3.838 -0.9143 -0.1350  0.1269
 3818SOL    HW123090   3.061   3.696   3.900 -0.3526  3.1285 -1.6529
 3818SOL    HW223091   3.068   3.571   3.835 -1.3528  0.1367  0.1199
 3819SOL     OW23092   2.170   2.278   0.374  0.1095  0.5484  0.3606
 3819SOL    HW123093   2.229   2.226   0.320  2.7055  0.1344  3.5763
 3819SOL    HW223094   2.224   2.267   0.453  0.5860 -0.9470 -0.1748
 3820SOL     OW23095   2.564   1.577   3.306 -0.2336 -0.3864  0.5578
 3820SOL    HW123096   2.522   1.652   3.349 -1.6564 -0.4873 -0.6318
 3820SOL    HW223097   2.630   1.616   3.248 -2.3409  0.0513 -1.5730
 3821SOL     OW23098   0.943   1.929  10.835  0.5594  0.3867 -0.1422
 3821SOL    HW123099   1.032   1.933  10.801  0.9945 -0.9552  0.8572
 3821SOL    HW223100   0.931   1.837  10.859 -0.0524  0.2096 -1.1063
 3822SOL     OW23101   3.821   2.004   2.128  0.5223  0.1276 -0.3984
 3822SOL    HW123102   3.909   1.972   2.147  1.0553  1.6698 -0.2396
 3822SOL    HW223103   3.784   1.951   2.198  0.9784 -0.4847 -0.6238
 3823SOL     OW23104   0.254   3.621   6.571 -0.3867  0.1159 -0.5803
 3823SOL    HW123105   0.209   3.603   6.653  1.4024  0.2590  0.4190
 3823SOL    HW223106   0.206   3.701   6.547 -0.8609  0.1447  0.4775
 3824SOL     OW23107   2.818   0.938   7.481 -0.4069 -0.1295 -0.3831
 3824SOL    HW123108   2.798   0.872   7.547  2.2884  1.2353  1.7903
 3824SOL    HW223109   2.842   1.017   7.529 -1.2021 -0.3182  0.3242
 3825SOL     OW23110   0.397   1.420   0.535 -0.3903 -0.2361 -0.8549
 3825SOL    HW123111   0.454   1.458   0.603  1.1851 -0.0528 -2.2741
 3825SOL    HW223112   0.310   1.454   0.555 -0.4906 -0.5134 -0.8269
 3826SOL     OW23113   1.812   4.579   1.655 -0.0965 -0.8163  0.1701
 3826SOL    HW123114   1.772   4.570   1.569  0.1384  0.4036 -0.0709
 3826SOL    HW223115   1.747   4.621   1.711 -2.0259 -2.8585 -0.5469
 3827SOL     OW23116   2.373   1.389   3.481  0.0150  0.1296 -0.1917
 3827SOL    HW123117   2.383   1.365   3.389  0.2026  0.8787 -0.3641
 3827SOL    HW223118   2.453   1.356   3.523  1.2679  0.5487 -2.2330
 3828SOL     OW23119   4.592   2.829   6.765 -0.0843 -0.2653 -0.1527
 3828SOL    HW123120   4.542   2.903   6.731 -2.9670  0.1295  4.9721
 3828SOL    HW223121   4.683   2.849   6.744  0.8355 -0.4681  3.7508
 3829SOL     OW23122   3.403   0.238   6.170  0.6804 -0.0369 -0.2040
 3829SOL    HW123123   3.344   0.281   6.108  2.1285  0.2300 -1.3847
 3829SOL    HW223124   3.476   0.196   6.126  1.6883  0.2692  1.1676
 3830SOL     OW23125   2.511   2.128  17.138  0.7729 -0.5589 -0.4887
 3830SOL    HW123126   2.422   2.163  17.144  0.1926 -2.0816 -0.2873
 3830SOL    HW223127   2.542   2.134  17.048  1.7105  0.5129 -0.0951
 3831SOL     OW23128   0.605   3.752   3.165  0.2776 -0.1747  0.0271
 3831SOL    HW123129   0.570   3.839   3.183  0.6686  0.8008 -3.8211
 3831SOL    HW223130   0.666   3.773   3.094  0.0213 -0.1301 -0.1791
 3832SOL     OW23131   3.576   2.641   5.676  0.0693  0.2206 -0.2269
 3832SOL    HW123132   3.669   2.658   5.694  0.0639 -0.8030  0.7284
 3832SOL    HW223133   3.560   2.554   5.710  0.6290  0.5115  0.7927
 3833SOL     OW23134   3.922   3.933   5.690  0.5698  0.3857  0.0089
 3833SOL    HW123135   3.946   4.024   5.677  1.4793  0.2256  0.5736
 3833SOL    HW223136   3.898   3.914   5.599  0.6968  0.5447 -0.0585
 3834SOL     OW23137   2.320   0.109  12.350 -0.4584  0.1924  0.3686
 3834SOL    HW123138   2.267   0.077  12.276 -1.1496  2.1700 -0.0074
 3834SOL    HW223139   2.389   0.164  12.314 -1.3009  2.3994  2.1495
 3835SOL     OW23140   3.139   1.242   7.382 -0.2890  0.2304  0.0517
 3835SOL    HW123141   3.114   1.154   7.411  0.5392  0.4242  1.3592
 3835SOL    HW223142   3.214   1.257   7.439  0.3517  0.5902 -0.8729
 3836SOL     OW23143   2.492   0.118   8.654 -0.5227 -0.3173  0.1759
 3836SOL    HW123144   2.527   0.122   8.743  1.2206 -3.1323 -0.4094
 3836SOL    HW223145   2.397   0.107   8.662 -0.7391  1.8136  0.6198
 3837SOL     OW23146   1.077   3.309   2.745  0.0578 -0.7095 -0.1031
 3837SOL    HW123147   0.988   3.280   2.724  0.5567 -0.5541 -2.3585
 3837SOL    HW223148   1.134   3.245   2.702 -1.0306  0.0251 -2.5908
 3838SOL     OW23149   1.553   2.888   9.244 -0.2172  0.7887 -0.0213
 3838SOL    HW123150   1.636   2.856   9.209  0.2142  1.1716  0.6491
 3838SOL    HW223151   1.566   2.981   9.264  1.9554  0.3206  0.8353
 3839SOL     OW23152   3.001   3.979   5.354 -0.4803  0.2102 -0.1558
 3839SOL    HW123153   2.916   3.954   5.319  0.6804  1.7591 -4.1383
 3839SOL    HW223154   3.060   3.927   5.300  0.8292  2.3034 -0.7398
 3840SOL     OW23155   2.345   2.277   0.845 -0.0535 -0.3290 -0.5633
 3840SOL    HW123156   2.427   2.232   0.866  1.0252  1.7186 -0.4421
 3840SOL    HW223157   2.286   2.249   0.915 -1.3363 -0.3427 -1.6509
 3841SOL     OW23158   0.467   4.598   9.039  0.4732 -0.2623  0.3241
 3841SOL    HW123159   0.481   4.566   9.129 -0.1316 -0.9006  0.1896
 3841SOL    HW223160   0.377   4.630   9.041  0.5535  0.0522 -1.6978
 3842SOL     OW23161   0.239   3.535   8.175  0.1446 -0.0167 -0.2758
 3842SOL    HW123162   0.317   3.532   8.231  0.6494 -1.2925 -1.0167
 3842SOL    HW223163   0.250   3.448   8.135 -0.9864  0.1171 -0.8793
 3843SOL     OW23164   0.679   4.254  11.984  0.5748  0.6828  0.3067
 3843SOL    HW123165   0.665   4.197  12.059  1.0037  1.4161  0.9506
 3843SOL    HW223166   0.774   4.255  11.976  0.6019 -0.5144  0.5337
 3844SOL     OW23167   0.514   1.595   0.998  0.0176  0.6850  0.5268
 3844SOL    HW123168   0.433   1.554   1.027 -0.2357  0.5700 -0.3203
 3844SOL    HW223169   0.534   1.652   1.072  0.0948  0.3148  0.7861
 3845SOL     OW23170   3.487   4.185   3.503  0.1864 -0.0535 -0.4263
 3845SOL    HW123171   3.470   4.222   3.416 -0.6419  0.0564 -0.2211
 3845SOL    HW223172   3.442   4.100   3.504  2.0194 -0.9977  1.2196
 3846SOL     OW23173   0.638   3.505  11.283  0.2775  0.3655 -0.7503
 3846SOL    HW123174   0.592   3.575  11.237 -1.7635 -1.4906 -1.4982
 3846SOL    HW223175   0.663   3.442  11.215  1.5364 -0.0511  0.0838
 3847SOL     OW23176   4.128   3.228   5.436  0.5483  0.0296  0.0415
 3847SOL    HW123177   4.174   3.163   5.382 -0.8648 -0.3497 -0.7077
 3847SOL    HW223178   4.154   3.305   5.385  1.3460 -0.6201 -0.5408
 3848SOL     OW23179   4.356   1.481   6.272 -0.4042 -0.3168  0.0426
 3848SOL    HW123180   4.333   1.392   6.244  0.0593 -0.5424  0.3633
 3848SOL    HW223181   4.268   1.509   6.295 -0.0009  1.1239 -0.1593
 3849SOL     OW23182   3.384   3.367   6.556 -0.5516 -0.0101  0.3332
 3849SOL    HW123183   3.444   3.440   6.574 -1.1475  0.4366  0.4736
 3849SOL    HW223184   3.356   3.355   6.646  0.1125  0.9075  0.6676
 3850SOL     OW23185   1.409   1.369   1.294  0.1325  0.2416 -0.2138
 3850SOL    HW123186   1.454   1.448   1.325 -0.0550  1.7211 -3.6407
 3850SOL    HW223187   1.346   1.357   1.364  0.3289 -1.5461 -0.3452
 3851SOL     OW23188   3.251   4.185  17.159 -0.1678 -0.1649  0.1963
 3851SOL    HW123189   3.290   4.162  17.075  1.3060  0.9363  0.5932
 3851SOL    HW223190   3.177   4.124  17.155 -0.3575  0.1482 -0.8963
 3852SOL     OW23191   1.282   2.843   1.619 -0.1401  0.1276  0.0587
 3852SOL    HW123192   1.276   2.758   1.576 -0.4561  0.3568 -0.3532
 3852SOL    HW223193   1.375   2.865   1.614 -0.2653  0.0228 -2.5604
 3853SOL     OW23194   1.241   1.805  16.209  0.2816  0.1187  0.3314
 3853SOL    HW123195   1.211   1.790  16.299  0.6335 -0.5534  0.3344
 3853SOL    HW223196   1.186   1.742  16.163 -1.4030  3.8914 -2.8524
 3854SOL     OW23197   3.945   0.643  12.761 -0.7364  0.0308  0.1060
 3854SOL    HW123198   3.986   0.702  12.824  2.1063 -2.1941  0.3478
 3854SOL    HW223199   3.859   0.622  12.797 -0.7661  0.0838  0.0655
 3855SOL     OW23200   0.939   3.399   3.941 -0.3316 -0.4672 -0.4202
 3855SOL    HW123201   0.973   3.419   4.028  0.6193 -0.6447 -0.7497
 3855SOL    HW223202   0.928   3.306   3.962 -0.5011 -0.5756 -0.9877
 3856SOL     OW23203   2.011   3.864  16.325 -0.4137 -0.2646  0.5285
 3856SOL    HW123204   1.945   3.933  16.319  1.3170  1.1635 -2.1005
 3856SOL    HW223205   2.061   3.899  16.252 -0.1997  0.7597  1.1663
 3857SOL     OW23206   1.902   1.515   4.201 -0.1540  0.4820  0.6392
 3857SOL    HW123207   1.889   1.475   4.115  2.0555 -1.5504  1.2464
 3857SOL    HW223208   1.968   1.579   4.176 -0.5060  0.7554  0.3995
 3858SOL     OW23209   2.083   4.070   5.373  0.6402  0.8634  0.3538
 3858SOL    HW123210   2.124   4.055   5.287  2.0231  0.0103  1.1700
 3858SOL    HW223211   2.080   4.163   5.395 -0.1868  0.8502  0.2762
 3859SOL     OW23212   4.304   0.254  16.824 -0.0450 -0.3384 -0.3418
 3859SOL    HW123213   4.392   0.292  16.816  1.3303 -3.2908  0.8401
 3859SOL    HW223214   4.286   0.283  16.913  1.4624 -2.5201  0.6781
 3860SOL     OW23215   1.560   4.427   9.813 -0.3085  0.7881  0.0615
 3860SOL    HW123216   1.492   4.483   9.773  1.0991  0.7311 -2.3871
 3860SOL    HW223217   1.642   4.433   9.764 -0.8468  0.5926 -0.8602
 3861SOL     OW23218   1.133   3.721   9.352  0.7122  0.3572  0.6170
 3861SOL    HW123219   1.127   3.793   9.415  0.2004  0.3067  0.6227
 3861SOL    HW223220   1.064   3.754   9.294  0.2699 -0.3966  0.7166
 3862SOL     OW23221   2.639   4.659   0.723 -0.0192 -0.1490 -0.5007
 3862SOL    HW123222   2.664   4.567   0.708 -0.5879 -0.8279  2.8289
 3862SOL    HW223223   2.680   4.675   0.808 -0.6993  2.5470 -0.6812
 3863SOL     OW23224   3.541   2.905  17.696  0.1242 -0.4691 -0.2302
 3863SOL    HW123225   3.476   2.949  17.641  0.6268  1.3650  0.6618
 3863SOL    HW223226   3.621   2.957  17.685 -1.7256  2.1888 -1.0966
 3864SOL     OW23227   0.650   2.202   8.290 -0.1488  0.4797 -0.3327
 3864SOL    HW123228   0.712   2.208   8.362 -0.2297 -0.0743 -0.2183
 3864SOL    HW223229   0.671   2.113   8.263 -0.3302  0.0239  1.0362
 3865SOL     OW23230   3.818   4.530  10.994 -0.2385 -0.1981  0.0543
 3865SOL    HW123231   3.728   4.561  11.002  0.1515  1.1898 -0.8947
 3865SOL    HW223232   3.812   4.485  10.909  0.8864 -0.3826  0.0772
 3866SOL     OW23233   4.014   1.097   2.634 -0.2005  0.2674 -0.4819
 3866SOL    HW123234   3.952   1.160   2.672  1.2238  0.7272  1.0553
 3866SOL    HW223235   3.952   1.027   2.614 -0.8094  1.0171 -1.2513
 3867SOL     OW23236   1.374   4.350   6.065 -0.1591  0.1637 -0.3503
 3867SOL    HW123237   1.351   4.388   5.980  1.7789  2.1191 -0.0011
 3867SOL    HW223238   1.284   4.315   6.069 -0.6095  1.0215 -2.7430
 3868SOL     OW23239   1.380   3.300  17.541 -0.0668  0.0354  0.6975
 3868SOL    HW123240   1.467   3.295  17.582  0.2895  0.1583 -0.0433
 3868SOL    HW223241   1.369   3.394  17.534  2.4646  0.2639 -0.3192
 3869SOL     OW23242   0.661   4.338   6.066 -0.1231 -0.0481 -0.4904
 3869SOL    HW123243   0.686   4.307   5.979  2.2327  2.1783 -0.5901
 3869SOL    HW223244   0.675   4.432   6.063  1.0576 -0.1833  0.5060
 3870SOL     OW23245   2.206   0.375  15.538 -0.2808 -0.3375  0.0436
 3870SOL    HW123246   2.118   0.342  15.522  0.9795 -3.7388  0.1642
 3870SOL    HW223247   2.191   0.397  15.630 -1.1420 -0.4019 -0.0781
 3871SOL     OW23248   1.794   4.292   3.469  0.0589 -0.4363 -1.0279
 3871SOL    HW123249   1.850   4.353   3.421  0.7132 -0.6584 -0.5493
 3871SOL    HW223250   1.863   4.251   3.521 -1.6804 -0.0649  1.5559
 3872SOL     OW23251   3.249   4.252   5.925  0.5506  0.3240 -0.8088
 3872SOL    HW123252   3.277   4.173   5.970  1.8120  1.5029  0.4830
 3872SOL    HW223253   3.246   4.310   6.001 -0.4955 -0.7854  0.0046
 3873SOL     OW23254   1.757   2.817   9.665 -0.4411 -0.6797 -0.0317
 3873SOL    HW123255   1.734   2.904   9.699 -1.2218 -0.9868  0.2209
 3873SOL    HW223256   1.728   2.761   9.738 -0.3591  0.0655  0.5744
 3874SOL     OW23257   3.069   2.728   6.352  0.4017  0.3512 -0.5097
 3874SOL    HW123258   2.982   2.713   6.315  0.3351  0.5312 -0.4254
 3874SOL    HW223259   3.121   2.666   6.301 -1.5115 -1.5131 -0.2338
 3875SOL     OW23260   3.890   3.134   3.953  0.0567 -0.3429 -0.3205
 3875SOL    HW123261   3.980   3.164   3.967  0.1750  0.3454 -2.4580
 3875SOL    HW223262   3.839   3.188   4.014 -1.9839 -0.9183 -1.5264
 3876SOL     OW23263   3.752   3.871  13.296  0.3807  0.0307  0.3302
 3876SOL    HW123264   3.726   3.870  13.204  1.5177 -1.3756  0.0232
 3876SOL    HW223265   3.837   3.828  13.300  1.1113  1.6882  2.2180
 3877SOL     OW23266   3.984   3.897   1.953 -1.1619 -0.4411  0.6568
 3877SOL    HW123267   4.059   3.943   1.992 -1.3093  0.4899 -0.1542
 3877SOL    HW223268   4.020   3.809   1.944 -2.2048 -0.7008 -1.0075
 3878SOL     OW23269   3.682   1.766   7.094  0.1513  0.1476 -0.7963
 3878SOL    HW123270   3.769   1.754   7.057  0.5512  0.0004  0.1799
 3878SOL    HW223271   3.637   1.810   7.022  0.9174  0.1571 -1.2561
 3879SOL     OW23272   4.005   3.563   5.910  0.2553 -0.1523  0.4115
 3879SOL    HW123273   4.006   3.657   5.929 -1.8731 -0.3348  1.4384
 3879SOL    HW223274   4.003   3.559   5.815 -0.0916  2.0381  0.3206
 3880SOL     OW23275   1.554   3.168   1.652 -0.0179  0.2891  0.2135
 3880SOL    HW123276   1.563   3.217   1.734 -0.3058  2.5872 -1.1217
 3880SOL    HW223277   1.524   3.235   1.591  1.0550  0.9550  0.4097
 3881SOL     OW23278   1.595   1.363   9.894 -0.7488  0.1477  0.2391
 3881SOL    HW123279   1.680   1.366   9.851 -0.6262 -0.6324  0.4270
 3881SOL    HW223280   1.628   1.342   9.982  0.4603 -0.2869 -0.3222
 3882SOL     OW23281   2.435   1.189   1.184  0.1890 -0.1114 -0.1035
 3882SOL    HW123282   2.357   1.147   1.148 -0.4710 -0.0334  1.2622
 3882SOL    HW223283   2.448   1.253   1.114  0.6734 -0.2646 -0.1590
 3883SOL     OW23284   0.181   0.365  12.876  0.5715  0.1140  0.1323
 3883SOL    HW123285   0.142   0.418  12.945 -2.0126 -0.9341 -0.5178
 3883SOL    HW223286   0.271   0.377  12.905  0.5656  0.4480  0.0175
 3884SOL     OW23287   2.269   4.718  12.095  0.3597 -0.1773  0.2249
 3884SOL    HW123288   2.299   4.653  12.159 -0.4169  0.1540  0.9336
 3884SOL    HW223289   2.185   4.677  12.072 -0.6311  0.8002  2.0317
 3885SOL     OW23290   0.291   0.629   3.809 -0.0565 -0.0374 -0.1567
 3885SOL    HW123291   0.249   0.699   3.860  0.0620 -1.6452  2.1128
 3885SOL    HW223292   0.279   0.648   3.715 -0.5713 -1.1549 -0.3231
 3886SOL     OW23293   2.945   4.234   0.279 -0.1287 -0.1743 -0.0111
 3886SOL    HW123294   2.999   4.279   0.345 -1.1824 -1.0841  1.4829
 3886SOL    HW223295   3.012   4.171   0.255  0.4329  0.7189 -0.7979
 3887SOL     OW23296   0.276   2.706   3.930  0.5176 -0.0298 -0.1189
 3887SOL    HW123297   0.357   2.757   3.925  1.9718 -2.3713  0.0272
 3887SOL    HW223298   0.250   2.704   4.022 -2.8239  2.5897 -0.9561
 3888SOL     OW23299   3.540   3.755   3.616  1.0690  0.7515  0.2139
 3888SOL    HW123300   3.612   3.747   3.678 -0.8253  2.8499  2.7207
 3888SOL    HW223301   3.461   3.754   3.671  1.3190 -2.0591  0.4846
 3889SOL     OW23302   3.436   4.381  14.135 -0.1793  0.0176  0.2427
 3889SOL    HW123303   3.484   4.412  14.212 -1.8875 -1.5833  1.9651
 3889SOL    HW223304   3.489   4.304  14.111 -0.0481  0.1712  0.0490
 3890SOL     OW23305   2.493   1.827   1.681  0.1771 -0.1062  0.1340
 3890SOL    HW123306   2.447   1.877   1.748 -0.4892 -0.4179 -0.0939
 3890SOL    HW223307   2.459   1.874   1.605 -0.4753  1.1696  1.2129
 3891SOL     OW23308   2.633   0.526   5.045 -0.6050  0.1161 -0.3707
 3891SOL    HW123309   2.686   0.586   4.991 -0.6241 -0.3844 -0.9507
 3891SOL    HW223310   2.652   0.575   5.125 -1.2785 -0.6615  0.2617
 3892SOL     OW23311   0.464   2.478   8.723 -0.1029 -0.0225  0.4971
 3892SOL    HW123312   0.412   2.555   8.700 -1.0272 -1.1522 -1.2289
 3892SOL    HW223313   0.466   2.492   8.818 -0.4616  0.6457  0.4078
 3893SOL     OW23314   3.747   1.690   9.058  0.3571 -0.3858 -0.2605
 3893SOL    HW123315   3.684   1.620   9.078  0.7782 -0.6026  0.3284
 3893SOL    HW223316   3.698   1.770   9.075  0.4028 -0.4297  0.0879
 3894SOL     OW23317   1.564   1.413  10.210 -0.5610  0.4256 -0.7097
 3894SOL    HW123318   1.521   1.451  10.286 -1.7904 -1.3561 -0.5241
 3894SOL    HW223319   1.519   1.330  10.196 -0.1684  0.0312  0.3740
 3895SOL     OW23320   3.898   1.649  17.508  0.1650 -0.3570 -0.0891
 3895SOL    HW123321   3.806   1.630  17.490  0.6210 -0.3087 -2.5138
 3895SOL    HW223322   3.894   1.742  17.529 -3.3809 -0.6185  0.3633
 3896SOL     OW23323   2.470   1.681   4.774 -0.1105 -0.2957 -0.3072
 3896SOL    HW123324   2.408   1.740   4.818  0.9021  1.7809 -1.6534
 3896SOL    HW223325   2.420   1.662   4.695  1.5008 -0.4898 -1.2641
 3897SOL     OW23326   1.553   2.597   9.718  0.2034  1.0190 -0.2607
 3897SOL    HW123327   1.582   2.575   9.807  1.7172  0.2746 -0.9356
 3897SOL    HW223328   1.531   2.510   9.683  0.1010  0.9450 -0.0120
 3898SOL     OW23329   3.683   2.644   3.337 -0.5235  0.4954 -0.6736
 3898SOL    HW123330   3.766   2.682   3.364  0.8295 -1.7590 -1.6596
 3898SOL    HW223331   3.722   2.594   3.266 -2.1103 -0.8952 -0.5552
 3899SOL     OW23332   3.160   4.127   8.247  0.7857  0.0725 -0.3305
 3899SOL    HW123333   3.179   4.219   8.230  3.1879 -0.1777  1.0199
 3899SOL    HW223334   3.182   4.097   8.159 -0.8924  0.3091 -0.8328
 3900SOL     OW23335   4.699   3.255   4.794 -0.3833  0.5955  0.1405
 3900SOL    HW123336   4.637   3.183   4.781 -1.5356  1.6585 -0.2798
 3900SOL    HW223337   4.690   3.312   4.718  1.0457  2.7600  1.6091
 3901SOL     OW23338   1.439   0.600   2.828 -0.1420  0.6018 -0.3693
 3901SOL    HW123339   1.374   0.586   2.897  0.3443 -0.9150 -0.2208
 3901SOL    HW223340   1.438   0.694   2.812  0.4973  0.6074 -0.3606
 3902SOL     OW23341   0.176   2.168   6.474 -0.0856  0.2945 -0.3742
 3902SOL    HW123342   0.084   2.143   6.484  0.4202 -1.4631 -0.1038
 3902SOL    HW223343   0.217   2.084   6.493 -1.4482 -0.0272  1.0882
 3903SOL     OW23344   3.541   1.146   8.395  0.6812  0.4989  0.0021
 3903SOL    HW123345   3.462   1.094   8.407  0.8281  0.3327  0.2686
 3903SOL    HW223346   3.530   1.220   8.454  1.6741  0.5876  0.0740
 3904SOL     OW23347   3.153   1.474  12.229  0.0293  0.3117 -0.0254
 3904SOL    HW123348   3.230   1.464  12.285 -0.8420 -2.0469  0.7819
 3904SOL    HW223349   3.175   1.551  12.178  0.7711  1.3914  1.9420
 3905SOL     OW23350   2.742   1.175   7.076  0.6606  0.2840  0.0680
 3905SOL    HW123351   2.705   1.195   6.990 -1.1727  0.1568  0.8225
 3905SOL    HW223352   2.812   1.109   7.071 -0.7366 -0.9695 -2.9184
 3906SOL     OW23353   0.419   2.170  10.238 -0.9614  0.6069 -0.0681
 3906SOL    HW123354   0.447   2.258  10.211 -1.4063  0.7455 -0.0631
 3906SOL    HW223355   0.327   2.187  10.256 -1.7331 -1.8783 -1.7374
 3907SOL     OW23356   4.096   0.979  15.764 -0.0345  0.5957  0.5038
 3907SOL    HW123357   4.009   0.964  15.801 -0.3266  1.1923  0.0497
 3907SOL    HW223358   4.135   0.959  15.849  0.9590 -1.8986 -0.5363
 3908SOL     OW23359   3.381   0.437  17.274  0.3713 -0.5112  0.2148
 3908SOL    HW123360   3.343   0.516  17.312 -0.3465 -0.9416  0.3925
 3908SOL    HW223361   3.456   0.421  17.332 -0.1510 -2.4668  0.3644
 3909SOL     OW23362   0.515   0.377   2.783 -0.6657 -0.2389  0.1035
 3909SOL    HW123363   0.543   0.286   2.775  0.1080  0.1786 -2.1278
 3909SOL    HW223364   0.599   0.422   2.773 -0.0895 -1.0319  1.4293
 3910SOL     OW23365   2.579   4.665   5.883  0.1684 -0.0230 -0.1047
 3910SOL    HW123366   2.519   4.615   5.938 -0.5142 -1.8344 -2.4782
 3910SOL    HW223367   2.554   4.626   5.799  1.1931 -0.9521  0.0251
 3911SOL     OW23368   2.322   4.326   7.866 -0.0182  0.3258  1.0310
 3911SOL    HW123369   2.250   4.376   7.905 -1.8761  0.5168 -2.5615
 3911SOL    HW223370   2.296   4.336   7.774  0.8161 -3.0974  0.4331
 3912SOL     OW23371   4.595   2.960   5.960  0.1266  0.2436 -0.2302
 3912SOL    HW123372   4.525   2.896   5.949 -0.1397  0.4045  0.5542
 3912SOL    HW223373   4.601   2.995   5.871  1.9292 -2.8650 -1.3136
 3913SOL     OW23374   4.181   2.297   3.091  0.2375  0.1881  0.0430
 3913SOL    HW123375   4.126   2.264   3.020  1.3276  0.7643 -1.0833
 3913SOL    HW223376   4.267   2.266   3.064  0.3617  2.1298 -1.7691
 3914SOL     OW23377   4.134   2.681   6.434 -0.3538 -0.1632  0.0226
 3914SOL    HW123378   4.106   2.663   6.344 -1.2697  1.3852  0.0037
 3914SOL    HW223379   4.159   2.773   6.425  1.3031 -0.4636  1.4736
 3915SOL     OW23380   3.960   3.589  10.810 -0.4435 -0.2413 -0.0658
 3915SOL    HW123381   4.019   3.566  10.882 -0.3633 -0.1731 -0.1092
 3915SOL    HW223382   4.022   3.586  10.737  0.1263 -1.5182  0.4810
 3916SOL     OW23383   0.274   2.998   6.427 -0.4760  0.1880 -0.0272
 3916SOL    HW123384   0.225   2.916   6.438 -0.1954 -0.0688 -0.6336
 3916SOL    HW223385   0.219   3.066   6.466  1.2020  1.5317 -0.0066
 3917SOL     OW23386   4.346   3.459   1.887 -0.1027 -0.1727 -0.2144
 3917SOL    HW123387   4.269   3.402   1.889  0.4216 -0.8621  0.2317
 3917SOL    HW223388   4.420   3.400   1.874  0.6089  0.6271  0.2085
 3918SOL     OW23389   4.716   4.154   6.024 -0.2275 -0.2687 -0.4581
 3918SOL    HW123390   0.068   4.151   5.980 -0.3985 -1.9814 -0.6543
 3918SOL    HW223391   4.727   4.093   6.097 -1.1197 -1.3564 -1.2301
 3919SOL     OW23392   3.735   3.247   4.511  0.2674 -0.1387  0.2127
 3919SOL    HW123393   3.650   3.236   4.552  0.0586 -0.2898 -0.2636
 3919SOL    HW223394   3.726   3.189   4.436  0.1771  0.7152 -0.4436
 3920SOL     OW23395   0.219   1.123  16.742  0.1149  0.0660  0.0074
 3920SOL    HW123396   0.159   1.074  16.687  0.4262  1.1919 -1.3515
 3920SOL    HW223397   0.187   1.091  16.827 -0.6929  2.5630  0.6710
 3921SOL     OW23398   0.426   3.904   2.966 -0.0875 -0.1235  1.0095
 3921SOL    HW123399   0.336   3.937   2.955 -0.3000 -1.5778 -1.5143
 3921SOL    HW223400   0.448   3.956   3.043 -3.3261 -0.1288  1.9270
 3922SOL     OW23401   1.669   0.426   6.117 -0.1236  0.1249 -0.1018
 3922SOL    HW123402   1.599   0.401   6.177  1.2299  0.8584  1.7708
 3922SOL    HW223403   1.688   0.342   6.075 -0.9838 -0.4606  0.6899
 3923SOL     OW23404   4.241   2.992   6.061  0.1057 -0.8037  0.1620
 3923SOL    HW123405   4.287   2.990   6.145  1.8253  1.2619 -0.7394
 3923SOL    HW223406   4.176   3.060   6.078  1.6195  0.4699  0.8819
 3924SOL     OW23407   3.177   3.787  17.584 -0.1774  0.3939  0.1543
 3924SOL    HW123408   3.165   3.707  17.634  0.7656  0.7036  0.8706
 3924SOL    HW223409   3.109   3.839  17.627 -0.7522 -0.2348 -0.0091
 3925SOL     OW23410   2.749   3.440   8.233  0.3860 -0.6918  0.6205
 3925SOL    HW123411   2.660   3.407   8.231 -0.1723  1.0205 -2.0086
 3925SOL    HW223412   2.773   3.431   8.141  1.2532  3.7290  0.3996
 3926SOL     OW23413   3.310   0.219   9.947  0.3771  0.1426  0.6913
 3926SOL    HW123414   3.249   0.288   9.922  2.9351  1.2866 -2.4247
 3926SOL    HW223415   3.253   0.148   9.975  0.2848 -0.7877 -1.8282
 3927SOL     OW23416   3.574   3.177   3.021  0.3152 -0.7627 -0.4242
 3927SOL    HW123417   3.629   3.255   3.016 -0.6728 -0.0809 -0.6437
 3927SOL    HW223418   3.533   3.187   3.107  0.2594 -1.1227 -0.4069
 3928SOL     OW23419   1.906   2.105   1.987  0.2208  0.1392 -0.0215
 3928SOL    HW123420   1.939   2.166   1.921 -1.6129  0.8747 -0.2504
 3928SOL    HW223421   1.971   2.100   2.057  0.1440  1.5804  0.1540
 3929SOL     OW23422   0.102   2.147   2.144 -0.2936  0.2722 -0.3153
 3929SOL    HW123423   0.189   2.107   2.135 -0.0305  0.4736  1.4311
 3929SOL    HW223424   0.130   2.204   2.216 -0.8475  0.7316 -0.4646
 3930SOL     OW23425   4.138   1.246  10.058 -0.2981 -0.4666  0.2491
 3930SOL    HW123426   4.099   1.177  10.005 -0.0084 -0.3478 -0.1218
 3930SOL    HW223427   4.147   1.205  10.144  2.2898  0.8883  0.6569
 3931SOL     OW23428   0.519   4.014   1.764  0.8826  0.3280 -1.0557
 3931SOL    HW123429   0.471   4.007   1.847  2.4344  2.9642  0.0567
 3931SOL    HW223430   0.512   4.108   1.750  0.5752  0.4609 -0.0165
 3932SOL     OW23431   3.758   0.967   0.727  0.0387 -0.1795  0.0119
 3932SOL    HW123432   3.706   0.987   0.650  0.5327  1.7765  0.1886
 3932SOL    HW223433   3.697   0.929   0.790 -1.3357 -0.0569 -1.2449
 3933SOL     OW23434   1.662   1.241   6.027 -0.0363 -0.2743  0.3311
 3933SOL    HW123435   1.725   1.267   5.960 -0.1883  0.4875  0.4922
 3933SOL    HW223436   1.676   1.147   6.040  0.4141 -0.6457 -2.7747
 3934SOL     OW23437   4.422   1.198   7.844 -0.7993  0.1013  0.0493
 3934SOL    HW123438   4.389   1.200   7.934 -1.4885  0.6171 -0.2150
 3934SOL    HW223439   4.445   1.289   7.824  2.2102 -1.0898 -1.8102
 3935SOL     OW23440   3.123   3.617  10.464 -0.1054  0.0550  0.1902
 3935SOL    HW123441   3.157   3.528  10.461 -1.7757 -0.5872  0.3758
 3935SOL    HW223442   3.034   3.595  10.438  0.5923 -2.0851 -0.3820
 3936SOL     OW23443   2.028   0.778   0.371 -0.2164  0.1959  0.1156
 3936SOL    HW123444   2.051   0.686   0.377 -0.2848  0.1500 -0.3381
 3936SOL    HW223445   2.112   0.812   0.339 -1.0103  1.2481 -0.8314
 3937SOL     OW23446   1.395   3.109   3.455  0.1287  0.1015 -0.5987
 3937SOL    HW123447   1.318   3.166   3.463  1.3551  1.4559  1.6458
 3937SOL    HW223448   1.381   3.068   3.370 -0.5973  0.0574 -0.4595
 3938SOL     OW23449   0.713   1.764   8.568 -0.4100 -0.2459 -0.5951
 3938SOL    HW123450   0.755   1.840   8.529  0.2695  0.2390  1.0759
 3938SOL    HW223451   0.679   1.800   8.650  0.2274  0.8724 -0.8235
 3939SOL     OW23452   1.422   2.542   2.994  0.5205 -0.0442 -0.3504
 3939SOL    HW123453   1.426   2.452   2.963  0.1641 -0.9187  2.1659
 3939SOL    HW223454   1.354   2.586   2.943 -1.8256  0.3382  3.1734
 3940SOL     OW23455   3.925   1.437  13.916 -0.2691 -0.1142  0.6262
 3940SOL    HW123456   4.000   1.481  13.957 -0.1863  2.8002 -2.6748
 3940SOL    HW223457   3.920   1.479  13.830 -3.6318  2.1175  1.9515
 3941SOL     OW23458   4.223   4.453   4.715  0.1562  0.2963  0.2892
 3941SOL    HW123459   4.211   4.459   4.620 -3.0065  1.4821  0.7312
 3941SOL    HW223460   4.195   4.363   4.731  0.0879  0.0038 -1.4460
 3942SOL     OW23461   3.270   3.082   7.436  0.0678  0.6407 -0.2693
 3942SOL    HW123462   3.236   3.157   7.385 -1.2302  0.4571  0.3222
 3942SOL    HW223463   3.291   3.027   7.361  0.8930 -1.1482  1.2901
 3943SOL     OW23464   0.874   3.107   8.354 -1.0129 -0.1923 -0.5710
 3943SOL    HW123465   0.885   3.195   8.318 -1.4369  0.8244  1.7480
 3943SOL    HW223466   0.778   3.104   8.347 -0.9614  0.0428 -1.3767
 3944SOL     OW23467   3.486   4.630  10.051 -0.0883  0.1448 -0.0106
 3944SOL    HW123468   3.564   4.604  10.001  0.6626  1.1126  0.6570
 3944SOL    HW223469   3.470   4.559  10.114  1.3184 -0.3436 -0.1917
 3945SOL     OW23470   2.892   2.238   5.119  0.0386  0.2402  0.6604
 3945SOL    HW123471   2.869   2.221   5.028  0.0497 -1.2123  0.9138
 3945SOL    HW223472   2.845   2.321   5.127  3.6828  2.2290  1.3981
 3946SOL     OW23473   2.615   4.463   4.410  0.1854  0.0678  0.2537
 3946SOL    HW123474   2.664   4.471   4.328 -0.2005  1.6338  0.1697
 3946SOL    HW223475   2.579   4.552   4.419 -0.2562 -0.0389 -0.4126
 3947SOL     OW23476   2.054   2.869   1.661  0.3757  0.2671  0.2999
 3947SOL    HW123477   1.982   2.889   1.720  1.4498 -0.8605  2.0099
 3947SOL    HW223478   2.083   2.960   1.650 -2.2716  1.2813  1.6421
 3948SOL     OW23479   0.958   4.345   3.137 -0.2129 -0.7461  0.8463
 3948SOL    HW123480   0.986   4.254   3.147  1.5947 -0.0829  1.8606
 3948SOL    HW223481   0.937   4.373   3.226 -0.6889  2.1744 -0.1945
 3949SOL     OW23482   0.424   0.297   0.716  0.1272 -0.1626 -0.0550
 3949SOL    HW123483   0.372   0.237   0.770  0.7750 -2.8766 -2.4748
 3949SOL    HW223484   0.507   0.250   0.713 -1.4223 -2.9187  0.6613
 3950SOL     OW23485   0.299   2.908  14.095 -0.3636 -0.3477 -0.5364
 3950SOL    HW123486   0.270   2.968  14.164 -2.6684 -0.7057 -1.1820
 3950SOL    HW223487   0.220   2.879  14.050 -1.0540  1.1075 -0.2685
 3951SOL     OW23488   4.418   4.619   6.129  0.0401 -0.5608  0.6286
 3951SOL    HW123489   4.478   4.550   6.101  0.6017  0.3519 -0.4801
 3951SOL    HW223490   4.464   4.689   6.082 -1.2554 -0.8182 -1.0364
 3952SOL     OW23491   3.562   3.792   2.295 -0.0882 -0.1100 -0.1897
 3952SOL    HW123492   3.643   3.758   2.256  1.0663  0.6426  1.5306
 3952SOL    HW223493   3.500   3.743   2.242  0.9929 -2.1466  0.3955
 3953SOL     OW23494   0.650   0.622  11.263  0.8290 -0.2560  0.1703
 3953SOL    HW123495   0.576   0.678  11.237  0.0914 -1.3253 -0.0132
 3953SOL    HW223496   0.618   0.540  11.227 -2.7080  1.3291 -0.2942
 3954SOL     OW23497   3.369   4.079  13.541  0.2230  0.3081 -0.3147
 3954SOL    HW123498   3.441   4.021  13.515 -0.7837 -1.4528  0.8138
 3954SOL    HW223499   3.345   4.126  13.461  0.6819  0.7872 -0.1738
 3955SOL     OW23500   0.480   2.748  14.751  0.1966 -0.4743 -0.6061
 3955SOL    HW123501   0.548   2.691  14.786  0.8376  1.4309  1.2341
 3955SOL    HW223502   0.423   2.753  14.828  0.1657 -3.3594 -0.4415
 3956SOL     OW23503   0.764   1.539   3.542  0.0845 -0.3164 -0.0182
 3956SOL    HW123504   0.854   1.519   3.516  0.0408 -0.0408 -0.3778
 3956SOL    HW223505   0.731   1.587   3.467  0.7155 -1.3849 -0.9723
 3957SOL     OW23506   3.939   0.400  12.249  0.1052  0.3691 -0.4962
 3957SOL    HW123507   4.005   0.388  12.317 -0.2203  1.1492 -0.0330
 3957SOL    HW223508   3.867   0.374  12.306 -0.2929  1.0659 -0.6808
 3958SOL     OW23509   0.500   4.344   4.221 -0.3443  0.1407  0.2306
 3958SOL    HW123510   0.526   4.388   4.302 -2.3010  0.0358  0.9193
 3958SOL    HW223511   0.406   4.340   4.240 -0.4235  0.2951 -0.1322
 3959SOL     OW23512   2.454   4.269   2.810 -0.4444 -0.4287  0.5119
 3959SOL    HW123513   2.452   4.192   2.868  1.0480 -1.0364 -0.2669
 3959SOL    HW223514   2.400   4.329   2.862 -0.9103  1.4464 -2.1496
 3960SOL     OW23515   2.122   4.261   7.374  0.2410 -0.1321  0.0038
 3960SOL    HW123516   2.189   4.307   7.322 -1.7594  1.3730 -1.2294
 3960SOL    HW223517   2.109   4.187   7.314 -0.6715 -0.3066  0.4262
 3961SOL     OW23518   4.386   4.254   9.222  0.1885 -0.1837  0.3404
 3961SOL    HW123519   4.422   4.166   9.231  1.7781  0.5640  1.1959
 3961SOL    HW223520   4.443   4.302   9.282 -0.5748 -0.1729  1.0508
 3962SOL     OW23521   1.750   4.606  16.866 -0.1104  0.5320 -0.4467
 3962SOL    HW123522   1.661   4.634  16.845  0.3863  2.2388 -0.2739
 3962SOL    HW223523   1.733   4.588  16.958 -0.8876  0.5151 -0.5948
 3963SOL     OW23524   2.545   4.427   8.076 -0.0821 -0.0998  0.1596
 3963SOL    HW123525   2.552   4.379   7.994 -1.6178  0.3383 -0.2278
 3963SOL    HW223526   2.489   4.501   8.051  2.2493  1.5241 -0.2947
 3964SOL     OW23527   2.044   1.912  15.140 -0.6437 -0.3047 -0.3809
 3964SOL    HW123528   2.098   1.838  15.169  0.8992  1.0378  0.1483
 3964SOL    HW223529   2.098   1.956  15.074  1.7503 -1.3825  0.8438
 3965SOL     OW23530   1.344   3.522   5.219 -0.0771  1.1294  0.2239
 3965SOL    HW123531   1.396   3.459   5.169 -0.0549 -0.1512  1.8730
 3965SOL    HW223532   1.353   3.486   5.307 -2.7748  2.0921  0.9102
 3966SOL     OW23533   3.838   3.410   3.820 -0.0445 -0.0182 -0.0846
 3966SOL    HW123534   3.848   3.428   3.726 -1.9775 -2.1064 -0.6742
 3966SOL    HW223535   3.922   3.386   3.859 -1.3672 -2.6814  1.0715
 3967SOL     OW23536   0.143   0.369   5.994 -0.1881 -0.4345 -0.2181
 3967SOL    HW123537   0.222   0.365   5.939  0.1325  1.0151  0.1214
 3967SOL    HW223538   0.188   0.398   6.074 -1.6120 -1.6356  1.0085
 3968SOL     OW23539   2.947   2.534   4.566 -0.7147  0.1213 -0.5726
 3968SOL    HW123540   3.019   2.472   4.554  0.0259  0.5291  1.6821
 3968SOL    HW223541   2.977   2.614   4.524 -1.1105  0.0033 -1.0764
 3969SOL     OW23542   2.041   4.453   1.706  0.1919  0.3546  0.1780
 3969SOL    HW123543   2.082   4.457   1.620 -0.7070  0.3437 -0.2538
 3969SOL    HW223544   1.964   4.507   1.692 -0.1984 -0.2296  0.0474
 3970SOL     OW23545   3.199   0.309   8.746  0.0361 -0.0867 -0.2332
 3970SOL    HW123546   3.184   0.385   8.803 -1.3057 -0.3000 -0.3028
 3970SOL    HW223547   3.160   0.341   8.665 -0.7036  0.3931  0.3182
 3971SOL     OW23548   0.495   1.569   0.731 -0.1157  0.3140  0.0742
 3971SOL    HW123549   0.453   1.555   0.816 -1.8041  1.1007 -0.6272
 3971SOL    HW223550   0.573   1.617   0.760  1.2051 -1.6597 -0.1962
 3972SOL     OW23551   1.779   3.105  10.868 -0.4278 -0.2533 -0.0715
 3972SOL    HW123552   1.807   3.183  10.819 -2.3784  1.6518  1.8829
 3972SOL    HW223553   1.767   3.036  10.803  0.5832  0.0635 -0.5917
 3973SOL     OW23554   0.379   0.793   5.135  0.2256 -0.5401 -0.1579
 3973SOL    HW123555   0.337   0.826   5.056  1.1247 -0.5816 -0.6491
 3973SOL    HW223556   0.371   0.700   5.113  0.1597 -0.9354  1.5358
 3974SOL     OW23557   2.376   4.410  11.942 -0.3789 -0.1594  0.2714
 3974SOL    HW123558   2.427   4.337  11.978 -2.8590 -1.1023  1.8160
 3974SOL    HW223559   2.443   4.479  11.939 -0.9300  0.4153  1.1372
 3975SOL     OW23560   0.351   1.200   2.158 -0.8893  0.2041 -0.2572
 3975SOL    HW123561   0.308   1.162   2.081 -2.5989  0.1817  0.7056
 3975SOL    HW223562   0.407   1.269   2.121 -1.5720 -0.1581 -1.9665
 3976SOL     OW23563   2.512   1.077   7.168 -0.2428  0.3192  0.4383
 3976SOL    HW123564   2.601   1.078   7.135 -0.5295 -0.9283 -0.3296
 3976SOL    HW223565   2.488   1.170   7.165  1.0604  0.5998 -0.6161
 3977SOL     OW23566   1.269   4.238   8.510 -0.1726  0.3819 -0.5724
 3977SOL    HW123567   1.201   4.174   8.531  1.2545 -1.5661 -1.9958
 3977SOL    HW223568   1.212   4.306   8.474 -0.2399  1.6033  1.8366
 3978SOL     OW23569   3.128   2.837   6.595  0.1857 -0.6865  0.2283
 3978SOL    HW123570   3.144   2.924   6.559 -2.2541 -1.6207 -3.0377
 3978SOL    HW223571   3.125   2.781   6.517  1.5978  0.9914 -1.0176
 3979SOL     OW23572   3.540   3.943   8.653 -0.0449  0.2170 -0.3362
 3979SOL    HW123573   3.563   3.960   8.744 -1.9783 -0.5827  0.2962
 3979SOL    HW223574   3.545   3.847   8.646  0.2996  0.0729  2.0866
 3980SOL     OW23575   1.336   0.188   0.152  0.0550  0.5201  0.2843
 3980SOL    HW123576   1.394   0.149   0.218 -0.5875 -0.4057  0.2919
 3980SOL    HW223577   1.338   0.282   0.173  4.8537  0.1740  1.3216
 3981SOL     OW23578   1.437   2.429   4.473  0.1068  0.1944  0.2260
 3981SOL    HW123579   1.460   2.381   4.394 -0.1464 -0.5046  0.5819
 3981SOL    HW223580   1.383   2.501   4.440  1.4165 -0.2133 -2.7644
 3982SOL     OW23581   4.559   1.295  13.049 -0.1686 -0.0330 -0.0475
 3982SOL    HW123582   4.476   1.253  13.025 -0.3157  0.2244  0.0135
 3982SOL    HW223583   4.622   1.237  13.006 -0.5868  0.5020 -1.3914
 3983SOL     OW23584   0.583   2.619   4.026  0.1423  0.1937 -0.0870
 3983SOL    HW123585   0.557   2.701   4.068 -1.1289 -0.2423 -0.0171
 3983SOL    HW223586   0.648   2.596   4.093  1.1537 -0.5298 -1.3031
 3984SOL     OW23587   0.769   0.485   8.157  0.3280 -0.5370  0.5052
 3984SOL    HW123588   0.826   0.417   8.123 -0.7829 -0.4220 -1.5868
 3984SOL    HW223589   0.733   0.517   8.074 -0.7411 -0.2306  1.0785
 3985SOL     OW23590   0.964   3.886  10.300 -0.6288 -0.0620 -0.4284
 3985SOL    HW123591   0.947   3.904  10.392 -0.2909 -1.9027 -0.0053
 3985SOL    HW223592   1.058   3.876  10.317 -0.6018 -0.1572 -0.6360
 3986SOL     OW23593   2.255   1.218   8.403 -0.2276  0.0939  0.3510
 3986SOL    HW123594   2.269   1.248   8.492  1.9409 -1.5985  0.5821
 3986SOL    HW223595   2.179   1.275   8.385  0.5636  1.0280 -0.0214
 3987SOL     OW23596   1.423   4.045   1.635  0.0984 -0.0901 -0.1260
 3987SOL    HW123597   1.444   4.136   1.614 -1.1895  0.6467  1.7886
 3987SOL    HW223598   1.340   4.031   1.588  0.5077  0.5695 -1.0487
 3988SOL     OW23599   0.100   0.537   5.768 -0.1212 -0.4124 -0.0146
 3988SOL    HW123600   0.190   0.569   5.768 -0.8252  1.5276  0.4242
 3988SOL    HW223601   0.089   0.474   5.840 -2.6555  2.0697  1.7528
 3989SOL     OW23602   2.219   3.960   2.147 -0.0756  0.5939  0.1484
 3989SOL    HW123603   2.309   3.946   2.176 -0.1244 -2.1714 -1.0828
 3989SOL    HW223604   2.226   3.965   2.052 -2.3894  2.4167  0.0562
 3990SOL     OW23605   0.676   3.585   9.212 -0.1599  0.2703 -0.3152
 3990SOL    HW123606   0.742   3.519   9.233 -1.0104 -0.6165 -0.4028
 3990SOL    HW223607   0.617   3.527   9.164 -0.6544  0.9078 -0.4800
 3991SOL     OW23608   0.811   2.960   8.821  0.0009  0.1193 -0.2538
 3991SOL    HW123609   0.767   2.907   8.888 -1.9866  1.9044 -0.1516
 3991SOL    HW223610   0.858   3.011   8.887 -0.1188  1.8095 -1.4983
 3992SOL     OW23611   2.921   4.510   3.770  0.0522  0.0877 -0.2678
 3992SOL    HW123612   2.941   4.442   3.704  1.2343  0.8837 -0.7249
 3992SOL    HW223613   2.982   4.470   3.832 -1.9436 -2.7065 -0.0777
 3993SOL     OW23614   4.654   0.801  12.279 -0.0045 -0.1101  0.1800
 3993SOL    HW123615   4.571   0.831  12.317 -0.9546  0.6063 -2.4138
 3993SOL    HW223616   4.695   0.744  12.344  0.3827 -0.4334 -0.3383
 3994SOL     OW23617   2.403   0.154   6.952 -0.3600  0.3292 -0.2504
 3994SOL    HW123618   2.453   0.119   6.879 -0.7677 -3.3932  1.2862
 3994SOL    HW223619   2.469   0.209   6.995  0.1477 -0.9431  0.5982
 3995SOL     OW23620   1.012   4.312   3.679  0.2148  0.0610  0.1471
 3995SOL    HW123621   0.931   4.268   3.706 -0.4847  0.9079 -0.5806
 3995SOL    HW223622   1.064   4.233   3.689  2.9431  1.8504  0.0087
 3996SOL     OW23623   0.718   0.281   7.842 -0.0130  0.4879 -0.1150
 3996SOL    HW123624   0.798   0.311   7.884 -0.2871  0.6499  0.2919
 3996SOL    HW223625   0.659   0.282   7.917 -0.6735  1.9478 -0.6449
 3997SOL     OW23626   1.517   2.118   8.120 -0.2787 -0.5604 -0.3954
 3997SOL    HW123627   1.506   2.129   8.026  1.4101  1.1113 -0.4091
 3997SOL    HW223628   1.557   2.032   8.117 -0.9738 -0.8195 -2.2160
 3998SOL     OW23629   2.490   4.031  14.642  0.2580 -0.5049  0.4041
 3998SOL    HW123630   2.408   3.990  14.615  0.4856  0.1551 -1.2492
 3998SOL    HW223631   2.541   4.032  14.562 -0.4777 -0.2999 -0.0623
 3999SOL     OW23632   1.772   0.428   4.415  0.2946  0.0129 -0.2774
 3999SOL    HW123633   1.799   0.343   4.380 -2.1130 -0.2564 -1.4980
 3999SOL    HW223634   1.709   0.405   4.484 -3.9641  1.3859 -3.6511
 4000SOL     OW23635   1.258   2.174   7.280 -0.6413 -0.3153  0.4688
 4000SOL    HW123636   1.326   2.118   7.318  1.9744  2.5982  0.1032
 4000SOL    HW223637   1.209   2.119   7.219 -1.0301 -0.4748  0.9214
 4001SOL     OW23638   1.389   2.175   4.067 -0.5041 -0.2094 -0.3416
 4001SOL    HW123639   1.444   2.097   4.070 -0.7013 -0.3062  0.9860
 4001SOL    HW223640   1.323   2.142   4.129 -1.4722  1.4397 -0.5047
 4002SOL     OW23641   3.932   1.940  17.551  0.2848  0.2757 -0.0695
 4002SOL    HW123642   4.015   1.915  17.510 -0.3546  1.4162 -2.0614
 4002SOL    HW223643   3.890   1.997  17.487 -1.5544 -1.5088 -0.4241
 4003SOL     OW23644   0.922   2.773   1.333  0.2489 -0.6561  0.2301
 4003SOL    HW123645   0.909   2.838   1.264  0.0240  2.1491  2.9038
 4003SOL    HW223646   0.885   2.814   1.411  2.1689 -3.2555  2.5201
 4004SOL     OW23647   4.499   1.089   9.176 -0.1953  0.4901  0.1950
 4004SOL    HW123648   4.431   1.128   9.121  0.8097 -0.9679 -2.1202
 4004SOL    HW223649   4.531   1.165   9.223 -0.2807  0.2699  0.6043
 4005SOL     OW23650   1.001   0.893  11.331  0.2281  0.1217  0.2310
 4005SOL    HW123651   1.065   0.868  11.264 -0.8423  1.7455 -1.3916
 4005SOL    HW223652   0.945   0.815  11.337 -0.1342  0.1659 -2.3038
 4006SOL     OW23653   4.621   1.811   9.546 -0.1038  0.4863 -0.5912
 4006SOL    HW123654   4.548   1.857   9.589  0.1756 -0.0767  0.4927
 4006SOL    HW223655   4.690   1.843   9.604  0.1810  2.1263 -1.8046
 4007SOL     OW23656   0.190   0.577   4.275  0.4951 -0.1812  0.3678
 4007SOL    HW123657   0.256   0.644   4.294 -1.9936  2.6429 -0.8868
 4007SOL    HW223658   0.154   0.560   4.363 -0.9981 -1.5398 -0.5163
 4008SOL     OW23659   4.201   3.559  13.356  0.3115  0.5560  0.0095
 4008SOL    HW123660   4.282   3.554  13.305 -0.7048  0.1576 -1.5497
 4008SOL    HW223661   4.212   3.475  13.400 -1.1609 -0.5733 -1.8031
 4009SOL     OW23662   0.285   3.021   1.654  0.3883  0.6710  0.0197
 4009SOL    HW123663   0.203   3.001   1.607  1.2528 -1.4971 -0.5605
 4009SOL    HW223664   0.246   3.058   1.733 -0.3669 -0.1715  0.0475
 4010SOL     OW23665   4.204   1.528  17.092 -0.1187  0.1879  0.4585
 4010SOL    HW123666   4.230   1.436  17.105 -3.3234 -0.7312  0.1831
 4010SOL    HW223667   4.145   1.545  17.165 -0.7055 -0.2196  0.0723
 4011SOL     OW23668   2.289   0.319   0.833 -0.1369 -0.3711  0.1691
 4011SOL    HW123669   2.344   0.291   0.759  2.9795 -0.8012  2.6108
 4011SOL    HW223670   2.339   0.332   0.914  1.0225  2.2062 -0.9504
 4012SOL     OW23671   3.970   1.095  15.304 -0.1993 -0.1128  0.7305
 4012SOL    HW123672   4.000   1.006  15.323  0.0770 -0.3748 -0.9424
 4012SOL    HW223673   3.877   1.085  15.327 -0.9414  1.0323 -1.8056
 4013SOL     OW23674   3.764   3.113   8.817 -0.2152 -0.2847  0.3244
 4013SOL    HW123675   3.698   3.158   8.764 -0.3305 -2.2128 -1.1502
 4013SOL    HW223676   3.739   3.148   8.903 -0.5600  2.4450 -0.8952
 4014SOL     OW23677   2.241   2.311   6.807  0.6685 -0.4627 -0.5139
 4014SOL    HW123678   2.277   2.336   6.722 -0.8214  0.2041 -0.9477
 4014SOL    HW223679   2.277   2.378   6.866 -1.6758 -1.7712  2.4226
 4015SOL     OW23680   3.254   4.670   4.268  0.4708  0.1964  0.6127
 4015SOL    HW123681   3.205   4.606   4.319  2.0621 -0.0160  1.8692
 4015SOL    HW223682   3.193   0.007   4.247  0.4203  0.0813  0.3687
 4016SOL     OW23683   0.714   0.759   3.986 -0.0851  0.0351 -0.5655
 4016SOL    HW123684   0.678   0.805   4.062  1.0694 -0.9028  0.5401
 4016SOL    HW223685   0.661   0.680   3.984 -0.8261  0.4906  1.2151
 4017SOL     OW23686   2.363   0.931   1.824  0.0496  0.3352  0.5009
 4017SOL    HW123687   2.357   0.885   1.908 -0.4842 -1.9594 -0.7900
 4017SOL    HW223688   2.428   0.877   1.778 -1.2579 -0.8693  0.0617
 4018SOL     OW23689   1.890   4.414   7.704  0.1816  0.2479 -0.9059
 4018SOL    HW123690   1.943   4.443   7.779  0.7607  1.5954 -1.8372
 4018SOL    HW223691   1.943   4.338   7.677  0.6193 -0.7905  2.8613
 4019SOL     OW23692   4.297   3.116   5.237  0.6658  0.3153 -0.0735
 4019SOL    HW123693   4.321   3.063   5.313 -0.9348  0.7407  0.7061
 4019SOL    HW223694   4.277   3.049   5.172  0.2691 -0.0517  0.4302
 4020SOL     OW23695   4.048   3.169   4.484  0.1562  0.6253  0.3167
 4020SOL    HW123696   3.978   3.120   4.525 -0.8390  0.6141 -1.4297
 4020SOL    HW223697   4.053   3.117   4.404  0.6691 -0.2575  0.9188
 4021SOL     OW23698   3.143   3.349   0.422  0.0337  0.2513  0.4271
 4021SOL    HW123699   3.239   3.357   0.420  0.0003  0.4802 -0.5870
 4021SOL    HW223700   3.125   3.335   0.514 -0.3457 -2.5861 -0.0727
 4022SOL     OW23701   2.388   1.957  13.057  0.4745  0.0093 -0.0630
 4022SOL    HW123702   2.400   2.030  13.118 -3.6721  1.1771 -0.6572
 4022SOL    HW223703   2.399   1.890  13.125  3.3985  0.8956  0.3858
 4023SOL     OW23704   3.383   3.922   5.165 -0.2038 -0.1180  0.6994
 4023SOL    HW123705   3.350   4.012   5.164 -0.1554 -0.1395 -1.8311
 4023SOL    HW223706   3.424   3.914   5.251 -0.3224 -1.2581  0.6559
 4024SOL     OW23707   2.178   2.716   5.692  0.2100  0.0059 -0.1443
 4024SOL    HW123708   2.254   2.676   5.734  1.4144  3.0125  0.4946
 4024SOL    HW223709   2.187   2.686   5.602  0.8733  0.8341 -0.3519
 4025SOL     OW23710   4.416   4.620   7.078 -0.0216  0.6005  0.2980
 4025SOL    HW123711   4.495   4.675   7.080  1.7875 -1.9470 -0.4274
 4025SOL    HW223712   4.372   4.664   7.005 -2.2766 -0.9398  0.7141
 4026SOL     OW23713   2.206   2.117   8.413 -0.4403  0.7499  0.1652
 4026SOL    HW123714   2.125   2.167   8.418 -0.7139  0.4087 -0.9314
 4026SOL    HW223715   2.171   2.029   8.430 -0.4967  0.7344 -0.0404
 4027SOL     OW23716   4.460   0.059  10.398  0.3605 -0.6702  0.4169
 4027SOL    HW123717   4.423   0.055  10.310  0.7093  1.7382  0.1578
 4027SOL    HW223718   4.386   0.013  10.438 -0.3338  1.7936  1.9806
 4028SOL     OW23719   1.806   4.315   4.339  0.5081 -0.1163 -0.1103
 4028SOL    HW123720   1.741   4.367   4.291 -0.8254 -0.4819  1.3285
 4028SOL    HW223721   1.813   4.241   4.277 -0.4915  0.8743 -1.4075
 4029SOL     OW23722   3.722   1.167  15.189 -0.2453  0.6105  0.1505
 4029SOL    HW123723   3.686   1.103  15.250 -0.0693 -0.7537 -1.1681
 4029SOL    HW223724   3.693   1.136  15.103 -0.4687  1.1159  0.0408
 4030SOL     OW23725   0.422   2.429   6.499  0.0852 -0.1049 -0.3047
 4030SOL    HW123726   0.416   2.524   6.489  1.3832  0.1625  1.4860
 4030SOL    HW223727   0.406   2.396   6.410 -2.7981 -0.9155  0.5262
 4031SOL     OW23728   4.002   2.161   7.500 -0.3166 -0.0959 -0.3451
 4031SOL    HW123729   4.007   2.096   7.571 -2.8525  1.4780  1.3054
 4031SOL    HW223730   4.050   2.236   7.537  1.5380  0.4284 -3.8797
 4032SOL     OW23731   0.820   2.221  11.484 -0.1975  0.4621  0.0953
 4032SOL    HW123732   0.745   2.212  11.542 -0.2271 -1.7794 -0.2853
 4032SOL    HW223733   0.817   2.151  11.419 -0.5412  0.1458  0.4544
 4033SOL     OW23734   0.693   4.206  17.332  0.8590 -0.0085  0.0431
 4033SOL    HW123735   0.726   4.276  17.277  0.1250  0.1681 -0.1688
 4033SOL    HW223736   0.765   4.144  17.328  2.0983  1.4358  0.1150
 4034SOL     OW23737   3.138   4.728   5.330  0.2226 -0.4472 -0.2947
 4034SOL    HW123738   3.218   4.723   5.383 -0.0276 -0.1756  0.1077
 4034SOL    HW223739   3.083   4.683   5.395 -0.2529 -0.0728 -0.4408
 4035SOL     OW23740   0.449   0.831  16.138  0.4070 -0.2938  0.1245
 4035SOL    HW123741   0.509   0.847  16.064  1.1023  0.0707  0.7620
 4035SOL    HW223742   0.445   0.919  16.176  1.7566 -0.5809  0.9367
 4036SOL     OW23743   1.959   2.754  12.115 -0.9445 -0.3938  0.0787
 4036SOL    HW123744   2.040   2.765  12.065 -0.8873  3.0339  0.8639
 4036SOL    HW223745   1.901   2.812  12.065 -0.6786 -0.6411 -0.5132
 4037SOL     OW23746   0.347   0.581   2.690 -0.5799  0.3951  0.3508
 4037SOL    HW123747   0.360   0.591   2.595  1.9938 -2.1519  0.4482
 4037SOL    HW223748   0.367   0.492   2.718 -0.2002  0.7376  1.1469
 4038SOL     OW23749   2.497   3.825   8.574  0.0430  0.4464 -0.5304
 4038SOL    HW123750   2.473   3.747   8.523  2.1708  0.7465 -2.0169
 4038SOL    HW223751   2.475   3.803   8.664  0.8151  0.7847 -0.2607
 4039SOL     OW23752   1.875   1.713   6.019  0.8404 -0.2432  0.4325
 4039SOL    HW123753   1.960   1.738   5.984 -0.5774  1.9046 -1.5359
 4039SOL    HW223754   1.889   1.684   6.109  2.8573  1.4383  0.6580
 4040SOL     OW23755   3.137   0.376   5.011  0.0699 -0.4594  0.1582
 4040SOL    HW123756   3.150   0.312   4.941 -0.6218 -1.6407  1.1243
 4040SOL    HW223757   3.113   0.326   5.088  0.5694  1.0844  1.3269
 4041SOL     OW23758   3.470   3.456   1.847  0.4336 -0.0109 -0.4460
 4041SOL    HW123759   3.443   3.546   1.828 -1.1378 -0.6572 -1.2002
 4041SOL    HW223760   3.434   3.407   1.774  0.8933  0.0126 -0.6889
 4042SOL     OW23761   1.994   1.785   3.832  0.5517  0.4111 -0.0348
 4042SOL    HW123762   2.019   1.702   3.792 -2.5656  0.0307 -1.1554
 4042SOL    HW223763   1.925   1.771   3.897 -3.8849  0.6420 -4.7338
 4043SOL     OW23764   0.911   2.802   3.081 -0.2221  1.1912 -0.8126
 4043SOL    HW123765   0.826   2.845   3.072 -1.2767 -1.2532 -2.8138
 4043SOL    HW223766   0.951   2.869   3.135  2.4437  0.6800 -2.1491
 4044SOL     OW23767   3.069   0.115   8.483 -0.0279 -0.0063 -0.3358
 4044SOL    HW123768   3.148   0.065   8.505  1.6928  2.3934 -0.9546
 4044SOL    HW223769   3.015   0.094   8.559 -0.5118 -0.2866 -0.7607
 4045SOL     OW23770   4.426   1.786   8.911 -0.2055 -0.1822 -0.3211
 4045SOL    HW123771   4.411   1.781   8.817 -0.6116 -1.7553 -0.1689
 4045SOL    HW223772   4.513   1.826   8.910  0.6458 -1.9752  2.2664
 4046SOL     OW23773   1.881   1.265  15.227  0.3700  0.4526 -0.1297
 4046SOL    HW123774   1.816   1.265  15.297  1.5926  2.4319  0.9895
 4046SOL    HW223775   1.906   1.173  15.228  0.6097  0.4629 -3.1316
 4047SOL     OW23776   4.082   1.414  16.476 -0.4077 -0.6902 -0.4411
 4047SOL    HW123777   4.135   1.486  16.442  0.7901 -1.7444 -0.7874
 4047SOL    HW223778   3.993   1.449  16.468 -0.4865 -0.8456 -0.2283
 4048SOL     OW23779   3.517   4.562   1.911 -0.3036  0.0146  0.8998
 4048SOL    HW123780   3.474   4.499   1.854  1.4020 -1.6134  1.3976
 4048SOL    HW223781   3.602   4.528   1.938 -0.4988 -0.5397  0.8281
 4049SOL     OW23782   4.472   2.122   7.375 -0.4273  0.3507 -0.1072
 4049SOL    HW123783   4.552   2.165   7.345 -0.4788  0.3360 -0.2658
 4049SOL    HW223784   4.424   2.108   7.293  1.2905  0.9127 -1.1881
 4050SOL     OW23785   3.419   0.972  12.380  0.1729 -0.1306 -0.2269
 4050SOL    HW123786   3.399   0.917  12.304 -0.9678 -0.1337  0.0761
 4050SOL    HW223787   3.496   0.920  12.403 -0.8818 -0.9289  1.5008
 4051SOL     OW23788   1.933   0.037  13.989 -0.3056  0.3934 -0.6479
 4051SOL    HW123789   1.860   4.712  14.009 -0.2335  0.4660 -0.1635
 4051SOL    HW223790   1.893   0.085  13.916 -3.2433  1.4275  1.6236
 4052SOL     OW23791   1.795   1.024   6.686  0.0982 -0.2562  0.2290
 4052SOL    HW123792   1.801   0.953   6.622  0.7447  1.7209 -1.8988
 4052SOL    HW223793   1.701   1.044   6.686  0.1435 -0.0404  0.9656
 4053SOL     OW23794   4.428   1.266  13.728 -0.3097  0.1511  0.2027
 4053SOL    HW123795   4.410   1.193  13.787 -0.6740 -0.6750 -0.9293
 4053SOL    HW223796   4.469   1.218  13.656 -0.4957  0.2549  0.0244
 4054SOL     OW23797   0.283   1.743   2.644 -0.3899  0.2432 -0.1433
 4054SOL    HW123798   0.346   1.753   2.573  0.7984 -0.2766  0.8306
 4054SOL    HW223799   0.313   1.801   2.714 -0.2850 -0.5984  0.4985
 4055SOL     OW23800   0.397   2.099   8.608 -0.3411  0.2137 -0.2313
 4055SOL    HW123801   0.331   2.098   8.678  1.6239 -0.4575  1.6179
 4055SOL    HW223802   0.401   2.008   8.579 -2.5380 -0.5444  1.8720
 4056SOL     OW23803   4.635   4.575  17.183 -0.9750 -0.3584 -0.6151
 4056SOL    HW123804   4.553   4.533  17.158 -2.3408  1.3999  0.9087
 4056SOL    HW223805   4.701   4.545  17.120  1.1455  1.9590  0.4846
 4057SOL     OW23806   2.917   3.121  13.147  0.8840 -0.5677 -0.1007
 4057SOL    HW123807   2.869   3.197  13.179 -0.0529 -0.8422 -0.8450
 4057SOL    HW223808   2.963   3.086  13.223  0.0414  0.4849  0.8875
 4058SOL     OW23809   1.439   3.911   9.183 -0.0879  0.0673  0.0891
 4058SOL    HW123810   1.352   3.948   9.172 -0.2002 -0.3787 -0.5696
 4058SOL    HW223811   1.493   3.982   9.147  0.3840 -0.5308 -0.3936
 4059SOL     OW23812   1.702   4.703  13.643  0.6166  0.4513 -0.4432
 4059SOL    HW123813   1.634   0.036  13.631 -1.6158 -1.7032  0.1649
 4059SOL    HW223814   1.774   0.024  13.676  2.3920 -1.5831 -0.9710
 4060SOL     OW23815   3.445   0.358   5.801  0.2363  0.6204  0.1201
 4060SOL    HW123816   3.528   0.367   5.847 -1.4379 -0.4742  3.3623
 4060SOL    HW223817   3.477   0.319   5.719  1.3350  0.7910  0.4705
 4061SOL     OW23818   3.816   4.296   8.307  0.1889 -0.4555  0.2989
 4061SOL    HW123819   3.840   4.212   8.345 -1.1289  0.1262  2.4289
 4061SOL    HW223820   3.901   4.322   8.271  1.2197 -4.0974  0.0969
 4062SOL     OW23821   3.461   2.775   9.580  0.3872  0.0593  0.2601
 4062SOL    HW123822   3.409   2.776   9.499  0.6354  1.6307  0.1063
 4062SOL    HW223823   3.484   2.868   9.585  0.6888 -0.0271  0.4609
 4063SOL     OW23824   1.464   0.147   1.733  0.3449  0.0449 -0.2855
 4063SOL    HW123825   1.511   0.230   1.742  0.5435  0.1106 -1.8586
 4063SOL    HW223826   1.465   0.145   1.637 -1.7959 -0.3588 -0.2932
 4064SOL     OW23827   0.250   1.018   1.489  0.8488  0.1561  0.2314
 4064SOL    HW123828   0.258   1.107   1.523  0.3851 -0.2036  1.2912
 4064SOL    HW223829   0.155   1.010   1.477  0.7051 -0.8996  1.9655
 4065SOL     OW23830   1.161   1.394  11.246 -0.0914  0.1388  0.3860
 4065SOL    HW123831   1.075   1.416  11.211  0.0399 -0.4629 -0.3271
 4065SOL    HW223832   1.135   1.358  11.330 -1.0139  1.7673  0.7814
 4066SOL     OW23833   2.715   1.488   8.803 -0.0134  0.4636 -0.1321
 4066SOL    HW123834   2.633   1.441   8.784  0.6684 -0.5521 -0.5698
 4066SOL    HW223835   2.738   1.444   8.885  3.1369  3.0935  0.4079
 4067SOL     OW23836   1.290   4.322   5.597 -0.4962  0.5740  0.3071
 4067SOL    HW123837   1.339   4.403   5.581 -0.1863  0.2384 -0.4366
 4067SOL    HW223838   1.346   4.266   5.544  1.7402  0.5075  2.7518
 4068SOL     OW23839   1.591   0.078   4.194  0.2437  0.3896  0.4555
 4068SOL    HW123840   1.602   0.085   4.099 -1.5649  0.7968  0.2752
 4068SOL    HW223841   1.546   0.160   4.214 -2.1091 -1.0425  1.0377
 4069SOL     OW23842   0.452   0.244   9.609  0.7316  0.0454  0.3104
 4069SOL    HW123843   0.518   0.226   9.542 -1.0188  1.2116 -1.7137
 4069SOL    HW223844   0.403   0.164   9.588 -1.2254  1.3197  0.0544
 4070SOL     OW23845   0.363   0.972   4.070  0.2595 -0.4203 -1.0337
 4070SOL    HW123846   0.348   1.065   4.084  0.6547 -0.6949  1.2132
 4070SOL    HW223847   0.458   0.961   4.067  0.0128 -1.6971 -3.5548
 4071SOL     OW23848   4.042   4.265  16.180  0.7152 -0.1393  0.4523
 4071SOL    HW123849   4.035   4.199  16.111  0.8726 -1.0841  1.3404
 4071SOL    HW223850   4.102   4.324  16.134  0.2729  0.5521  0.7671
 4072SOL     OW23851   1.907   2.322  11.216 -0.1279  0.5727 -0.2596
 4072SOL    HW123852   1.851   2.245  11.223  0.0138  0.4953  0.0029
 4072SOL    HW223853   1.959   2.301  11.139 -0.6566 -2.6682  0.2681
 4073SOL     OW23854   4.404   1.520   8.581  0.0173 -0.6540 -0.1719
 4073SOL    HW123855   4.460   1.538   8.506  2.2600 -0.6008  1.5237
 4073SOL    HW223856   4.401   1.609   8.617  1.6450 -0.3426 -0.8114
 4074SOL     OW23857   1.143   1.894   0.031  0.0359  0.6497  0.4186
 4074SOL    HW123858   1.101   1.953  17.700 -1.2451 -1.3711 -0.6322
 4074SOL    HW223859   1.234   1.888   0.000 -0.1675  0.5762 -0.1631
 4075SOL     OW23860   4.391   0.185   4.140 -0.1056  0.1368  0.0921
 4075SOL    HW123861   4.325   0.149   4.199 -0.2499  0.8674  0.3751
 4075SOL    HW223862   4.451   0.215   4.207 -0.4742 -1.0073  0.9450
 4076SOL     OW23863   2.117   1.229  12.387  0.2887 -0.2881  0.1025
 4076SOL    HW123864   2.129   1.303  12.328  0.5287  1.4703  2.3695
 4076SOL    HW223865   2.057   1.267  12.451  2.6929 -0.8245  2.7008
 4077SOL     OW23866   0.613   2.971   8.591  0.4954 -0.1499  0.4828
 4077SOL    HW123867   0.680   2.993   8.655 -0.4032 -1.0699  1.7438
 4077SOL    HW223868   0.650   2.892   8.552 -1.9562 -1.2926  0.4656
 4078SOL     OW23869   0.072   2.567  12.353 -0.6856 -0.8346  0.0322
 4078SOL    HW123870   4.724   2.615  12.369  1.2698  1.8392  1.9887
 4078SOL    HW223871   0.044   2.476  12.361  1.0749 -1.5197 -1.4610
 4079SOL     OW23872   3.315   2.937   8.739  0.0707 -0.1165 -0.4106
 4079SOL    HW123873   3.387   2.919   8.679 -0.4921 -0.9285 -0.8464
 4079SOL    HW223874   3.343   3.015   8.787 -1.2465 -0.2777  0.6436
 4080SOL     OW23875   1.320   2.850   3.752  0.3187 -0.2409  0.5552
 4080SOL    HW123876   1.406   2.877   3.782  0.3398  0.3300 -0.0027
 4080SOL    HW223877   1.314   2.908   3.676 -0.3411 -1.1982 -0.1228
 4081SOL     OW23878   3.562   0.889  15.176  0.2062  0.6199  0.2379
 4081SOL    HW123879   3.490   0.911  15.235 -0.8754 -1.3829 -0.3056
 4081SOL    HW223880   3.594   0.816  15.229 -2.5740  0.0066  1.0903
 4082SOL     OW23881   0.243   3.545  16.552  0.9909 -0.2670 -0.1464
 4082SOL    HW123882   0.237   3.454  16.524  0.1394  0.5393 -2.5616
 4082SOL    HW223883   0.288   3.531  16.635  0.8968  0.1833 -0.0184
 4083SOL     OW23884   2.707   1.091  10.527 -0.1168  0.3801  0.0353
 4083SOL    HW123885   2.744   1.179  10.534 -1.0903  0.8342 -0.6089
 4083SOL    HW223886   2.615   1.107  10.545 -0.4364 -0.7020 -0.5983
 4084SOL     OW23887   2.412   0.215   7.491 -0.3520  0.1741  0.7998
 4084SOL    HW123888   2.502   0.238   7.468 -0.0628 -1.6950  0.0131
 4084SOL    HW223889   2.375   0.303   7.499 -0.6412  0.2467 -1.4466
 4085SOL     OW23890   4.367   0.262  13.791  0.2074 -0.4787  0.2034
 4085SOL    HW123891   4.403   0.333  13.739 -0.3087 -0.3505  0.0215
 4085SOL    HW223892   4.439   0.199  13.789 -0.7721 -1.5363 -1.1419
 4086SOL     OW23893   0.105   1.893  16.864 -0.6803 -0.4478 -0.0098
 4086SOL    HW123894   0.147   1.967  16.820 -0.5178 -1.1653 -1.0705
 4086SOL    HW223895   0.059   1.938  16.935 -0.4046  1.0389 -0.7604
 4087SOL     OW23896   3.213   0.648   3.341  0.1964  0.3258  0.1751
 4087SOL    HW123897   3.303   0.656   3.311 -0.0150 -0.4313 -0.6692
 4087SOL    HW223898   3.192   0.723   3.396  1.0378 -0.4726  1.5860
 4088SOL     OW23899   4.644   1.261   6.170  0.2953 -0.1095 -0.1158
 4088SOL    HW123900   4.563   1.218   6.199 -0.1757  1.2428  0.5907
 4088SOL    HW223901   4.683   1.290   6.252  1.1205  0.1093 -0.5853
 4089SOL     OW23902   0.156   1.857  16.535  0.2257  0.6980 -0.0181
 4089SOL    HW123903   0.080   1.882  16.588 -0.2931  0.9279 -0.8636
 4089SOL    HW223904   0.116   1.832  16.452  0.2357  0.5976  0.0073
 4090SOL     OW23905   1.128   0.617   7.564 -0.1834  0.0899  0.1634
 4090SOL    HW123906   1.207   0.630   7.617  0.3250 -1.1013 -0.3130
 4090SOL    HW223907   1.171   0.566   7.496  0.2222 -1.3991  1.5355
 4091SOL     OW23908   2.790   3.069   7.057 -0.2243 -0.6033 -0.4381
 4091SOL    HW123909   2.732   2.994   7.043  1.9857 -2.0200 -2.2181
 4091SOL    HW223910   2.731   3.138   7.086  4.5632  3.4685 -0.3701
 4092SOL     OW23911   4.204   3.472  11.979  0.2709 -0.0628 -0.1172
 4092SOL    HW123912   4.143   3.522  12.033 -0.1067 -2.3528  1.5771
 4092SOL    HW223913   4.206   3.531  11.903  3.4536  1.8719  1.4490
 4093SOL     OW23914   3.612   3.847  11.080  0.0022 -0.2241 -0.2480
 4093SOL    HW123915   3.690   3.900  11.095  1.7961 -2.9173  0.0243
 4093SOL    HW223916   3.547   3.882  11.140  0.0206  0.2550 -0.5064
 4094SOL     OW23917   3.601   4.730  16.511 -0.2739  0.6032  0.1054
 4094SOL    HW123918   3.536   4.694  16.572 -0.8800  1.4971 -0.0179
 4094SOL    HW223919   3.644   4.645  16.507 -0.3112  0.4089  3.7699
 4095SOL     OW23920   3.496   2.568  13.877  0.2112 -0.0422  0.1593
 4095SOL    HW123921   3.439   2.495  13.902 -0.0327  0.2430  0.4385
 4095SOL    HW223922   3.550   2.583  13.954  0.6026  1.9588 -0.4949
 4096SOL     OW23923   3.694   2.754   0.291 -0.1395  0.0240 -0.5993
 4096SOL    HW123924   3.709   2.849   0.287  1.8088 -0.2478  0.6056
 4096SOL    HW223925   3.761   2.721   0.350 -0.2412  0.3443 -0.3024
 4097SOL     OW23926   1.354   2.242   2.028  0.2953 -0.0267 -0.4496
 4097SOL    HW123927   1.312   2.177   2.085 -0.3198 -0.2286 -1.1359
 4097SOL    HW223928   1.447   2.223   2.043 -0.2658 -1.4304  1.3443
 4098SOL     OW23929   0.471   1.728   8.007 -0.1793 -0.8896  0.1368
 4098SOL    HW123930   0.521   1.651   7.981  0.2847 -0.6049  0.1945
 4098SOL    HW223931   0.415   1.720   7.929  0.6705 -0.2309 -0.5432
 4099SOL     OW23932   4.621   4.528   5.822  0.3649 -0.1384  0.3962
 4099SOL    HW123933   4.610   4.501   5.912  0.6968 -1.0346  0.1655
 4099SOL    HW223934   4.696   4.586   5.834 -0.4209  0.8316  0.6364
 4100SOL     OW23935   3.709   3.903   2.884 -0.0429  0.5113 -0.8188
 4100SOL    HW123936   3.628   3.900   2.832 -0.9133  0.2787  0.5586
 4100SOL    HW223937   3.698   3.995   2.909 -0.1296  0.5783 -1.0975
 4101SOL     OW23938   1.878   2.107   4.048 -0.1966  0.0608  0.1828
 4101SOL    HW123939   1.964   2.136   4.077  0.0071 -0.3748  0.0052
 4101SOL    HW223940   1.816   2.178   4.069 -1.7771 -1.4040  0.4863
 4102SOL     OW23941   2.914   2.260   6.105  0.4207  0.6855 -0.1254
 4102SOL    HW123942   2.860   2.229   6.033 -0.4543  2.3118 -0.1743
 4102SOL    HW223943   2.881   2.206   6.177  1.5149 -0.7860 -0.7495
 4103SOL     OW23944   1.638   2.014   5.334  0.2927  0.8066 -0.5138
 4103SOL    HW123945   1.587   2.090   5.308 -0.1072  0.5577 -0.4656
 4103SOL    HW223946   1.588   1.980   5.408 -0.0336 -0.3488 -1.2523
 4104SOL     OW23947   1.012   4.186   1.672 -0.0002 -0.4468 -0.4097
 4104SOL    HW123948   1.058   4.159   1.592  0.1151 -1.8174  0.1331
 4104SOL    HW223949   1.082   4.195   1.736 -0.5454 -0.9256  0.2450
 4105SOL     OW23950   3.827   3.968   2.407  0.7571  0.5103  0.5963
 4105SOL    HW123951   3.732   3.968   2.412  0.7243  0.8779 -0.0742
 4105SOL    HW223952   3.853   4.031   2.473 -0.2990  0.5605  0.9591
 4106SOL     OW23953   2.919   0.751   8.091 -0.1059  0.3497  0.3278
 4106SOL    HW123954   2.959   0.824   8.043  0.4908  0.8104  1.5402
 4106SOL    HW223955   2.865   0.713   8.022 -0.9617  2.1085  0.0253
 4107SOL     OW23956   3.478   2.917   5.631  0.0926  0.0673  0.2083
 4107SOL    HW123957   3.533   2.840   5.648 -0.4681 -1.0495 -2.8848
 4107SOL    HW223958   3.539   2.988   5.649 -0.9768  1.1206 -0.3530
 4108SOL     OW23959   3.748   2.731  10.702 -0.1136 -0.8069  0.3661
 4108SOL    HW123960   3.820   2.673  10.675  0.0431 -0.3111 -0.2789
 4108SOL    HW223961   3.797   2.805  10.738 -0.9315  1.0512 -2.3697
 4109SOL     OW23962   4.716   1.752   2.426 -0.1954 -0.0504 -0.1964
 4109SOL    HW123963   4.698   1.804   2.347  0.6398 -0.0226 -0.3704
 4109SOL    HW223964   4.698   1.663   2.397 -1.8137 -0.6430  2.6480
 4110SOL     OW23965   4.592   2.074   8.903  0.1103 -0.0589 -0.9499
 4110SOL    HW123966   4.528   2.050   8.971  1.2773  2.4951  1.0654
 4110SOL    HW223967   4.552   2.144   8.852 -2.5641  0.3682  1.7401
 4111SOL     OW23968   2.246   4.226   1.883  0.4049 -0.7891  0.2963
 4111SOL    HW123969   2.194   4.149   1.904  0.1997 -1.2855 -2.0620
 4111SOL    HW223970   2.185   4.266   1.821  1.2792 -2.1012 -1.4298
 4112SOL     OW23971   2.789   4.553   1.230  0.1990 -0.3791  0.1027
 4112SOL    HW123972   2.803   4.634   1.279  0.8285 -1.5670  1.8721
 4112SOL    HW223973   2.756   4.493   1.297  1.5472 -0.9692  0.2424
 4113SOL     OW23974   4.717   4.578  10.369  0.4336 -0.3973  0.1710
 4113SOL    HW123975   0.065   4.585  10.419  0.0653  3.5004  0.2212
 4113SOL    HW223976   4.655   4.546  10.435  1.1716 -0.9633  0.5789
 4114SOL     OW23977   4.605   0.098   7.381 -0.1958  0.2063 -0.3496
 4114SOL    HW123978   4.692   0.134   7.398 -1.0375  0.4243  3.5892
 4114SOL    HW223979   4.613   0.044   7.303  1.7170 -1.0446  0.7341
 4115SOL     OW23980   3.824   2.032   3.085 -0.5472 -0.0217  0.2879
 4115SOL    HW123981   3.905   2.013   3.038  1.7384 -3.3141  5.4684
 4115SOL    HW223982   3.799   1.949   3.127 -1.2432  0.6226  1.1360
 4116SOL     OW23983   3.859   1.411  17.038 -0.3327  0.8495  0.1396
 4116SOL    HW123984   3.951   1.384  17.042 -0.4615  0.5024  0.7651
 4116SOL    HW223985   3.867   1.447  16.949  4.7781 -0.1583  0.1933
 4117SOL     OW23986   0.180   3.775   6.281 -0.2543  0.2211 -0.0903
 4117SOL    HW123987   0.197   3.694   6.232  0.3346 -0.2916  0.9432
 4117SOL    HW223988   0.096   3.756   6.321  0.5347 -0.5330  1.2145
 4118SOL     OW23989   0.156   1.626  16.715  0.0582  0.3240  0.1943
 4118SOL    HW123990   0.170   1.685  16.641  0.8501  0.9706  0.8532
 4118SOL    HW223991   0.217   1.553  16.701  0.6062  1.1973 -1.9451
 4119SOL     OW23992   0.382   1.682   7.758 -0.0491  0.5217  0.2278
 4119SOL    HW123993   0.300   1.642   7.728 -0.4147  1.2236  0.2984
 4119SOL    HW223994   0.441   1.656   7.686  0.1171  0.3790  0.4168
 4120SOL     OW23995   4.206   0.382   2.442 -0.1310 -0.0644  0.3200
 4120SOL    HW123996   4.214   0.455   2.503 -1.4279  1.0425 -0.8304
 4120SOL    HW223997   4.115   0.358   2.456 -0.2768  0.8715  0.9643
 4121SOL     OW23998   4.321   1.514   0.901  0.6709  0.2783  0.4899
 4121SOL    HW123999   4.334   1.571   0.977  0.7788  0.8142  0.0708
 4121SOL    HW224000   4.233   1.535   0.871 -0.4084  1.1546  4.3152
 4122SOL     OW24001   3.976   0.426   4.734  0.3486 -0.1297  0.0341
 4122SOL    HW124002   3.914   0.375   4.786  0.6886 -2.1508 -1.5599
 4122SOL    HW224003   3.933   0.511   4.747 -1.0984 -0.9853  0.8272
 4123SOL     OW24004   3.596   2.288  11.760  0.2055  0.2959 -0.4588
 4123SOL    HW124005   3.617   2.328  11.675  1.5301 -1.3642 -0.9255
 4123SOL    HW224006   3.681   2.263  11.798 -1.0269 -0.9469  1.4804
 4124SOL     OW24007   3.895   4.619   4.902  0.3281  0.1087  0.0070
 4124SOL    HW124008   3.986   4.629   4.874 -0.2125 -1.0725 -2.1689
 4124SOL    HW224009   3.879   4.533   4.863 -0.5208  0.4324 -0.3688
 4125SOL     OW24010   1.570   2.997   2.144  0.1478  0.7772 -0.1047
 4125SOL    HW124011   1.643   3.041   2.187  1.5140 -0.8747 -0.7577
 4125SOL    HW224012   1.488   3.040   2.169  0.0852  0.5314  0.1113
 4126SOL     OW24013   1.237   0.639  16.991 -0.1959 -0.2516  0.3700
 4126SOL    HW124014   1.152   0.655  17.032 -0.8953  0.4946 -1.3465
 4126SOL    HW224015   1.215   0.651  16.899 -0.4826  0.5037  0.5356
 4127SOL     OW24016   3.891   1.721  16.257  0.8849  0.1170 -0.1714
 4127SOL    HW124017   3.947   1.738  16.181  3.7009  1.6970  2.2740
 4127SOL    HW224018   3.830   1.794  16.254 -1.4656 -1.8978 -1.6378
 4128SOL     OW24019   1.819   1.493   8.111  0.0615  0.2436 -0.2371
 4128SOL    HW124020   1.865   1.468   8.191 -0.2339  0.2322 -0.0708
 4128SOL    HW224021   1.736   1.534   8.136 -0.2570 -0.3219 -0.3744
 4129SOL     OW24022   0.064   3.100   4.224  0.4072  0.2043 -0.1036
 4129SOL    HW124023   0.113   3.177   4.195  1.0729 -0.2563 -0.2117
 4129SOL    HW224024   0.130   3.034   4.202  0.4164  1.0639 -2.6129
 4130SOL     OW24025   1.858   0.105   3.708  0.5769 -0.5600 -0.0705
 4130SOL    HW124026   1.921   0.163   3.665 -0.5855 -0.0509 -1.0551
 4130SOL    HW224027   1.865   0.029   3.650  1.9966 -0.8091  0.4360
 4131SOL     OW24028   1.300   3.316   4.396  0.1194  0.5966 -0.0454
 4131SOL    HW124029   1.322   3.342   4.307 -1.8834  0.9161 -0.4567
 4131SOL    HW224030   1.209   3.285   4.396 -0.1569  1.3768  1.7032
 4132SOL     OW24031   2.928   3.006   4.417 -0.2825 -0.5354  0.6501
 4132SOL    HW124032   2.995   3.055   4.465  0.0547 -1.5950  1.2673
 4132SOL    HW224033   2.966   2.918   4.416 -0.5431 -0.6458  0.6082
 4133SOL     OW24034   1.664   1.346   6.996  0.1044  0.3049 -0.4174
 4133SOL    HW124035   1.627   1.344   6.907 -1.8803  0.2054  0.4002
 4133SOL    HW224036   1.731   1.278   6.997 -0.1076  0.0495 -2.4354
 4134SOL     OW24037   0.491   1.407   4.639 -0.1834  0.1718 -0.0318
 4134SOL    HW124038   0.468   1.478   4.579  1.7424 -1.1318 -2.2826
 4134SOL    HW224039   0.586   1.416   4.646 -0.2493 -1.2364  2.8768
 4135SOL     OW24040   4.692   4.340  16.273 -0.2276  0.1784 -0.4222
 4135SOL    HW124041   4.672   4.429  16.244 -2.2663 -0.7529 -1.8936
 4135SOL    HW224042   4.701   4.352  16.367  3.4669  2.9268 -1.0949
 4136SOL     OW24043   2.060   3.786   4.429 -0.1213  0.4782 -0.1487
 4136SOL    HW124044   2.119   3.785   4.354  0.7339 -0.3069  0.5296
 4136SOL    HW224045   2.116   3.829   4.494 -0.2420  1.1933 -0.5136
 4137SOL     OW24046   1.568   0.591   4.305 -0.3612  0.2423 -0.1915
 4137SOL    HW124047   1.658   0.591   4.338 -0.0650 -0.2048 -0.9677
 4137SOL    HW224048   1.515   0.634   4.371  0.9521  2.9683 -0.9369
 4138SOL     OW24049   2.009   3.981  15.410 -0.8010  0.2570 -0.0573
 4138SOL    HW124050   1.933   3.995  15.354 -0.0764 -0.2141 -1.1656
 4138SOL    HW224051   1.983   4.035  15.484  1.3755  1.5089 -0.2171
 4139SOL     OW24052   3.060   3.930  14.570 -0.2526 -0.7109 -0.3722
 4139SOL    HW124053   3.078   3.989  14.496  0.3423 -2.0911 -1.3286
 4139SOL    HW224054   3.045   3.992  14.641 -0.1009 -0.7986 -0.2639
 4140SOL     OW24055   4.620   3.489   7.932  0.0195 -0.0162  0.6273
 4140SOL    HW124056   4.600   3.567   7.880  3.6272  1.5343  1.5951
 4140SOL    HW224057   4.607   3.514   8.023  1.0358  0.0060  0.7657
 4141SOL     OW24058   1.500   3.979   7.537  0.2550  0.2704  0.5879
 4141SOL    HW124059   1.578   4.034   7.539  1.1558 -0.9220 -1.3807
 4141SOL    HW224060   1.536   3.891   7.523 -0.9226 -0.0959 -0.1527
 4142SOL     OW24061   3.103   2.316  12.142  0.7884  0.0205 -0.3043
 4142SOL    HW124062   3.047   2.353  12.073  0.4327 -2.5442 -1.4082
 4142SOL    HW224063   3.167   2.256  12.102  2.5289 -0.4135  3.1025
 4143SOL     OW24064   2.674   2.503  10.650 -0.0896  0.1555  0.0783
 4143SOL    HW124065   2.757   2.461  10.628  0.0589  0.0896  0.7765
 4143SOL    HW224066   2.680   2.508  10.745  0.2392  1.6065 -0.0104
 4144SOL     OW24067   1.545   3.406   0.512 -0.1678  0.9619 -1.1036
 4144SOL    HW124068   1.487   3.339   0.547  1.1142 -0.9304 -2.6164
 4144SOL    HW224069   1.611   3.418   0.579 -1.2485  2.4267 -0.2950
 4145SOL     OW24070   1.039   1.453  14.168 -0.2512  0.1718 -0.0477
 4145SOL    HW124071   1.055   1.528  14.226  1.1252  1.2456 -1.7782
 4145SOL    HW224072   1.123   1.432  14.127 -1.3482 -0.9660 -1.7110
 4146SOL     OW24073   3.092   1.993   1.952 -0.0929 -0.1248  0.0879
 4146SOL    HW124074   3.126   1.927   1.891  0.2114  0.9296 -0.8883
 4146SOL    HW224075   3.036   2.052   1.902  0.7365  0.6602  0.0727
 4147SOL     OW24076   1.891   1.990   3.217 -0.5937  0.4610  0.0761
 4147SOL    HW124077   1.865   2.064   3.163  2.5398  0.3080 -1.6482
 4147SOL    HW224078   1.960   2.016   3.278  0.1558  2.0302 -1.4712
 4148SOL     OW24079   2.842   2.868   3.414  0.3218  0.2011  0.3398
 4148SOL    HW124080   2.825   2.880   3.320 -1.3360  1.6211  0.8114
 4148SOL    HW224081   2.791   2.789   3.435 -0.8122  0.7298 -0.3869
 4149SOL     OW24082   3.625   2.373   0.188 -0.0800 -0.1593  0.0491
 4149SOL    HW124083   3.564   2.390   0.259  0.6347 -1.0509  0.8745
 4149SOL    HW224084   3.638   2.465   0.163  0.5995 -0.1494  0.4465
 4150SOL     OW24085   4.471   0.655   4.301  0.0542 -0.0514 -0.1216
 4150SOL    HW124086   4.517   0.688   4.378 -4.3335 -0.7180  2.8161
 4150SOL    HW224087   4.397   0.613   4.345  1.1331 -1.3051  0.4693
 4151SOL     OW24088   0.994   3.381  10.934  0.5004 -0.2667 -0.5819
 4151SOL    HW124089   0.995   3.296  10.889 -1.0448  0.1783 -1.4189
 4151SOL    HW224090   0.916   3.359  10.985 -0.2385  3.5696 -0.0820
 4152SOL     OW24091   2.618   4.667   8.247 -0.3082 -0.0185  0.0636
 4152SOL    HW124092   2.683   4.717   8.198  0.1972 -1.0290 -0.2835
 4152SOL    HW224093   2.654   4.583   8.218  0.9323 -0.2368  2.2243
 4153SOL     OW24094   0.739   3.795   5.366 -0.2673 -0.4468  0.5256
 4153SOL    HW124095   0.664   3.762   5.316  1.0312 -1.1623 -0.9474
 4153SOL    HW224096   0.694   3.833   5.442 -0.5182  0.4029 -0.0496
 4154SOL     OW24097   3.947   1.947  12.948 -0.4714 -0.2374 -0.1423
 4154SOL    HW124098   4.027   1.965  12.898  0.7334  0.9316  2.2004
 4154SOL    HW224099   3.890   2.021  12.928 -0.1145 -0.8064 -3.3023
 4155SOL     OW24100   1.853   4.222  16.889  0.3087 -0.1012  0.8648
 4155SOL    HW124101   1.759   4.208  16.900  0.1733 -0.7685 -1.1203
 4155SOL    HW224102   1.871   4.295  16.947  1.0946  0.5232 -0.1531
 4156SOL     OW24103   1.724   2.695   7.057 -0.3899  0.6363 -0.0075
 4156SOL    HW124104   1.749   2.650   7.137  3.4074  0.6820 -1.1837
 4156SOL    HW224105   1.697   2.780   7.094  1.0434 -0.3766  3.3804
 4157SOL     OW24106   1.612   0.671   8.843 -0.4358 -0.5322  0.5253
 4157SOL    HW124107   1.703   0.676   8.872  0.0323 -1.6815 -0.7796
 4157SOL    HW224108   1.576   0.752   8.881  1.8252  0.8262 -0.2380
 4158SOL     OW24109   0.460   3.475   7.001 -0.2736 -0.0648  0.2769
 4158SOL    HW124110   0.384   3.475   7.059  1.8027 -0.6993  3.0579
 4158SOL    HW224111   0.520   3.456   7.073  0.2575  0.6139  0.0120
 4159SOL     OW24112   3.766   3.177  13.535 -0.3192  0.2460  0.3401
 4159SOL    HW124113   3.755   3.148  13.444  1.4070  1.2870 -0.2028
 4159SOL    HW224114   3.707   3.113  13.574 -0.4861  0.0143 -0.2943
 4160SOL     OW24115   4.520   3.385   2.470 -0.0455 -0.1540  0.1595
 4160SOL    HW124116   4.568   3.302   2.469  0.3815  0.1039 -0.7381
 4160SOL    HW224117   4.536   3.426   2.555 -1.3208  1.5112 -0.4018
 4161SOL     OW24118   3.930   0.976  14.239  0.1104 -0.2727  0.4872
 4161SOL    HW124119   3.867   0.982  14.311  0.1449  0.6694  0.4323
 4161SOL    HW224120   3.971   0.889  14.245 -2.8880 -1.5364  2.8872
 4162SOL     OW24121   3.997   0.665  17.391  0.9062 -0.0024 -0.7862
 4162SOL    HW124122   4.065   0.729  17.367  0.7567 -0.3155 -2.0641
 4162SOL    HW224123   4.048   0.584  17.391  2.1401  0.7771  0.1644
 4163SOL     OW24124   2.120   2.370  15.431 -0.1950  0.4197 -0.0456
 4163SOL    HW124125   2.186   2.355  15.364  0.1471  1.4708  0.0572
 4163SOL    HW224126   2.164   2.334  15.508  1.0652 -0.2371 -1.0891
 4164SOL     OW24127   1.625   0.637   0.457  0.2263  0.2658 -0.3813
 4164SOL    HW124128   1.702   0.620   0.511 -0.3429  0.8458  0.6066
 4164SOL    HW224129   1.601   0.549   0.427  3.4600 -0.6293 -0.4086
 4165SOL     OW24130   3.245   1.313   1.015  0.4437  0.1153  0.0957
 4165SOL    HW124131   3.282   1.296   0.929  0.1441 -1.6467  0.3220
 4165SOL    HW224132   3.280   1.401   1.032  1.3560  0.0127 -1.2379
 4166SOL     OW24133   4.206   3.232   8.088  0.5463 -0.4674 -0.5092
 4166SOL    HW124134   4.126   3.222   8.035  0.6845 -1.4791 -0.5252
 4166SOL    HW224135   4.269   3.238   8.016 -0.7476  0.5200 -1.5615
 4167SOL     OW24136   1.170   1.121   0.453 -0.5754 -0.1506  0.4716
 4167SOL    HW124137   1.257   1.132   0.414  0.1670 -1.7088  1.6663
 4167SOL    HW224138   1.185   1.150   0.543 -1.4034  1.1293  0.1939
 4168SOL     OW24139   3.968   4.711  11.863  0.5138 -0.1957 -0.2689
 4168SOL    HW124140   3.972   0.046  11.930  1.4504 -0.6397  0.1293
 4168SOL    HW224141   4.048   4.729  11.815 -1.3129 -1.0357 -3.6443
 4169SOL     OW24142   4.071   3.605  14.693  0.1462  0.4578  0.0308
 4169SOL    HW124143   4.115   3.521  14.705 -1.1216 -0.3694 -1.1293
 4169SOL    HW224144   4.035   3.625  14.780  2.3954  0.2263  1.0277
 4170SOL     OW24145   4.265   2.523  17.376  0.5528 -0.6612  0.6537
 4170SOL    HW124146   4.234   2.444  17.332  2.5399 -1.4148  0.6243
 4170SOL    HW224147   4.358   2.525  17.354  0.5165 -0.7093  0.4970
 4171SOL     OW24148   1.250   1.088   7.524  0.0334 -0.0777 -0.4429
 4171SOL    HW124149   1.274   1.040   7.603  0.2201 -1.5941 -1.4176
 4171SOL    HW224150   1.168   1.041   7.508 -0.6134  0.0522  2.4942
 4172SOL     OW24151   2.643   1.129  13.915  0.0447 -0.3730  0.4834
 4172SOL    HW124152   2.613   1.073  13.987 -0.6738  0.8059  1.1035
 4172SOL    HW224153   2.584   1.099  13.846 -1.2230  2.8377  0.1626
 4173SOL     OW24154   1.107   0.191   8.057  0.0566 -0.2268 -0.5558
 4173SOL    HW124155   1.091   0.098   8.042  0.8222 -0.3017 -0.8848
 4173SOL    HW224156   1.065   0.185   8.143  0.8401  0.7199 -0.1129
 4174SOL     OW24157   3.089   4.479   6.639 -0.4719 -0.4716 -0.0243
 4174SOL    HW124158   3.162   4.535   6.667  1.2705 -0.8393 -3.8039
 4174SOL    HW224159   3.108   4.487   6.546  3.3152  1.1880  0.8354
 4175SOL     OW24160   2.764   2.311  11.653 -0.1675  0.8798 -0.0370
 4175SOL    HW124161   2.668   2.318  11.652 -0.2171 -0.0388 -1.6679
 4175SOL    HW224162   2.774   2.249  11.725 -1.1479 -1.0250 -1.5422
 4176SOL     OW24163   4.203   0.518   7.334 -0.0153  0.4048 -0.8783
 4176SOL    HW124164   4.173   0.448   7.277 -1.3162  0.4759 -0.2764
 4176SOL    HW224165   4.188   0.481   7.421 -0.0109 -0.2758 -1.1637
 4177SOL     OW24166   2.712   4.168   5.322 -0.5235 -0.1005 -0.0842
 4177SOL    HW124167   2.695   4.074   5.334 -0.8348  0.0440  0.6326
 4177SOL    HW224168   2.688   4.192   5.233  0.8586  2.3191  0.1879
 4178SOL     OW24169   0.203   2.031   5.465 -0.9261  0.1704 -0.2851
 4178SOL    HW124170   0.120   1.986   5.482 -0.7844 -1.0946 -3.0472
 4178SOL    HW224171   0.251   1.966   5.414  3.7524  1.1691  2.8452
 4179SOL     OW24172   0.656   0.294  15.062 -0.3988  0.4791 -0.4410
 4179SOL    HW124173   0.748   0.316  15.076 -0.1125 -1.5455  0.8321
 4179SOL    HW224174   0.638   0.349  14.986  0.1682  3.7106  1.7745
 4180SOL     OW24175   3.830   0.896   3.609  0.2607  0.8169 -0.3535
 4180SOL    HW124176   3.747   0.933   3.577  0.4553  1.3348 -0.2558
 4180SOL    HW224177   3.891   0.967   3.589 -0.2327  2.0907  2.5711
 4181SOL     OW24178   0.925   2.281  16.963  0.0787  0.0180 -0.2252
 4181SOL    HW124179   0.933   2.260  17.056 -0.8247  1.2926  0.1505
 4181SOL    HW224180   0.937   2.376  16.966 -0.6488  0.1097 -0.1005
 4182SOL     OW24181   1.406   1.270  15.366  0.5121  0.3581 -0.1821
 4182SOL    HW124182   1.416   1.218  15.446  2.7109  1.4517  0.2674
 4182SOL    HW224183   1.336   1.326  15.399  1.4856  1.0826  0.6670
 4183SOL     OW24184   3.822   1.190   2.864  0.2251  0.5168  0.4864
 4183SOL    HW124185   3.853   1.221   2.949  0.7368 -1.5707  1.0703
 4183SOL    HW224186   3.818   1.268   2.810  0.4682  0.3187  0.1850
 4184SOL     OW24187   4.690   1.264   2.921  0.2241  0.2120  0.1889
 4184SOL    HW124188   4.690   1.218   3.005 -0.9649 -2.1603 -1.1261
 4184SOL    HW224189   4.686   1.193   2.858 -1.0159  0.2865  0.1905
 4185SOL     OW24190   4.720   1.561  16.981 -0.1619  0.2450 -0.2418
 4185SOL    HW124191   4.667   1.542  17.059  0.1243  2.2983  0.4418
 4185SOL    HW224192   4.724   1.473  16.941  2.1410  0.4366 -0.3916
 4186SOL     OW24193   0.934   2.916  12.519  0.5022  0.2656  0.5406
 4186SOL    HW124194   0.977   2.973  12.456 -0.1914 -0.4486 -0.5588
 4186SOL    HW224195   0.944   2.828  12.482 -0.5741 -0.3164  1.6183
 4187SOL     OW24196   1.970   0.225   2.088 -0.2828 -0.1166  0.0398
 4187SOL    HW124197   2.058   0.225   2.125 -0.6101 -0.2791  0.8093
 4187SOL    HW224198   1.947   0.317   2.101 -1.8029 -0.4663 -0.0715
 4188SOL     OW24199   0.890   0.866  15.337 -0.6552  0.5737  0.4034
 4188SOL    HW124200   0.848   0.858  15.252 -2.2370  2.1624  1.0471
 4188SOL    HW224201   0.839   0.809  15.393  0.1714 -0.6534 -0.0903
 4189SOL     OW24202   3.849   0.724  14.545 -0.6937  0.1130  0.5432
 4189SOL    HW124203   3.803   0.804  14.571 -1.6384 -0.0514 -0.6192
 4189SOL    HW224204   3.936   0.766  14.545 -0.8889  0.5256  3.0530
 4190SOL     OW24205   0.863   3.365   8.874  0.0289  0.2621  0.1923
 4190SOL    HW124206   0.843   3.282   8.917 -0.7950  1.0344  1.2987
 4190SOL    HW224207   0.785   3.417   8.893  0.0036  0.8545 -1.5773
 4191SOL     OW24208   2.488   0.529   2.420 -0.3030  0.1596 -0.3065
 4191SOL    HW124209   2.510   0.580   2.498 -1.1516 -0.8332  0.5889
 4191SOL    HW224210   2.527   0.448   2.454  0.1790  1.0122  1.1908
 4192SOL     OW24211   0.802   4.315  16.849 -0.5040  0.6121  0.3779
 4192SOL    HW124212   0.774   4.344  16.762  2.9668  1.8440 -0.3151
 4192SOL    HW224213   0.889   4.279  16.833 -1.0983 -0.3029 -0.7810
 4193SOL     OW24214   0.502   2.628   5.943  0.1209  0.5928  0.3275
 4193SOL    HW124215   0.433   2.648   6.006 -0.0088  2.3441 -0.3849
 4193SOL    HW224216   0.443   2.584   5.882 -0.8443  2.0603  0.2137
 4194SOL     OW24217   2.541   1.730   2.504 -0.5742 -0.3209 -0.6597
 4194SOL    HW124218   2.461   1.736   2.556 -1.2010  0.7629 -1.7710
 4194SOL    HW224219   2.528   1.645   2.462  1.0481  0.0793 -1.9951
 4195SOL     OW24220   4.383   3.760   2.317  0.4058 -0.0012  0.2793
 4195SOL    HW124221   4.474   3.791   2.310  0.9860 -1.9642 -1.0092
 4195SOL    HW224222   4.365   3.763   2.223 -1.5358  1.3295  0.7097
 4196SOL     OW24223   2.387   3.484   2.607 -0.4341 -0.2730  0.2069
 4196SOL    HW124224   2.469   3.436   2.595  1.4828  3.0662  0.0940
 4196SOL    HW224225   2.322   3.422   2.641 -1.4668  0.1485 -0.9982
 4197SOL     OW24226   0.993   2.711  12.179  0.1943  0.2822  0.4135
 4197SOL    HW124227   1.032   2.664  12.253  2.5772  1.8009  0.1116
 4197SOL    HW224228   1.005   2.802  12.207 -1.0288  0.1112  1.5058
 4198SOL     OW24229   1.479   0.917   8.250  0.2964 -0.1234 -0.0616
 4198SOL    HW124230   1.483   0.965   8.333  1.1608  1.2013 -0.8723
 4198SOL    HW224231   1.392   0.940   8.218  0.3469  0.7676  0.4535
 4199SOL     OW24232   4.023   3.596   3.977 -0.0720 -0.5790  0.5395
 4199SOL    HW124233   4.069   3.524   4.020 -0.4800 -0.2181  1.5856
 4199SOL    HW224234   3.941   3.592   4.025 -0.9043  1.4902 -0.7017
 4200SOL     OW24235   0.186   2.342   2.292  0.2035  0.0840 -0.0362
 4200SOL    HW124236   0.230   2.369   2.372 -0.8423  4.6495 -1.0097
 4200SOL    HW224237   0.134   2.422   2.281  2.3575  1.2131 -1.9955
 4201SOL     OW24238   1.904   2.871   2.962  0.1363  0.2387 -0.1942
 4201SOL    HW124239   1.809   2.875   2.964  0.0792 -1.1331 -0.1914
 4201SOL    HW224240   1.910   2.958   2.923 -0.3853 -0.6011 -2.1414
 4202SOL     OW24241   2.253   3.616   1.794  0.1724 -0.7480  0.7382
 4202SOL    HW124242   2.304   3.602   1.874 -0.4050  1.4715  1.5237
 4202SOL    HW224243   2.195   3.540   1.792  0.2807 -0.8834  2.6383
 4203SOL     OW24244   4.548   3.817  10.354  0.3694 -0.0041 -0.4650
 4203SOL    HW124245   4.453   3.815  10.366  0.5571 -1.6905  0.7935
 4203SOL    HW224246   4.582   3.829  10.442 -1.7413  2.0397  0.0594
 4204SOL     OW24247   2.365   4.196  12.417  0.2939 -0.2004  0.5465
 4204SOL    HW124248   2.460   4.205  12.423  0.5727 -2.8450  0.3634
 4204SOL    HW224249   2.350   4.107  12.449  1.9361 -0.2948  1.0300
 4205SOL     OW24250   4.354   0.686   5.647 -0.4237  0.4844 -0.1584
 4205SOL    HW124251   4.354   0.779   5.623 -0.8528  0.4456 -0.3107
 4205SOL    HW224252   4.428   0.684   5.708  2.0871  1.1759 -3.1614
 4206SOL     OW24253   2.828   3.972   6.852 -0.7009  0.6641  0.2835
 4206SOL    HW124254   2.888   3.905   6.887 -1.4385  0.1433  0.5429
 4206SOL    HW224255   2.766   3.914   6.809  3.9121 -1.2444 -3.8115
 4207SOL     OW24256   1.686   0.048   7.450 -0.1784  0.9362  0.4655
 4207SOL    HW124257   1.696   4.689   7.428 -1.4123  1.6319 -3.1186
 4207SOL    HW224258   1.606   0.048   7.504 -1.8786  1.5003 -2.0281
 4208SOL     OW24259   0.046   2.371   4.084  0.2793  0.4788  0.1402
 4208SOL    HW124260   0.140   2.388   4.070 -0.3228  0.9434 -3.4000
 4208SOL    HW224261   0.057   2.285   4.045  2.7041  1.2712 -0.9644
 4209SOL     OW24262   0.999   1.347   9.345  0.2913  0.0408 -0.0434
 4209SOL    HW124263   0.988   1.320   9.253 -1.6545 -4.4282  1.5105
 4209SOL    HW224264   0.962   1.435   9.338 -1.1082 -0.5309  0.3332
 4210SOL     OW24265   2.041   4.182   0.094  0.6606 -0.4878 -0.6067
 4210SOL    HW124266   1.988   4.138   0.027  1.0418  2.7237 -3.0512
 4210SOL    HW224267   2.128   4.148   0.073  0.7287 -0.9049  0.3725
 4211SOL     OW24268   3.070   2.803   7.210  0.2206  0.1548  0.0573
 4211SOL    HW124269   3.166   2.801   7.207  0.2095  0.3414 -0.3950
 4211SOL    HW224270   3.042   2.810   7.301  0.6746  1.7505  0.0683
 4212SOL     OW24271   3.923   1.647   7.003  0.3305  0.8143  0.4435
 4212SOL    HW124272   3.986   1.576   7.010 -0.2748 -0.0167 -2.3859
 4212SOL    HW224273   3.979   1.725   7.004  0.4395  0.7576 -1.4245
 4213SOL     OW24274   4.462   2.061  15.508 -0.0891  1.1117 -0.2450
 4213SOL    HW124275   4.547   2.028  15.478 -1.5766 -2.2819 -0.7332
 4213SOL    HW224276   4.402   2.004  15.461  0.6541  0.8032 -0.8231
 4214SOL     OW24277   1.119   3.993   8.515 -0.0589 -0.1995  0.6211
 4214SOL    HW124278   1.038   4.039   8.495  1.1355  1.1114 -1.2338
 4214SOL    HW224279   1.095   3.936   8.588 -0.7659 -0.6309  0.0540
 4215SOL     OW24280   2.757   1.311   9.006 -0.7721 -0.1778  0.0081
 4215SOL    HW124281   2.797   1.261   9.077 -1.3604 -0.4931  0.1113
 4215SOL    HW224282   2.669   1.275   9.012 -0.6822 -0.4710 -0.4014
 4216SOL     OW24283   0.933   2.136   4.251  0.3097 -0.2461  0.0916
 4216SOL    HW124284   1.020   2.102   4.272  0.3195 -0.3359 -0.0863
 4216SOL    HW224285   0.893   2.123   4.336 -1.5493 -1.3116 -0.9556
 4217SOL     OW24286   3.038   0.518  11.219  0.2072 -0.2750 -0.3895
 4217SOL    HW124287   3.129   0.527  11.247 -0.2497 -2.6179  1.8338
 4217SOL    HW224288   3.022   0.426  11.239 -0.3202  0.4068  2.3529
 4218SOL     OW24289   0.930   1.323   8.432 -0.4890 -0.0320 -0.2235
 4218SOL    HW124290   0.849   1.369   8.452 -0.4114  0.1710 -0.3753
 4218SOL    HW224291   0.946   1.288   8.520 -1.5349 -1.4485 -0.5880
 4219SOL     OW24292   4.260   2.361   2.383 -0.3074  0.5010 -0.6367
 4219SOL    HW124293   4.299   2.282   2.421 -1.2308 -0.2299 -1.2388
 4219SOL    HW224294   4.278   2.338   2.292 -0.5380 -1.0496 -0.2856
 4220SOL     OW24295   3.332   0.292   3.722  0.0431 -0.7502  0.2553
 4220SOL    HW124296   3.379   0.209   3.723 -0.2656 -0.9822 -2.6137
 4220SOL    HW224297   3.406   0.349   3.700  0.2186 -1.1561 -0.2044
 4221SOL     OW24298   3.456   0.323   8.461 -0.2118 -0.3063  0.5145
 4221SOL    HW124299   3.361   0.336   8.457 -0.0765  1.3375  3.0215
 4221SOL    HW224300   3.475   0.320   8.554  2.0068  0.3994  0.0865
 4222SOL     OW24301   0.741   1.907   2.269  0.0942  0.3487  0.1174
 4222SOL    HW124302   0.702   1.955   2.341  2.0001  0.4211  1.0837
 4222SOL    HW224303   0.819   1.873   2.313  0.7214  1.1222 -0.4084
 4223SOL     OW24304   2.105   0.852   4.145  0.3402 -0.0370 -0.0302
 4223SOL    HW124305   2.012   0.844   4.164  0.5576  0.5585  1.2700
 4223SOL    HW224306   2.096   0.938   4.105  1.8363 -0.7231 -1.8850
 4224SOL     OW24307   0.342   2.961   8.603 -0.4096  0.0519 -0.1740
 4224SOL    HW124308   0.437   2.964   8.588 -0.2335  0.2351  0.9666
 4224SOL    HW224309   0.328   2.868   8.615 -0.9118 -0.1614 -2.4451
 4225SOL     OW24310   0.807   4.594  16.590  0.4292  0.1695  0.3113
 4225SOL    HW124311   0.780   4.654  16.521 -0.6165 -0.0380  0.5365
 4225SOL    HW224312   0.747   4.522  16.571  0.3897 -0.2572  2.0386
 4226SOL     OW24313   3.280   0.572   5.861  0.4060  0.4691 -0.1949
 4226SOL    HW124314   3.336   0.503   5.826 -0.8084  0.4907 -2.1888
 4226SOL    HW224315   3.337   0.623   5.919  0.5946 -1.1072  0.9699
 4227SOL     OW24316   1.180   0.118   5.275  0.2662 -0.0013  0.0799
 4227SOL    HW124317   1.258   0.106   5.221 -0.7334 -0.8603 -1.1811
 4227SOL    HW224318   1.167   0.211   5.290 -0.4554 -0.2002  0.6677
 4228SOL     OW24319   2.046   1.212   3.152 -0.6411  0.2174 -0.0270
 4228SOL    HW124320   2.136   1.180   3.150 -0.3415  1.0600 -0.1137
 4228SOL    HW224321   2.027   1.176   3.065 -1.8960  1.5189 -0.3035
 4229SOL     OW24322   4.091   2.526   8.626 -0.0481  0.2726  0.1521
 4229SOL    HW124323   4.184   2.548   8.627 -0.3937  1.6564  2.0129
 4229SOL    HW224324   4.084   2.487   8.714 -0.9073  1.5712  0.6563
 4230SOL     OW24325   2.981   2.844  10.728 -0.1256 -0.2054 -0.1405
 4230SOL    HW124326   3.012   2.753  10.728  0.4162 -0.0200 -0.9183
 4230SOL    HW224327   2.918   2.830  10.657 -0.5958 -1.9902  0.6030
 4231SOL     OW24328   1.575   1.639  11.598  0.4174  0.2314 -0.3417
 4231SOL    HW124329   1.489   1.608  11.571  0.8611 -2.6276  1.5050
 4231SOL    HW224330   1.607   1.562  11.644 -0.3461 -0.8700 -1.6479
 4232SOL     OW24331   1.476   2.158  11.187 -0.3271  0.2814 -0.0455
 4232SOL    HW124332   1.474   2.062  11.182  2.1282  0.2774 -1.1146
 4232SOL    HW224333   1.519   2.171  11.102 -1.0774 -0.4621 -0.5410
 4233SOL     OW24334   0.466   3.330  11.444 -0.7484  0.3771  0.2313
 4233SOL    HW124335   0.508   3.319  11.529 -2.4374 -1.9051  0.7778
 4233SOL    HW224336   0.532   3.390  11.410  0.2708  0.6512  2.7012
 4234SOL     OW24337   3.359   1.023  17.545 -0.1909  0.0336 -0.1932
 4234SOL    HW124338   3.361   0.941  17.594 -1.1203  0.0256 -0.1774
 4234SOL    HW224339   3.422   1.006  17.475  0.4292 -0.1456  0.4067
 4235SOL     OW24340   3.263   2.091   6.262  0.5003 -0.4988  0.2592
 4235SOL    HW124341   3.349   2.101   6.303  0.7122 -1.4719  0.0335
 4235SOL    HW224342   3.211   2.130   6.332 -0.9197 -2.2076  0.1534
 4236SOL     OW24343   4.038   3.734  11.151  0.3271  0.0052 -0.1398
 4236SOL    HW124344   4.104   3.703  11.089 -0.1350 -0.0278 -0.6108
 4236SOL    HW224345   3.976   3.661  11.148 -0.1729  0.5474 -2.3796
 4237SOL     OW24346   0.073   1.692   8.890 -0.1130  0.1476  0.2951
 4237SOL    HW124347   0.034   1.706   8.804 -1.3738  2.4507  1.2475
 4237SOL    HW224348   0.089   1.779   8.927 -1.5335  0.1824  0.8008
 4238SOL     OW24349   0.923   0.860   6.807  0.1049 -0.3866  0.5469
 4238SOL    HW124350   0.961   0.809   6.879 -0.7313  0.2427  1.4241
 4238SOL    HW224351   0.926   0.793   6.738 -1.4851 -1.0918  1.1727
 4239SOL     OW24352   1.523   4.690   7.935 -0.4593  0.1696  0.0823
 4239SOL    HW124353   1.549   4.598   7.931  1.3241  0.6852 -0.2456
 4239SOL    HW224354   1.487   4.700   8.023  0.7478 -1.2570  0.7465
 4240SOL     OW24355   3.327   1.315   7.810  0.0359  0.2946 -0.1979
 4240SOL    HW124356   3.350   1.269   7.730 -1.1115 -2.8366  1.2544
 4240SOL    HW224357   3.232   1.305   7.813  0.2617 -1.5948  0.3105
 4241SOL     OW24358   1.008   2.489   4.487  0.4663 -0.6005 -0.0439
 4241SOL    HW124359   1.006   2.547   4.411 -0.4991  0.5018  0.8140
 4241SOL    HW224360   0.944   2.525   4.548  0.6421  0.0108 -0.2256
 4242SOL     OW24361   0.067   1.061  16.945 -0.3480 -0.4479 -0.1978
 4242SOL    HW124362   0.032   0.976  16.975 -0.2214 -0.6282 -0.5578
 4242SOL    HW224363   0.064   1.114  17.025  1.7980 -0.4427 -0.1254
 4243SOL     OW24364   1.081   4.449   5.006 -0.2378  0.6230 -0.6364
 4243SOL    HW124365   1.015   4.458   4.937 -1.6082  0.4892  0.6596
 4243SOL    HW224366   1.044   4.378   5.058  4.7596 -0.3110  1.6515
 4244SOL     OW24367   2.176   1.291   4.996 -0.0839 -0.3406  0.2287
 4244SOL    HW124368   2.085   1.288   5.027 -0.0211 -1.2141  0.3095
 4244SOL    HW224369   2.167   1.359   4.929 -0.1046 -0.8557 -0.2905
 4245SOL     OW24370   0.366   2.702   3.108 -0.3151  0.3693  0.2251
 4245SOL    HW124371   0.290   2.684   3.052 -0.2038  2.5033 -0.6300
 4245SOL    HW224372   0.442   2.682   3.053 -0.8477  1.1108 -0.7824
 4246SOL     OW24373   4.113   0.864   0.364  0.5587  0.2697  0.3027
 4246SOL    HW124374   4.179   0.797   0.383  0.5123  0.3349  0.7052
 4246SOL    HW224375   4.067   0.835   0.286  2.2041 -0.8327 -0.2439
 4247SOL     OW24376   1.838   3.032  14.891  0.2081  0.7504  0.4083
 4247SOL    HW124377   1.812   3.093  14.960 -2.5051  0.1630 -0.0964
 4247SOL    HW224378   1.778   3.062  14.823  1.9473  0.6317 -1.1537
 4248SOL     OW24379   1.743   2.570   6.496 -0.2286 -0.1441 -0.5253
 4248SOL    HW124380   1.676   2.538   6.556 -0.9133  0.4540 -0.9825
 4248SOL    HW224381   1.796   2.490   6.497  0.6003  0.4028 -0.0567
 4249SOL     OW24382   3.376   1.451   3.973  0.1984  0.3939 -0.4754
 4249SOL    HW124383   3.370   1.518   4.040  0.1620  0.8301 -0.9143
 4249SOL    HW224384   3.338   1.381   4.026 -0.1473  2.4803  1.9817
 4250SOL     OW24385   4.536   0.534   7.662  0.1846  0.4108  0.3964
 4250SOL    HW124386   4.460   0.515   7.608  0.6310  2.2941 -0.8727
 4250SOL    HW224387   4.507   0.612   7.709 -1.8241  0.7956 -1.4877
 4251SOL     OW24388   0.386   3.065   2.520 -0.0136 -0.2881  0.0187
 4251SOL    HW124389   0.419   3.097   2.436 -1.4345 -0.2743 -0.5363
 4251SOL    HW224390   0.428   3.123   2.583  2.4052 -2.7043  0.5935
 4252SOL     OW24391   1.187   2.815   0.045  0.8686  0.4386  0.1024
 4252SOL    HW124392   1.213   2.871  17.704  0.5531  0.7136  0.2038
 4252SOL    HW224393   1.159   2.882   0.107  0.3593 -0.8286  1.2630
 4253SOL     OW24394   0.175   3.153   6.125 -0.2184  0.5156 -0.1852
 4253SOL    HW124395   0.138   3.169   6.212  1.7339  2.0503  0.3748
 4253SOL    HW224396   0.163   3.058   6.118  0.2233  0.3348  1.3906
 4254SOL     OW24397   3.472   1.015   4.933  0.4300  0.1722 -0.4762
 4254SOL    HW124398   3.535   0.943   4.944 -0.1670 -0.2066  0.4367
 4254SOL    HW224399   3.389   0.976   4.908  0.4489 -0.0069 -0.2597
 4255SOL     OW24400   4.005   4.135  12.821  0.8891 -0.0612 -0.6134
 4255SOL    HW124401   3.926   4.100  12.778 -0.2443  1.8144 -0.0573
 4255SOL    HW224402   4.023   4.204  12.757 -4.5892  0.8271 -1.2524
 4256SOL     OW24403   4.584   1.981   5.736  0.9365 -0.0855 -0.4279
 4256SOL    HW124404   4.618   1.971   5.647 -2.9634  1.7298 -2.1456
 4256SOL    HW224405   4.613   1.900   5.777 -2.0573 -0.6793  0.5319
 4257SOL     OW24406   0.904   0.538  12.017 -0.5098 -0.2475  0.1338
 4257SOL    HW124407   0.950   0.454  12.025  0.2557  0.2577  1.0430
 4257SOL    HW224408   0.967   0.595  12.061  2.3610 -2.3552 -1.2464
 4258SOL     OW24409   2.053   3.993   5.072  0.4926 -0.7553 -0.0799
 4258SOL    HW124410   1.958   3.991   5.065  0.6166 -1.3676 -1.6278
 4258SOL    HW224411   2.067   3.912   5.120  1.1239 -0.9044 -0.5135
 4259SOL     OW24412   2.294   1.576   4.983 -0.4108  0.3636 -0.3449
 4259SOL    HW124413   2.272   1.657   4.937  0.3401  1.0128  0.4456
 4259SOL    HW224414   2.348   1.546   4.910  1.7247  1.0521  0.9497
 4260SOL     OW24415   0.913   0.036   2.177  0.2104  0.0258 -0.5156
 4260SOL    HW124416   0.995   0.077   2.150 -0.1717 -0.2200 -2.0476
 4260SOL    HW224417   0.865   0.024   2.096  0.9193  2.1103 -1.2420
 4261SOL     OW24418   4.375   3.176   6.325 -0.0455 -0.0891  0.7309
 4261SOL    HW124419   4.305   3.241   6.339 -0.9385 -0.9985  0.5065
 4261SOL    HW224420   4.459   3.220   6.311  0.3938 -0.1761  3.0204
 4262SOL     OW24421   0.021   0.854   4.831  0.1841 -0.0703  0.0829
 4262SOL    HW124422   4.714   0.767   4.833 -1.7654  0.8506  0.7528
 4262SOL    HW224423   0.101   0.815   4.795  0.3336 -0.1082  0.4560
 4263SOL     OW24424   1.367   1.771   3.396  0.0172  0.1177 -0.2426
 4263SOL    HW124425   1.334   1.804   3.480  0.7776 -1.7791  0.8210
 4263SOL    HW224426   1.459   1.797   3.403 -0.9196  3.0109  1.1038
 4264SOL     OW24427   3.959   2.751   8.493 -0.2120  0.4529 -0.2339
 4264SOL    HW124428   3.974   2.682   8.557 -0.2255  1.1958  0.5781
 4264SOL    HW224429   3.982   2.712   8.409  2.8627 -0.1725  0.9077
 4265SOL     OW24430   4.699   2.088   7.604 -0.2097  0.0247  0.0013
 4265SOL    HW124431   4.718   1.995   7.605 -1.7972 -0.2623  2.8127
 4265SOL    HW224432   4.640   2.086   7.529 -0.4901 -1.5647  0.2732
 4266SOL     OW24433   3.660   4.160   2.854 -0.0042  0.1032  0.0813
 4266SOL    HW124434   3.752   4.185   2.845  0.5132 -1.9832 -0.3310
 4266SOL    HW224435   3.623   4.194   2.772 -0.0967 -0.6704 -0.1985
 4267SOL     OW24436   2.336   3.200  11.697 -0.0752 -0.0209  0.2186
 4267SOL    HW124437   2.331   3.195  11.602 -1.2658  1.2315  0.2061
 4267SOL    HW224438   2.267   3.140  11.724 -1.4603  1.1454 -0.7409
 4268SOL     OW24439   0.786   3.762   3.916  0.5897  0.4269 -0.3638
 4268SOL    HW124440   0.752   3.674   3.936  1.1107  0.7675  2.0299
 4268SOL    HW224441   0.731   3.818   3.970  0.1547 -0.4820  0.1412
 4269SOL     OW24442   3.897   0.081   1.584 -0.1816  0.0874 -0.1902
 4269SOL    HW124443   3.913   4.721   1.591 -0.7744 -0.1217 -1.5002
 4269SOL    HW224444   3.872   0.087   1.491  0.5842 -1.7329 -0.5006
 4270SOL     OW24445   0.002   3.676  17.650  0.0824  0.5648  0.8350
 4270SOL    HW124446   0.006   3.655   0.011 -1.2114 -4.5078 -0.2758
 4270SOL    HW224447   4.640   3.670  17.643  0.0529  1.8266  0.1217
 4271SOL     OW24448   3.587   1.198  16.615  0.2057  0.0235  0.0252
 4271SOL    HW124449   3.658   1.163  16.561  0.3803 -0.1911  0.3920
 4271SOL    HW224450   3.520   1.198  16.547  0.2780  0.4514 -0.0476
 4272SOL     OW24451   2.521   3.284   1.675  0.7853 -0.0402  0.4929
 4272SOL    HW124452   2.428   3.277   1.651  0.1274 -0.4022  3.1595
 4272SOL    HW224453   2.524   3.380   1.677  0.7221 -0.0272 -0.1616
 4273SOL     OW24454   0.432   0.895   2.664  0.1338 -0.0117  0.1532
 4273SOL    HW124455   0.366   0.952   2.624  0.4358 -0.2868 -0.7346
 4273SOL    HW224456   0.505   0.927   2.611 -2.4042  2.7507 -1.6794
 4274SOL     OW24457   1.245   3.978   1.083  0.4778 -0.5119 -0.5823
 4274SOL    HW124458   1.180   3.954   1.149  1.0661  1.1812  0.6151
 4274SOL    HW224459   1.210   3.958   0.996 -0.1460 -1.2719 -0.1681
 4275SOL     OW24460   1.350   1.790  13.395 -0.1680  1.0351 -0.1996
 4275SOL    HW124461   1.422   1.751  13.444 -0.3124 -0.3446 -1.0838
 4275SOL    HW224462   1.382   1.879  13.378 -1.8424  1.3701 -1.6703
 4276SOL     OW24463   4.160   0.361   7.559  0.2582  0.2587  0.4001
 4276SOL    HW124464   4.092   0.317   7.609 -0.9809  1.0932 -0.5740
 4276SOL    HW224465   4.209   0.286   7.524 -2.7038 -2.7059  2.6159
 4277SOL     OW24466   3.331   1.776  16.077 -0.1308  0.4397 -0.6040
 4277SOL    HW124467   3.416   1.743  16.049 -0.4025 -1.0118  0.2837
 4277SOL    HW224468   3.317   1.839  16.006  1.7323 -3.7850 -4.6420
 4278SOL     OW24469   0.980   1.252   8.692 -0.1265 -0.2044 -0.0479
 4278SOL    HW124470   0.935   1.329   8.726 -0.8777 -0.4220 -0.5587
 4278SOL    HW224471   1.065   1.255   8.736 -0.7234  3.0577  0.8589
 4279SOL     OW24472   3.361   2.558   6.704 -0.1392  0.1184 -0.4899
 4279SOL    HW124473   3.300   2.629   6.724  0.7503  0.2249  1.9368
 4279SOL    HW224474   3.305   2.481   6.705 -3.1807  2.3121 -2.8353
 4280SOL     OW24475   4.308   1.570   3.305  0.1523 -0.3655  0.0440
 4280SOL    HW124476   4.216   1.569   3.279  0.5469  1.3069 -1.4036
 4280SOL    HW224477   4.352   1.510   3.245  2.5377  0.3462  1.0740
 4281SOL     OW24478   3.335   1.227   6.567  0.3390  0.1916 -1.3399
 4281SOL    HW124479   3.245   1.246   6.540 -0.2233  0.1783  0.5228
 4281SOL    HW224480   3.380   1.311   6.573  0.6416 -0.1176  0.5933
 4282SOL     OW24481   2.907   3.480   1.844 -0.3630  0.1608 -0.2750
 4282SOL    HW124482   2.890   3.388   1.861  0.5612 -0.0511 -0.5302
 4282SOL    HW224483   2.990   3.505   1.886 -0.1326  1.1500 -1.3048
 4283SOL     OW24484   1.352   4.627   2.929 -0.3588  0.2819 -0.0310
 4283SOL    HW124485   1.374   4.719   2.915 -1.4304  0.3249 -1.4174
 4283SOL    HW224486   1.263   4.636   2.898 -1.1134 -1.6043  1.5644
 4284SOL     OW24487   0.644   3.459   0.188  0.0474  0.1192 -0.1466
 4284SOL    HW124488   0.554   3.462   0.155  0.8554 -0.1109 -2.3671
 4284SOL    HW224489   0.692   3.455   0.105 -0.5542  3.1775 -0.6225
 4285SOL     OW24490   4.157   2.002   8.465 -0.0638 -0.3846  0.2396
 4285SOL    HW124491   4.085   1.986   8.527  1.3639 -0.7217  1.7878
 4285SOL    HW224492   4.130   2.076   8.410  0.1959 -0.6990 -0.3070
 4286SOL     OW24493   1.453   1.575   6.317  0.1280 -0.1636  0.2744
 4286SOL    HW124494   1.516   1.506   6.333  1.1420  1.0683  1.6143
 4286SOL    HW224495   1.477   1.643   6.381 -4.5509  2.6442 -0.9015
 4287SOL     OW24496   3.950   4.062  14.230 -0.0845  0.3716 -0.6257
 4287SOL    HW124497   3.867   4.048  14.276 -0.9570  2.2528 -1.6217
 4287SOL    HW224498   3.966   3.976  14.191 -1.0304  0.7368 -1.8345
 4288SOL     OW24499   1.458   3.650   4.377  0.0788 -0.2177 -0.1604
 4288SOL    HW124500   1.550   3.641   4.404  0.3577  0.7561 -0.7667
 4288SOL    HW224501   1.462   3.662   4.282 -0.3242 -0.6834 -0.2307
 4289SOL     OW24502   4.665   0.858   2.418 -0.3382 -0.4779 -0.1045
 4289SOL    HW124503   4.720   0.829   2.489  0.9202  0.5370 -0.6623
 4289SOL    HW224504   4.580   0.857   2.462 -1.1650 -2.2855 -1.7493
 4290SOL     OW24505   0.999   0.826  17.468 -0.5491 -0.2042  0.5418
 4290SOL    HW124506   0.910   0.808  17.435 -0.5718 -0.2091  0.6051
 4290SOL    HW224507   0.971   0.912  17.498 -1.1187  0.5408 -2.1242
 4291SOL     OW24508   1.025   3.975   6.600 -0.0720  0.2551 -0.0776
 4291SOL    HW124509   0.943   3.995   6.646 -0.3762 -0.0818 -0.4733
 4291SOL    HW224510   1.053   3.918   6.672 -1.5995 -0.5426 -0.1027
 4292SOL     OW24511   2.896   2.026   7.061 -0.2031 -0.4237 -0.0006
 4292SOL    HW124512   2.961   1.991   7.001 -0.1451  1.3980 -0.9889
 4292SOL    HW224513   2.945   2.091   7.111  0.3252  0.8326 -2.1779
 4293SOL     OW24514   1.128   2.635   5.231  0.2658  0.6794  0.2778
 4293SOL    HW124515   1.073   2.560   5.254  1.2014 -0.2277 -0.4757
 4293SOL    HW224516   1.214   2.614   5.267 -0.8264 -1.2045  1.7778
 4294SOL     OW24517   1.154   3.309   7.643 -0.1793  0.3202 -1.0571
 4294SOL    HW124518   1.140   3.289   7.550 -2.3148 -0.8930 -0.4755
 4294SOL    HW224519   1.066   3.325   7.675 -0.4389 -1.1015 -1.0387
 4295SOL     OW24520   3.535   2.399   6.582 -0.8843 -0.3990 -0.1346
 4295SOL    HW124521   3.476   2.453   6.633  0.0468  0.5581 -0.0646
 4295SOL    HW224522   3.601   2.382   6.650 -1.3398 -0.3034  0.3275
 4296SOL     OW24523   2.168   0.520   8.436 -0.6167 -0.5979  0.4941
 4296SOL    HW124524   2.127   0.591   8.388  0.4011 -0.5986 -0.3774
 4296SOL    HW224525   2.239   0.564   8.484  0.2912 -0.0718 -1.3533
 4297SOL     OW24526   2.132   3.494   0.852  0.1606 -0.1340  0.2337
 4297SOL    HW124527   2.042   3.469   0.873  0.4414 -0.5625  0.9280
 4297SOL    HW224528   2.111   3.565   0.792 -1.1902 -0.4521  0.3447
 4298SOL     OW24529   3.752   2.350  15.966 -0.4267  0.0824 -0.4191
 4298SOL    HW124530   3.664   2.334  16.002  1.3957  0.0552  3.9686
 4298SOL    HW224531   3.787   2.419  16.022 -0.8194 -0.4156  0.4357
 4299SOL     OW24532   3.495   2.433   0.440  0.2739  1.0731  0.1850
 4299SOL    HW124533   3.423   2.451   0.500  0.6244  2.5724  0.1614
 4299SOL    HW224534   3.555   2.491   0.487  0.0051  1.7814 -0.3264
 4300SOL     OW24535   0.762   3.060   5.879  0.2928 -0.3742  0.8846
 4300SOL    HW124536   0.716   3.001   5.940 -1.0307 -0.5530 -0.2760
 4300SOL    HW224537   0.680   3.099   5.847  0.8469  0.4783  0.5193
 4301SOL     OW24538   1.732   0.832   5.497  0.3116 -0.5708 -0.3455
 4301SOL    HW124539   1.674   0.894   5.453  2.1539  0.3694 -1.4393
 4301SOL    HW224540   1.813   0.883   5.504  0.3569 -0.4065 -2.2068
 4302SOL     OW24541   3.830   1.592  15.956  0.3023  0.0126 -0.0135
 4302SOL    HW124542   3.919   1.570  15.986  0.1929  0.0282  0.3216
 4302SOL    HW224543   3.848   1.662  15.894 -1.6608 -0.5770 -1.2522
 4303SOL     OW24544   4.129   1.374   5.493 -0.3580 -0.8310 -0.1360
 4303SOL    HW124545   4.105   1.366   5.401 -3.0209  0.8463  0.3954
 4303SOL    HW224546   4.182   1.454   5.490  0.5258 -1.5205 -2.7586
 4304SOL     OW24547   1.366   2.094   1.360 -0.0215  0.7679  0.8918
 4304SOL    HW124548   1.458   2.084   1.337 -0.7138 -1.2621 -1.0670
 4304SOL    HW224549   1.374   2.055   1.447  0.5521 -1.8728 -0.3338
 4305SOL     OW24550   2.365   0.855   9.342 -0.0889 -0.1877  0.2423
 4305SOL    HW124551   2.410   0.770   9.350  5.5197  2.5106 -2.2862
 4305SOL    HW224552   2.433   0.914   9.375  0.8140 -0.6282 -0.8151
 4306SOL     OW24553   1.711   0.296   5.530  0.0689  0.0283 -0.2275
 4306SOL    HW124554   1.786   0.354   5.541  0.1165  0.2437 -1.6940
 4306SOL    HW224555   1.648   0.339   5.472 -0.3523  1.6941  1.5051
 4307SOL     OW24556   3.839   1.308   0.128  0.7416  0.0193 -0.1385
 4307SOL    HW124557   3.763   1.342   0.176 -0.6261 -3.1206 -0.0888
 4307SOL    HW224558   3.813   1.321   0.037 -0.0383 -1.2423 -0.0978
 4308SOL     OW24559   2.969   3.273  13.600  0.1785 -0.7457 -0.5791
 4308SOL    HW124560   2.889   3.243  13.642 -0.1897  0.8596 -0.1411
 4308SOL    HW224561   2.941   3.359  13.569 -2.0469 -0.8920  1.0244
 4309SOL     OW24562   3.426   3.016   7.171 -0.2775 -0.5361 -0.4737
 4309SOL    HW124563   3.414   2.926   7.142  0.7459 -1.0232  0.6281
 4309SOL    HW224564   3.494   3.012   7.239 -1.7289  0.9695  1.0933
 4310SOL     OW24565   4.356   1.334  15.679  0.2715  0.6292  0.6604
 4310SOL    HW124566   4.308   1.264  15.635  0.2900  0.8971  0.2038
 4310SOL    HW224567   4.371   1.295  15.765  1.4757 -4.2413 -1.7519
 4311SOL     OW24568   4.252   1.535  13.322 -0.1415 -0.1730 -0.1875
 4311SOL    HW124569   4.226   1.452  13.282 -3.2607  0.4897  0.4931
 4311SOL    HW224570   4.332   1.558  13.275  0.2816 -0.2322  0.4861
 4312SOL     OW24571   1.915   4.698   8.946  0.4749  0.0440  0.0429
 4312SOL    HW124572   1.960   4.653   8.874  1.3181  0.8866  0.0467
 4312SOL    HW224573   1.984   0.007   8.997 -1.6607  0.7792  2.2825
 4313SOL     OW24574   3.214   2.565   6.202  0.3239 -0.4257  0.1926
 4313SOL    HW124575   3.294   2.538   6.248  0.2736  0.3538  0.7582
 4313SOL    HW224576   3.198   2.496   6.139 -0.9774 -0.5427  0.6557
 4314SOL     OW24577   0.900   2.809   9.315  0.2052 -0.2993 -0.1513
 4314SOL    HW124578   0.923   2.814   9.408  1.7363  0.6860 -0.5919
 4314SOL    HW224579   0.946   2.727   9.298  1.1549  0.4637 -1.2418
 4315SOL     OW24580   3.780   2.344   4.553 -0.0326 -0.4856 -0.1908
 4315SOL    HW124581   3.803   2.269   4.609 -4.4345 -1.9116 -0.2642
 4315SOL    HW224582   3.709   2.383   4.605 -1.1514  0.2422 -2.2924
 4316SOL     OW24583   1.161   4.014   2.534 -0.1445  0.5667 -0.1709
 4316SOL    HW124584   1.078   3.975   2.507 -0.8844  2.3908 -0.4817
 4316SOL    HW224585   1.179   3.972   2.618  1.3367  0.7950 -0.3727
 4317SOL     OW24586   4.206   0.790   3.483  0.0863 -0.2171 -0.1064
 4317SOL    HW124587   4.293   0.802   3.445 -0.8010 -3.5552 -3.1409
 4317SOL    HW224588   4.220   0.756   3.572 -0.2138  0.3758  0.1731
 4318SOL     OW24589   0.364   1.440   0.225  0.3050  0.4505 -0.2459
 4318SOL    HW124590   0.337   1.348   0.219 -0.7210  0.7125  0.4578
 4318SOL    HW224591   0.379   1.453   0.318  1.5828 -1.8765 -0.1100
 4319SOL     OW24592   2.147   1.124   1.865  0.0624  0.0057 -0.1948
 4319SOL    HW124593   2.063   1.101   1.906 -0.0720  0.3374 -0.2844
 4319SOL    HW224594   2.183   1.037   1.848  3.0293  1.3511 -0.7491
 4320SOL     OW24595   4.471   3.032   6.631 -0.1348 -0.2045 -0.5565
 4320SOL    HW124596   4.485   3.023   6.537 -1.2939 -2.8161 -0.4747
 4320SOL    HW224597   4.484   3.125   6.652  0.6232 -0.3898 -0.1854
 4321SOL     OW24598   0.564   1.671   6.581 -0.1557 -0.9688 -0.8898
 4321SOL    HW124599   0.623   1.613   6.532  0.7636 -1.5679  0.8806
 4321SOL    HW224600   0.508   1.705   6.512  0.2312  1.2021 -0.1406
 4322SOL     OW24601   0.134   4.687   6.476  0.5045 -0.0636 -0.2317
 4322SOL    HW124602   0.211   0.006   6.498 -0.9779  2.0824 -0.0863
 4322SOL    HW224603   0.132   4.630   6.553 -1.6085  1.2306  0.6717
 4323SOL     OW24604   3.182   0.660   8.633 -0.1325 -0.0378 -0.4287
 4323SOL    HW124605   3.193   0.598   8.561  2.3117  0.1595 -0.2327
 4323SOL    HW224606   3.247   0.625   8.694 -3.0761 -0.7252  2.3146
 4324SOL     OW24607   2.263   1.050   5.106  0.5066  0.2617  0.1128
 4324SOL    HW124608   2.235   0.984   5.043 -1.5995  2.1864 -0.9975
 4324SOL    HW224609   2.240   1.135   5.067 -2.2580 -0.5781 -0.1118
 4325SOL     OW24610   1.255   2.064   5.708 -0.2668 -0.0603  0.0197
 4325SOL    HW124611   1.224   1.990   5.761 -0.8983 -0.7389 -1.2763
 4325SOL    HW224612   1.190   2.066   5.638  0.8819  0.6090 -1.0207
 4326SOL     OW24613   1.184   4.661   7.644  0.1169 -0.2600  0.0071
 4326SOL    HW124614   1.168   0.013   7.685 -0.3011 -0.4612  0.2620
 4326SOL    HW224615   1.116   4.600   7.676 -1.3566  0.9095 -0.9236
 4327SOL     OW24616   3.844   1.773  13.996  0.3913  0.4056 -0.5858
 4327SOL    HW124617   3.861   1.712  14.069 -0.8178  2.3886  1.3398
 4327SOL    HW224618   3.852   1.717  13.919  0.0827  2.5307 -2.1387
 4328SOL     OW24619   3.205   3.864   2.966  0.1039  0.1589 -0.9682
 4328SOL    HW124620   3.196   3.824   2.879  0.8151 -0.3826 -0.7967
 4328SOL    HW224621   3.187   3.793   3.027  1.1712  0.0707 -0.7417
 4329SOL     OW24622   3.167   2.002   3.224  0.0694  0.2675 -0.9609
 4329SOL    HW124623   3.251   1.970   3.193  0.9918 -1.2856  3.1962
 4329SOL    HW224624   3.137   2.054   3.150 -1.4305  0.0598 -0.5108
 4330SOL     OW24625   2.285   4.020   5.592 -0.0692  0.0656 -0.1493
 4330SOL    HW124626   2.230   3.983   5.661  0.3633 -1.2778 -0.5299
 4330SOL    HW224627   2.228   4.007   5.515  0.2365  1.4223 -0.6045
 4331SOL     OW24628   0.293   2.981   2.231  0.0203  0.3155 -0.1021
 4331SOL    HW124629   0.277   2.890   2.208  0.7382 -0.0619  0.8847
 4331SOL    HW224630   0.384   2.978   2.261  0.0920  2.9006 -0.0567
 4332SOL     OW24631   3.745   2.539  13.599  0.1048 -0.2532 -0.1054
 4332SOL    HW124632   3.836   2.563  13.611 -0.3350  1.4486 -0.2507
 4332SOL    HW224633   3.754   2.482  13.522  1.0002  0.8326 -0.8062
 4333SOL     OW24634   0.995   3.155   5.338 -0.0747  0.6320  0.2586
 4333SOL    HW124635   0.953   3.072   5.361 -0.6527  1.4153  2.0360
 4333SOL    HW224636   1.041   3.188   5.416  0.1499 -0.9040  0.7792
 4334SOL     OW24637   2.039   0.077   7.114  0.4456  0.0247  0.2383
 4334SOL    HW124638   1.957   0.089   7.162  1.0479 -0.6438  1.4346
 4334SOL    HW224639   2.100   0.059   7.186  0.2453  1.3754  0.7338
 4335SOL     OW24640   3.647   1.765  12.463 -0.3599 -0.1447 -0.6994
 4335SOL    HW124641   3.723   1.729  12.418  1.8637  1.2954  1.9185
 4335SOL    HW224642   3.683   1.748  12.550  0.5313 -3.0849 -1.6690
 4336SOL     OW24643   4.292   0.708   2.435 -0.1983  0.1131  1.0775
 4336SOL    HW124644   4.213   0.678   2.480 -0.2548  1.9101  2.2005
 4336SOL    HW224645   4.350   0.637   2.462 -1.3739 -1.5535 -0.8116
 4337SOL     OW24646   2.966   3.442   3.832  0.9618  0.2892 -0.0921
 4337SOL    HW124647   2.966   3.366   3.890  0.1680 -0.7055 -1.4053
 4337SOL    HW224648   2.995   3.407   3.748  1.7091  1.3576 -0.2873
 4338SOL     OW24649   3.164   1.782  11.735 -0.4016  0.1032 -0.4058
 4338SOL    HW124650   3.221   1.828  11.796 -2.0214 -0.0156  1.2044
 4338SOL    HW224651   3.097   1.732  11.782 -0.0853  0.4960  0.4549
 4339SOL     OW24652   2.907   1.812   3.487 -0.1701 -0.2365 -0.4938
 4339SOL    HW124653   3.000   1.822   3.505 -0.3083  2.3325 -1.2198
 4339SOL    HW224654   2.871   1.786   3.572  1.9429  0.2921  0.5571
 4340SOL     OW24655   3.560   1.970   9.397 -0.4218 -0.1502 -0.1636
 4340SOL    HW124656   3.608   1.995   9.318  3.7222 -1.4614  1.9589
 4340SOL    HW224657   3.504   1.895   9.377  2.2328 -2.4536  0.9601
 4341SOL     OW24658   4.247   3.805   4.994 -0.3077 -0.1733 -0.4571
 4341SOL    HW124659   4.326   3.832   5.041  0.2476 -0.8306 -1.0248
 4341SOL    HW224660   4.175   3.807   5.058 -0.6054 -1.7749 -0.7495
 4342SOL     OW24661   3.090   3.313   7.617 -0.6731 -0.2693  0.6146
 4342SOL    HW124662   3.057   3.397   7.650 -0.6277  0.2029 -0.5593
 4342SOL    HW224663   3.180   3.334   7.593 -1.3250  1.1351 -0.6185
 4343SOL     OW24664   1.120   1.270   1.008 -0.1561  0.2003 -0.4111
 4343SOL    HW124665   1.067   1.350   1.010  1.5391  1.3280 -0.8708
 4343SOL    HW224666   1.103   1.227   1.092  2.7571  2.7284  1.4648
 4344SOL     OW24667   0.392   2.190   4.354 -0.7581  0.1680  0.5631
 4344SOL    HW124668   0.460   2.248   4.319  2.0646 -3.4393  0.0450
 4344SOL    HW224669   0.340   2.259   4.395 -2.5801 -1.0675  0.3517
 4345SOL     OW24670   2.199   3.905   6.573  0.3501 -0.1833 -0.3456
 4345SOL    HW124671   2.233   3.984   6.615 -1.7485  1.2361 -1.3158
 4345SOL    HW224672   2.270   3.887   6.511 -0.1163  1.4300 -1.3351
 4346SOL     OW24673   4.274   1.379   1.778  0.6686 -0.5590  0.5012
 4346SOL    HW124674   4.335   1.305   1.780 -0.5972 -1.6060 -0.3779
 4346SOL    HW224675   4.250   1.395   1.870  0.2736 -0.8447  0.4455
 4347SOL     OW24676   3.321   3.542   5.257  0.4794  0.0798  0.0388
 4347SOL    HW124677   3.232   3.508   5.250  1.1783 -1.7375 -0.0136
 4347SOL    HW224678   3.343   3.519   5.348  0.3430  2.0367  0.5740
 4348SOL     OW24679   1.363   2.726   9.417  0.0784  0.0438  0.0690
 4348SOL    HW124680   1.332   2.771   9.338 -1.2443 -0.7864  0.1294
 4348SOL    HW224681   1.343   2.789   9.486 -1.2251 -0.1469 -0.1462
 4349SOL     OW24682   3.968   3.492  14.405 -0.8202  0.1583  0.3150
 4349SOL    HW124683   3.950   3.402  14.432 -1.2823  0.4567  1.0050
 4349SOL    HW224684   4.056   3.473  14.371 -0.2507  1.6823  0.9484
 4350SOL     OW24685   4.681   0.287   2.567 -0.4812  0.5950 -0.2431
 4350SOL    HW124686   4.691   0.380   2.587  1.9030 -0.1991  2.2171
 4350SOL    HW224687   0.027   0.256   2.610 -0.2891 -0.3569 -1.2852
 4351SOL     OW24688   1.525   4.116   4.017  0.2273 -0.2175 -0.1339
 4351SOL    HW124689   1.536   4.156   3.931  0.7656 -0.7043 -0.2942
 4351SOL    HW224690   1.479   4.036   3.993  0.5422 -0.6136  0.5863
 4352SOL     OW24691   4.165   3.195   8.675 -0.0886 -0.3139  0.1653
 4352SOL    HW124692   4.173   3.143   8.755 -0.9443 -0.7315 -0.0167
 4352SOL    HW224693   4.255   3.196   8.641  0.4186 -0.0918  1.5303
 4353SOL     OW24694   3.754   1.991   8.118 -0.2480  0.5227  0.6721
 4353SOL    HW124695   3.772   1.951   8.203  2.1791  0.8824  0.3356
 4353SOL    HW224696   3.720   2.076   8.145  2.3972  1.3257  1.5286
 4354SOL     OW24697   2.372   1.851   3.376  0.4703  0.0074  0.5198
 4354SOL    HW124698   2.352   1.771   3.327 -0.5159  0.3840  0.3209
 4354SOL    HW224699   2.441   1.824   3.437 -0.3835 -1.7208  0.7496
 4355SOL     OW24700   1.474   1.705   4.339 -0.1708  0.6365 -0.3273
 4355SOL    HW124701   1.411   1.718   4.409  3.6595  0.4534  3.1487
 4355SOL    HW224702   1.557   1.704   4.387  0.7997 -1.3821 -2.0190
 4356SOL     OW24703   2.699   0.367   4.102  0.0526  0.7207  0.4368
 4356SOL    HW124704   2.770   0.409   4.053  1.3931  2.3969  3.7612
 4356SOL    HW224705   2.686   0.300   4.036 -1.8296  1.3184  0.2070
 4357SOL     OW24706   1.446   2.613   1.986 -0.3133 -0.2100  0.1843
 4357SOL    HW124707   1.391   2.546   1.946 -1.6591  1.2308 -0.4122
 4357SOL    HW224708   1.473   2.666   1.911  0.3581 -2.4023 -1.1116
 4358SOL     OW24709   1.882   2.185  15.447 -0.1196  0.0636  0.7526
 4358SOL    HW124710   1.932   2.264  15.465  1.8926 -0.6925 -1.6025
 4358SOL    HW224711   1.873   2.172  15.353  1.7640  1.8305  0.3456
 4359SOL     OW24712   1.761   1.665  10.816  0.3839 -0.6527 -0.1863
 4359SOL    HW124713   1.666   1.655  10.812  0.3703 -0.1202 -1.5082
 4359SOL    HW224714   1.787   1.630  10.730 -0.8267  0.7309 -1.1082
 4360SOL     OW24715   4.286   0.072   9.694  0.0562  0.1911 -0.4166
 4360SOL    HW124716   4.288   0.167   9.698 -1.4390  0.1109  2.1901
 4360SOL    HW224717   4.192   0.059   9.684  0.0509 -0.5127  0.5013
 4361SOL     OW24718   3.536   3.289   9.272 -0.2689 -0.0855  0.4202
 4361SOL    HW124719   3.447   3.284   9.308 -0.5565  2.6449  0.1459
 4361SOL    HW224720   3.528   3.376   9.232 -1.6830 -0.1200  0.6158
 4362SOL     OW24721   4.270   4.673   6.585  0.1496 -0.7683 -0.0235
 4362SOL    HW124722   4.242   4.583   6.572 -1.9138 -0.2869  1.0855
 4362SOL    HW224723   4.255   4.706   6.497  2.4964  1.7195  0.4874
 4363SOL     OW24724   2.098   1.155  12.794 -0.5503 -0.4378 -0.0184
 4363SOL    HW124725   2.089   1.249  12.774  0.3539 -1.1176 -3.5579
 4363SOL    HW224726   2.036   1.142  12.866 -1.0043 -2.0107 -0.7059
 4364SOL     OW24727   1.241   4.089   5.300 -0.9801  0.2647 -0.3451
 4364SOL    HW124728   1.302   4.086   5.373 -1.3633 -3.6190 -0.1712
 4364SOL    HW224729   1.307   4.105   5.233 -1.6426 -1.3335 -1.3799
 4365SOL     OW24730   2.072   3.905   5.752  0.2388 -0.0561  0.2012
 4365SOL    HW124731   2.093   3.812   5.761 -1.3529 -0.4813 -0.5092
 4365SOL    HW224732   2.075   3.938   5.842  0.8894 -0.5973  0.3802
 4366SOL     OW24733   0.092   1.998  12.779 -0.4960 -0.9622  0.0310
 4366SOL    HW124734   0.054   1.967  12.861 -2.0077  1.3575  0.2167
 4366SOL    HW224735   0.021   1.969  12.721  0.0690 -1.8397 -0.2065
 4367SOL     OW24736   2.552   0.824  10.256  0.1431  0.4472  0.3112
 4367SOL    HW124737   2.537   0.901  10.312 -1.4345  1.8477 -2.0004
 4367SOL    HW224738   2.618   0.775  10.304  0.4800  1.2159  0.6407
 4368SOL     OW24739   2.992   3.604   7.919  0.7803  0.2371 -0.5280
 4368SOL    HW124740   3.040   3.602   8.001  1.0973 -0.3307 -0.7300
 4368SOL    HW224741   2.941   3.524   7.927 -1.6220  1.6267 -1.6224
 4369SOL     OW24742   3.156   2.114   4.680 -0.0745 -0.0194  0.6799
 4369SOL    HW124743   3.218   2.054   4.638  1.9437  1.3311  1.7442
 4369SOL    HW224744   3.201   2.142   4.759  4.2941  0.4758 -2.0052
 4370SOL     OW24745   4.213   4.583   8.329 -0.4206  0.4301  0.2960
 4370SOL    HW124746   4.222   4.669   8.288  4.5183 -0.1895  0.0583
 4370SOL    HW224747   4.134   4.606   8.376 -0.6913  0.7098 -0.2887
 4371SOL     OW24748   4.448   0.316   0.621 -0.0631 -0.0937  0.4939
 4371SOL    HW124749   4.431   0.395   0.673 -2.4381 -2.0494  2.6907
 4371SOL    HW224750   4.388   0.325   0.548  0.7870  1.2466 -0.0369
 4372SOL     OW24751   1.806   1.612  15.401  0.3700 -0.4648 -0.0163
 4372SOL    HW124752   1.855   1.671  15.458  0.1737 -0.0248 -0.2933
 4372SOL    HW224753   1.830   1.645  15.314  0.5565  2.5223  1.1511
 4373SOL     OW24754   1.205   2.175  10.032 -0.1768 -0.0329  0.0872
 4373SOL    HW124755   1.257   2.164   9.952  1.1385  1.0654  0.7903
 4373SOL    HW224756   1.236   2.261  10.060 -2.3632  1.1208 -1.0591
 4374SOL     OW24757   4.163   0.091  11.376 -0.5465 -0.0825 -0.4998
 4374SOL    HW124758   4.138   0.068  11.466 -0.2633 -1.6963 -0.8318
 4374SOL    HW224759   4.094   0.051  11.323  1.1008 -1.7129 -1.3815
 4375SOL     OW24760   0.968   3.634  10.815 -0.5896  0.4297 -0.4029
 4375SOL    HW124761   0.973   3.541  10.838  1.6078  0.5733 -0.3091
 4375SOL    HW224762   1.039   3.635  10.751  0.0684 -2.0514  0.3018
 4376SOL     OW24763   2.113   1.656   8.866  0.4123  0.0022  0.1126
 4376SOL    HW124764   2.091   1.710   8.941 -2.4088  0.6365 -1.1772
 4376SOL    HW224765   2.201   1.630   8.892  0.3148  1.2116  1.6360
 4377SOL     OW24766   4.715   0.414   5.486  0.1097  0.3604  0.1110
 4377SOL    HW124767   4.639   0.390   5.540  0.3487 -1.3271 -0.3184
 4377SOL    HW224768   0.041   0.451   5.552 -2.1524  3.0901  0.6402
 4378SOL     OW24769   0.810   2.039   8.503 -0.1484 -0.7238  0.6100
 4378SOL    HW124770   0.764   2.089   8.570 -1.8819 -0.9369 -0.4440
 4378SOL    HW224771   0.900   2.036   8.537  0.2177 -0.0704 -0.3170
 4379SOL     OW24772   0.169   3.235   8.733  0.4874  0.2246 -0.1893
 4379SOL    HW124773   0.165   3.153   8.683  0.0324  0.4183 -0.4710
 4379SOL    HW224774   0.107   3.209   8.801  1.4237 -3.2259 -0.6646
 4380SOL     OW24775   4.031   4.285   0.310  0.2455 -0.0404  0.2008
 4380SOL    HW124776   3.981   4.275   0.391 -1.8410 -2.4210 -1.3801
 4380SOL    HW224777   4.033   4.198   0.271 -0.6750  0.2710 -0.5432
 4381SOL     OW24778   3.182   0.220  15.541 -1.0300  0.2844  0.3953
 4381SOL    HW124779   3.174   0.292  15.478 -0.2528  0.6009  0.6525
 4381SOL    HW224780   3.181   0.140  15.488 -1.3000  2.0509 -2.2729
 4382SOL     OW24781   0.750   4.222   5.805 -0.2069 -0.6261  0.1447
 4382SOL    HW124782   0.720   4.131   5.811 -0.5335 -0.3483  2.6521
 4382SOL    HW224783   0.840   4.216   5.836 -1.2087  2.1525  3.5569
 4383SOL     OW24784   1.224   3.508   2.347  0.8439  0.5851  0.3772
 4383SOL    HW124785   1.221   3.571   2.275  1.7025  1.6678  1.2751
 4383SOL    HW224786   1.319   3.506   2.358  1.0462  2.2501 -1.0868
 4384SOL     OW24787   4.364   3.173  16.615  0.0303  0.2353  0.1442
 4384SOL    HW124788   4.360   3.190  16.709 -0.4860 -0.5501  0.2563
 4384SOL    HW224789   4.308   3.096  16.607 -1.3846  1.1543  1.2897
 4385SOL     OW24790   0.895   0.404   8.522 -0.0226  0.1116  0.0305
 4385SOL    HW124791   0.872   0.414   8.615 -1.7175  1.4664 -0.5448
 4385SOL    HW224792   0.966   0.468   8.526 -0.8839  1.0520  0.3308
 4386SOL     OW24793   2.798   4.141  13.612 -0.0888 -0.1640 -0.2874
 4386SOL    HW124794   2.783   4.080  13.683 -0.9499  0.1354 -0.2038
 4386SOL    HW224795   2.715   4.190  13.620 -0.4750 -0.6221 -1.4422
 4387SOL     OW24796   2.717   3.822   7.839  0.5236 -0.0788 -0.7387
 4387SOL    HW124797   2.622   3.822   7.825  0.4569 -1.2945 -0.2186
 4387SOL    HW224798   2.721   3.813   7.934  1.2289 -1.8339 -0.9289
 4388SOL     OW24799   0.768   0.518  16.317 -0.2589 -0.4703 -0.3092
 4388SOL    HW124800   0.805   0.596  16.359 -0.9010 -0.1095 -0.4227
 4388SOL    HW224801   0.762   0.536  16.224 -1.2267 -2.1359 -0.5634
 4389SOL     OW24802   0.491   3.061   5.743 -0.5438 -0.3889  0.0299
 4389SOL    HW124803   0.442   3.114   5.805 -0.8429 -0.1369 -0.4227
 4389SOL    HW224804   0.423   3.001   5.711  0.0861  0.4222 -2.8782
 4390SOL     OW24805   2.620   2.010  17.360  0.0324  1.3701  0.0324
 4390SOL    HW124806   2.585   2.049  17.280 -2.0031 -1.7080 -0.5898
 4390SOL    HW224807   2.693   1.958  17.326  1.6233  2.2906  2.0586
 4391SOL     OW24808   0.943   2.872   2.273  0.1664  0.3195  0.1460
 4391SOL    HW124809   1.010   2.850   2.208 -0.7872  0.1160 -0.7806
 4391SOL    HW224810   0.945   2.795   2.330 -1.7830  0.4313  0.3668
 4392SOL     OW24811   4.040   1.915   2.939  0.0327 -0.0793 -0.2799
 4392SOL    HW124812   4.044   1.864   2.858  1.2136  0.5418 -0.6263
 4392SOL    HW224813   4.123   1.891   2.981 -0.2701  0.9563  0.9239
 4393SOL     OW24814   0.280   3.145   7.873  0.0643 -0.2244  0.3722
 4393SOL    HW124815   0.195   3.176   7.904 -1.2909 -1.1391 -2.3562
 4393SOL    HW224816   0.280   3.057   7.911  0.5679 -0.9483 -1.2944
 4394SOL     OW24817   3.541   3.611   7.276  0.7054  0.2403 -0.3577
 4394SOL    HW124818   3.535   3.582   7.185  0.9987 -1.4829  0.1752
 4394SOL    HW224819   3.541   3.528   7.323  0.6913 -0.4892 -1.6510
 4395SOL     OW24820   3.267   1.121   1.208  0.0605  0.2820 -0.1954
 4395SOL    HW124821   3.273   1.188   1.141  4.0206  1.3095  1.1822
 4395SOL    HW224822   3.248   1.042   1.156 -1.9669 -1.0820  2.6096
 4396SOL     OW24823   2.499   3.105   2.363  0.0526 -0.0410  0.2856
 4396SOL    HW124824   2.422   3.135   2.412 -0.9910 -0.6893 -0.9508
 4396SOL    HW224825   2.478   3.012   2.354 -1.3548  0.1461  1.5631
 4397SOL     OW24826   0.286   0.791   9.761  0.0283 -0.2877 -0.1525
 4397SOL    HW124827   0.304   0.744   9.842  0.9791  0.6585  0.1822
 4397SOL    HW224828   0.195   0.817   9.771  0.5643  1.2987  0.4953
 4398SOL     OW24829   0.200   4.652   9.121 -0.1220 -0.2337  0.0833
 4398SOL    HW124830   0.188   0.011   9.144 -1.8793 -0.4689  0.1336
 4398SOL    HW224831   0.113   4.613   9.135 -0.0899  0.4682  2.2730
 4399SOL     OW24832   1.995   2.649   6.168  0.2135  0.5881  0.1505
 4399SOL    HW124833   1.956   2.643   6.256  0.2945 -1.9184  0.0278
 4399SOL    HW224834   1.975   2.736   6.134 -1.1549 -0.1916 -1.0203
 4400SOL     OW24835   2.867   2.384   8.462  0.4195 -0.6245  0.0804
 4400SOL    HW124836   2.939   2.368   8.522 -0.0506  1.1028  1.1296
 4400SOL    HW224837   2.902   2.455   8.408 -1.3235  0.8733  0.8891
 4401SOL     OW24838   0.962   2.080   8.188  0.7800  0.0541 -0.0456
 4401SOL    HW124839   0.880   2.032   8.198  2.4882 -2.3363  2.4730
 4401SOL    HW224840   1.006   2.040   8.263  1.5143  0.8301 -0.0609
 4402SOL     OW24841   3.786   0.521   7.474  0.2059 -0.2587 -0.4441
 4402SOL    HW124842   3.697   0.550   7.493  0.2165  0.5332 -1.5921
 4402SOL    HW224843   3.810   0.589   7.411 -0.3794 -0.3945 -0.8074
 4403SOL     OW24844   0.645   4.314   5.573  0.4496  0.1607  0.0591
 4403SOL    HW124845   0.660   4.406   5.596  0.6515 -0.2884  1.7096
 4403SOL    HW224846   0.686   4.269   5.647 -1.5881 -0.0719  1.0287
 4404SOL     OW24847   1.291   4.723   6.783  0.0361 -0.1425  0.3062
 4404SOL    HW124848   1.387   4.725   6.781 -0.0280  0.5929 -1.8356
 4404SOL    HW224849   1.275   4.687   6.696  3.6382 -2.5425  0.6221
 4405SOL     OW24850   0.310   4.389   3.864  0.4296  0.2306 -0.5967
 4405SOL    HW124851   0.230   4.432   3.894  1.1527  0.3339  1.1894
 4405SOL    HW224852   0.304   4.395   3.769  0.1516 -0.4788 -0.6231
 4406SOL     OW24853   4.171   2.341   7.613 -0.4071  0.5923 -0.1066
 4406SOL    HW124854   4.214   2.376   7.535  0.7149  1.0043  0.7063
 4406SOL    HW224855   4.249   2.291   7.636 -1.0814 -1.7127 -2.8062
 4407SOL     OW24856   2.850   0.364   3.160 -0.9655 -0.1230  0.6380
 4407SOL    HW124857   2.921   0.303   3.181  0.0459  1.1798  1.0143
 4407SOL    HW224858   2.890   0.446   3.131 -0.1256 -1.0281 -0.7504
 4408SOL     OW24859   0.698   1.171   3.145  0.1046  0.9113  0.0545
 4408SOL    HW124860   0.721   1.220   3.224  0.8402  0.4301  0.1431
 4408SOL    HW224861   0.636   1.228   3.101  0.2952  0.0481 -1.3237
 4409SOL     OW24862   2.937   1.475   8.129 -0.1229 -0.3574  0.1798
 4409SOL    HW124863   2.845   1.487   8.108  0.3657  0.7335 -1.3387
 4409SOL    HW224864   2.943   1.385   8.162  1.3488  0.0688  1.0788
 4410SOL     OW24865   0.364   0.138   7.405 -0.3804 -0.3128 -0.1333
 4410SOL    HW124866   0.379   0.123   7.498 -1.3119  4.1314  0.7116
 4410SOL    HW224867   0.447   0.128   7.357 -0.7241 -1.6855 -0.4406
 4411SOL     OW24868   2.744   0.756   0.455  0.2530  0.5128  0.0949
 4411SOL    HW124869   2.670   0.815   0.440 -0.3295 -0.6517 -1.6875
 4411SOL    HW224870   2.705   0.687   0.400 -1.0826  0.5354  1.0033
 4412SOL     OW24871   3.683   1.166   2.191  0.1313 -0.3872  0.3544
 4412SOL    HW124872   3.760   1.143   2.140 -2.4119 -0.4096 -3.4986
 4412SOL    HW224873   3.691   1.100   2.260  0.2230  0.1913  0.8882
 4413SOL     OW24874   0.823   2.314   2.422 -0.2894 -0.2142  0.2154
 4413SOL    HW124875   0.802   2.360   2.503 -0.1888  0.5946 -0.2125
 4413SOL    HW224876   0.915   2.339   2.407 -0.4708  0.7276  0.6792
 4414SOL     OW24877   0.232   1.635   1.029 -0.0357 -0.0916 -0.3842
 4414SOL    HW124878   0.160   1.619   1.089 -0.8287  2.1496 -0.7338
 4414SOL    HW224879   0.178   1.653   0.952  0.3451  0.1876 -0.5877
 4415SOL     OW24880   4.277   4.101  14.129 -0.8739  0.0331  0.3165
 4415SOL    HW124881   4.249   4.182  14.171 -0.9894 -0.7360  1.7446
 4415SOL    HW224882   4.201   4.087  14.072  0.5778 -1.0492 -1.3735
 4416SOL     OW24883   1.973   3.828   6.453  0.3474  0.2004  0.0505
 4416SOL    HW124884   2.054   3.854   6.496  1.1776 -1.2267 -0.6520
 4416SOL    HW224885   1.921   3.903   6.482 -0.5616 -0.4862  0.1933
 4417SOL     OW24886   1.921   1.739  17.513  0.3537 -0.1960  0.1365
 4417SOL    HW124887   1.855   1.675  17.486  0.1757 -0.1018  0.3520
 4417SOL    HW224888   2.004   1.704  17.481  0.5900 -1.4637  2.1405
 4418SOL     OW24889   0.654   2.065   7.964  0.0648 -0.3639  0.7276
 4418SOL    HW124890   0.621   2.151   7.990 -0.2731 -0.0881 -0.6241
 4418SOL    HW224891   0.710   2.094   7.893  0.5394 -2.5376  0.1941
 4419SOL     OW24892   2.568   3.229   6.721  0.5976  0.0713  0.0555
 4419SOL    HW124893   2.605   3.296   6.779  1.7545 -0.3211 -0.2363
 4419SOL    HW224894   2.565   3.150   6.775  2.6634 -1.2024 -1.6764
 4420SOL     OW24895   0.132   3.984   4.534 -0.3697 -0.2096  0.5129
 4420SOL    HW124896   0.105   4.057   4.591  1.0910  0.6515  0.0889
 4420SOL    HW224897   0.055   3.929   4.554  0.4734 -1.5961 -0.0819
 4421SOL     OW24898   2.457   1.521   7.745 -0.2059  1.0331 -0.2996
 4421SOL    HW124899   2.461   1.602   7.694  1.9458  0.0302 -1.7297
 4421SOL    HW224900   2.528   1.533   7.809 -1.8192  4.9599  0.7426
 4422SOL     OW24901   4.654   0.031   8.661 -0.2560 -0.2262  0.0334
 4422SOL    HW124902   4.670   0.001   8.572 -1.7371 -1.6871  0.2566
 4422SOL    HW224903   4.613   4.685   8.698 -0.1341 -0.5003 -0.4132
 4423SOL     OW24904   0.715   1.222   2.285 -0.7637 -0.0266  0.4948
 4423SOL    HW124905   0.667   1.147   2.250 -1.5432 -0.8535  3.2791
 4423SOL    HW224906   0.667   1.244   2.365  1.7680 -2.0096  2.5225
 4424SOL     OW24907   2.376   4.304   6.236  0.5845  0.1054  0.2883
 4424SOL    HW124908   2.290   4.344   6.249  0.0631 -0.9608  0.1427
 4424SOL    HW224909   2.355   4.256   6.156  1.2899 -1.2927  0.9212
 4425SOL     OW24910   1.842   3.583  15.505 -0.6613  0.3247  0.8073
 4425SOL    HW124911   1.921   3.634  15.487 -0.1169 -0.2786  1.5211
 4425SOL    HW224912   1.870   3.495  15.480  2.3055  1.6320 -0.4713
 4426SOL     OW24913   2.652   0.589   2.052 -0.0579 -0.0489 -1.0471
 4426SOL    HW124914   2.677   0.641   2.128  1.7818 -1.5417 -0.6262
 4426SOL    HW224915   2.642   0.502   2.091 -1.0877  0.0946 -1.0035
 4427SOL     OW24916   0.128   4.708   2.652 -0.2681 -0.3663  0.2286
 4427SOL    HW124917   0.173   4.666   2.580  1.0663  0.7415  0.4246
 4427SOL    HW224918   0.169   0.061   2.655  0.5936 -0.6490 -3.1454
 4428SOL     OW24919   0.655   3.041  10.400  0.0510 -0.1994 -0.5655
 4428SOL    HW124920   0.696   3.077  10.321 -0.4623  0.2308 -0.6378
 4428SOL    HW224921   0.574   3.089  10.418 -0.1335  0.3992 -2.8873
 4429SOL     OW24922   2.103   1.266  10.054 -0.0020  0.3953  0.4447
 4429SOL    HW124923   2.011   1.240  10.047  0.1244  0.1806 -0.5050
 4429SOL    HW224924   2.098   1.308  10.139 -1.3709 -0.3652  0.7394
 4430SOL     OW24925   1.935   4.589   6.207 -0.5038  0.5919 -0.2805
 4430SOL    HW124926   1.857   4.549   6.167 -1.2146  2.6816 -0.9676
 4430SOL    HW224927   1.916   4.670   6.254  2.2479  1.0083  0.1014
 4431SOL     OW24928   2.779   0.297   8.616 -0.1531  0.4461 -0.5129
 4431SOL    HW124929   2.781   0.207   8.651  1.6569  1.1331  1.1042
 4431SOL    HW224930   2.721   0.337   8.681 -1.0592 -1.8677  0.1332
 4432SOL     OW24931   2.263   1.634   3.241  0.0960 -0.2749 -0.1805
 4432SOL    HW124932   2.195   1.568   3.253  0.1128  0.0867  2.0354
 4432SOL    HW224933   2.341   1.582   3.222  0.3710 -0.2785  0.9409
 4433SOL     OW24934   0.487   1.229   5.351  0.3772 -0.0897 -0.3617
 4433SOL    HW124935   0.420   1.247   5.417  0.2326 -2.1250  0.0601
 4433SOL    HW224936   0.522   1.150   5.393 -2.0118 -0.7455  0.4452
 4434SOL     OW24937   2.633   0.377   3.305 -0.1684 -0.3135 -0.1142
 4434SOL    HW124938   2.575   0.360   3.231  0.4728  2.0174 -1.1544
 4434SOL    HW224939   2.721   0.361   3.270 -0.2472 -0.3423 -0.2965
 4435SOL     OW24940   1.079   4.642   2.785  0.5892  0.5230 -0.1961
 4435SOL    HW124941   1.060   4.729   2.751  1.7090  1.4919  1.6812
 4435SOL    HW224942   1.024   4.630   2.862  1.7366 -1.0858  0.3572
 4436SOL     OW24943   2.020   1.009   2.483  0.3198  0.4785 -0.0476
 4436SOL    HW124944   2.010   1.099   2.452 -0.2601  0.7912  1.0401
 4436SOL    HW224945   2.015   0.960   2.401  2.4548  1.7414 -0.9142
 4437SOL     OW24946   2.516   2.940  14.912  0.4245  0.2111  0.5514
 4437SOL    HW124947   2.487   2.853  14.939  1.1104  0.1058  0.9347
 4437SOL    HW224948   2.437   2.993  14.903 -0.2116 -1.0608 -1.2548
 4438SOL     OW24949   3.941   3.621   7.009  0.6690  0.7932  0.3106
 4438SOL    HW124950   3.967   3.551   6.949  0.6161  0.3716  0.7793
 4438SOL    HW224951   3.849   3.598   7.022  1.0974 -1.6370 -0.8856
 4439SOL     OW24952   4.057   4.559   9.868  0.0548 -0.2806  0.0871
 4439SOL    HW124953   4.027   4.640   9.826  0.6411 -1.0824 -1.9104
 4439SOL    HW224954   4.130   4.533   9.811 -1.1814 -1.2034 -1.0938
 4440SOL     OW24955   4.697   1.231   7.092  0.5721  0.1386  0.0066
 4440SOL    HW124956   4.732   1.148   7.126  0.4541  0.2707  0.4481
 4440SOL    HW224957   0.032   1.272   7.039  1.6802 -1.7356 -0.0351
 4441SOL     OW24958   2.218   1.905   3.925 -0.4090  0.1473  0.1805
 4441SOL    HW124959   2.125   1.883   3.921  0.3684 -2.5807 -2.5691
 4441SOL    HW224960   2.254   1.844   3.861 -0.5313 -0.2906  0.5251
 4442SOL     OW24961   4.182   0.245   5.423 -0.3751 -0.4218  0.7288
 4442SOL    HW124962   4.152   0.154   5.429  1.4914 -1.1470 -0.9664
 4442SOL    HW224963   4.126   0.287   5.489  1.6059  2.3432  0.6465
 4443SOL     OW24964   3.947   0.329   2.513 -0.0884 -0.0314  0.7823
 4443SOL    HW124965   3.909   0.337   2.600  0.2621 -0.5670  0.9808
 4443SOL    HW224966   3.921   0.239   2.491  0.6887  0.0928 -0.6120
 4444SOL     OW24967   2.514   3.113   8.010 -0.0129  0.7867  0.8791
 4444SOL    HW124968   2.536   3.041   8.069 -0.3464  0.9723  1.2224
 4444SOL    HW224969   2.576   3.094   7.939  0.6908  2.4414  1.0596
 4445SOL     OW24970   4.513   0.377   8.091 -0.0463  0.1933 -0.1804
 4445SOL    HW124971   4.456   0.449   8.065 -0.4330 -0.4379 -1.0436
 4445SOL    HW224972   4.474   0.369   8.178  1.4584  2.6660  0.7289
 4446SOL     OW24973   1.524   2.860  12.062 -0.2758 -0.0390 -0.2332
 4446SOL    HW124974   1.507   2.831  12.152 -2.7327 -0.3533 -0.7872
 4446SOL    HW224975   1.435   2.850  12.026 -0.6600 -1.0438  1.0071
 4447SOL     OW24976   2.910   1.014   8.407 -0.3956 -0.2341 -0.1850
 4447SOL    HW124977   2.932   0.924   8.430 -0.8972 -0.2389  0.2659
 4447SOL    HW224978   2.824   1.016   8.447 -1.2522 -0.1657 -2.0205
 4448SOL     OW24979   3.463   2.093   7.968  0.1228 -0.3713  0.1157
 4448SOL    HW124980   3.408   2.019   7.995 -1.3542  1.6127  2.5861
 4448SOL    HW224981   3.400   2.164   7.952  0.4853 -0.5908 -2.3136
 4449SOL     OW24982   0.874   0.045   7.133  0.3922 -0.2670 -0.2885
 4449SOL    HW124983   0.966   0.030   7.109  0.5102 -1.8442  1.0970
 4449SOL    HW224984   0.834   4.712   7.076 -1.3751  0.1091  0.5259
 4450SOL     OW24985   0.796   3.798   2.976 -0.2283  0.2214 -0.2963
 4450SOL    HW124986   0.833   3.710   2.967 -2.8662 -0.9866  1.0095
 4450SOL    HW224987   0.761   3.812   2.888  0.0605  1.2481 -0.2509
 4451SOL     OW24988   2.670   3.951   4.634  0.2063  0.1692  0.0833
 4451SOL    HW124989   2.621   3.885   4.683 -1.7123 -0.7623 -3.1544
 4451SOL    HW224990   2.614   4.027   4.649  0.0442 -0.2004  1.4203
 4452SOL     OW24991   3.509   0.948  17.362 -0.2165  0.6813  0.3596
 4452SOL    HW124992   3.495   0.984  17.275  2.0726  0.6369 -0.0383
 4452SOL    HW224993   3.558   0.867  17.346  0.7069  1.0724  1.2528
 4453SOL     OW24994   1.464   3.627   4.734 -0.0077  0.0619  0.3909
 4453SOL    HW124995   1.376   3.625   4.772 -0.2901  0.2557 -0.2507
 4453SOL    HW224996   1.446   3.558   4.671 -1.2467 -0.0481  0.8753
 4454SOL     OW24997   1.523   0.561   9.322 -0.4658  0.6249 -0.1820
 4454SOL    HW124998   1.560   0.527   9.404  1.3588  2.1297 -0.4057
 4454SOL    HW224999   1.577   0.512   9.260 -0.6191 -0.5681  0.6193
 4455SOL     OW25000   0.340   1.419   7.470 -0.4524  0.4691 -0.3623
 4455SOL    HW125001   0.422   1.380   7.498 -0.7404 -0.8855 -1.4038
 4455SOL    HW225002   0.367   1.463   7.389  0.8153 -0.4788 -0.4414
 4456SOL     OW25003   1.712   2.416   1.635  0.3412  0.1575 -0.2135
 4456SOL    HW125004   1.656   2.492   1.620  1.3378  0.6709 -1.3778
 4456SOL    HW225005   1.712   2.421   1.731  1.2963  1.5738 -0.2721
 4457SOL     OW25006   0.559   4.158  14.834  0.0622 -0.5382  0.6624
 4457SOL    HW125007   0.522   4.240  14.867  0.8379  0.4483 -0.9328
 4457SOL    HW225008   0.534   4.105  14.909 -0.9736 -1.1603 -0.1211
 4458SOL     OW25009   2.258   3.056   1.734  0.2234 -0.0575 -0.4435
 4458SOL    HW125010   2.221   3.103   1.809 -0.8171 -0.4359 -0.7200
 4458SOL    HW225011   2.269   3.124   1.667 -3.4188 -0.0328 -1.0448
 4459SOL     OW25012   0.694   3.821   4.741  0.6213  0.3410  0.0099
 4459SOL    HW125013   0.774   3.798   4.788 -0.3620 -1.3529  0.8675
 4459SOL    HW225014   0.632   3.760   4.782  0.8048 -1.0081 -1.6776
 4460SOL     OW25015   1.492   4.238  12.880 -0.4253 -0.8485 -0.1395
 4460SOL    HW125016   1.532   4.301  12.820  0.5258 -0.6519  0.7090
 4460SOL    HW225017   1.555   4.165  12.876  0.3022 -0.2988  1.4669
 4461SOL     OW25018   2.196   3.023   7.329 -0.2144  0.6715 -0.0255
 4461SOL    HW125019   2.258   3.018   7.257  0.4211 -0.0125  0.5718
 4461SOL    HW225020   2.262   2.995   7.393 -0.0552 -1.8257 -1.2855
 4462SOL     OW25021   0.538   0.796   7.424 -0.2293  0.2172 -0.2758
 4462SOL    HW125022   0.446   0.821   7.424 -0.1169  0.5959 -1.5624
 4462SOL    HW225023   0.517   0.703   7.420  0.2699  0.1312 -0.8102
 4463SOL     OW25024   0.923   3.735   7.258  0.0070 -0.5947  0.2488
 4463SOL    HW125025   0.963   3.777   7.334 -1.4331  0.1268  0.6133
 4463SOL    HW225026   0.936   3.642   7.279 -0.9642 -1.2305 -1.9279
 4464SOL     OW25027   1.592   0.564   0.823  0.5979 -0.3376 -0.5366
 4464SOL    HW125028   1.573   0.656   0.843 -0.6909 -1.2206  2.1332
 4464SOL    HW225029   1.682   0.564   0.855  0.8695 -2.6145 -1.3116
 4465SOL     OW25030   3.160   3.864   8.524  0.5169  0.1600  0.1963
 4465SOL    HW125031   3.132   3.955   8.537  3.9240  1.0363  1.2862
 4465SOL    HW225032   3.240   3.881   8.475 -1.6028 -0.8091 -3.7183
 4466SOL     OW25033   2.573   1.161   6.567  0.3384 -0.2769  0.0597
 4466SOL    HW125034   2.535   1.090   6.619  2.1841 -0.7786  0.7086
 4466SOL    HW225035   2.566   1.121   6.480 -2.5596 -1.1666  0.7100
 4467SOL     OW25036   4.336   2.137  12.825 -0.3621  0.1454  0.2518
 4467SOL    HW125037   4.268   2.071  12.814 -1.7702  1.9843 -2.0576
 4467SOL    HW225038   4.343   2.163  12.733 -0.2579 -1.8858 -0.3040
 4468SOL     OW25039   4.423   2.758   1.190  0.8887 -0.1563  0.5963
 4468SOL    HW125040   4.392   2.831   1.136  1.7882 -0.7143 -0.6583
 4468SOL    HW225041   4.393   2.679   1.145 -1.7881 -0.0571  2.1767
 4469SOL     OW25042   3.525   1.855  17.195 -0.1220  0.0356  0.3465
 4469SOL    HW125043   3.566   1.939  17.176 -0.3719  0.0760 -0.0164
 4469SOL    HW225044   3.523   1.813  17.108 -1.7413  1.5032 -0.3288
 4470SOL     OW25045   1.122   4.714   4.992  0.0429  0.2725  0.0101
 4470SOL    HW125046   1.208   0.022   4.996  1.3254 -2.5253  0.8801
 4470SOL    HW225047   1.136   4.621   4.977  0.2157  0.5161 -1.3701
 4471SOL     OW25048   0.283   1.336   3.623  0.8989  0.0012  0.1805
 4471SOL    HW125049   0.378   1.343   3.617  1.2849 -2.0186  4.0328
 4471SOL    HW225050   0.270   1.257   3.675  0.2421  0.5451  0.8382
 4472SOL     OW25051   4.252   1.568   5.188 -0.2932  0.4339 -0.1117
 4472SOL    HW125052   4.282   1.659   5.178  2.0997 -0.2203  1.0798
 4472SOL    HW225053   4.339   1.534   5.166  0.3346  0.3579  2.4759
 4473SOL     OW25054   1.027   4.246   5.206  0.0062  0.0357 -0.0508
 4473SOL    HW125055   1.099   4.198   5.247 -1.1287 -0.6742  1.0807
 4473SOL    HW225056   0.964   4.180   5.178 -0.7132  1.4369 -1.7539
 4474SOL     OW25057   0.264   3.834  12.747 -0.1635  0.6789  0.0008
 4474SOL    HW125058   0.275   3.853  12.840 -1.1757  0.0842  0.2459
 4474SOL    HW225059   0.265   3.925  12.716  1.7447  0.3326 -0.9626
 4475SOL     OW25060   4.041   4.515   8.020  0.1698 -0.3372 -0.1756
 4475SOL    HW125061   4.103   4.484   7.955  0.0125  0.6533 -0.8097
 4475SOL    HW225062   4.068   4.463   8.095 -3.9524  1.4232  2.5223
 4476SOL     OW25063   1.353   1.244   8.451  0.5072 -0.0859 -0.0923
 4476SOL    HW125064   1.408   1.168   8.470 -0.5202 -1.3074 -1.9972
 4476SOL    HW225065   1.316   1.232   8.364 -0.7747  2.7066  0.0404
 4477SOL     OW25066   3.289   0.109   8.265  0.1374 -0.3490 -0.2456
 4477SOL    HW125067   3.363   0.081   8.319 -0.7790  0.1443  1.2740
 4477SOL    HW225068   3.219   0.119   8.330 -1.4419 -0.3815 -1.9669
 4478SOL     OW25069   4.619   1.614   6.644  0.5849 -0.1144  0.7136
 4478SOL    HW125070   4.583   1.550   6.582 -1.2852  0.7721  0.9023
 4478SOL    HW225071   4.538   1.663   6.654  0.0080 -0.9060  0.0056
 4479SOL     OW25072   2.779   4.242  16.239 -0.0263  0.3102  0.1247
 4479SOL    HW125073   2.811   4.295  16.312  0.1034 -0.2111  0.4462
 4479SOL    HW225074   2.842   4.255  16.168 -0.5043  1.3241 -0.1150
 4480SOL     OW25075   0.342   1.929  12.714 -0.1026 -0.1582 -0.1176
 4480SOL    HW125076   0.406   1.951  12.782  0.0420 -1.7078  0.2496
 4480SOL    HW225077   0.258   1.946  12.756 -0.2306  0.7766 -0.7644
 4481SOL     OW25078   0.972   1.712  16.655  0.1173 -1.0057 -0.2778
 4481SOL    HW125079   0.893   1.665  16.681 -0.1874 -0.3915 -0.1002
 4481SOL    HW225080   1.007   1.728  16.743 -0.0784 -1.1912 -0.1679
 4482SOL     OW25081   2.440   4.650   7.911  0.9486 -0.2619  0.2054
 4482SOL    HW125082   2.390   4.721   7.952 -1.4780 -0.9617 -1.5093
 4482SOL    HW225083   2.410   4.653   7.821  0.0560  0.7692  0.5419
 4483SOL     OW25084   2.564   1.791   2.117  0.2238  0.1140  0.9512
 4483SOL    HW125085   2.626   1.771   2.047 -0.0612  0.1074  0.7002
 4483SOL    HW225086   2.597   1.742   2.193  2.6496  1.7917  0.9955
 4484SOL     OW25087   1.217   0.788   4.962 -0.3811 -0.5227 -0.1289
 4484SOL    HW125088   1.172   0.755   4.885 -0.7419  2.0466 -1.0231
 4484SOL    HW225089   1.147   0.827   5.014  0.7123  0.9399  0.2744
 4485SOL     OW25090   1.712   4.148  10.231 -0.5337 -0.3627 -0.3497
 4485SOL    HW125091   1.714   4.222  10.292 -1.4680 -0.3835 -0.3006
 4485SOL    HW225092   1.669   4.179  10.151 -1.3081  0.8413  0.5232
 4486SOL     OW25093   1.808   0.571   6.325 -0.0229  0.7981  0.3935
 4486SOL    HW125094   1.750   0.531   6.260 -0.7174 -0.6775  1.9249
 4486SOL    HW225095   1.886   0.592   6.273  1.3206 -2.7054  1.0349
 4487SOL     OW25096   3.012   0.571  13.683 -0.2664  0.2993  0.4921
 4487SOL    HW125097   2.974   0.491  13.647  1.6852 -0.2724 -0.3083
 4487SOL    HW225098   3.012   0.551  13.776  0.7403  1.3473  0.7133
 4488SOL     OW25099   3.535   3.342   0.622 -0.0085 -0.3633 -0.0018
 4488SOL    HW125100   3.509   3.387   0.542  0.5613  1.1067  0.6339
 4488SOL    HW225101   3.609   3.394   0.655 -0.1507  0.3270 -0.7664
 4489SOL     OW25102   0.743   0.856   5.688  0.3167 -0.5423 -0.1890
 4489SOL    HW125103   0.754   0.866   5.782 -0.8525  2.6182 -0.3964
 4489SOL    HW225104   0.784   0.771   5.676 -1.5693 -1.7683  1.9827
 4490SOL     OW25105   4.066   4.291   4.080 -0.0467 -0.0300 -0.3175
 4490SOL    HW125106   4.077   4.262   4.170  0.4182 -2.2287 -1.0883
 4490SOL    HW225107   3.978   4.329   4.077 -0.3408 -0.7075 -0.1888
 4491SOL     OW25108   0.911   3.003   1.170  0.0064  0.2300 -0.7523
 4491SOL    HW125109   0.990   3.057   1.164  0.9723 -1.1192 -0.1446
 4491SOL    HW225110   0.847   3.074   1.162 -0.7148  0.2466  4.6697
 4492SOL     OW25111   2.763   0.360   9.853  0.3234  0.6161  0.7370
 4492SOL    HW125112   2.791   0.326   9.938  1.6721 -1.9848 -0.7568
 4492SOL    HW225113   2.696   0.424   9.878 -0.5825 -0.9481  2.3876
 4493SOL     OW25114   2.688   0.647  14.598 -0.4800  0.0353 -0.3178
 4493SOL    HW125115   2.662   0.725  14.646  0.5210 -1.1303  2.1271
 4493SOL    HW225116   2.753   0.680  14.535 -0.5267 -0.3451 -0.5679
 4494SOL     OW25117   0.489   2.238   3.911  0.3209 -0.2798  0.4056
 4494SOL    HW125118   0.563   2.226   3.970  3.0704 -0.0490 -3.0152
 4494SOL    HW225119   0.488   2.158   3.859  1.0142  0.0716 -0.1519
 4495SOL     OW25120   1.059   4.557   3.560 -0.3411 -0.5535 -1.1860
 4495SOL    HW125121   1.058   4.484   3.622 -0.2491  1.9354  1.7124
 4495SOL    HW225122   1.023   4.631   3.608  1.6392  0.1150 -0.7192
 4496SOL     OW25123   2.623   1.763  14.093  0.3254  0.5326  0.3604
 4496SOL    HW125124   2.689   1.727  14.033  0.5029  1.8029 -0.1866
 4496SOL    HW225125   2.621   1.687  14.151  0.7691 -0.2850 -0.6953
 4497SOL     OW25126   1.920   3.154   9.535 -0.8029  0.0707  0.0513
 4497SOL    HW125127   1.924   3.231   9.478  0.3049 -1.3178 -1.7495
 4497SOL    HW225128   1.830   3.152   9.569 -0.1254 -1.8816  1.7454
 4498SOL     OW25129   1.507   3.807   3.193  0.3751  0.2754 -0.1494
 4498SOL    HW125130   1.518   3.900   3.173  0.3794  0.0742 -1.0564
 4498SOL    HW225131   1.562   3.773   3.123  1.4832 -0.0083  0.8744
 4499SOL     OW25132   3.460   4.045   9.651 -0.4847  0.1687  0.1570
 4499SOL    HW125133   3.534   4.016   9.704  1.2605  2.8527 -0.7858
 4499SOL    HW225134   3.392   4.029   9.716  0.0316 -1.1315  0.3818
 4500SOL     OW25135   4.401   4.179  14.368  0.1602  0.1956  0.3378
 4500SOL    HW125136   4.486   4.217  14.389  1.0362 -1.4715 -0.1955
 4500SOL    HW225137   4.408   4.087  14.393 -1.6546 -0.0921 -0.2260
 4501SOL     OW25138   3.285   4.038  13.791 -0.2790 -0.3039  0.1525
 4501SOL    HW125139   3.211   4.098  13.799  0.9460  1.3050 -0.6375
 4501SOL    HW225140   3.310   4.061  13.702 -0.2404  3.4178  1.1209
 4502SOL     OW25141   2.278   1.253  16.538  0.0980 -0.4026  0.7165
 4502SOL    HW125142   2.335   1.276  16.464 -1.3390  2.1642  0.4004
 4502SOL    HW225143   2.244   1.166  16.515 -1.6766  0.3759  0.3919
 4503SOL     OW25144   3.834   1.504  10.105 -0.3251 -0.0591 -0.1161
 4503SOL    HW125145   3.895   1.460  10.164  0.0185  1.2951  0.5361
 4503SOL    HW225146   3.888   1.583  10.103 -0.1279 -0.2161 -1.1560
 4504SOL     OW25147   1.699   2.049   8.914  0.6282  0.2295 -0.0528
 4504SOL    HW125148   1.696   1.972   8.858  2.2667 -0.0552  0.2467
 4504SOL    HW225149   1.791   2.056   8.939  0.5757 -0.1208  0.2334
 4505SOL     OW25150   1.508   1.383  10.956  0.0369  1.2198  0.2271
 4505SOL    HW125151   1.504   1.430  10.873  0.7268 -0.4105 -0.7354
 4505SOL    HW225152   1.548   1.302  10.925 -1.8780  1.5140 -2.9473
 4506SOL     OW25153   1.367   3.064   9.552 -0.4074 -0.0915  0.1917
 4506SOL    HW125154   1.325   3.079   9.636 -0.2462 -0.1284  0.2785
 4506SOL    HW225155   1.400   2.974   9.560 -1.4839 -0.5271 -0.3275
 4507SOL     OW25156   2.445   1.161  10.609  0.2075 -0.5882 -0.5073
 4507SOL    HW125157   2.350   1.168  10.624  0.6737  1.3978  1.5378
 4507SOL    HW225158   2.474   1.251  10.596 -2.6631  0.5735  1.1769
 4508SOL     OW25159   1.284   2.650   4.639 -0.6318 -0.5138  0.7542
 4508SOL    HW125160   1.234   2.571   4.661 -2.0569  0.1951  0.0040
 4508SOL    HW225161   1.309   2.683   4.725 -1.4153  1.5043  0.1907
 4509SOL     OW25162   1.655   3.922   2.488 -0.4580  0.4269 -0.6139
 4509SOL    HW125163   1.629   3.964   2.570 -1.5596 -0.0722 -0.7010
 4509SOL    HW225164   1.723   3.985   2.465 -0.3176  0.4548 -0.1356
 4510SOL     OW25165   3.750   0.446   5.390  0.4287 -0.1722 -0.4170
 4510SOL    HW125166   3.836   0.412   5.365  0.5452  0.4480 -0.8629
 4510SOL    HW225167   3.716   0.384   5.454  1.5480  0.6607  1.0011
 4511SOL     OW25168   3.510   0.353   4.092 -0.1737  0.5171 -0.8573
 4511SOL    HW125169   3.587   0.322   4.044 -0.0101  2.9148 -2.1538
 4511SOL    HW225170   3.455   0.281   4.062 -1.4954  1.4829 -0.7428
 4512SOL     OW25171   1.149   1.353   6.765 -0.1100 -0.2058 -0.1610
 4512SOL    HW125172   1.170   1.445   6.781 -2.0068  0.2007 -0.0587
 4512SOL    HW225173   1.082   1.332   6.829  1.6153 -2.1826  1.0094
 4513SOL     OW25174   0.682   2.011   0.722  0.7910 -0.0610  0.0128
 4513SOL    HW125175   0.774   2.024   0.744  0.8399 -1.5762  0.6781
 4513SOL    HW225176   0.656   1.970   0.804 -0.4627 -1.7291 -1.2393
 4514SOL     OW25177   4.427   2.776   8.446  0.2106 -0.2371  0.3443
 4514SOL    HW125178   4.335   2.802   8.456 -0.0391 -1.0993  0.3184
 4514SOL    HW225179   4.433   2.717   8.522  0.7085  0.3753  0.7744
 4515SOL     OW25180   2.448   2.372   4.523  0.8055  0.5638 -0.4350
 4515SOL    HW125181   2.404   2.295   4.559  1.8477 -0.1971 -0.8031
 4515SOL    HW225182   2.402   2.445   4.565  0.2152  1.9699 -3.5266
 4516SOL     OW25183   0.240   2.240  11.045  0.3008  0.1164  0.1386
 4516SOL    HW125184   0.310   2.209  10.987 -1.7851 -2.0047 -1.2973
 4516SOL    HW225185   0.261   2.189  11.123 -0.3581 -0.9458 -0.3717
 4517SOL     OW25186   0.692   3.797  17.303  0.2932  0.1348 -0.0733
 4517SOL    HW125187   0.756   3.809  17.372  3.1539 -2.5359 -2.2558
 4517SOL    HW225188   0.616   3.798  17.361  0.3540 -0.8989  0.0294
 4518SOL     OW25189   0.818   2.456   5.536 -0.2525  0.4688 -0.2203
 4518SOL    HW125190   0.806   2.482   5.628 -2.7734 -0.2660 -0.3490
 4518SOL    HW225191   0.904   2.494   5.519  0.0512  0.5674  1.5314
 4519SOL     OW25192   4.227   3.586   0.087  0.2351  0.5214  0.1374
 4519SOL    HW125193   4.265   3.511   0.130 -1.5994  0.4498  1.6372
 4519SOL    HW225194   4.250   3.662   0.140  2.2286  0.7720 -1.0906
 4520SOL     OW25195   0.436   4.059   9.945 -0.4240 -0.1955 -0.6277
 4520SOL    HW125196   0.452   4.075  10.038 -0.0746 -0.1583 -0.6955
 4520SOL    HW225197   0.344   4.086   9.936  0.2852  2.4137 -0.1123
 4521SOL     OW25198   1.850   4.486  13.585 -0.3381 -0.0199  0.6131
 4521SOL    HW125199   1.806   4.571  13.589 -1.2758 -0.5711  2.2106
 4521SOL    HW225200   1.788   4.430  13.631 -0.7499  1.2407  1.6089
 4522SOL     OW25201   3.823   0.695   6.563  0.2007 -0.4717  0.2827
 4522SOL    HW125202   3.800   0.765   6.502 -2.8029  0.0290  1.9824
 4522SOL    HW225203   3.743   0.667   6.608  0.1969  0.4988  0.8898
 4523SOL     OW25204   3.415   0.928   1.502  0.4130 -0.8804  0.0074
 4523SOL    HW125205   3.355   1.000   1.479  0.0763 -1.1119  0.1599
 4523SOL    HW225206   3.381   0.858   1.446  0.7570 -2.1342  1.3581
 4524SOL     OW25207   2.749   1.868   5.954 -0.0921 -0.1091 -0.2712
 4524SOL    HW125208   2.691   1.858   5.878 -0.5893  1.7105 -0.1277
 4524SOL    HW225209   2.830   1.886   5.906  0.1891  2.1334  1.0490
 4525SOL     OW25210   1.386   3.037  17.304  0.0428  0.0575 -0.1426
 4525SOL    HW125211   1.319   3.009  17.241  1.6302 -1.6225 -1.0730
 4525SOL    HW225212   1.339   3.105  17.352 -1.1832 -0.2124 -0.9629
 4526SOL     OW25213   4.311   0.796  16.299  0.2767 -0.2184  0.2141
 4526SOL    HW125214   4.325   0.877  16.349  1.2405  1.5483 -2.9460
 4526SOL    HW225215   4.217   0.786  16.311  0.3284 -0.2885  0.5729
 4527SOL     OW25216   3.436   3.103   8.918  0.0890 -0.7005  0.1344
 4527SOL    HW125217   3.383   3.177   8.888 -0.8927 -0.7888  1.5951
 4527SOL    HW225218   3.516   3.140   8.955 -2.1368  2.1052  2.1461
 4528SOL     OW25219   3.933   2.922   4.948 -0.0138  0.1641 -0.4333
 4528SOL    HW125220   3.994   2.908   4.876 -0.9569  5.0067 -2.1826
 4528SOL    HW225221   3.910   2.835   4.981 -0.5298 -0.4334 -2.3202
 4529SOL     OW25222   1.296   3.700   2.125 -0.2831 -0.0211  0.2710
 4529SOL    HW125223   1.364   3.720   2.189 -1.6860 -1.5843  2.2797
 4529SOL    HW225224   1.335   3.741   2.049 -0.6688  2.2384  1.2921
 4530SOL     OW25225   1.934   0.460  10.751  0.1515  0.5602 -0.0928
 4530SOL    HW125226   1.910   0.371  10.724 -0.5363  0.3923  1.0401
 4530SOL    HW225227   2.022   0.440  10.781  1.1338  3.7683 -0.8606
 4531SOL     OW25228   3.828   2.822   6.301 -1.1749  0.5552 -0.0244
 4531SOL    HW125229   3.820   2.851   6.392  1.4915 -0.4513  0.5372
 4531SOL    HW225230   3.810   2.905   6.256 -1.0617 -0.1506 -1.3628
 4532SOL     OW25231   0.004   1.731   4.525  0.0411 -1.1457  0.0152
 4532SOL    HW125232   0.074   1.686   4.478 -0.7519  0.9656 -3.1814
 4532SOL    HW225233   4.662   1.676   4.505 -0.6061 -0.4098  0.4356
 4533SOL     OW25234   2.274   1.295   3.777  0.2875  0.2638 -0.1926
 4533SOL    HW125235   2.323   1.219   3.745  0.1658  1.5335 -3.4571
 4533SOL    HW225236   2.271   1.359   3.705 -1.8085 -1.6236 -1.7471
 4534SOL     OW25237   0.363   2.838  11.729 -0.7764  0.3565  0.5165
 4534SOL    HW125238   0.439   2.887  11.697  0.1206 -1.6892 -0.5076
 4534SOL    HW225239   0.380   2.841  11.823 -0.6774  1.6258  0.4517
 4535SOL     OW25240   4.222   4.198   2.754 -0.2618  0.0111 -0.3172
 4535SOL    HW125241   4.148   4.175   2.810  1.8360 -0.5809  2.1657
 4535SOL    HW225242   4.212   4.292   2.737 -1.7252 -0.0557  0.1608
 4536SOL     OW25243   4.166   2.167   5.845 -0.3026  0.0371 -0.2604
 4536SOL    HW125244   4.196   2.252   5.878 -1.6580 -0.1146  1.3574
 4536SOL    HW225245   4.081   2.187   5.806 -0.4584  1.1629  0.6611
 4537SOL     OW25246   0.729   3.932   7.169  0.0072 -0.3283  0.0127
 4537SOL    HW125247   0.664   3.862   7.159  0.0387 -0.4299  0.5242
 4537SOL    HW225248   0.807   3.886   7.200  0.4457  0.7672  0.5169
 4538SOL     OW25249   2.396   3.561   7.485 -0.4218 -0.5147 -0.1059
 4538SOL    HW125250   2.453   3.627   7.524 -2.1599 -0.1403  1.7901
 4538SOL    HW225251   2.386   3.597   7.397  1.4586  2.4565  0.8989
 4539SOL     OW25252   0.738   3.308   0.424  0.1192  0.4112 -0.0338
 4539SOL    HW125253   0.722   3.330   0.333  1.1349  1.1574 -0.0333
 4539SOL    HW225254   0.656   3.325   0.470 -1.5693  1.5640 -3.5338
 4540SOL     OW25255   4.174   0.464   8.785  0.5454 -0.3002 -0.1404
 4540SOL    HW125256   4.143   0.457   8.875  1.2561 -1.2424  0.0311
 4540SOL    HW225257   4.204   0.555   8.788  0.3048 -0.2625  1.1750
 4541SOL     OW25258   0.361   2.859   3.335  0.0167  0.2025 -0.3188
 4541SOL    HW125259   0.304   2.924   3.294  0.6340  0.4043 -0.8730
 4541SOL    HW225260   0.387   2.808   3.258  0.2630  1.0766 -0.8203
 4542SOL     OW25261   0.183   4.333   6.772 -0.1016  0.3350 -0.1025
 4542SOL    HW125262   0.198   4.351   6.865  1.0357 -1.9411  0.1562
 4542SOL    HW225263   0.091   4.309   6.764 -0.0766  1.0876 -2.5186
 4543SOL     OW25264   2.039   0.390   0.756  0.2994 -0.2063 -0.3035
 4543SOL    HW125265   2.125   0.388   0.797 -0.4491 -1.1998  1.2063
 4543SOL    HW225266   2.065   0.363   0.667 -0.8634  1.4686 -1.1461
 4544SOL     OW25267   0.179   4.691  14.663  0.8447  0.3081  0.7111
 4544SOL    HW125268   0.160   4.670  14.571  0.8851 -1.0212  1.0098
 4544SOL    HW225269   0.139   0.045  14.669 -0.0681 -0.0380 -0.3615
 4545SOL     OW25270   1.254   0.598   6.748  0.5468  0.2580 -0.1660
 4545SOL    HW125271   1.193   0.577   6.819 -0.6811  0.0059 -1.2974
 4545SOL    HW225272   1.249   0.694   6.750 -1.8087  0.0980  1.3946
 4546SOL     OW25273   2.583   1.515  17.119  0.3101 -0.1504  0.6979
 4546SOL    HW125274   2.489   1.514  17.138 -0.2839  3.0442 -2.1317
 4546SOL    HW225275   2.592   1.609  17.131  1.0780 -0.2895  1.1916
 4547SOL     OW25276   2.676   2.073   6.145  0.3867  0.3438 -0.4479
 4547SOL    HW125277   2.677   1.987   6.102 -0.8422 -0.2021  0.6250
 4547SOL    HW225278   2.678   2.122   6.063  0.5661 -0.7702 -1.1057
 4548SOL     OW25279   1.027   4.089   3.228  0.1653  0.1390  0.1561
 4548SOL    HW125280   1.068   4.004   3.215  0.7450  0.3305  0.6873
 4548SOL    HW225281   1.042   4.102   3.322  1.0667  0.6439 -0.0570
 4549SOL     OW25282   4.165   0.040  10.807 -0.7120 -0.4050 -0.2247
 4549SOL    HW125283   4.128   0.103  10.745  0.9100  2.9722  2.2399
 4549SOL    HW225284   4.111   0.045  10.886  0.1932  0.7207  0.3215
 4550SOL     OW25285   2.954   0.697  14.472  0.2859 -0.6036  0.1284
 4550SOL    HW125286   2.963   0.617  14.421  3.5554 -0.2066  0.0514
 4550SOL    HW225287   3.035   0.703  14.523  1.5042  1.8853 -2.0703
 4551SOL     OW25288   3.384   1.688  14.008  0.2580 -0.3422 -0.0869
 4551SOL    HW125289   3.387   1.640  13.925  0.7273  0.1575 -0.3563
 4551SOL    HW225290   3.436   1.761  13.976  4.0309 -2.2489  1.6967
 4552SOL     OW25291   0.739   2.589  14.066  0.0634  0.5385  0.1935
 4552SOL    HW125292   0.762   2.556  14.153 -0.2351  0.6848  0.3258
 4552SOL    HW225293   0.663   2.533  14.053  0.8139 -0.9060  2.0202
 4553SOL     OW25294   2.367   4.543   6.782 -0.4250 -0.6028 -0.0714
 4553SOL    HW125295   2.432   4.490   6.829  0.4045 -0.0960 -0.6426
 4553SOL    HW225296   2.424   4.616   6.757  2.1073 -2.3295  0.6461
 4554SOL     OW25297   3.231   1.836   1.777 -0.0717  0.8730 -0.3301
 4554SOL    HW125298   3.309   1.881   1.745  0.0323  1.4189  0.6688
 4554SOL    HW225299   3.261   1.745   1.774  1.9556  1.5889 -2.1725
 4555SOL     OW25300   2.114   0.845  15.275  0.0488  0.0389  0.7889
 4555SOL    HW125301   2.071   0.923  15.309  1.0957  1.2074 -0.6053
 4555SOL    HW225302   2.043   0.786  15.302  0.5616 -1.8172 -2.0013
 4556SOL     OW25303   4.697   2.306   6.737  0.0284  0.6385  0.5083
 4556SOL    HW125304   4.624   2.367   6.734 -1.1667 -0.7041  2.2975
 4556SOL    HW225305   0.013   2.327   6.658 -2.8535  2.1099 -0.8589
 4557SOL     OW25306   2.741   2.239  17.694 -0.4032 -0.3359  0.2260
 4557SOL    HW125307   2.788   2.294  17.631 -0.4190  1.5095  1.8271
 4557SOL    HW225308   2.725   2.292   0.040 -1.1477  0.0871 -0.2076
 4558SOL     OW25309   4.057   2.301   4.994 -0.1322  0.1351 -0.0063
 4558SOL    HW125310   4.128   2.318   4.932 -1.4876 -0.2518 -1.6885
 4558SOL    HW225311   4.053   2.388   5.032 -0.0352  0.1437 -0.0162
 4559SOL     OW25312   1.172   1.872  11.019 -0.2233 -0.1128 -0.1876
 4559SOL    HW125313   1.224   1.934  11.071  2.9406 -1.1252 -2.1285
 4559SOL    HW225314   1.201   1.891  10.930  0.6976 -0.9927 -0.0802
 4560SOL     OW25315   0.885   1.084   6.618 -0.0760  0.2547  0.5564
 4560SOL    HW125316   0.978   1.106   6.605  0.1536 -0.5918  0.7414
 4560SOL    HW225317   0.895   1.010   6.679  1.3486 -0.3239 -0.3550
 4561SOL     OW25318   0.800   0.807   5.068  0.4260  0.4289 -0.4592
 4561SOL    HW125319   0.857   0.781   5.141  1.3190 -0.0397 -1.3275
 4561SOL    HW225320   0.735   0.861   5.114  2.3264  1.3002  1.2167
 4562SOL     OW25321   1.880   0.676   5.954  0.5696  0.1208 -0.3321
 4562SOL    HW125322   1.878   0.651   5.862  1.0313  0.6778 -0.4885
 4562SOL    HW225323   1.919   0.595   5.984  0.8536 -0.1504 -1.4519
 4563SOL     OW25324   0.377   0.255  14.477 -0.0346 -0.0395  1.2102
 4563SOL    HW125325   0.306   0.258  14.412 -0.4157  3.1205  1.7882
 4563SOL    HW225326   0.411   0.344  14.465 -1.9278  0.5874  0.4840
 4564SOL     OW25327   1.997   4.340   5.122  0.4620  0.2978  0.7522
 4564SOL    HW125328   1.979   4.376   5.035 -0.3877 -1.3821  0.2449
 4564SOL    HW225329   2.091   4.335   5.139  0.4004  2.3986  1.8601
 4565SOL     OW25330   4.296   1.990   6.819 -0.2082  0.7305 -0.3782
 4565SOL    HW125331   4.235   2.011   6.748  0.3990  0.5629 -0.9480
 4565SOL    HW225332   4.313   1.897   6.805  1.9030  1.1635 -0.7208
 4566SOL     OW25333   2.201   4.453   1.078 -0.4818 -0.8660  1.2457
 4566SOL    HW125334   2.182   4.451   0.984 -0.0916 -2.1604  1.1868
 4566SOL    HW225335   2.255   4.530   1.095  0.6531 -1.0993 -1.1239
 4567SOL     OW25336   0.254   4.067   8.796  0.1973 -0.4040  0.1534
 4567SOL    HW125337   0.305   4.003   8.846 -0.4787  0.4253  1.9034
 4567SOL    HW225338   0.262   4.141   8.857  0.0098  1.0137 -1.5632
 4568SOL     OW25339   2.621   4.232   5.082 -0.4343  0.0917 -0.0750
 4568SOL    HW125340   2.605   4.325   5.064  0.3396 -0.0258 -1.3534
 4568SOL    HW225341   2.688   4.213   5.016  0.1789  0.1378  0.5313
 4569SOL     OW25342   2.604   2.850   7.186  0.3723 -0.2007 -0.1365
 4569SOL    HW125343   2.607   2.811   7.098 -0.8124 -0.3128 -0.1177
 4569SOL    HW225344   2.600   2.775   7.246 -1.3648  0.0937  0.1000
 4570SOL     OW25345   3.207   2.346   2.723  0.2911  0.0766  0.7385
 4570SOL    HW125346   3.236   2.394   2.801 -1.7072  1.9044  0.3755
 4570SOL    HW225347   3.290   2.324   2.680 -0.4293 -0.5757 -0.3251
 4571SOL     OW25348   1.691   2.781   5.026  0.2329  0.1590 -0.4056
 4571SOL    HW125349   1.682   2.839   5.102  0.2739 -0.2176 -0.1098
 4571SOL    HW225350   1.689   2.840   4.951 -1.5398  0.4516 -0.1094
 4572SOL     OW25351   4.383   1.618   4.618  0.0894  0.8397  0.3088
 4572SOL    HW125352   4.306   1.633   4.563 -0.0145  0.9067  0.4716
 4572SOL    HW225353   4.425   1.572   4.546  1.1293  0.0805  1.4088
 4573SOL     OW25354   1.376   0.701   4.138  0.1942  0.0458 -0.3287
 4573SOL    HW125355   1.345   0.747   4.216 -0.1905 -0.3425 -0.2580
 4573SOL    HW225356   1.469   0.684   4.155  0.4983  2.2429  0.2395
 4574SOL     OW25357   3.367   4.728   3.709 -0.0477 -0.1004 -0.2848
 4574SOL    HW125358   3.447   4.715   3.658  0.6142 -0.1255  0.7460
 4574SOL    HW225359   3.399   4.677   3.784  0.4879  0.3434 -0.2116
 4575SOL     OW25360   3.021   3.237   6.538  0.2119  0.0334  0.3916
 4575SOL    HW125361   2.933   3.259   6.566  0.0475 -1.5251  1.1218
 4575SOL    HW225362   3.059   3.289   6.608  1.1585 -0.1988  0.0599
 4576SOL     OW25363   3.318   1.070  11.276 -0.1515 -0.2659 -0.2872
 4576SOL    HW125364   3.234   1.035  11.246 -0.1103 -2.1266  1.6995
 4576SOL    HW225365   3.289   1.113  11.357  1.8459  1.4832 -0.5204
 4577SOL     OW25366   0.577   2.493   8.984  0.1308 -0.2182  0.3490
 4577SOL    HW125367   0.619   2.520   9.066  2.6621 -2.3964 -0.2416
 4577SOL    HW225368   0.532   2.576   8.967  0.1783 -0.4619 -1.0149
 4578SOL     OW25369   4.068   4.693   7.511 -0.9659 -0.2972  0.2138
 4578SOL    HW125370   4.041   0.047   7.541 -1.0374  0.4518 -2.0252
 4578SOL    HW225371   3.980   4.655   7.512 -0.7775 -0.7629 -1.2949
 4579SOL     OW25372   3.554   3.832   6.542 -0.1534 -0.7092 -0.2967
 4579SOL    HW125373   3.630   3.816   6.486  1.3676 -2.1755  2.1410
 4579SOL    HW225374   3.515   3.906   6.497  0.7601  1.2058  2.0939
 4580SOL     OW25375   3.088   1.291   6.354 -0.1522  0.0507 -0.0203
 4580SOL    HW125376   3.059   1.230   6.286  0.7971 -0.3583 -0.0562
 4580SOL    HW225377   3.165   1.322   6.307 -0.9575  1.7532 -0.2337
 4581SOL     OW25378   0.821   1.784   4.532 -0.3683  0.5653  0.5966
 4581SOL    HW125379   0.835   1.855   4.595  3.6873  1.3814 -1.2011
 4581SOL    HW225380   0.751   1.744   4.583 -1.8483  0.2956 -1.6766
 4582SOL     OW25381   1.019   4.475   6.109  0.2380  0.5662  0.2331
 4582SOL    HW125382   0.981   4.473   6.021 -0.0381 -2.5670  0.4145
 4582SOL    HW225383   1.052   4.385   6.104  3.6146  1.8908 -1.1682
 4583SOL     OW25384   2.944   3.269   6.277 -0.3057  0.2145 -0.0387
 4583SOL    HW125385   2.878   3.203   6.257 -1.7855  1.8067 -0.3797
 4583SOL    HW225386   2.969   3.248   6.367  0.4073  0.8507 -0.0865
 4584SOL     OW25387   3.321   2.148  10.684 -0.2588 -0.5498 -0.4491
 4584SOL    HW125388   3.342   2.134  10.776  1.4828 -0.2484 -0.8028
 4584SOL    HW225389   3.375   2.078  10.647  1.8227 -0.0530  1.6786
 4585SOL     OW25390   1.135   3.106  11.601 -0.1547 -0.1206 -0.3538
 4585SOL    HW125391   1.042   3.129  11.590  0.2961  1.4743 -0.7394
 4585SOL    HW225392   1.128   3.059  11.684 -2.8714  1.4717  0.3443
 4586SOL     OW25393   0.161   2.566   2.705 -0.6908 -0.9920 -0.5106
 4586SOL    HW125394   0.251   2.538   2.692 -0.2949  0.5506 -1.1254
 4586SOL    HW225395   0.133   2.573   2.613  0.9500  0.3298 -0.9030
 4587SOL     OW25396   0.113   0.353   4.790 -0.5143 -0.3243  0.1255
 4587SOL    HW125397   0.195   0.311   4.814 -0.5237 -0.8433 -0.7423
 4587SOL    HW225398   0.084   0.378   4.878 -0.5279  3.6381 -0.9824
 4588SOL     OW25399   1.537   2.879   4.242 -0.1060 -0.3424 -0.3097
 4588SOL    HW125400   1.591   2.806   4.274 -0.5416 -0.9788 -1.0229
 4588SOL    HW225401   1.464   2.886   4.304  0.3765 -0.6973  0.2931
 4589SOL     OW25402   2.793   2.396  16.815  0.2144  0.1887 -0.2844
 4589SOL    HW125403   2.864   2.445  16.774 -0.3271 -0.0774 -1.5407
 4589SOL    HW225404   2.753   2.466  16.866 -0.1002 -0.5314  0.4511
 4590SOL     OW25405   1.206   3.344   3.166 -1.0797 -0.2484  0.6111
 4590SOL    HW125406   1.266   3.419   3.165 -1.4819  0.0511 -0.8490
 4590SOL    HW225407   1.189   3.328   3.073  0.0997 -0.9042  0.5069
 4591SOL     OW25408   2.817   0.402   8.089 -0.3681  0.6825 -0.3169
 4591SOL    HW125409   2.748   0.341   8.116 -0.4003  0.1643 -1.5490
 4591SOL    HW225410   2.891   0.362   8.132 -0.1202  1.4337 -0.0416
 4592SOL     OW25411   3.442   0.099   5.380  0.1166 -0.5130  0.1078
 4592SOL    HW125412   3.464   0.173   5.322  2.4571 -2.0357 -0.9235
 4592SOL    HW225413   3.494   0.116   5.459  2.4569 -1.9212 -1.1479
 4593SOL     OW25414   2.687   1.282  13.544 -0.2119  0.5304 -0.1518
 4593SOL    HW125415   2.695   1.371  13.508 -0.5349  0.1171 -1.2381
 4593SOL    HW225416   2.747   1.306  13.615 -0.4044 -0.0597  0.2150
 4594SOL     OW25417   3.526   2.301   2.059  0.5349 -0.6450  0.2994
 4594SOL    HW125418   3.476   2.340   2.131 -0.7158  0.4583 -1.1749
 4594SOL    HW225419   3.470   2.225   2.047  1.3014 -0.6598 -3.0430
 4595SOL     OW25420   0.812   2.012   3.618  0.3424  0.2577 -0.3008
 4595SOL    HW125421   0.772   2.094   3.588  0.7404  0.1495 -1.1509
 4595SOL    HW225422   0.846   2.026   3.706 -0.5331 -0.7406  0.1869
 4596SOL     OW25423   1.721   0.162   9.716 -0.2316  0.2406  0.1318
 4596SOL    HW125424   1.789   0.229   9.715 -0.5621  0.6082  2.2887
 4596SOL    HW225425   1.767   0.080   9.697 -1.7444 -0.6152  0.0866
 4597SOL     OW25426   1.350   4.485   8.286  0.9814 -0.1208  0.6007
 4597SOL    HW125427   1.358   4.417   8.219  0.7470  1.4194 -0.9896
 4597SOL    HW225428   1.270   4.464   8.334  1.2572 -2.8342 -0.0888
 4598SOL     OW25429   0.801   0.164   4.379 -0.1862 -0.4759  0.2480
 4598SOL    HW125430   0.861   0.102   4.421  1.4684 -0.6095 -2.3161
 4598SOL    HW225431   0.829   0.161   4.287 -1.0860 -2.2925  0.0272
 4599SOL     OW25432   0.085   0.736   3.478 -0.6692  0.6387  0.1663
 4599SOL    HW125433   0.154   0.780   3.527 -0.6025  0.0892  0.5675
 4599SOL    HW225434   0.127   0.652   3.459 -1.0932  0.4053  0.2725
 4600SOL     OW25435   1.264   1.771   2.072 -0.0147 -0.2976  0.4787
 4600SOL    HW125436   1.252   1.763   1.977 -1.2906 -0.7274  0.6713
 4600SOL    HW225437   1.358   1.788   2.068 -0.1727  0.7321  1.0748
 4601SOL     OW25438   0.399   4.056   5.328  0.3003 -0.0660 -0.3147
 4601SOL    HW125439   0.429   3.992   5.264  1.6360 -1.7310  1.9676
 4601SOL    HW225440   0.436   4.141   5.303 -2.1838  0.7862 -1.1276
 4602SOL     OW25441   1.757   4.460   2.082 -0.0039  0.1451  0.1405
 4602SOL    HW125442   1.681   4.442   2.028  1.2166 -0.7194 -1.2973
 4602SOL    HW225443   1.776   4.553   2.071  1.6470 -0.1050  0.8951
 4603SOL     OW25444   2.379   1.869  17.710  0.2339  0.4693 -0.2429
 4603SOL    HW125445   2.420   1.791  17.674  1.8044  1.0279  0.3259
 4603SOL    HW225446   2.451   1.928  17.688  1.4438  0.6609  4.3437
 4604SOL     OW25447   1.279   2.870   6.018 -0.0394 -0.2015 -0.0554
 4604SOL    HW125448   1.259   2.778   6.037  0.8950  0.3945  3.8834
 4604SOL    HW225449   1.319   2.870   5.931 -1.3358 -2.6140 -0.6536
 4605SOL     OW25450   3.831   0.978   8.439  0.3680  0.0812 -0.1489
 4605SOL    HW125451   3.853   1.003   8.350  2.9374  3.1096  1.3224
 4605SOL    HW225452   3.742   0.942   8.431  0.0636  0.8661 -0.2592
 4606SOL     OW25453   2.328   4.396   4.142 -0.1341  0.5608 -0.5118
 4606SOL    HW125454   2.423   4.405   4.135 -0.1975 -0.5654 -2.6174
 4606SOL    HW225455   2.327   4.301   4.154 -1.8332  1.2125  4.4380
 4607SOL     OW25456   2.948   1.500   5.428 -0.4176  0.0584 -0.1421
 4607SOL    HW125457   3.040   1.478   5.444 -0.6192 -0.9675 -0.4376
 4607SOL    HW225458   2.924   1.522   5.518  2.6098 -1.2839  1.0102
 4608SOL     OW25459   1.615   1.023  11.353  0.1890 -0.0081 -0.1274
 4608SOL    HW125460   1.558   0.957  11.393 -1.2396  0.8014 -0.8134
 4608SOL    HW225461   1.586   1.101  11.400  0.3123  0.0956 -0.2238
 4609SOL     OW25462   3.719   2.407   6.800  0.1070 -1.2189 -0.6923
 4609SOL    HW125463   3.662   2.379   6.872  1.3139  0.5884  0.9691
 4609SOL    HW225464   3.704   2.501   6.807 -0.1660 -1.4546  1.8864
 4610SOL     OW25465   2.568   1.788  17.186 -0.4234  0.2478 -0.2013
 4610SOL    HW125466   2.608   1.836  17.113 -1.5677 -1.7190 -2.1485
 4610SOL    HW225467   2.641   1.783  17.247 -0.6552  1.0069  0.1403
 4611SOL     OW25468   0.134   2.079   5.824 -0.0716 -0.1210  0.2875
 4611SOL    HW125469   0.224   2.054   5.806 -0.8827 -1.2711 -2.1145
 4611SOL    HW225470   0.089   2.010   5.776  0.1015 -1.3237  1.8336
 4612SOL     OW25471   3.808   0.736   8.213  0.1228 -0.1764 -0.3173
 4612SOL    HW125472   3.792   0.643   8.230  0.4739 -0.0974  0.4677
 4612SOL    HW225473   3.731   0.777   8.253  0.0957 -1.1975  0.6795
 4613SOL     OW25474   4.274   3.440   5.255  0.1160  0.0138 -0.1032
 4613SOL    HW125475   4.336   3.425   5.327  0.4855 -0.8122 -0.5870
 4613SOL    HW225476   4.289   3.361   5.203 -0.8351  0.2953 -0.7979
 4614SOL     OW25477   2.700   0.347   4.411  0.0479 -0.1700  0.2928
 4614SOL    HW125478   2.686   0.305   4.326 -0.9425 -1.2655  0.9858
 4614SOL    HW225479   2.794   0.333   4.413 -0.6210 -4.7117  0.2214
 4615SOL     OW25480   2.747   3.534   5.394 -0.0895 -0.2462  0.5254
 4615SOL    HW125481   2.834   3.518   5.357 -0.1688 -1.5971  0.9229
 4615SOL    HW225482   2.695   3.454   5.385  2.7187 -1.8726 -1.2925
 4616SOL     OW25483   2.025   0.041   8.606  0.0025  0.1399  0.2424
 4616SOL    HW125484   2.081   0.023   8.681  2.3922 -1.0809 -1.8168
 4616SOL    HW225485   2.048   0.133   8.593 -0.7477  0.2959 -0.0062
 4617SOL     OW25486   0.477   3.846   5.148  0.2725 -0.0675 -0.3775
 4617SOL    HW125487   0.427   3.847   5.066 -1.0935 -2.3163  0.4054
 4617SOL    HW225488   0.426   3.788   5.204  1.8639 -0.2908  0.8430
 4618SOL     OW25489   0.519   0.222  14.826  0.3906  0.2191  0.0588
 4618SOL    HW125490   0.558   0.216  14.913  0.5135  3.1424  0.2053
 4618SOL    HW225491   0.496   0.131  14.807 -1.5809  0.7530 -0.0916
 4619SOL     OW25492   3.879   1.403  16.742 -0.1951 -0.9208  0.0088
 4619SOL    HW125493   3.844   1.459  16.673 -0.4308 -2.8295 -1.4122
 4619SOL    HW225494   3.969   1.435  16.743 -0.1218 -1.1224  0.4570
 4620SOL     OW25495   1.754   4.235   8.652 -0.5774 -0.7579  0.4982
 4620SOL    HW125496   1.761   4.174   8.580 -0.4974  0.1600 -0.2716
 4620SOL    HW225497   1.662   4.247   8.629 -0.8217 -0.7199  1.4700
 4621SOL     OW25498   0.191   3.584   2.789 -0.1235  0.2884  0.6315
 4621SOL    HW125499   0.154   3.646   2.852  1.1357 -0.4184  2.0948
 4621SOL    HW225500   0.123   3.517   2.788 -0.5884  0.7617  0.8857
 4622SOL     OW25501   1.608   0.450  12.401 -0.1156 -0.4590  0.0507
 4622SOL    HW125502   1.656   0.517  12.353 -0.8070  2.2405  3.1354
 4622SOL    HW225503   1.538   0.511  12.423 -0.7865 -1.2888  0.2436
 4623SOL     OW25504   0.352   2.766   2.464  0.8825 -0.0712  0.3284
 4623SOL    HW125505   0.317   2.846   2.503  0.6388 -0.9025  1.8261
 4623SOL    HW225506   0.414   2.793   2.396  0.3304  0.5146  0.0590
 4624SOL     OW25507   4.614   3.846  10.623  0.2635  0.1497  0.0088
 4624SOL    HW125508   4.638   3.762  10.662  1.6251 -0.0046 -1.1606
 4624SOL    HW225509   4.520   3.843  10.640  0.2670 -1.2134 -0.1823
 4625SOL     OW25510   4.354   4.405  13.149  0.0505  0.2954 -0.0377
 4625SOL    HW125511   4.390   4.494  13.155  2.1915 -0.6256  0.4308
 4625SOL    HW225512   4.295   4.416  13.224  0.7974 -0.6004  0.6751
 4626SOL     OW25513   4.355   4.717   3.915  0.6998  0.1906  0.3721
 4626SOL    HW125514   4.332   4.624   3.914  0.9615  0.1022  2.3106
 4626SOL    HW225515   4.430   4.708   3.974  0.3652  2.4663  1.1392
 4627SOL     OW25516   0.356   1.243   1.747 -0.5069  0.0624  0.7202
 4627SOL    HW125517   0.410   1.163   1.745 -0.1287  0.3414  0.0342
 4627SOL    HW225518   0.427   1.306   1.759 -0.8341  0.6744 -0.5820
 4628SOL     OW25519   1.228   4.481   5.851  0.5315 -0.2336  0.5428
 4628SOL    HW125520   1.235   4.437   5.767 -3.7845 -1.4648  0.8035
 4628SOL    HW225521   1.134   4.494   5.867  0.4078  0.4572 -0.7840
 4629SOL     OW25522   1.284   1.027   8.776  0.0768  0.0829  0.2739
 4629SOL    HW125523   1.323   1.059   8.695  1.3360  0.6311  1.1069
 4629SOL    HW225524   1.319   1.090   8.839 -1.0712  1.3977 -0.4020
 4630SOL     OW25525   3.778   0.329   4.882 -0.1956 -0.4997  0.1157
 4630SOL    HW125526   3.799   0.280   4.961 -0.8416  1.8928  1.7674
 4630SOL    HW225527   3.684   0.311   4.876 -0.1801 -0.8208  0.8649
 4631SOL     OW25528   1.707   1.320   5.697  0.3598  0.0737  0.1191
 4631SOL    HW125529   1.752   1.241   5.666 -0.1778 -0.5410  0.8991
 4631SOL    HW225530   1.614   1.300   5.706  0.6088 -1.0395  0.2501
 4632SOL     OW25531   2.356   3.859   7.064  0.0806 -0.3543 -0.0073
 4632SOL    HW125532   2.303   3.787   7.100 -1.1883  0.8715  0.5644
 4632SOL    HW225533   2.357   3.914   7.142  0.5386 -0.8607  0.3488
 4633SOL     OW25534   0.052   1.859   7.138 -0.0988  0.2269  0.2280
 4633SOL    HW125535   0.129   1.884   7.087 -0.5370  0.3608 -0.3639
 4633SOL    HW225536   0.081   1.780   7.184  0.9494 -0.9457 -2.5156
 4634SOL     OW25537   3.202   4.060   2.496  0.2485  0.5411  0.5494
 4634SOL    HW125538   3.220   4.118   2.421  0.9352  1.8865  1.7635
 4634SOL    HW225539   3.117   4.099   2.519 -0.6139  0.2761 -2.1411
 4635SOL     OW25540   1.326   3.420   4.635 -0.0910  0.2887  0.5995
 4635SOL    HW125541   1.231   3.431   4.645 -0.1021  0.6795 -0.0018
 4635SOL    HW225542   1.323   3.400   4.542 -2.6878 -4.1873  1.6187
 4636SOL     OW25543   2.667   1.657   0.221  0.0453  0.0379 -0.7398
 4636SOL    HW125544   2.675   1.619   0.133  2.4968  0.0940 -0.5657
 4636SOL    HW225545   2.705   1.586   0.272 -2.4521  0.4930  1.7197
 4637SOL     OW25546   0.438   3.194   9.694  0.0106 -0.0213  0.4740
 4637SOL    HW125547   0.457   3.148   9.775 -0.7819  0.7043  1.0688
 4637SOL    HW225548   0.492   3.271   9.713 -1.1473  1.3139 -1.6414
 4638SOL     OW25549   0.859   3.695   8.421 -0.2386  0.3306 -0.0182
 4638SOL    HW125550   0.940   3.644   8.423  1.1229  2.5479  0.0784
 4638SOL    HW225551   0.883   3.757   8.489 -0.7859  0.0069  0.4705
 4639SOL     OW25552   3.125   1.829   7.181  0.0697  0.5185 -0.1830
 4639SOL    HW125553   3.156   1.799   7.267 -1.3552  1.3634  0.6177
 4639SOL    HW225554   3.052   1.769   7.162  0.6671  0.2508 -1.6638
 4640SOL     OW25555   4.205   0.783   7.359 -0.1019 -0.6195  0.1441
 4640SOL    HW125556   4.121   0.812   7.392 -0.2335 -0.0763 -0.6608
 4640SOL    HW225557   4.197   0.688   7.346  1.0723 -0.8864  1.3442
 4641SOL     OW25558   0.174   0.011   4.256 -0.1895  0.2154  0.0894
 4641SOL    HW125559   0.249   4.685   4.270 -1.7874 -1.6558  0.7773
 4641SOL    HW225560   0.111   4.693   4.306 -1.7081  1.3476 -0.6758
 4642SOL     OW25561   1.966   0.645  15.787 -1.0623 -0.0364  0.5801
 4642SOL    HW125562   1.963   0.602  15.702  0.3839  1.3221 -0.1619
 4642SOL    HW225563   2.046   0.616  15.830  1.0170  0.7347 -2.8297
 4643SOL     OW25564   3.911   1.295  17.424 -0.1402  0.0241 -0.7109
 4643SOL    HW125565   3.991   1.243  17.428  0.2507  0.6561 -0.3043
 4643SOL    HW225566   3.842   1.245  17.380  0.1336 -1.7415  0.8993
 4644SOL     OW25567   3.506   0.285  15.725  0.1656  0.3760 -0.0977
 4644SOL    HW125568   3.589   0.333  15.723  0.5171 -0.1136  3.6430
 4644SOL    HW225569   3.528   0.227  15.797 -0.5653 -1.0793 -1.0441
 4645SOL     OW25570   4.389   1.080   0.594  0.0629 -0.3815 -0.1081
 4645SOL    HW125571   4.338   1.141   0.540  0.5609  0.3998  0.3008
 4645SOL    HW225572   4.405   1.124   0.677  3.5143 -2.5572  0.3771
 4646SOL     OW25573   3.390   2.996   6.077 -0.1926  0.4359 -0.0582
 4646SOL    HW125574   3.400   2.975   6.170  1.3558 -0.6649 -0.4686
 4646SOL    HW225575   3.367   2.909   6.045  1.6706 -0.5455  1.2614
 4647SOL     OW25576   3.123   3.818   5.166  0.3382  0.0766 -0.0571
 4647SOL    HW125577   3.216   3.799   5.154  0.4294  1.2342 -1.2906
 4647SOL    HW225578   3.090   3.787   5.081  1.4821  1.3043 -0.9521
 4648SOL     OW25579   3.730   0.890   7.405  0.6818  0.0004 -0.0737
 4648SOL    HW125580   3.738   0.907   7.312  1.5149 -3.1619 -0.5705
 4648SOL    HW225581   3.640   0.913   7.428 -0.4564 -2.6986 -1.8561
 4649SOL     OW25582   3.516   1.434   7.288 -0.2334  0.3312  0.5984
 4649SOL    HW125583   3.537   1.514   7.336 -0.8196  0.8686 -0.0460
 4649SOL    HW225584   3.585   1.438   7.221  1.4083 -0.1041  2.2366
 4650SOL     OW25585   4.389   2.247   6.827 -0.7273  0.3763 -0.0708
 4650SOL    HW125586   4.378   2.272   6.736 -0.0687 -0.9602 -0.5193
 4650SOL    HW225587   4.337   2.167   6.823 -0.1618 -0.1368  2.3459
 4651SOL     OW25588   3.350   3.708   8.173  0.6464  0.1880 -0.0900
 4651SOL    HW125589   3.360   3.791   8.221  2.3149 -0.0664 -0.0110
 4651SOL    HW225590   3.405   3.727   8.098 -0.3954 -0.1214 -0.9333
 4652SOL     OW25591   1.263   2.166   3.149 -0.1708  0.2296  0.2639
 4652SOL    HW125592   1.238   2.109   3.077 -2.2469  0.2069  1.0119
 4652SOL    HW225593   1.356   2.142   3.158  0.8811  4.3601  0.1624
 4653SOL     OW25594   3.594   3.128  16.441 -0.0586 -0.0806  0.5478
 4653SOL    HW125595   3.615   3.178  16.363 -0.1892 -0.4189  0.2952
 4653SOL    HW225596   3.506   3.163  16.454  0.0322  0.5451 -0.5638
 4654SOL     OW25597   0.192   2.918   3.102  0.3782  0.0743  0.0754
 4654SOL    HW125598   0.099   2.909   3.123  1.3228  0.0900  4.1974
 4654SOL    HW225599   0.218   2.828   3.123 -0.5438 -0.0583  0.6317
 4655SOL     OW25600   1.006   3.813   7.856  0.2662 -0.1531  0.0409
 4655SOL    HW125601   1.053   3.748   7.907 -0.8266 -2.3672 -1.7998
 4655SOL    HW225602   0.995   3.775   7.770 -1.6187  2.8252 -1.0673
 4656SOL     OW25603   2.330   0.906   3.990 -0.0563 -0.2686  0.6836
 4656SOL    HW125604   2.285   0.910   3.906  2.1765  1.9180 -0.4028
 4656SOL    HW225605   2.268   0.878   4.058  0.9080 -0.7796  1.3628
 4657SOL     OW25606   2.802   2.891   8.348 -0.2199 -0.3743  0.0505
 4657SOL    HW125607   2.800   2.987   8.344 -0.4542 -0.3529  0.6745
 4657SOL    HW225608   2.752   2.896   8.429 -3.5284  1.2818 -2.0795
 4658SOL     OW25609   1.200   0.175   7.358 -0.2230 -0.7725 -0.1436
 4658SOL    HW125610   1.215   0.266   7.385  4.3042 -1.3288 -0.7669
 4658SOL    HW225611   1.124   0.157   7.414  0.1418 -0.3160  0.4953
 4659SOL     OW25612   2.646   3.580   1.883 -0.0243  0.3683  0.4753
 4659SOL    HW125613   2.613   3.576   1.793  0.3226 -2.6299  0.4792
 4659SOL    HW225614   2.735   3.545   1.879  0.6480  2.1370 -0.7276
 4660SOL     OW25615   3.488   2.050   2.576 -0.5600 -0.3144 -0.6798
 4660SOL    HW125616   3.485   2.140   2.545  1.4612  0.0266  0.1337
 4660SOL    HW225617   3.406   2.006   2.552 -0.7587 -0.7165  0.7038
 4661SOL     OW25618   2.038   3.032   8.644 -0.6459 -0.0282  0.1247
 4661SOL    HW125619   2.025   3.062   8.734  0.8000  0.2716  0.2297
 4661SOL    HW225620   2.129   3.058   8.633 -1.3491  3.2952  2.3984
 4662SOL     OW25621   4.342   1.590  14.947  0.5840  0.0455  0.3158
 4662SOL    HW125622   4.433   1.610  14.969  0.0142  0.4467  2.3092
 4662SOL    HW225623   4.352   1.588  14.852 -0.3890  0.1713  0.2117
 4663SOL     OW25624   4.379   3.946  15.609  0.2946 -0.7116  0.2805
 4663SOL    HW125625   4.368   3.858  15.646 -1.1441 -0.9686 -0.7608
 4663SOL    HW225626   4.440   3.990  15.668  0.0042  0.0739 -0.0089
 4664SOL     OW25627   1.685   2.940   5.240  0.2713  0.1952  0.1097
 4664SOL    HW125628   1.707   2.924   5.331 -1.0380 -0.3651  0.3285
 4664SOL    HW225629   1.709   3.032   5.231  2.8802 -0.5661 -0.8357
 4665SOL     OW25630   3.735   3.044   2.564 -0.2692 -0.3058  0.2026
 4665SOL    HW125631   3.719   3.019   2.655  0.1259  0.8193  0.5829
 4665SOL    HW225632   3.740   3.139   2.577 -0.7612 -0.5070  1.8658
 4666SOL     OW25633   4.288   2.609   3.220  0.1011  0.4626 -0.2646
 4666SOL    HW125634   4.364   2.575   3.174 -1.4312 -0.7440 -1.9114
 4666SOL    HW225635   4.225   2.544   3.189 -0.2441  0.5393  0.2659
 4667SOL     OW25636   1.930   3.667   3.590  0.3906 -0.2257 -0.4428
 4667SOL    HW125637   1.871   3.650   3.663 -0.3499 -1.8206 -1.3873
 4667SOL    HW225638   1.867   3.700   3.525 -0.3964  0.7138  0.7990
 4668SOL     OW25639   2.091   1.076  11.826 -0.1213  0.2218  0.2910
 4668SOL    HW125640   2.134   1.158  11.802  4.3422 -2.2062 -0.0279
 4668SOL    HW225641   2.065   1.094  11.916 -2.4510  0.7023 -0.4749
 4669SOL     OW25642   4.191   3.825  14.182  0.1658 -0.2526  0.3723
 4669SOL    HW125643   4.239   3.858  14.107 -0.4280 -2.4527 -0.9667
 4669SOL    HW225644   4.264   3.793  14.235 -0.6639  0.4842  1.9780
 4670SOL     OW25645   2.653   1.393   0.823  0.6434 -0.3662  0.0301
 4670SOL    HW125646   2.731   1.447   0.829 -0.2630  1.2223 -2.5044
 4670SOL    HW225647   2.662   1.360   0.734 -0.5274 -0.3180 -0.1087
 4671SOL     OW25648   1.278   0.045   2.185  0.1474  0.1926  0.0047
 4671SOL    HW125649   1.351   0.096   2.221  2.3404 -3.3535  0.5864
 4671SOL    HW225650   1.295   0.056   2.092  1.1861  0.8576  0.2693
 4672SOL     OW25651   3.791   0.630   3.182  0.2223 -0.1433  0.0897
 4672SOL    HW125652   3.785   0.639   3.087 -1.0333 -2.2956 -0.0399
 4672SOL    HW225653   3.853   0.692   3.221 -0.2860 -0.7518  1.9001
 4673SOL     OW25654   3.071   2.431  12.682  0.1231 -0.1654  0.2400
 4673SOL    HW125655   3.029   2.415  12.597 -1.1917  0.5347  0.7514
 4673SOL    HW225656   3.005   2.480  12.731  0.3397  1.0105 -0.6582
 4674SOL     OW25657   2.127   4.481   2.813  0.3856  0.0811 -0.1713
 4674SOL    HW125658   2.215   4.517   2.824  0.8302 -0.7363 -1.0904
 4674SOL    HW225659   2.130   4.442   2.726 -1.0249  1.3589 -0.7945
 4675SOL     OW25660   2.692   2.231   2.597 -0.2606  0.5046 -0.8204
 4675SOL    HW125661   2.623   2.214   2.662 -0.0744 -2.5845 -1.4443
 4675SOL    HW225662   2.694   2.142   2.561 -0.6461  1.1335 -2.4241
 4676SOL     OW25663   3.953   2.064   7.763  0.1347 -0.3582  0.3675
 4676SOL    HW125664   3.865   2.049   7.796  0.0542 -0.7991 -0.0375
 4676SOL    HW225665   4.008   2.105   7.829  0.7629  0.8905 -0.9202
 4677SOL     OW25666   1.830   2.883   5.469 -0.1479 -0.6318  0.5816
 4677SOL    HW125667   1.860   2.961   5.516 -1.5372  2.1177 -3.1472
 4677SOL    HW225668   1.863   2.811   5.523  2.0478  0.0428  0.1582
 4678SOL     OW25669   1.685   0.361   0.210  0.5058 -0.2031 -0.6671
 4678SOL    HW125670   1.603   0.377   0.165  0.8039 -0.6404 -1.3632
 4678SOL    HW225671   1.656   0.386   0.298  3.7180  0.2992  0.2457
 4679SOL     OW25672   3.412   3.616   2.135 -0.1106  0.1480  0.4630
 4679SOL    HW125673   3.376   3.532   2.107 -0.6189  0.1229  1.2002
 4679SOL    HW225674   3.450   3.647   2.053 -1.3581 -1.0238 -0.5529
 4680SOL     OW25675   2.243   2.886   6.030  0.5307  0.3524 -0.0488
 4680SOL    HW125676   2.275   2.797   6.044 -2.0016 -0.7070 -1.0631
 4680SOL    HW225677   2.312   2.922   5.975 -0.5732 -0.7021 -2.1105
 4681SOL     OW25678   3.104   3.455   6.164 -0.5476  1.2999 -0.0261
 4681SOL    HW125679   3.059   3.489   6.087 -0.6755 -1.6242 -1.2501
 4681SOL    HW225680   3.050   3.380   6.192 -0.3730  0.2251 -2.5601
 4682SOL     OW25681   2.016   4.572  12.765  0.0503  0.4468 -0.0639
 4682SOL    HW125682   1.983   4.662  12.768 -0.3814  0.4018 -3.5115
 4682SOL    HW225683   1.969   4.522  12.699  0.7977 -0.4743  0.1024
 4683SOL     OW25684   2.117   3.056   3.523 -0.3943 -0.4055 -0.2949
 4683SOL    HW125685   2.208   3.085   3.521 -0.7956  1.0022  1.7202
 4683SOL    HW225686   2.097   3.017   3.438 -1.1821  0.7972 -0.6710
 4684SOL     OW25687   0.043   1.628   2.686 -0.1513 -0.2245  0.0845
 4684SOL    HW125688   0.136   1.639   2.667 -0.4497 -0.6780 -1.7034
 4684SOL    HW225689   0.007   1.671   2.608  0.5512 -0.0861 -0.1589
 4685SOL     OW25690   3.165   0.237   5.515 -0.0338  0.0718  0.3801
 4685SOL    HW125691   3.235   0.301   5.506 -1.5059  2.1443  3.6865
 4685SOL    HW225692   3.132   0.238   5.425 -0.8259  2.1479  0.6701
 4686SOL     OW25693   1.462   2.145   6.489  0.3284  0.3826 -0.1577
 4686SOL    HW125694   1.389   2.207   6.485 -0.4089 -0.4232  0.6878
 4686SOL    HW225695   1.509   2.160   6.407  0.8637  0.9685  0.2498
 4687SOL     OW25696   3.882   0.717   0.803 -0.5868  0.4051  0.7953
 4687SOL    HW125697   3.892   0.751   0.892  0.8491 -0.8485  1.1212
 4687SOL    HW225698   3.837   0.785   0.754 -1.7955 -0.6062  0.5077
 4688SOL     OW25699   2.624   1.814  15.988 -0.0931 -0.3371 -0.2913
 4688SOL    HW125700   2.563   1.885  16.007 -0.0812 -0.1330 -1.0121
 4688SOL    HW225701   2.634   1.768  16.072 -0.4090 -1.5211 -0.8993
 4689SOL     OW25702   3.149   1.064  12.090 -0.0380 -0.4294 -0.1087
 4689SOL    HW125703   3.126   0.972  12.082 -0.2230 -0.3355 -0.7139
 4689SOL    HW225704   3.174   1.085  12.000 -0.2540  0.5670  0.0609
 4690SOL     OW25705   1.688   2.066  13.050 -0.4051 -0.0026  0.3772
 4690SOL    HW125706   1.727   2.055  13.137  0.3148  1.6881  0.2592
 4690SOL    HW225707   1.643   1.982  13.036 -1.9123  1.0469 -0.9875
 4691SOL     OW25708   1.638   3.205  13.591  0.2008  0.4208  0.4619
 4691SOL    HW125709   1.601   3.203  13.679 -0.2423 -0.0924  0.2612
 4691SOL    HW225710   1.588   3.274  13.548 -0.7696 -0.0083  0.8999
 4692SOL     OW25711   0.199   2.133  12.554  0.1952 -0.3230 -0.2886
 4692SOL    HW125712   0.138   2.153  12.625 -2.0615  0.6618 -2.5145
 4692SOL    HW225713   0.258   2.069  12.593 -1.4041 -0.9891  1.0019
 4693SOL     OW25714   2.574   1.415   1.938  0.0921  0.3143  0.1621
 4693SOL    HW125715   2.653   1.406   1.992  0.1681  0.6775  0.1108
 4693SOL    HW225716   2.509   1.395   2.006  2.1421 -2.1883  1.3609
 4694SOL     OW25717   1.674   1.612  11.247 -0.5970  0.1349 -0.1458
 4694SOL    HW125718   1.631   1.659  11.319 -0.3413 -0.2034  0.2237
 4694SOL    HW225719   1.609   1.611  11.177  0.7125  1.3116 -1.3949
 4695SOL     OW25720   1.990   0.151   3.959  0.4230 -0.0989  0.3684
 4695SOL    HW125721   2.023   0.061   3.954 -0.4421 -0.2184 -2.9586
 4695SOL    HW225722   1.949   0.167   3.874  2.0932  0.7227 -0.2931
 4696SOL     OW25723   0.993   0.498   4.918  0.5315  0.0840 -0.5937
 4696SOL    HW125724   1.029   0.451   4.842 -0.0198 -0.3841 -0.5652
 4696SOL    HW225725   0.961   0.421   4.965  0.4472  1.1123  1.0335
 4697SOL     OW25726   3.424   0.716   9.007  0.3445  0.3766 -0.2212
 4697SOL    HW125727   3.430   0.701   8.913  0.5692  0.5409 -0.2317
 4697SOL    HW225728   3.333   0.691   9.024  0.3644  0.4029 -0.0693
 4698SOL     OW25729   4.265   3.382   9.445 -0.1790  0.6103  0.1499
 4698SOL    HW125730   4.230   3.465   9.413  1.2457  0.7383 -1.0622
 4698SOL    HW225731   4.271   3.395   9.540  0.6551 -0.0809  0.1987
 4699SOL     OW25732   3.714   1.405   5.470 -0.4126 -0.0699 -0.0516
 4699SOL    HW125733   3.696   1.493   5.501  1.1682  0.6369 -1.1575
 4699SOL    HW225734   3.803   1.405   5.434  0.1463 -4.4906  1.2396
 4700SOL     OW25735   3.783   0.055   3.175 -0.2638 -0.3256  0.0201
 4700SOL    HW125736   3.846   4.724   3.208  1.3652  1.3297  0.1124
 4700SOL    HW225737   3.839   0.129   3.198 -1.0449  0.0750  0.6103
 4701SOL     OW25738   3.319   0.622   2.795  0.0261 -0.5306  0.2557
 4701SOL    HW125739   3.388   0.616   2.729  2.1073 -0.0674  2.3809
 4701SOL    HW225740   3.240   0.597   2.748  0.1221  1.1777 -0.8389
 4702SOL     OW25741   1.747   4.096   7.599 -0.3091  0.1562 -0.4640
 4702SOL    HW125742   1.715   4.185   7.584  1.3989  0.6904 -0.9123
 4702SOL    HW225743   1.841   4.111   7.609 -0.4487  1.2660 -0.8198
 4703SOL     OW25744   1.005   1.667  11.824  0.5424 -0.6946  0.0939
 4703SOL    HW125745   0.972   1.751  11.792  0.6768 -0.8342 -0.4203
 4703SOL    HW225746   0.936   1.645  11.887 -2.3053  0.1415 -2.7255
 4704SOL     OW25747   3.269   3.161  13.366  0.0321  0.0617  0.4871
 4704SOL    HW125748   3.319   3.212  13.429 -0.7550 -0.6073  1.6513
 4704SOL    HW225749   3.336   3.125  13.307 -1.2675 -0.1291 -0.8958
 4705SOL     OW25750   1.435   4.681  13.970  0.0698  0.6914  0.9037
 4705SOL    HW125751   1.377   4.700  14.043  0.5511 -0.6267  1.6330
 4705SOL    HW225752   1.400   4.594  13.948  1.0630  0.0114  1.9903
 4706SOL     OW25753   0.370   2.923  12.809 -0.2482  0.3016 -0.2549
 4706SOL    HW125754   0.340   3.014  12.806  0.5891  0.6460  1.6993
 4706SOL    HW225755   0.442   2.928  12.872  0.2570 -2.1701 -0.6563
 4707SOL     OW25756   0.631   4.192   9.269  0.0724 -0.0407  0.5370
 4707SOL    HW125757   0.602   4.104   9.248  1.0603 -0.3102  0.3015
 4707SOL    HW225758   0.693   4.210   9.199  1.3469 -2.0924  1.1399
 4708SOL     OW25759   0.710   2.085   4.028 -0.3039 -0.0735  0.2119
 4708SOL    HW125760   0.747   2.048   3.948 -0.5433  1.0651 -0.4231
 4708SOL    HW225761   0.789   2.095   4.081  0.1654 -0.4036 -0.4228
 4709SOL     OW25762   3.301   2.158  16.148 -0.0704 -0.4090  0.0857
 4709SOL    HW125763   3.232   2.169  16.083 -1.4987 -1.9900  1.3671
 4709SOL    HW225764   3.382   2.177  16.100  1.3164 -0.9209  2.2146
 4710SOL     OW25765   1.694   3.296   2.074  0.4074  0.3599  0.0949
 4710SOL    HW125766   1.696   3.383   2.113  0.9283  0.5832 -0.4308
 4710SOL    HW225767   1.618   3.309   2.017  1.9506  1.9848 -1.5901
 4711SOL     OW25768   3.781   1.651  14.705 -0.2231  0.2535  0.4128
 4711SOL    HW125769   3.846   1.623  14.769 -0.9591 -1.0846  0.5820
 4711SOL    HW225770   3.765   1.743  14.727  1.0956  1.2329 -2.7817
 4712SOL     OW25771   3.599   1.808   5.334  0.3514 -0.3341  0.1434
 4712SOL    HW125772   3.668   1.825   5.270  0.3576 -1.8465 -0.2645
 4712SOL    HW225773   3.577   1.900   5.347 -0.0582 -0.3011 -0.7716
 4713SOL     OW25774   1.826   0.686   9.295  0.3835  0.4207 -0.5261
 4713SOL    HW125775   1.751   0.739   9.268  0.7604  0.6292 -1.1502
 4713SOL    HW225776   1.811   0.656   9.385  0.4254  1.1918 -0.2636
 4714SOL     OW25777   1.939   3.190   7.171  0.2328  0.4307  0.1273
 4714SOL    HW125778   1.873   3.244   7.128 -0.5102 -0.2314  0.4186
 4714SOL    HW225779   1.947   3.124   7.101 -1.6607  0.6293 -0.2753
 4715SOL     OW25780   3.811   1.266   2.468 -0.3792  0.2158  0.3599
 4715SOL    HW125781   3.894   1.231   2.437 -1.3668 -1.5430 -0.2903
 4715SOL    HW225782   3.755   1.190   2.456  1.5171 -1.2378  0.7210
 4716SOL     OW25783   3.892   2.815  10.350  0.0497  0.0814 -0.3432
 4716SOL    HW125784   3.970   2.794  10.401 -0.4342  1.4101  0.9275
 4716SOL    HW225785   3.859   2.892  10.397  1.2228  0.0360  0.5429
 4717SOL     OW25786   3.356   2.440   2.959 -0.1311  0.0701  0.0822
 4717SOL    HW125787   3.379   2.386   3.034 -1.2653 -0.5108  0.0073
 4717SOL    HW225788   3.439   2.474   2.927 -0.6697 -0.0899 -1.4972
 4718SOL     OW25789   3.458   3.606   8.434 -0.1006 -0.5961 -0.2193
 4718SOL    HW125790   3.439   3.587   8.342 -0.9394  1.3188 -0.4424
 4718SOL    HW225791   3.542   3.652   8.430 -2.5439  4.0220  1.3862
 4719SOL     OW25792   1.237   4.704   3.846 -0.0985 -0.5537  0.2504
 4719SOL    HW125793   1.145   4.676   3.846  0.4580 -2.3855 -1.6143
 4719SOL    HW225794   1.284   4.627   3.877  1.0892  0.3537  0.7135
 4720SOL     OW25795   1.820   1.300  13.866 -0.4342 -0.1246  0.0359
 4720SOL    HW125796   1.913   1.322  13.857 -0.1338 -0.7446  1.8348
 4720SOL    HW225797   1.793   1.294  13.774  2.0923  0.1913 -0.7298
 4721SOL     OW25798   3.153   3.623  12.352 -0.6290 -0.2670  0.6969
 4721SOL    HW125799   3.086   3.574  12.304  1.3752 -0.2803 -2.1330
 4721SOL    HW225800   3.104   3.705  12.363 -0.9352 -0.4757  0.8712
 4722SOL     OW25801   0.389   0.966   1.928  0.4071  0.2137 -0.1349
 4722SOL    HW125802   0.422   0.960   1.839 -0.1918  1.2278 -0.4221
 4722SOL    HW225803   0.442   0.900   1.973 -0.1124 -0.7134 -0.8611
 4723SOL     OW25804   2.822   0.542   1.479 -0.2967 -0.0485 -0.3284
 4723SOL    HW125805   2.793   0.531   1.570 -0.9226 -0.2529 -0.5551
 4723SOL    HW225806   2.899   0.595   1.501  1.5948 -2.0144 -2.2605
 4724SOL     OW25807   3.696   4.728  16.156  0.2598  0.1089 -0.1850
 4724SOL    HW125808   3.632   0.066  16.160 -0.9443 -1.0748  1.6829
 4724SOL    HW225809   3.713   0.010  16.064 -0.1573  1.1310 -0.0939
 4725SOL     OW25810   4.066   1.359   3.400  0.3860  0.4891 -0.1457
 4725SOL    HW125811   4.155   1.373   3.434 -0.4384  2.9490  1.0119
 4725SOL    HW225812   4.036   1.288   3.457  1.1213 -1.4447 -2.1675
 4726SOL     OW25813   1.551   2.974   7.918 -0.6858  0.5912  0.2780
 4726SOL    HW125814   1.613   3.046   7.910 -1.8749  1.8140  2.1189
 4726SOL    HW225815   1.477   3.034   7.929 -0.6124  0.9587 -1.2225
 4727SOL     OW25816   2.915   0.294  12.713  0.3725 -0.4898 -0.1365
 4727SOL    HW125817   2.964   0.215  12.735  0.4642  0.0813  1.7523
 4727SOL    HW225818   2.994   0.348  12.716  0.1960 -0.3143  1.4825
 4728SOL     OW25819   4.275   2.872   5.122 -0.1640  0.3148 -0.5465
 4728SOL    HW125820   4.263   2.777   5.131  0.2018  0.1930 -1.2913
 4728SOL    HW225821   4.266   2.887   5.028 -0.5789  1.4690 -0.3191
 4729SOL     OW25822   4.355   0.442   3.428  0.5756  0.1945 -0.3704
 4729SOL    HW125823   4.307   0.424   3.509 -0.9798 -0.7408 -1.4776
 4729SOL    HW225824   4.356   0.537   3.414 -3.4662  0.1868 -0.7097
 4730SOL     OW25825   2.844   3.146   1.862 -0.1455 -0.0179 -0.0840
 4730SOL    HW125826   2.778   3.136   1.794  0.6567  1.1633 -1.0221
 4730SOL    HW225827   2.899   3.072   1.838  1.0576  0.4513  1.2019
 4731SOL     OW25828   3.468   2.238   7.668 -0.2451 -0.0643 -0.0743
 4731SOL    HW125829   3.379   2.274   7.668  0.3937  1.5076  0.2816
 4731SOL    HW225830   3.456   2.152   7.627  1.1825 -0.0707 -0.4756
 4732SOL     OW25831   2.149   1.589   5.233  0.1317 -0.1221  0.1037
 4732SOL    HW125832   2.199   1.589   5.152  1.6287  2.5544  1.0386
 4732SOL    HW225833   2.057   1.575   5.210 -0.6938  0.0320  3.3298
 4733SOL     OW25834   2.264   1.821   6.997 -0.1411 -0.0999  0.0121
 4733SOL    HW125835   2.177   1.784   6.986 -0.4920 -0.5448  4.2780
 4733SOL    HW225836   2.243   1.911   6.973  1.2433  0.8561  2.3529
 4734SOL     OW25837   2.440   3.371   1.225  0.0388  0.2586 -0.1657
 4734SOL    HW125838   2.424   3.339   1.136 -1.4445 -0.9834  0.5325
 4734SOL    HW225839   2.403   3.298   1.275  0.7232  0.9791  1.3903
 4735SOL     OW25840   1.325   1.014  11.167 -0.1121  0.6885 -0.4773
 4735SOL    HW125841   1.382   1.090  11.169  1.2449 -0.3769  1.8944
 4735SOL    HW225842   1.340   0.979  11.255 -1.8082  1.5260  0.1584
 4736SOL     OW25843   4.603   4.307   6.494  0.2785 -0.5446 -0.3433
 4736SOL    HW125844   4.564   4.393   6.512  1.0294 -0.7408  2.1840
 4736SOL    HW225845   4.674   4.333   6.436  1.0633  1.7159  1.6451
 4737SOL     OW25846   2.364   1.318  12.889  0.0420  0.2057 -0.2822
 4737SOL    HW125847   2.398   1.261  12.820  0.1360 -0.4562  0.3113
 4737SOL    HW225848   2.299   1.271  12.941 -2.1716  1.6796 -1.6795
 4738SOL     OW25849   4.478   1.865   3.644 -0.3267 -0.2185 -0.2480
 4738SOL    HW125850   4.438   1.824   3.720 -0.6011 -1.8938 -1.3123
 4738SOL    HW225851   4.406   1.870   3.581 -0.3819 -0.0093 -0.1666
 4739SOL     OW25852   3.892   4.610   4.517 -0.0969 -0.3245  0.4405
 4739SOL    HW125853   3.849   4.527   4.497  1.3360 -1.0122  0.1566
 4739SOL    HW225854   3.860   4.672   4.451  1.3719 -0.0839 -0.0550
 4740SOL     OW25855   1.684   1.190   4.526  0.2835  0.2039 -0.5756
 4740SOL    HW125856   1.722   1.153   4.447  1.5141  1.0972 -0.4034
 4740SOL    HW225857   1.766   1.192   4.576  0.2800 -0.5885 -0.5376
 4741SOL     OW25858   3.027   4.078   0.686  0.0363 -0.0318 -0.5463
 4741SOL    HW125859   3.011   4.166   0.719  1.9465  1.2293 -2.9085
 4741SOL    HW225860   2.947   4.053   0.641 -0.4037  1.3893 -0.5389
 4742SOL     OW25861   3.147   0.821  11.967 -0.1563 -0.8466  0.7946
 4742SOL    HW125862   3.211   0.798  12.035  1.9697 -0.0765 -0.9325
 4742SOL    HW225863   3.098   0.740  11.959 -1.5907  0.2271 -1.1099
 4743SOL     OW25864   0.103   3.603   6.794  0.4855  0.6472 -0.1781
 4743SOL    HW125865   0.070   3.517   6.820  0.7571  0.8508  0.8535
 4743SOL    HW225866   0.107   3.648   6.879 -1.8023 -0.4645  0.5141
 4744SOL     OW25867   2.703   3.095   1.638  0.3554 -0.4210 -0.0129
 4744SOL    HW125868   2.630   3.156   1.631  0.9860  0.1327 -1.7125
 4744SOL    HW225869   2.666   3.010   1.613  1.4154 -1.9791  3.6148
 4745SOL     OW25870   3.582   4.421   2.434  0.3294  0.1769 -0.4434
 4745SOL    HW125871   3.641   4.417   2.359  3.3632  4.0888  1.7207
 4745SOL    HW225872   3.558   4.513   2.426  1.3159  0.4169 -0.5975
 4746SOL     OW25873   0.085   1.697  11.408  0.2724 -0.5817  0.2733
 4746SOL    HW125874   0.124   1.616  11.440  0.0190 -0.7536  0.1489
 4746SOL    HW225875   0.151   1.766  11.408 -0.4710  0.1220 -1.7996
 4747SOL     OW25876   2.834   1.356   8.574  0.2021  0.1365 -0.2282
 4747SOL    HW125877   2.814   1.443   8.611 -2.1586 -0.4154 -0.1856
 4747SOL    HW225878   2.751   1.336   8.531  0.4003  1.5519 -1.2891
 4748SOL     OW25879   2.239   1.472   7.085 -0.2402  0.3909  0.0840
 4748SOL    HW125880   2.172   1.533   7.055  0.0390  0.2285 -0.8604
 4748SOL    HW225881   2.220   1.388   7.042  0.3070 -0.3692  1.3276
 4749SOL     OW25882   0.158   3.845   1.994 -0.0941  0.2716 -0.5456
 4749SOL    HW125883   0.220   3.782   1.959 -1.5068 -2.9051  2.6039
 4749SOL    HW225884   0.155   3.810   2.084  0.6925 -1.2910 -1.1282
 4750SOL     OW25885   2.590   3.543   9.533 -0.2023 -0.4860  0.0233
 4750SOL    HW125886   2.631   3.599   9.466  0.2263 -0.3877  0.3726
 4750SOL    HW225887   2.662   3.537   9.595  0.4708  1.6439 -0.5362
 4751SOL     OW25888   1.519   3.694   7.924  0.4281  0.2408  0.2096
 4751SOL    HW125889   1.451   3.630   7.946 -0.4239  1.4958  1.2218
 4751SOL    HW225890   1.537   3.716   8.016 -0.4062  0.5662  0.2948
 4752SOL     OW25891   2.395   0.595   4.668  0.0708  0.5064  0.0251
 4752SOL    HW125892   2.483   0.590   4.631  0.2054  0.1175  0.4081
 4752SOL    HW225893   2.349   0.587   4.584  0.0899 -0.6737  0.1264
 4753SOL     OW25894   4.531   1.734   5.830 -0.0796 -0.1311  0.9292
 4753SOL    HW125895   4.530   1.674   5.755  2.5968  1.2867 -0.2405
 4753SOL    HW225896   4.461   1.696   5.884 -0.7627 -2.0931 -1.3011
 4754SOL     OW25897   1.615   1.273   4.028 -0.5365  0.3559  0.0609
 4754SOL    HW125898   1.660   1.239   3.951 -1.3798  1.1771 -0.8138
 4754SOL    HW225899   1.542   1.316   3.983  0.1238 -0.2321 -1.5632
 4755SOL     OW25900   1.707   3.472   4.425  0.2068  0.6636  0.3636
 4755SOL    HW125901   1.754   3.552   4.447  1.7776 -0.3883  0.8403
 4755SOL    HW225902   1.761   3.414   4.478  0.1187  0.8153  0.6206
 4756SOL     OW25903   1.888   2.485   2.641 -0.0044 -0.1798  0.4783
 4756SOL    HW125904   1.838   2.515   2.565 -1.0047 -0.4872  1.0185
 4756SOL    HW225905   1.820   2.457   2.701 -0.2759 -1.9233 -0.6175
 4757SOL     OW25906   1.258   1.189   7.230 -0.5037  0.0599 -0.3657
 4757SOL    HW125907   1.323   1.259   7.224 -1.0176  0.5122 -0.6114
 4757SOL    HW225908   1.271   1.168   7.323 -0.6831  1.8860  0.0722
 4758SOL     OW25909   2.535   1.513   4.348  0.0702  0.1844 -0.0635
 4758SOL    HW125910   2.614   1.541   4.302  1.0365 -2.3345  0.0888
 4758SOL    HW225911   2.551   1.430   4.393  0.4199  0.3507  0.1135
 4759SOL     OW25912   4.662   3.574   5.747  0.4211 -0.5139  0.2522
 4759SOL    HW125913   4.631   3.643   5.688 -0.7596 -2.5516 -1.4974
 4759SOL    HW225914   4.607   3.499   5.726 -1.2211  0.9586 -0.7156
 4760SOL     OW25915   1.810   3.673   4.836  0.3217 -1.1209  0.4924
 4760SOL    HW125916   1.748   3.609   4.872 -0.4681 -0.0301  1.0757
 4760SOL    HW225917   1.770   3.755   4.867 -0.3137 -1.7399  1.3184
 4761SOL     OW25918   3.689   2.702   5.349  0.1355 -0.1022  0.3750
 4761SOL    HW125919   3.748   2.777   5.348  0.7257 -0.5734 -0.7236
 4761SOL    HW225920   3.608   2.750   5.365  1.2027  2.2672 -1.4230
 4762SOL     OW25921   3.996   0.211   3.226 -0.3615 -0.1575  0.4150
 4762SOL    HW125922   4.091   0.223   3.229 -0.2897 -0.4597 -0.7643
 4762SOL    HW225923   3.953   0.264   3.294  0.4242  0.2402  0.5988
 4763SOL     OW25924   3.022   0.690   1.633  0.1188  0.3485  0.7379
 4763SOL    HW125925   3.027   0.772   1.586 -0.1041 -0.1287 -0.1208
 4763SOL    HW225926   3.114   0.681   1.657  0.4876 -2.4938 -1.8173
 4764SOL     OW25927   1.640   0.197   7.182  0.3002 -0.1571 -0.0111
 4764SOL    HW125928   1.616   0.150   7.262 -1.6956  2.0269  0.6618
 4764SOL    HW225929   1.613   0.138   7.111 -1.4736 -1.7232  1.9765
 4765SOL     OW25930   4.353   0.198   4.819 -0.4414 -0.0251  0.3051
 4765SOL    HW125931   4.411   0.155   4.756  0.0486 -0.6258  1.1592
 4765SOL    HW225932   4.406   0.251   4.879  1.1101  1.8696 -2.7875
 4766SOL     OW25933   4.076   4.263   8.885  0.2917  0.1353  0.3827
 4766SOL    HW125934   4.080   4.236   8.977 -2.2021 -0.9452  0.1810
 4766SOL    HW225935   4.006   4.327   8.890  0.1076  0.2235 -3.2619
 4767SOL     OW25936   0.068   2.422   6.501 -1.1091  0.5088 -0.2842
 4767SOL    HW125937   0.141   2.362   6.486 -0.3218  1.7270 -1.3262
 4767SOL    HW225938   0.004   2.391   6.436  0.0154  0.4440 -1.3486
 4768SOL     OW25939   0.379   1.711  11.883 -0.7403  0.5904  0.1729
 4768SOL    HW125940   0.320   1.733  11.955  3.0135  1.3548  3.0621
 4768SOL    HW225941   0.462   1.753  11.907 -0.7097  1.1195 -0.8434
 4769SOL     OW25942   2.019   2.467   8.765  0.3532 -0.3410 -0.1492
 4769SOL    HW125943   1.993   2.534   8.701  0.6904  0.4180  0.4974
 4769SOL    HW225944   2.096   2.422   8.730  1.2407 -1.5394  3.4144
 4770SOL     OW25945   0.946   3.416   4.634  0.1380 -0.6799  0.3615
 4770SOL    HW125946   0.947   3.344   4.697  1.4764  0.0895  1.2230
 4770SOL    HW225947   0.997   3.489   4.668  0.2833 -0.6533  0.0852
 4771SOL     OW25948   0.759   0.616   6.392  0.4092  0.4153  0.5417
 4771SOL    HW125949   0.676   0.569   6.384 -0.4367  2.0924 -0.7392
 4771SOL    HW225950   0.742   0.695   6.339  0.0166 -0.4433 -0.6109
 4772SOL     OW25951   3.311   3.991   7.497  0.5200  0.1925  0.1362
 4772SOL    HW125952   3.223   4.005   7.532  0.5553 -1.7639  0.9865
 4772SOL    HW225953   3.307   4.030   7.410 -1.3047 -0.3788 -0.0244
 4773SOL     OW25954   3.943   4.555  13.434  0.3922 -0.0690 -0.3037
 4773SOL    HW125955   3.900   4.494  13.374 -1.3266  0.3116  0.5502
 4773SOL    HW225956   3.872   4.618  13.447 -0.1062 -0.8801  0.8739
 4774SOL     OW25957   1.101   1.698   3.850  0.0675  0.7777 -0.5395
 4774SOL    HW125958   1.110   1.604   3.865  0.5208  0.9605  0.3406
 4774SOL    HW225959   1.112   1.738   3.936 -1.0421  0.0691 -0.0811
 4775SOL     OW25960   0.517   4.016   4.842 -0.1278  0.0984 -0.9003
 4775SOL    HW125961   0.577   4.079   4.881 -2.5041  0.2295  2.5306
 4775SOL    HW225962   0.576   3.957   4.794  1.1707  0.5969  0.1157
 4776SOL     OW25963   3.947   2.540  10.731 -0.1039 -0.3933 -0.0594
 4776SOL    HW125964   3.953   2.446  10.720  2.7914 -0.2521  0.2836
 4776SOL    HW225965   4.037   2.555  10.762 -0.0347  2.0659 -1.4027
 4777SOL     OW25966   0.288   0.574   8.161 -0.0149 -0.1689 -0.0679
 4777SOL    HW125967   0.202   0.605   8.189  0.1900  0.9712 -0.7157
 4777SOL    HW225968   0.343   0.624   8.221 -1.0754  1.4476 -0.4557
 4778SOL     OW25969   4.629   2.117  16.836 -0.0835 -0.0678 -0.1612
 4778SOL    HW125970   4.640   2.082  16.748  0.0322 -0.4568  0.0052
 4778SOL    HW225971   4.571   2.050  16.873 -0.3047 -0.6777 -1.6273
 4779SOL     OW25972   2.063   3.785   7.745  0.6415  0.0252 -0.4237
 4779SOL    HW125973   2.076   3.877   7.768 -0.4206  0.2248 -0.5989
 4779SOL    HW225974   1.973   3.772   7.774  0.1222  0.5027 -1.7895
 4780SOL     OW25975   0.529   1.993   3.761 -0.1078  0.3750  0.4374
 4780SOL    HW125976   0.449   1.964   3.718 -1.6502  3.5284  1.2433
 4780SOL    HW225977   0.533   1.935   3.837 -1.7599  0.4345  0.5561
 4781SOL     OW25978   2.187   4.003   3.839 -0.1306  0.4826  0.2714
 4781SOL    HW125979   2.161   3.929   3.784 -0.0579  0.5841  0.0976
 4781SOL    HW225980   2.267   3.969   3.879 -0.0555  1.2588  0.7652
 4782SOL     OW25981   3.106   1.580  16.271 -0.3158  0.2020  0.6254
 4782SOL    HW125982   3.110   1.649  16.338 -1.8036  0.2756  0.6347
 4782SOL    HW225983   3.069   1.505  16.318 -0.7172  0.0307  0.0309
 4783SOL     OW25984   1.776   4.134   3.030 -0.0811  0.1113  0.0328
 4783SOL    HW125985   1.788   4.148   2.936  0.2013  2.0341  0.3550
 4783SOL    HW225986   1.695   4.084   3.029  0.4829 -0.8210  0.8381
 4784SOL     OW25987   4.232   3.907   2.521  0.0025 -0.1829  0.3638
 4784SOL    HW125988   4.283   3.981   2.554  2.5125 -0.4761 -2.8815
 4784SOL    HW225989   4.277   3.884   2.440 -1.1713 -1.5974  0.1231
 4785SOL     OW25990   2.516   0.663   2.665  0.0428  0.3772 -0.1127
 4785SOL    HW125991   2.500   0.630   2.753  1.5439 -1.9041 -0.6937
 4785SOL    HW225992   2.432   0.707   2.650 -0.1653  1.0804  3.1148
 4786SOL     OW25993   3.541   0.763   5.377  0.0186  0.4895 -0.1178
 4786SOL    HW125994   3.606   0.710   5.422 -1.5330 -1.8770 -0.6539
 4786SOL    HW225995   3.537   0.830   5.446 -3.2431  0.2895 -0.0916
 4787SOL     OW25996   4.393   1.592  15.660 -0.8679 -0.2037  0.1409
 4787SOL    HW125997   4.375   1.498  15.647  2.2880 -0.7686 -0.2214
 4787SOL    HW225998   4.302   1.621  15.658 -0.8166 -0.0105  0.7555
 4788SOL     OW25999   0.674   4.191   5.307 -0.1887 -0.2319  0.9897
 4788SOL    HW126000   0.668   4.179   5.402 -0.2360  0.5696  1.0851
 4788SOL    HW226001   0.723   4.273   5.307  2.3391 -1.7316 -0.2238
 4789SOL     OW26002   1.779   1.101   8.913  0.2086 -0.7040 -0.5037
 4789SOL    HW126003   1.861   1.135   8.949 -1.7521  0.9264  2.4246
 4789SOL    HW226004   1.776   1.022   8.967  1.7922 -0.2715  0.2132
 4790SOL     OW26005   2.365   2.835   1.166 -0.1655 -0.5632 -0.3266
 4790SOL    HW126006   2.446   2.876   1.196 -0.8853  0.9160 -0.3978
 4790SOL    HW226007   2.362   2.764   1.230 -1.8358 -1.6931 -1.6761
 4791SOL     OW26008   1.529   1.033   2.378 -0.2946 -0.2377  0.0903
 4791SOL    HW126009   1.606   1.064   2.331 -2.2227  1.5323 -1.8285
 4791SOL    HW226010   1.460   1.093   2.351 -1.0445 -0.6579  1.0385
 4792SOL     OW26011   4.659   0.921   3.767 -0.7015 -0.4831  0.0449
 4792SOL    HW126012   4.588   0.972   3.806 -0.4986  0.1585 -0.4279
 4792SOL    HW226013   4.717   0.907   3.842 -1.6993 -0.2814  0.8637
 4793SOL     OW26014   1.548   2.595   4.047  0.2951  0.3802 -0.0737
 4793SOL    HW126015   1.526   2.542   3.970  1.3073 -0.8558  0.4967
 4793SOL    HW226016   1.568   2.680   4.010  1.4206  0.2586  0.2609
 4794SOL     OW26017   2.721   1.723   5.137  0.0386 -0.7212  0.2421
 4794SOL    HW126018   2.722   1.733   5.041  1.0327 -3.3244 -0.0233
 4794SOL    HW226019   2.807   1.686   5.156  1.1865  1.3568 -0.9490
 4795SOL     OW26020   2.931   0.852   4.321 -0.1443 -0.0171 -0.3050
 4795SOL    HW126021   2.962   0.831   4.233  1.2392 -0.5996  0.3134
 4795SOL    HW226022   2.853   0.800   4.304 -0.8476  0.0621  2.8217
 4796SOL     OW26023   4.533   3.104   4.182 -0.6545 -0.4545  0.7919
 4796SOL    HW126024   4.628   3.101   4.196 -0.4815  1.7774  0.1584
 4796SOL    HW226025   4.525   3.039   4.112  0.7562 -1.8575  1.9370
 4797SOL     OW26026   2.328   3.997   8.453 -0.0991  0.1706  0.3818
 4797SOL    HW126027   2.399   3.941   8.487  0.5696  0.9868  0.3387
 4797SOL    HW226028   2.277   3.932   8.405 -1.2029  1.3768 -0.0603
 4798SOL     OW26029   0.104   3.531   1.753 -0.1411 -0.1465  0.0789
 4798SOL    HW126030   0.186   3.499   1.714 -1.4985 -1.4575 -1.7233
 4798SOL    HW226031   0.097   3.619   1.717 -2.5739 -1.3753 -2.4657
 4799SOL     OW26032   0.267   1.514   6.243 -0.1226  0.7883  0.9932
 4799SOL    HW126033   0.210   1.439   6.260  1.1994 -0.3780  0.2952
 4799SOL    HW226034   0.287   1.505   6.150  0.1781 -1.9757  1.3401
 4800SOL     OW26035   0.161   3.974  14.868 -0.0860  0.4149 -0.1591
 4800SOL    HW126036   0.198   3.972  14.779  1.4347 -2.0943  0.5492
 4800SOL    HW226037   0.123   4.062  14.864 -1.5803 -0.2502 -0.7842
 4801SOL     OW26038   0.513   1.269   2.495  0.1802 -0.3276 -0.2798
 4801SOL    HW126039   0.537   1.309   2.578 -2.4991 -2.3066  1.4341
 4801SOL    HW226040   0.460   1.334   2.450  1.6356  0.5148 -0.7744
 4802SOL     OW26041   3.655   3.595   1.157  0.2713  0.6077  0.4112
 4802SOL    HW126042   3.711   3.652   1.210 -0.4629  1.9792 -0.2982
 4802SOL    HW226043   3.600   3.549   1.220 -2.0297  1.3643 -1.0527
 4803SOL     OW26044   4.532   4.583   7.984  0.0431 -0.7827  0.3916
 4803SOL    HW126045   4.536   4.653   7.919  0.2593 -1.1415  0.0227
 4803SOL    HW226046   4.534   4.628   8.069  0.3551 -0.4201  0.1873
 4804SOL     OW26047   4.231   1.766   1.962 -0.3448  0.4993  0.3234
 4804SOL    HW126048   4.258   1.776   1.871 -0.3225 -1.1476  0.1509
 4804SOL    HW226049   4.231   1.860   1.983 -1.1730  0.6833 -0.4955
 4805SOL     OW26050   1.614   2.456   0.675 -0.4089  0.2435  0.0053
 4805SOL    HW126051   1.642   2.432   0.764 -0.0591  0.0036 -0.1717
 4805SOL    HW226052   1.671   2.396   0.628 -1.7509 -1.9385  1.1244
 4806SOL     OW26053   2.261   1.326   9.395  0.7160  0.7672 -0.1777
 4806SOL    HW126054   2.237   1.296   9.308  0.4726 -0.4318  0.3072
 4806SOL    HW226055   2.330   1.265   9.423 -1.6138 -1.1644  1.3194
 4807SOL     OW26056   1.422   3.084  14.344 -0.2576 -0.0676 -0.1284
 4807SOL    HW126057   1.339   3.117  14.380  0.6178  0.4524  1.3899
 4807SOL    HW226058   1.394   2.996  14.319 -0.7140  0.4532 -1.4256
 4808SOL     OW26059   1.089   2.614   9.262  0.0423  0.6267 -0.4676
 4808SOL    HW126060   1.142   2.614   9.342  0.3474  0.2743 -0.6711
 4808SOL    HW226061   1.108   2.530   9.220  1.8178  1.4671 -1.3678
 4809SOL     OW26062   3.090   2.029   3.607 -0.0782  1.1699  0.5648
 4809SOL    HW126063   3.066   2.090   3.537  1.2782  0.5981 -0.4166
 4809SOL    HW226064   3.162   1.983   3.563 -0.4783  0.0170  1.1180
 4810SOL     OW26065   3.814   1.889   3.926 -0.4966  0.0803  0.1487
 4810SOL    HW126066   3.868   1.966   3.909  1.1989 -0.5282  2.8045
 4810SOL    HW226067   3.842   1.831   3.855  2.6507 -0.6024  1.9347
 4811SOL     OW26068   3.359   0.593   5.247 -0.3257 -0.1951 -0.3019
 4811SOL    HW126069   3.435   0.647   5.270 -1.0126 -0.3709  2.4525
 4811SOL    HW226070   3.351   0.556   5.335 -1.1937  0.1416 -0.2388
 4812SOL     OW26071   3.594   3.037   4.887  0.1880  0.3713  0.2935
 4812SOL    HW126072   3.599   2.949   4.850  1.0804  0.5093  0.0816
 4812SOL    HW226073   3.620   3.017   4.977 -0.2294 -1.0688  0.0969
 4813SOL     OW26074   0.483   2.895  10.259  0.2404 -0.1231  0.1903
 4813SOL    HW126075   0.448   2.858  10.340  1.0555 -0.6063  0.3213
 4813SOL    HW226076   0.533   2.972  10.286  1.8134 -0.9885 -0.2423
 4814SOL     OW26077   1.111   1.356   7.952  0.4581 -0.2016  0.1762
 4814SOL    HW126078   1.025   1.314   7.949  0.6768 -0.5211 -1.7101
 4814SOL    HW226079   1.143   1.336   7.864  1.1038  1.7389 -0.0466
 4815SOL     OW26080   3.947   1.633   4.653 -0.6930  0.0957  0.0601
 4815SOL    HW126081   4.003   1.612   4.728 -2.4878 -0.0149  1.3522
 4815SOL    HW226082   3.868   1.584   4.675 -1.0542  0.3865 -0.5815
 4816SOL     OW26083   4.333   2.405  16.220  0.0621  0.0317  0.4729
 4816SOL    HW126084   4.345   2.469  16.149  4.1844 -1.8299 -0.4890
 4816SOL    HW226085   4.422   2.400  16.256  0.5422 -0.8782 -0.8453
 4817SOL     OW26086   2.183   0.912   7.504 -0.3502  0.1750 -0.1568
 4817SOL    HW126087   2.277   0.924   7.492 -0.6019  1.2246 -1.0751
 4817SOL    HW226088   2.169   0.973   7.577  0.5418  1.0020 -0.6714
 4818SOL     OW26089   4.426   1.140  15.366  0.1667 -0.0660  0.2364
 4818SOL    HW126090   4.377   1.179  15.294 -3.6741  0.1860  3.0163
 4818SOL    HW226091   4.359   1.104  15.423 -0.4315  0.8115  0.0785
 4819SOL     OW26092   0.576   1.606   6.850 -0.4311 -0.0488 -0.1763
 4819SOL    HW126093   0.580   1.635   6.759 -2.6666  0.1754 -0.2091
 4819SOL    HW226094   0.667   1.624   6.874 -1.6631  3.0492  2.1163
 4820SOL     OW26095   3.401   3.477   7.489  0.0416  0.2766  0.4208
 4820SOL    HW126096   3.423   3.429   7.569  1.3698 -1.4921 -1.0032
 4820SOL    HW226097   3.429   3.564   7.518 -1.9011  0.8870  0.4404
 4821SOL     OW26098   2.867   0.425   1.775  0.0025 -0.1426 -0.1684
 4821SOL    HW126099   2.846   0.385   1.859  0.2134  0.0292 -0.0358
 4821SOL    HW226100   2.953   0.395   1.745 -0.1851  0.1218 -0.9787
 4822SOL     OW26101   4.156   3.066   2.462  0.0130 -0.2797  0.9601
 4822SOL    HW126102   4.148   2.974   2.436 -0.4809 -0.0623  0.3541
 4822SOL    HW226103   4.103   3.103   2.391  0.8863 -1.1892 -0.1851
 4823SOL     OW26104   2.447   2.687   2.912  0.2198 -0.0946 -0.5779
 4823SOL    HW126105   2.474   2.747   2.843  1.5440  0.8040  0.7170
 4823SOL    HW226106   2.361   2.720   2.939  0.9173 -0.6781  2.4330
 4824SOL     OW26107   2.866   0.707  15.796  0.4431  0.4520  0.2870
 4824SOL    HW126108   2.851   0.769  15.724  0.2767  0.7858  0.6136
 4824SOL    HW226109   2.850   0.624  15.751  0.7161  0.7048 -0.2854
 4825SOL     OW26110   3.853   0.395  16.593  0.7852  0.1999  0.1267
 4825SOL    HW126111   3.796   0.438  16.657  1.3805 -1.3618  1.6808
 4825SOL    HW226112   3.850   0.302  16.616  0.5616  0.5378  1.4630
 4826SOL     OW26113   4.244   3.604   9.062 -0.4375 -0.1214  0.3698
 4826SOL    HW126114   4.201   3.521   9.082  1.5934 -0.8000  2.0084
 4826SOL    HW226115   4.333   3.589   9.094 -0.7287 -1.9282  0.2853
 4827SOL     OW26116   0.014   1.022  16.549  0.3649 -0.0904  0.3797
 4827SOL    HW126117   4.660   0.981  16.545  0.3186  0.0772 -0.3876
 4827SOL    HW226118   4.729   1.115  16.560 -1.4940 -0.1511 -2.0221
 4828SOL     OW26119   0.658   2.963   7.671  0.2250  0.1783  0.4364
 4828SOL    HW126120   0.578   2.931   7.629 -0.4987  0.4672  1.6034
 4828SOL    HW226121   0.623   3.044   7.707 -1.4921 -0.6589  0.6860
 4829SOL     OW26122   2.288   4.492  11.314  0.3785 -0.0443 -0.8637
 4829SOL    HW126123   2.249   4.422  11.262 -2.4030  0.3663  0.6765
 4829SOL    HW226124   2.342   4.526  11.243  2.2391 -1.2163 -0.0084
 4830SOL     OW26125   0.968   0.138   1.265 -0.1604  0.6169  0.1791
 4830SOL    HW126126   0.957   0.045   1.285 -0.3281  0.9449  1.6215
 4830SOL    HW226127   1.037   0.140   1.199 -0.6079  0.7506 -0.2821
 4831SOL     OW26128   4.636   0.745  16.316  0.9071 -0.2958  0.3971
 4831SOL    HW126129   4.577   0.670  16.310  1.9348 -1.1428  0.9561
 4831SOL    HW226130   4.637   0.773  16.224 -0.3721  2.4191  1.2220
 4832SOL     OW26131   3.418   2.987   6.720  0.5058 -0.7151  0.1909
 4832SOL    HW126132   3.346   2.949   6.670  0.3530 -1.4062  0.9171
 4832SOL    HW226133   3.423   3.076   6.688 -2.8432 -0.4007  0.5594
 4833SOL     OW26134   1.731   3.588   6.998  0.0992 -0.5412  0.2150
 4833SOL    HW126135   1.772   3.672   7.018  0.1493 -0.2173 -1.2127
 4833SOL    HW226136   1.673   3.627   6.933  0.8385 -1.1003 -0.7805
 4834SOL     OW26137   1.268   1.507   7.543  0.0662 -0.1085  0.3586
 4834SOL    HW126138   1.315   1.581   7.581 -0.0081 -0.1878  0.6083
 4834SOL    HW226139   1.179   1.538   7.527 -0.2765 -1.3803 -0.2041
 4835SOL     OW26140   3.084   2.197   0.066 -0.3263  0.3393  0.3167
 4835SOL    HW126141   3.155   2.133   0.060 -1.1412 -0.3191 -2.1123
 4835SOL    HW226142   3.127   2.261   0.123  2.2619 -1.4256  0.3644
 4836SOL     OW26143   1.821   2.139   2.567 -0.6523 -0.0774  0.2396
 4836SOL    HW126144   1.754   2.071   2.573  1.2868 -1.9106  1.2638
 4836SOL    HW226145   1.786   2.196   2.636 -0.3994 -1.1519  1.2549
 4837SOL     OW26146   0.352   1.833   1.183 -0.3072  0.0038 -0.2049
 4837SOL    HW126147   0.316   1.761   1.132 -1.1599 -1.0057  1.7973
 4837SOL    HW226148   0.311   1.912   1.148 -0.8000 -0.1236  0.0767
 4838SOL     OW26149   3.955   3.264   7.959 -0.4514 -0.3498 -0.6589
 4838SOL    HW126150   4.010   3.308   7.893 -0.3273 -0.0416 -0.3491
 4838SOL    HW226151   3.928   3.197   7.895  2.4243 -0.9528 -1.2438
 4839SOL     OW26152   2.086   0.330   6.971  0.5899  0.0690  0.0394
 4839SOL    HW126153   1.995   0.357   6.984 -0.7093 -3.8786 -0.8683
 4839SOL    HW226154   2.082   0.241   7.006  0.1665  0.7512  1.7300
 4840SOL     OW26155   2.125   4.379   6.205 -0.1123  0.0295 -0.2967
 4840SOL    HW126156   2.103   4.295   6.167 -0.8504  1.3054 -2.6782
 4840SOL    HW226157   2.041   4.425   6.206  0.4761  1.1336 -0.7362
 4841SOL     OW26158   1.844   0.951   6.226  0.4842 -1.0154  0.0441
 4841SOL    HW126159   1.922   0.903   6.201  1.5148  1.2419 -1.0490
 4841SOL    HW226160   1.795   0.947   6.144  0.7282 -3.4292  0.0260
 4842SOL     OW26161   3.816   4.314   7.876  0.7122  0.4032  0.0091
 4842SOL    HW126162   3.772   4.342   7.957 -0.4432  1.8112 -1.1021
 4842SOL    HW226163   3.831   4.221   7.890 -0.6307 -0.2248 -2.7476
 4843SOL     OW26164   1.187   4.710   1.460  0.1092  0.0822  0.1444
 4843SOL    HW126165   1.176   4.698   1.554 -3.7390  1.7195 -0.1131
 4843SOL    HW226166   1.283   4.715   1.458  0.0767  0.1643 -1.2526
 4844SOL     OW26167   0.518   3.665   4.865 -0.0460  0.2573  0.5602
 4844SOL    HW126168   0.533   3.619   4.947  0.0917 -0.6597  0.0166
 4844SOL    HW226169   0.450   3.730   4.886 -0.3308  0.6756 -1.6867
 4845SOL     OW26170   2.577   4.235   4.717 -0.0766 -0.1997 -0.6740
 4845SOL    HW126171   2.535   4.307   4.764  2.9075  1.2933 -0.3083
 4845SOL    HW226172   2.549   4.152   4.757  0.4034  0.4083  0.8936
 4846SOL     OW26173   0.881   0.019  14.982 -0.2146  0.0339 -0.0783
 4846SOL    HW126174   0.826   4.694  15.033 -0.9734 -0.2346 -1.1914
 4846SOL    HW226175   0.882   4.706  14.898 -2.7548 -1.0996  0.5194
 4847SOL     OW26176   2.093   1.889   7.261  0.5541 -0.1397 -0.3898
 4847SOL    HW126177   2.016   1.925   7.216  2.5937  0.6854 -3.2147
 4847SOL    HW226178   2.091   1.795   7.243 -2.7243 -0.9023  4.0181
 4848SOL     OW26179   2.652   4.648   1.008  0.2694 -0.0024  0.2088
 4848SOL    HW126180   2.654   4.553   0.999 -2.4694  0.0276 -1.0484
 4848SOL    HW226181   2.718   4.672   1.072 -0.3010 -0.3149  0.9168
 4849SOL     OW26182   2.721   0.544   3.758  0.2227  0.1883  0.1807
 4849SOL    HW126183   2.740   0.637   3.755 -1.9528  0.6182 -0.2486
 4849SOL    HW226184   2.628   0.551   3.779 -0.1479  0.3282 -1.5694
 4850SOL     OW26185   4.227   4.078  13.825 -0.1684  0.3544 -0.2821
 4850SOL    HW126186   4.267   4.165  13.821 -0.9210  0.8028  1.8978
 4850SOL    HW226187   4.132   4.087  13.822 -0.3952 -1.5103  1.0956
 4851SOL     OW26188   3.263   0.996   8.118 -0.7650 -0.4224  0.7434
 4851SOL    HW126189   3.269   0.958   8.205  1.4715 -0.6213  0.5008
 4851SOL    HW226190   3.261   1.087   8.148  0.1348 -0.2101  0.1704
 4852SOL     OW26191   0.058   3.734   2.998  0.0982 -0.0257 -0.6453
 4852SOL    HW126192   0.141   3.719   3.044 -0.5747  2.0434  1.2561
 4852SOL    HW226193   0.025   3.816   3.035 -0.1175  0.6710 -2.3629
 4853SOL     OW26194   1.050   2.415   8.770 -0.1063 -0.2206 -0.3437
 4853SOL    HW126195   1.063   2.438   8.678 -1.0384  1.1165 -0.1312
 4853SOL    HW226196   0.994   2.486   8.801  0.7179  0.0793  0.4578
 4854SOL     OW26197   2.024   3.797  16.587  0.1903  0.2016 -0.2469
 4854SOL    HW126198   2.011   3.814  16.494  4.0245 -2.6163 -1.3149
 4854SOL    HW226199   1.945   3.838  16.622  1.3950  0.8285  1.7462
 4855SOL     OW26200   1.799   4.114   4.134 -0.1047 -0.6075 -0.2533
 4855SOL    HW126201   1.731   4.097   4.068 -2.0230 -1.4183  1.9123
 4855SOL    HW226202   1.866   4.048   4.117  1.0790  1.0213 -1.8491
 4856SOL     OW26203   1.671   0.520   8.064 -0.4496  0.1745  0.0894
 4856SOL    HW126204   1.579   0.533   8.085  0.0130 -1.8842  3.2754
 4856SOL    HW226205   1.713   0.598   8.100 -0.7169  0.5744 -0.4616
 4857SOL     OW26206   3.528   1.914  13.896 -0.2707 -0.2000  0.3133
 4857SOL    HW126207   3.494   1.990  13.849  1.8089 -0.8547 -2.3194
 4857SOL    HW226208   3.614   1.951  13.917  0.2083 -0.8246 -0.5273
 4858SOL     OW26209   4.002   2.647   3.721 -0.2664 -0.2400 -0.4062
 4858SOL    HW126210   4.028   2.720   3.664  1.6736 -0.1173  0.6372
 4858SOL    HW226211   4.089   2.626   3.754 -0.1421  0.3098 -0.3753
 4859SOL     OW26212   4.035   2.278   6.142 -0.2151 -0.1770 -0.1246
 4859SOL    HW126213   3.960   2.225   6.167 -0.2852 -0.6248 -1.2817
 4859SOL    HW226214   3.991   2.343   6.086 -1.5350 -0.7479  0.2506
 4860SOL     OW26215   1.651   3.868   5.275 -0.1879 -0.0140  0.0959
 4860SOL    HW126216   1.695   3.790   5.242 -0.6879 -0.2604  0.0175
 4860SOL    HW226217   1.724   3.924   5.302  1.1028 -2.1164  0.9672
 4861SOL     OW26218   1.395   4.615   0.255 -0.6681  0.2714 -0.2579
 4861SOL    HW126219   1.360   4.616   0.166  0.6064 -0.4663 -0.7680
 4861SOL    HW226220   1.396   4.522   0.279  0.2448  0.5762  0.8970
 4862SOL     OW26221   0.732   2.726   5.099 -0.1592  0.4141  0.5097
 4862SOL    HW126222   0.748   2.636   5.071  0.1192  0.3049  1.0208
 4862SOL    HW226223   0.764   2.732   5.189  0.3932  1.0645  0.2747
 4863SOL     OW26224   2.717   4.630   2.229 -0.0118  0.5083 -0.1650
 4863SOL    HW126225   2.790   4.605   2.172  0.8277  0.7374  0.8096
 4863SOL    HW226226   2.740   4.575   2.304  0.0234  1.5151  0.5665
 4864SOL     OW26227   3.030   0.970   7.294  0.1304 -0.2612 -0.2214
 4864SOL    HW126228   3.077   0.909   7.351  1.4188  1.5508  0.6730
 4864SOL    HW226229   2.940   0.970   7.327  0.6603  2.9577  1.2063
 4865SOL     OW26230   0.042   1.598   8.468 -0.1318 -0.4352  0.7354
 4865SOL    HW126231   0.101   1.655   8.420 -1.4573  1.4137  1.2786
 4865SOL    HW226232   0.103   1.550   8.523  1.2476  0.1195 -0.3079
 4866SOL     OW26233   4.640   2.549  13.663  0.1146 -0.1697  0.1967
 4866SOL    HW126234   4.722   2.515  13.627  0.2163 -0.4507  0.6951
 4866SOL    HW226235   4.614   2.468  13.707  0.7201 -0.0467  0.7707
 4867SOL     OW26236   2.312   0.899  13.848 -0.0955  0.4653 -1.4085
 4867SOL    HW126237   2.367   0.897  13.926 -0.7845 -0.3441 -0.9511
 4867SOL    HW226238   2.367   0.961  13.800  2.8534 -1.3763 -0.3721
 4868SOL     OW26239   1.032   3.174   6.983  0.0090 -0.6173 -0.4328
 4868SOL    HW126240   0.942   3.152   6.962  0.8128 -1.5992 -2.9024
 4868SOL    HW226241   1.020   3.158   7.076 -1.7920  0.5677 -0.4675
 4869SOL     OW26242   0.949   3.109   0.453  0.0652 -0.0155  0.1748
 4869SOL    HW126243   0.878   3.173   0.457  0.8358  0.8785 -0.3471
 4869SOL    HW226244   0.989   3.125   0.538  1.0143  0.5070 -0.3690
 4870SOL     OW26245   3.660   3.779   9.133  0.1662  0.0953 -0.0239
 4870SOL    HW126246   3.617   3.833   9.066  2.6601  1.1107 -0.8325
 4870SOL    HW226247   3.751   3.786   9.105 -0.1958  1.3959 -0.9237
 4871SOL     OW26248   1.673   3.529   8.337 -0.1981 -0.1966  0.0171
 4871SOL    HW126249   1.746   3.540   8.276 -0.0714  0.4073  0.2718
 4871SOL    HW226250   1.714   3.577   8.409 -2.4198  1.3423  0.2625
 4872SOL     OW26251   2.934   1.530   5.147 -0.3702  0.0936 -0.0645
 4872SOL    HW126252   2.930   1.436   5.135 -3.4530  0.3987 -1.6779
 4872SOL    HW226253   2.944   1.548   5.240  0.5675  1.0751 -0.3495
 4873SOL     OW26254   2.203   0.158  11.813 -0.4392 -0.0132 -0.0129
 4873SOL    HW126255   2.174   0.095  11.747  1.7918  0.0922 -1.0941
 4873SOL    HW226256   2.137   0.146  11.880  1.3151 -0.6032  1.6065
 4874SOL     OW26257   2.049   1.152   8.954 -0.4414  0.4261 -0.0976
 4874SOL    HW126258   2.065   1.230   8.899 -2.5533  1.3604  0.5977
 4874SOL    HW226259   2.090   1.089   8.895  0.2588  1.5147 -0.7818
 4875SOL     OW26260   1.431   0.733  12.368 -0.1321  0.6585 -0.0476
 4875SOL    HW126261   1.393   0.818  12.344  0.9243  1.1240 -0.1136
 4875SOL    HW226262   1.526   0.747  12.359 -0.3003  1.4835 -0.6354
 4876SOL     OW26263   1.941   2.968  11.443  0.2448 -0.3808 -0.2803
 4876SOL    HW126264   1.929   3.010  11.528 -1.3941  1.5186 -1.4433
 4876SOL    HW226265   1.921   2.875  11.454  2.0730 -0.8329 -0.7334
 4877SOL     OW26266   4.548   3.536   3.755  0.2315  0.6160  0.6253
 4877SOL    HW126267   4.490   3.531   3.679 -0.1104  2.1065  0.7847
 4877SOL    HW226268   4.627   3.552   3.703  0.8238 -0.7217  1.0949
 4878SOL     OW26269   3.019   1.845   1.594 -0.2641  0.3697  0.4315
 4878SOL    HW126270   3.079   1.854   1.668 -0.1788  3.5936 -0.0501
 4878SOL    HW226271   3.047   1.768   1.545 -0.8103  1.0166 -0.8910
 4879SOL     OW26272   4.439   3.417   4.678  0.1095 -0.1063 -0.1020
 4879SOL    HW126273   4.432   3.468   4.759  0.1487 -0.2508 -0.0066
 4879SOL    HW226274   4.347   3.390   4.679  0.3016 -0.7261  2.9075
 4880SOL     OW26275   3.276   4.646  12.781  0.1920 -0.7189 -0.1459
 4880SOL    HW126276   3.250   4.596  12.859 -1.2247  0.2871  0.0398
 4880SOL    HW226277   3.371   4.640  12.781  0.2874  1.0802 -0.6975
 4881SOL     OW26278   0.358   1.932   5.790 -0.5808 -0.0901  0.3274
 4881SOL    HW126279   0.445   1.895   5.776  0.0977  2.6764 -2.5172
 4881SOL    HW226280   0.352   1.925   5.886  0.3379  2.3428  0.5371
 4882SOL     OW26281   3.941   1.498   6.742  0.1923 -0.0964 -0.7237
 4882SOL    HW126282   3.961   1.490   6.835  0.0375 -0.0512 -0.6874
 4882SOL    HW226283   4.020   1.488   6.688  2.1555 -0.4567  2.1804
 4883SOL     OW26284   2.630   1.019   8.904 -0.0299 -0.0970  0.2348
 4883SOL    HW126285   2.567   1.073   8.857 -1.0706 -0.8438  0.7669
 4883SOL    HW226286   2.619   1.034   8.998  1.8134  1.4041  0.2152
 4884SOL     OW26287   1.766   3.460   2.971 -0.1180 -0.2710 -0.1937
 4884SOL    HW126288   1.671   3.465   2.981 -0.0393  1.8499 -0.4756
 4884SOL    HW226289   1.786   3.481   3.063  2.2186  3.4014 -1.5135
 4885SOL     OW26290   0.414   1.224   6.270 -0.1477 -0.2420 -0.1527
 4885SOL    HW126291   0.355   1.173   6.325  0.2902  0.3479  0.8624
 4885SOL    HW226292   0.382   1.202   6.183 -0.5899  3.2538 -0.8658
 4886SOL     OW26293   0.321   2.071  15.570  0.4524  0.5713 -0.2940
 4886SOL    HW126294   0.352   2.100  15.656 -0.6471 -0.8029  0.5574
 4886SOL    HW226295   0.273   1.998  15.608  1.5026 -0.5423 -1.1066
 4887SOL     OW26296   4.297   3.717   4.025 -0.0074  0.0625 -0.6877
 4887SOL    HW126297   4.319   3.794   3.972  1.2177 -1.1765 -1.9892
 4887SOL    HW226298   4.215   3.685   3.987 -0.4276  2.8692 -2.1377
 4888SOL     OW26299   3.537   3.438  10.456  0.1389  1.0418  0.2467
 4888SOL    HW126300   3.600   3.502  10.490  1.6181  0.0388 -0.5987
 4888SOL    HW226301   3.480   3.423  10.531  1.4789 -1.3213  0.7838
 4889SOL     OW26302   2.336   1.540   4.138  0.3427  0.6079 -0.6079
 4889SOL    HW126303   2.380   1.468   4.182 -2.5072 -1.4606 -1.1611
 4889SOL    HW226304   2.398   1.552   4.066  1.0480 -0.3662 -0.1607
 4890SOL     OW26305   2.774   2.894   7.646 -0.2992 -0.3829  0.2563
 4890SOL    HW126306   2.793   2.828   7.579  1.6409 -1.0163  1.4308
 4890SOL    HW226307   2.797   2.972   7.595 -1.9566 -0.6917 -0.9696
 4891SOL     OW26308   3.486   2.333   2.473  0.5425  0.7842 -0.1126
 4891SOL    HW126309   3.562   2.391   2.478  0.2037  0.9420  3.0416
 4891SOL    HW226310   3.459   2.347   2.382  0.0152  0.1510 -0.0561
 4892SOL     OW26311   1.832   3.025   6.549 -0.3704  0.2091 -0.4702
 4892SOL    HW126312   1.746   3.064   6.533 -0.4763  0.3040  0.3049
 4892SOL    HW226313   1.813   2.960   6.617  0.0396  3.4793  2.7711
 4893SOL     OW26314   1.195   2.509   3.862 -0.6189 -0.4515 -0.2034
 4893SOL    HW126315   1.110   2.553   3.863 -1.1273 -1.4325 -0.0637
 4893SOL    HW226316   1.226   2.536   3.949  1.5820  0.9326 -1.4303
 4894SOL     OW26317   3.739   3.597  16.488 -0.1298  0.1845  0.3738
 4894SOL    HW126318   3.810   3.532  16.493 -0.7323 -0.5984 -1.2714
 4894SOL    HW226319   3.743   3.610  16.393 -2.0944  0.0213  0.2706
 4895SOL     OW26320   1.456   1.208   5.719  0.2682  0.1541  0.2355
 4895SOL    HW126321   1.428   1.259   5.794 -0.5086  0.0437  0.0137
 4895SOL    HW226322   1.410   1.126   5.738  0.1004  0.5475  1.5154
 4896SOL     OW26323   0.166   3.594   9.293 -0.0896 -0.2821  0.2640
 4896SOL    HW126324   0.168   3.509   9.337  0.1309 -0.9093 -0.9701
 4896SOL    HW226325   0.217   3.645   9.356 -1.4275  0.6663  0.5716
 4897SOL     OW26326   2.263   3.070   3.281  0.2429 -0.0150 -0.5541
 4897SOL    HW126327   2.302   3.106   3.361  2.0750 -0.7566 -1.1176
 4897SOL    HW226328   2.350   3.054   3.244 -0.7183 -0.3104 -2.6877
 4898SOL     OW26329   4.244   3.093  13.285  0.1680 -0.5894 -0.1736
 4898SOL    HW126330   4.177   3.150  13.322  0.7031 -0.5395  0.7162
 4898SOL    HW226331   4.307   3.095  13.357 -2.4571 -0.4613  2.1474
 4899SOL     OW26332   1.991   3.285   3.611 -0.3423 -0.0246 -0.6641
 4899SOL    HW126333   2.033   3.327   3.686 -0.2704 -0.5767 -0.3967
 4899SOL    HW226334   2.050   3.214   3.586  0.4119 -0.0342  1.1353
 4900SOL     OW26335   1.934   3.466  15.056  0.7399  0.2805  0.9634
 4900SOL    HW126336   1.957   3.447  15.147  0.2793 -2.4967  0.4932
 4900SOL    HW226337   1.894   3.552  15.071 -0.7013 -0.5212  1.7157
 4901SOL     OW26338   4.566   2.439   7.661  0.2799 -0.0746 -0.1606
 4901SOL    HW126339   4.579   2.440   7.756 -1.0237  0.3946  0.0126
 4901SOL    HW226340   4.508   2.366   7.640  0.4704 -0.6369  1.2493
 4902SOL     OW26341   0.212   1.940   3.354 -0.3674 -0.5312  0.3680
 4902SOL    HW126342   0.266   1.906   3.283  0.9048 -1.3968  1.7651
 4902SOL    HW226343   0.256   2.021   3.381  1.2174 -1.3769  0.3202
 4903SOL     OW26344   4.542   4.488   1.372 -0.0130 -0.2025  0.6947
 4903SOL    HW126345   4.590   4.522   1.448  0.9539 -0.8754  0.3908
 4903SOL    HW226346   4.589   4.535   1.302  1.8348 -0.9283  1.4411
 4904SOL     OW26347   0.558   4.205   6.772 -0.1715  0.4210  0.7243
 4904SOL    HW126348   0.504   4.128   6.789  1.7687 -0.7463  1.6510
 4904SOL    HW226349   0.494   4.269   6.742 -1.0475 -1.7109 -1.9141
 4905SOL     OW26350   1.760   0.448   1.310  0.5727 -0.3585 -0.2511
 4905SOL    HW126351   1.839   0.472   1.260 -1.8844  2.7962 -2.6418
 4905SOL    HW226352   1.698   0.511   1.275 -0.2503 -0.5843  0.8108
 4906SOL     OW26353   0.952   3.710   7.608 -0.3680 -0.5277 -0.1695
 4906SOL    HW126354   0.999   3.637   7.568  0.8277  0.7737 -1.1378
 4906SOL    HW226355   0.875   3.722   7.553 -0.7918 -1.1705  0.2806
 4907SOL     OW26356   4.216   3.498   4.382  1.0477 -0.2500 -0.3843
 4907SOL    HW126357   4.232   3.592   4.374  0.8019 -0.4035 -2.5359
 4907SOL    HW226358   4.304   3.460   4.380  1.4891  0.7725 -0.6132
 4908SOL     OW26359   4.132   1.215  11.941 -0.3022 -0.2406 -0.1213
 4908SOL    HW126360   4.107   1.306  11.921 -1.4434 -0.7583 -1.0459
 4908SOL    HW226361   4.222   1.238  11.962 -1.0547  2.1425  0.5891
 4909SOL     OW26362   4.012   0.288   3.577 -0.4275  0.0368 -0.2292
 4909SOL    HW126363   3.953   0.363   3.569 -0.0406  0.3632 -0.0178
 4909SOL    HW226364   4.089   0.332   3.612  0.2114 -1.1313 -0.1519
 4910SOL     OW26365   2.486   1.053   6.343 -0.0632 -0.0318 -0.8422
 4910SOL    HW126366   2.498   1.128   6.285  0.1865  0.6578  0.0865
 4910SOL    HW226367   2.564   1.006   6.312 -0.5856 -2.5433  1.6509
 4911SOL     OW26368   1.315   3.455   6.788 -0.8508 -0.1582  0.1536
 4911SOL    HW126369   1.231   3.452   6.834 -0.7702  1.8478  0.4303
 4911SOL    HW226370   1.272   3.438   6.704 -0.2724 -1.1722  0.0632
 4912SOL     OW26371   4.002   0.122  15.713  0.0895  0.0094  0.2673
 4912SOL    HW126372   4.034   0.212  15.711  0.0247 -0.0221 -2.2893
 4912SOL    HW226373   4.010   0.100  15.620 -3.7015 -0.5907  0.0739
 4913SOL     OW26374   4.656   3.721   4.810  0.6897 -0.3762  0.0863
 4913SOL    HW126375   0.006   3.676   4.829  1.5407  1.3905  0.5122
 4913SOL    HW226376   4.658   3.745   4.718 -1.7285 -1.0768 -0.1403
 4914SOL     OW26377   1.369   1.054  14.994 -0.2305 -0.0516  0.0555
 4914SOL    HW126378   1.390   1.141  15.027 -0.0456  0.3401 -1.0758
 4914SOL    HW226379   1.323   1.024  15.073  0.0196 -1.2210 -0.2379
 4915SOL     OW26380   0.575   3.091   9.917  0.0576  0.1427 -0.0196
 4915SOL    HW126381   0.645   3.140   9.960 -1.6019  1.6285  1.0188
 4915SOL    HW226382   0.512   3.093   9.989  0.8275 -0.1873  0.6527
 4916SOL     OW26383   2.172   3.600   8.828  0.2542  0.6775  0.0333
 4916SOL    HW126384   2.111   3.527   8.837 -1.2146  1.7239 -1.5106
 4916SOL    HW226385   2.114   3.660   8.875 -0.4343 -0.5939  0.8184
 4917SOL     OW26386   1.330   4.628   9.254 -0.2652 -0.2658 -0.0316
 4917SOL    HW126387   1.241   4.594   9.247  0.5513 -2.4318 -0.0068
 4917SOL    HW226388   1.369   4.578   9.183  0.0033 -1.4121  0.9205
 4918SOL     OW26389   1.749   0.664   2.722  0.0236 -0.0805  0.3302
 4918SOL    HW126390   1.688   0.726   2.761 -1.8745 -1.6304 -0.1956
 4918SOL    HW226391   1.763   0.597   2.788 -2.2069 -0.4957  0.3861
 4919SOL     OW26392   3.522   3.173   5.283  0.0333  0.0557  0.1660
 4919SOL    HW126393   3.492   3.109   5.348 -0.1084  0.8056  0.8433
 4919SOL    HW226394   3.442   3.205   5.242  0.9903  3.2373  0.7883
 4920SOL     OW26395   4.058   4.244   0.997 -0.0378  0.4971 -0.4200
 4920SOL    HW126396   4.038   4.164   1.046 -0.6160  0.5168 -0.6231
 4920SOL    HW226397   4.153   4.251   0.987  0.0261 -0.5363 -0.5832
 4921SOL     OW26398   4.694   3.256  16.818  0.2198  0.1761 -0.3184
 4921SOL    HW126399   0.048   3.293  16.836 -0.4244  2.4897 -1.8506
 4921SOL    HW226400   4.707   3.226  16.728  0.9867  0.5255 -0.3268
 4922SOL     OW26401   3.350   2.021  15.259 -0.2037 -0.9669 -0.9286
 4922SOL    HW126402   3.444   2.041  15.256  0.0823 -1.9879  1.0701
 4922SOL    HW226403   3.333   2.077  15.184 -1.8680  0.5409  0.5471
 4923SOL     OW26404   1.989   4.156   2.560 -0.1757 -0.2383 -0.3473
 4923SOL    HW126405   1.923   4.167   2.491  0.8228  0.9652 -1.1224
 4923SOL    HW226406   2.062   4.146   2.500  0.9307 -0.6858  1.0783
 4924SOL     OW26407   3.172   2.286   5.494 -0.1380  0.0456 -0.6475
 4924SOL    HW126408   3.083   2.293   5.461 -0.1897 -1.4076 -0.8065
 4924SOL    HW226409   3.202   2.377   5.490  2.9378 -1.0120 -1.4615
 4925SOL     OW26410   1.778   0.505  16.895 -0.0072 -0.8920  0.2203
 4925SOL    HW126411   1.687   0.524  16.920  1.2625  2.6815  2.1707
 4925SOL    HW226412   1.798   0.590  16.854  0.6499  0.4758  3.3526
 4926SOL     OW26413   1.195   1.406  15.738 -0.4337  0.0188 -0.0856
 4926SOL    HW126414   1.255   1.444  15.803  0.0459  1.1536 -1.1957
 4926SOL    HW226415   1.116   1.441  15.779 -1.3973 -1.7187 -0.4660
 4927SOL     OW26416   4.175   4.500   2.832  0.2286 -0.0268 -0.0750
 4927SOL    HW126417   4.129   4.544   2.904  0.8673  0.6006 -0.0525
 4927SOL    HW226418   4.228   4.573   2.799  1.0975 -1.0299 -0.8906
 4928SOL     OW26419   0.055   1.107   4.937  0.6995  0.2890 -0.3397
 4928SOL    HW126420   4.706   1.123   4.982  0.4975 -0.1376 -0.5532
 4928SOL    HW226421   0.045   1.017   4.904  1.1636  0.4769 -0.9961
 4929SOL     OW26422   4.301   1.667  16.705 -0.0422 -0.4343 -0.0667
 4929SOL    HW126423   4.253   1.745  16.678 -0.3799 -0.1482  1.3890
 4929SOL    HW226424   4.239   1.627  16.766  0.3844 -0.5442  0.2921
 4930SOL     OW26425   0.942   0.698   4.187 -0.0317 -0.1304  0.1618
 4930SOL    HW126426   0.898   0.746   4.117  1.0068  0.1832 -0.2682
 4930SOL    HW226427   0.915   0.609   4.164 -1.4371  0.5101 -0.7366
 4931SOL     OW26428   2.026   3.331   3.876 -0.6296  0.7254 -0.5478
 4931SOL    HW126429   2.085   3.335   3.952  1.9026  0.3605 -2.4972
 4931SOL    HW226430   1.989   3.245   3.895  1.1293  0.2523  0.7606
 4932SOL     OW26431   1.717   4.574   1.418  0.6601  0.2996 -0.2788
 4932SOL    HW126432   1.710   4.486   1.381  1.7807  0.5139 -1.0007
 4932SOL    HW226433   1.760   4.611   1.341  1.1237  0.1125 -0.1088
 4933SOL     OW26434   1.331   2.327   7.027 -0.2371  0.6346  0.2337
 4933SOL    HW126435   1.356   2.419   7.018 -0.6932  0.4993 -2.2865
 4933SOL    HW226436   1.316   2.324   7.122  0.0122  0.6311  0.2734
 4934SOL     OW26437   4.063   0.164  10.582  0.5287  0.1436  0.0435
 4934SOL    HW126438   4.049   0.113  10.502 -0.7858 -0.4830  0.6917
 4934SOL    HW226439   3.970   0.182  10.595  0.3867 -1.3000  0.9887
 4935SOL     OW26440   1.604   2.739   1.789  0.8130 -0.4600 -0.0495
 4935SOL    HW126441   1.586   2.716   1.698  3.8691  0.4634 -0.9157
 4935SOL    HW226442   1.689   2.700   1.811  0.3412 -1.3991  0.1131
 4936SOL     OW26443   0.798   2.761   6.883  0.4683  0.4469  0.0848
 4936SOL    HW126444   0.738   2.690   6.859 -0.2506  0.4548  1.9237
 4936SOL    HW226445   0.779   2.776   6.975 -1.5611 -1.6910  0.0171
 4937SOL     OW26446   3.928   0.782   7.033  0.2532  0.2075  0.2148
 4937SOL    HW126447   3.940   0.728   7.111  2.4153 -1.7190 -1.4408
 4937SOL    HW226448   3.836   0.774   7.007 -0.2556  2.1996  1.3630
 4938SOL     OW26449   1.861   3.292   8.503  0.2152 -0.3914 -0.1538
 4938SOL    HW126450   1.853   3.197   8.490 -1.6755 -0.1262 -1.0767
 4938SOL    HW226451   1.778   3.314   8.545  0.6543  1.3662 -0.2238
 4939SOL     OW26452   3.993   4.659   3.329 -0.1854 -0.5771 -0.4683
 4939SOL    HW126453   4.022   4.692   3.415 -1.4330  1.4530 -0.8185
 4939SOL    HW226454   4.080   4.643   3.292  0.2493 -1.0311  0.7220
 4940SOL     OW26455   3.863   3.947  14.495  0.2999 -0.0450  0.6251
 4940SOL    HW126456   3.923   3.902  14.435 -0.1516 -2.6066  2.1158
 4940SOL    HW226457   3.814   3.878  14.539 -3.0655  0.5561 -2.1433
 4941SOL     OW26458   3.171   0.347   3.956 -0.0648 -0.0875  0.3985
 4941SOL    HW126459   3.234   0.282   3.988  0.7913 -0.3710 -1.8486
 4941SOL    HW226460   3.209   0.369   3.871  2.5780  2.6430  2.2566
 4942SOL     OW26461   4.668   3.053   0.575  0.3364  0.1504  0.5235
 4942SOL    HW126462   4.585   3.042   0.529  0.7114  1.9057 -0.5857
 4942SOL    HW226463   4.641   3.058   0.666 -2.0419 -0.2512 -0.1716
 4943SOL     OW26464   0.438   2.900   7.363 -0.4356 -0.0414  0.0629
 4943SOL    HW126465   0.406   2.900   7.453 -1.9732  0.3439 -0.4837
 4943SOL    HW226466   0.378   2.830   7.337  0.1651 -0.2816 -0.6520
 4944SOL     OW26467   2.263   2.894   2.102 -0.1725  0.6259  0.3274
 4944SOL    HW126468   2.235   2.824   2.161  3.4734 -1.6626 -0.6249
 4944SOL    HW226469   2.354   2.909   2.129  0.3221 -0.4584 -0.7115
 4945SOL     OW26470   3.392   4.134   8.011  0.3593  0.0141 -0.1293
 4945SOL    HW126471   3.426   4.215   8.049 -1.3278  1.3575 -1.4867
 4945SOL    HW226472   3.332   4.173   7.948  0.0308  0.5104  0.4977
 4946SOL     OW26473   0.014   4.336  10.605  0.0532  0.3973  0.4106
 4946SOL    HW126474   4.675   4.399  10.605 -0.2804 -0.0004 -1.6406
 4946SOL    HW226475   4.713   4.267  10.549 -1.6994  0.4410  1.4456
 4947SOL     OW26476   2.136   2.827   9.393  0.1978 -0.0601 -0.2449
 4947SOL    HW126477   2.171   2.912   9.419  1.0927 -0.6520  0.5023
 4947SOL    HW226478   2.045   2.852   9.407  0.6692  1.2398  0.5509
 4948SOL     OW26479   3.608   0.163   5.588 -0.4858 -0.0793 -0.1093
 4948SOL    HW126480   3.637   0.138   5.676  1.6355  1.1011 -0.4592
 4948SOL    HW226481   3.692   0.153   5.543 -1.2302 -0.1804 -1.4686
 4949SOL     OW26482   0.316   1.336   0.906 -0.3480  0.1053  0.3842
 4949SOL    HW126483   0.299   1.271   0.837  0.3756  0.9671 -0.6056
 4949SOL    HW226484   0.248   1.399   0.881  0.7817  1.8562  1.7565
 4950SOL     OW26485   0.623   3.555  11.652  0.2379  0.1503 -0.2704
 4950SOL    HW126486   0.654   3.627  11.597 -1.1555 -0.6582 -2.1363
 4950SOL    HW226487   0.574   3.601  11.721  0.2649  1.8484 -1.3852
 4951SOL     OW26488   0.748   4.316  14.515 -0.8468  0.4817  0.4079
 4951SOL    HW126489   0.767   4.226  14.542 -0.7125 -0.2097 -2.0069
 4951SOL    HW226490   0.702   4.297  14.434  0.5481  0.0509 -0.2665
 4952SOL     OW26491   0.247   0.550   7.121 -0.4672 -0.0515 -0.6175
 4952SOL    HW126492   0.258   0.499   7.202 -0.3195  0.7740 -0.1141
 4952SOL    HW226493   0.176   0.498   7.083 -1.1800  3.0710 -3.4342
 4953SOL     OW26494   4.662   3.641   6.435  0.4492 -0.1865 -0.3590
 4953SOL    HW126495   4.704   3.648   6.521 -1.3481 -1.0219  0.5849
 4953SOL    HW226496   4.664   3.546   6.426 -1.0696 -0.1985 -0.5192
 4954SOL     OW26497   1.671   0.353   3.008  0.1504  0.0098 -0.3050
 4954SOL    HW126498   1.607   0.292   3.047 -1.2402  1.5896 -0.1325
 4954SOL    HW226499   1.641   0.440   3.035  0.4714  0.3138 -0.9490
 4955SOL     OW26500   4.609   3.871   2.581  0.4129 -0.4232 -0.0378
 4955SOL    HW126501   4.598   3.954   2.533  0.9592 -0.2279  0.1768
 4955SOL    HW226502   4.533   3.850   2.636 -0.0094  0.0882 -0.4153
 4956SOL     OW26503   2.386   4.437  11.554  0.4713  0.0513  0.9857
 4956SOL    HW126504   2.353   4.456  11.466 -0.8337  3.1721  2.1595
 4956SOL    HW226505   2.479   4.456  11.543  0.8993 -2.1174  0.8272
 4957SOL     OW26506   2.500   0.871   4.993  0.0717  0.1152  0.5224
 4957SOL    HW126507   2.424   0.927   5.012  0.5877  1.1628 -0.4937
 4957SOL    HW226508   2.481   0.875   4.899 -0.7435  3.9879  0.8493
 4958SOL     OW26509   0.883   1.589  15.486  1.0022  0.1487  0.1976
 4958SOL    HW126510   0.960   1.623  15.531  1.0459  0.4809 -0.1322
 4958SOL    HW226511   0.920   1.584  15.398  0.9425 -1.8734  0.2891
 4959SOL     OW26512   1.498   0.162   2.305 -0.5340 -0.1408  0.1705
 4959SOL    HW126513   1.507   0.121   2.391 -3.4019  0.4612  0.7537
 4959SOL    HW226514   1.565   0.123   2.248 -0.5171  3.2015 -2.1100
 4960SOL     OW26515   1.080   3.446  15.122  0.1770 -0.5538  0.1797
 4960SOL    HW126516   1.042   3.425  15.208  0.1720 -0.5659  0.1745
 4960SOL    HW226517   1.085   3.542  15.127 -4.3412 -0.2506 -1.8740
 4961SOL     OW26518   1.875   2.152   2.896  0.1703  0.0704 -0.5445
 4961SOL    HW126519   1.970   2.161   2.897  0.2263 -0.6109  0.2086
 4961SOL    HW226520   1.848   2.061   2.905 -0.4171  0.1871 -1.0698
 4962SOL     OW26521   3.163   2.713   4.047  0.9083 -0.0645  0.0493
 4962SOL    HW126522   3.256   2.706   4.026  0.9228 -1.1252  0.4580
 4962SOL    HW226523   3.132   2.626   4.021  1.5794 -0.0448 -0.8336
 4963SOL     OW26524   1.324   1.402   3.271  0.2060  0.2574  0.1656
 4963SOL    HW126525   1.284   1.350   3.340 -1.6548 -1.3187 -2.1072
 4963SOL    HW226526   1.417   1.385   3.262 -0.1142 -1.2218 -0.2660
 4964SOL     OW26527   3.840   1.210   3.175 -0.8325 -0.4324 -0.4787
 4964SOL    HW126528   3.896   1.164   3.238 -1.5808  1.4616  1.5936
 4964SOL    HW226529   3.859   1.302   3.194  2.4188 -1.2561  0.2943
 4965SOL     OW26530   2.685   3.286  14.771  0.4605  0.8203 -0.4259
 4965SOL    HW126531   2.661   3.278  14.679 -0.3374 -0.1001 -0.1320
 4965SOL    HW226532   2.777   3.263  14.757  1.5408  4.9625 -0.1312
 4966SOL     OW26533   4.329   1.778   8.638  0.4911 -0.3576  0.1026
 4966SOL    HW126534   4.365   1.859   8.604  0.0311  0.5679  1.8053
 4966SOL    HW226535   4.237   1.791   8.616  0.0557 -0.9001  1.5633
 4967SOL     OW26536   4.343   3.727   0.313  0.3063 -0.3181 -0.0450
 4967SOL    HW126537   4.412   3.663   0.300 -0.2996 -0.7307 -1.2262
 4967SOL    HW226538   4.391   3.803   0.347  0.5548 -1.2385  1.6720
 4968SOL     OW26539   3.987   0.882   7.471  0.3745  0.3955 -0.3335
 4968SOL    HW126540   3.896   0.865   7.446 -0.2018  0.4953  1.7703
 4968SOL    HW226541   3.978   0.958   7.527  0.5834  0.2883 -0.1530
 4969SOL     OW26542   4.441   1.025  12.629 -0.1521 -0.2634  0.1140
 4969SOL    HW126543   4.488   0.988  12.704  0.3840 -3.2911 -1.7102
 4969SOL    HW226544   4.353   1.009  12.662 -0.9456  1.8546 -0.9668
 4970SOL     OW26545   0.424   2.134   1.057  0.2656 -0.1541  0.6882
 4970SOL    HW126546   0.333   2.104   1.047  0.7811 -0.9477 -1.5679
 4970SOL    HW226547   0.468   2.112   0.975  1.6963  1.4376  1.0338
 4971SOL     OW26548   2.743   1.205   3.158  0.2968  0.1219  0.0431
 4971SOL    HW126549   2.832   1.240   3.167 -0.3059  1.6958 -0.2124
 4971SOL    HW226550   2.762   1.113   3.138 -0.6224 -0.2475  0.8490
 4972SOL     OW26551   0.482   2.625   9.610 -0.7935 -0.3731  0.2353
 4972SOL    HW126552   0.415   2.654   9.548  1.3386 -0.8267 -2.3281
 4972SOL    HW226553   0.512   2.707   9.647 -0.7173  0.1168 -0.8936
 4973SOL     OW26554   4.666   3.663  12.722  0.0500 -0.0998  0.3292
 4973SOL    HW126555   0.012   3.691  12.676 -0.3936 -1.7094 -1.4339
 4973SOL    HW226556   4.619   3.743  12.744  1.1074  0.6611 -0.1892
 4974SOL     OW26557   3.296   1.238   8.248 -0.3033  0.2901 -0.5751
 4974SOL    HW126558   3.388   1.218   8.268 -0.7773  2.0338  3.1372
 4974SOL    HW226559   3.250   1.238   8.331 -0.3413 -0.7879 -0.6002
 4975SOL     OW26560   2.246   2.580   5.970 -0.0623 -0.0628  0.3969
 4975SOL    HW126561   2.197   2.586   6.052 -1.0192 -3.4178  0.0618
 4975SOL    HW226562   2.190   2.525   5.915  0.3800  1.2598 -1.3760
 4976SOL     OW26563   2.290   2.444  10.926  0.0760  0.1701  0.5601
 4976SOL    HW126564   2.345   2.382  10.878  0.0773  1.1019 -0.6416
 4976SOL    HW226565   2.361   2.501  10.956 -1.0208  2.6098 -1.5818
 4977SOL     OW26566   0.498   0.054  15.770 -0.7439 -0.1845 -0.5918
 4977SOL    HW126567   0.490   0.124  15.834 -1.4025 -0.6322 -0.1811
 4977SOL    HW226568   0.528   0.101  15.693  0.0645  0.9279  0.4013
 4978SOL     OW26569   2.148   1.423  17.550  0.1484 -0.1015  0.5811
 4978SOL    HW126570   2.143   1.502  17.497  0.3617  0.9241  2.0728
 4978SOL    HW226571   2.219   1.376  17.506  1.0747  0.1624  1.7844
 4979SOL     OW26572   1.852   0.326   7.990 -0.2105  0.1940  0.0626
 4979SOL    HW126573   1.805   0.392   8.041 -0.9023  0.0182 -0.3529
 4979SOL    HW226574   1.823   0.245   8.032 -0.6913  0.5111  0.3396
 4980SOL     OW26575   4.310   2.616  10.880 -0.5658 -0.3329  0.2753
 4980SOL    HW126576   4.383   2.583  10.828 -1.4618 -1.2070 -0.4220
 4980SOL    HW226577   4.329   2.564  10.959 -1.8113  0.7073  1.2670
 4981SOL     OW26578   2.974   0.281   4.454 -0.4505 -0.4320  0.7355
 4981SOL    HW126579   3.030   0.349   4.417 -0.1003 -0.7405  0.6974
 4981SOL    HW226580   3.020   0.208   4.412  0.1351  0.0695  0.4904
 4982SOL     OW26581   3.836   2.739   5.681 -0.2737  0.5065  0.1666
 4982SOL    HW126582   3.892   2.749   5.605 -0.6249  1.6251  0.0582
 4982SOL    HW226583   3.797   2.826   5.676  1.0053  1.0366 -0.5097
 4983SOL     OW26584   1.648   1.329   5.328  0.3793 -0.1175  0.1018
 4983SOL    HW126585   1.641   1.420   5.356 -2.8795 -0.4096  0.1515
 4983SOL    HW226586   1.585   1.319   5.257  0.1590 -0.4549  0.3417
 4984SOL     OW26587   3.383   1.708   4.984  0.1496 -0.0135  0.0780
 4984SOL    HW126588   3.425   1.648   4.922 -0.4627 -0.5084  0.1412
 4984SOL    HW226589   3.420   1.790   4.952 -0.2856 -0.6977 -2.2140
 4985SOL     OW26590   4.568   4.131   6.303  0.5341 -0.5637 -0.6197
 4985SOL    HW126591   4.663   4.121   6.300  0.3014 -2.2143 -1.9212
 4985SOL    HW226592   4.562   4.195   6.374 -0.8579  1.1153 -2.2415
 4986SOL     OW26593   1.514   4.596   2.391  0.0529 -0.0035  0.1181
 4986SOL    HW126594   1.434   4.549   2.413 -0.6552  1.6537  1.0672
 4986SOL    HW226595   1.579   4.526   2.399 -1.4925 -1.6497 -1.7920
 4987SOL     OW26596   2.900   1.523   0.795  0.1895  0.0922 -0.0555
 4987SOL    HW126597   2.960   1.588   0.832 -2.8224  2.1221  1.2399
 4987SOL    HW226598   2.898   1.547   0.703 -1.1570 -2.3528 -0.6631
 4988SOL     OW26599   2.443   1.288   4.004 -0.3422  0.2572  0.3151
 4988SOL    HW126600   2.526   1.252   3.972 -1.2710 -1.5983  0.0227
 4988SOL    HW226601   2.381   1.291   3.932 -0.5784 -1.2143  0.4628
 4989SOL     OW26602   0.073   0.859   4.339  0.7846 -0.0858  0.2783
 4989SOL    HW126603   0.032   0.821   4.262  2.0842  0.7736 -0.8532
 4989SOL    HW226604   0.018   0.825   4.410 -0.2548  0.9009 -0.0581
 4990SOL     OW26605   0.836   2.360   2.154 -0.4948  0.0563 -0.4770
 4990SOL    HW126606   0.786   2.436   2.182 -1.8850 -1.0355  0.0080
 4990SOL    HW226607   0.836   2.299   2.228  2.0994  1.2202  0.4870
 4991SOL     OW26608   3.175   2.646   1.036 -0.1570 -0.9361 -0.2586
 4991SOL    HW126609   3.238   2.672   0.969  0.2594 -0.1052  0.4643
 4991SOL    HW226610   3.099   2.703   1.022  1.3028  1.1651  0.3473
 4992SOL     OW26611   1.930   4.236  14.297  0.0758  0.0376 -0.6692
 4992SOL    HW126612   2.016   4.243  14.256  0.3939 -0.2754 -0.0544
 4992SOL    HW226613   1.893   4.161  14.251  0.2708 -1.7866  2.1341
 4993SOL     OW26614   0.034   0.425   6.994  0.0028  0.1225 -0.2510
 4993SOL    HW126615   0.013   0.476   7.073  1.5153  0.6974 -0.2384
 4993SOL    HW226616   4.690   0.454   6.945 -0.0517  1.3828  0.5691
 4994SOL     OW26617   1.747   1.261   2.838  0.1002 -1.0342 -0.3159
 4994SOL    HW126618   1.819   1.208   2.873  0.5552 -0.0706  0.2365
 4994SOL    HW226619   1.770   1.247   2.746 -2.4257 -1.8300 -0.8202
 4995SOL     OW26620   2.609   0.895   2.109 -0.6340  0.8180 -0.4944
 4995SOL    HW126621   2.615   0.987   2.084 -0.7563  1.4416  1.7986
 4995SOL    HW226622   2.698   0.875   2.138 -0.0859  1.3731 -1.7861
 4996SOL     OW26623   2.938   0.642   3.178  0.2681  0.0677  0.8549
 4996SOL    HW126624   3.024   0.675   3.201 -0.4736  1.6543  1.3670
 4996SOL    HW226625   2.893   0.644   3.263 -0.4070 -1.8660  0.5489
 4997SOL     OW26626   3.878   3.493  11.181 -0.4754  0.1253  0.2920
 4997SOL    HW126627   3.795   3.450  11.204 -0.2836  0.5128  1.6937
 4997SOL    HW226628   3.934   3.448  11.244 -0.4637  0.5158  0.5572
 4998SOL     OW26629   2.083   3.403   5.454  0.2129 -0.1801 -0.6874
 4998SOL    HW126630   2.096   3.320   5.407 -0.2625 -0.4160 -0.4138
 4998SOL    HW226631   2.025   3.371   5.524 -2.1189 -2.3121 -3.5620
 4999SOL     OW26632   0.313   2.556   5.781 -0.3908 -0.3524 -0.3221
 4999SOL    HW126633   0.240   2.529   5.836  0.0562 -0.3666  0.2571
 4999SOL    HW226634   0.292   2.520   5.695 -0.3416  1.5682 -1.1481
 5000SOL     OW26635   2.372   0.289  11.543  0.5455  0.1451  0.6354
 5000SOL    HW126636   2.386   0.195  11.537  0.8099  0.1519  1.1733
 5000SOL    HW226637   2.456   0.306  11.586  0.0101 -0.4303  1.9067
 5001SOL     OW26638   1.814   2.068   6.871  0.6195  0.4128  0.0933
 5001SOL    HW126639   1.754   2.142   6.857  0.8100  0.1137 -2.3044
 5001SOL    HW226640   1.840   2.045   6.782  1.5658 -0.7497  0.6801
 5002SOL     OW26641   4.324   4.144   6.186  0.1952  0.3174  0.0120
 5002SOL    HW126642   4.260   4.108   6.247 -0.4011 -0.3789 -1.0352
 5002SOL    HW226643   4.410   4.139   6.228 -0.3329  0.8241  1.1382
 5003SOL     OW26644   3.667   1.237  12.248  0.0345 -0.1305  0.1317
 5003SOL    HW126645   3.606   1.243  12.321  0.4219 -1.1111  0.5479
 5003SOL    HW226646   3.618   1.193  12.179 -0.3939 -1.4160  1.2481
 5004SOL     OW26647   2.578   1.030   5.431 -0.0139  0.8984  0.1280
 5004SOL    HW126648   2.492   1.069   5.416  0.6394  1.7943 -1.2934
 5004SOL    HW226649   2.565   0.945   5.387 -0.5706  1.2876 -0.4602
 5005SOL     OW26650   1.217   3.123   4.159  0.2971 -0.0319  0.2337
 5005SOL    HW126651   1.232   3.179   4.083  1.7753  0.4281  0.8658
 5005SOL    HW226652   1.256   3.047   4.115  1.3372 -0.2983  1.5958
 5006SOL     OW26653   3.164   4.610   1.928  0.3657 -0.4047 -0.3675
 5006SOL    HW126654   3.227   4.681   1.916 -2.0529  1.8896  0.3583
 5006SOL    HW226655   3.212   4.534   1.960  0.2935 -0.3055 -0.0158
 5007SOL     OW26656   4.528   1.157   8.193 -0.4335 -0.4521 -0.7898
 5007SOL    HW126657   4.586   1.222   8.154 -0.5208  0.3831  0.4430
 5007SOL    HW226658   4.584   1.081   8.178 -0.0441 -0.0722 -1.2432
 5008SOL     OW26659   0.638   4.502   7.499  0.1056  0.2923  0.0587
 5008SOL    HW126660   0.683   4.420   7.521  0.7775  1.2269  2.0873
 5008SOL    HW226661   0.700   4.550   7.445  1.3303 -1.6731 -0.2867
 5009SOL     OW26662   0.993   4.309  16.104  0.5635 -0.1379 -0.0878
 5009SOL    HW126663   1.048   4.279  16.032 -0.5129  1.3601 -1.5479
 5009SOL    HW226664   0.919   4.340  16.052 -1.0459 -2.3066  0.8932
 5010SOL     OW26665   2.099   0.069   2.710  0.3225 -0.7354 -0.1645
 5010SOL    HW126666   2.183   0.033   2.738 -0.0762 -1.8272 -0.4029
 5010SOL    HW226667   2.045   0.017   2.770  0.0825  0.0119  0.2797
 5011SOL     OW26668   1.388   0.534   2.544 -0.1023 -0.0494 -1.1379
 5011SOL    HW126669   1.321   0.466   2.538  1.5240 -1.6339 -1.5376
 5011SOL    HW226670   1.405   0.540   2.638 -0.3213  1.3758 -1.1908
 5012SOL     OW26671   4.206   1.786   5.487  0.1517 -0.4464  0.0648
 5012SOL    HW126672   4.172   1.853   5.546  1.3979 -0.1119  0.3958
 5012SOL    HW226673   4.184   1.817   5.399 -0.6483  0.7904  0.6930
 5013SOL     OW26674   4.544   3.817   5.538  0.3330  0.2317  0.1969
 5013SOL    HW126675   4.558   3.893   5.596  2.4141 -2.4656  3.2554
 5013SOL    HW226676   4.512   3.850   5.455  1.6179  1.8325  0.3222
 5014SOL     OW26677   2.736   1.134   4.731 -0.4375 -0.8081  0.2968
 5014SOL    HW126678   2.733   1.106   4.640 -1.3832  0.3278 -0.0219
 5014SOL    HW226679   2.651   1.178   4.734  0.0818  0.1362  1.4095
 5015SOL     OW26680   3.899   0.599  12.065  0.1984 -0.1250  0.3034
 5015SOL    HW126681   3.913   0.677  12.118 -0.6735 -0.1207  0.5346
 5015SOL    HW226682   3.900   0.530  12.132  0.1060 -1.9130 -1.5323
 5016SOL     OW26683   0.020   4.397   4.925  0.2438  0.4075  0.0194
 5016SOL    HW126684   0.008   4.485   4.960 -0.6477 -0.0676  0.9047
 5016SOL    HW226685   0.095   4.360   4.971  0.0758  1.2243  0.9405
 5017SOL     OW26686   0.624   4.653   2.102  0.6834  0.0452 -0.7573
 5017SOL    HW126687   0.585   4.593   2.166  0.6020  1.2831  0.3533
 5017SOL    HW226688   0.716   4.639   2.124  0.6215  1.7747  0.5942
 5018SOL     OW26689   2.810   0.739   5.235 -0.1053  0.0079 -0.2646
 5018SOL    HW126690   2.896   0.778   5.250 -0.9970  1.9205 -0.1099
 5018SOL    HW226691   2.766   0.810   5.189  0.4886  0.3906 -0.2399
 5019SOL     OW26692   1.676   3.198   4.790 -0.1265  0.6921  0.1909
 5019SOL    HW126693   1.599   3.156   4.751 -1.4614  0.7987  2.6667
 5019SOL    HW226694   1.728   3.208   4.711 -0.9782 -0.7653 -0.5544
 5020SOL     OW26695   2.551   2.344   3.552 -0.3367 -0.1840 -0.4629
 5020SOL    HW126696   2.643   2.355   3.577  0.3458  0.0065 -2.9582
 5020SOL    HW226697   2.562   2.344   3.456  0.3671 -1.5348 -0.3791
 5021SOL     OW26698   0.387   0.031   5.116 -0.0285 -0.4411 -0.0792
 5021SOL    HW126699   0.447   4.722   5.178  0.3208 -3.1299 -2.2584
 5021SOL    HW226700   0.309   4.717   5.146 -0.6888  0.9204  0.3311
 5022SOL     OW26701   2.931   2.264  14.821  0.7321  0.1685  0.1243
 5022SOL    HW126702   2.875   2.224  14.754  0.5471  1.6500 -0.6126
 5022SOL    HW226703   2.966   2.347  14.787  1.0917 -0.3971 -0.8618
 5023SOL     OW26704   3.085   0.503   5.327  0.4716  0.0965 -0.1011
 5023SOL    HW126705   3.058   0.413   5.308 -1.8999  0.7182  0.3044
 5023SOL    HW226706   3.177   0.501   5.302  0.9858 -0.5443  1.8160
 5024SOL     OW26707   0.166   4.362   5.239 -0.3738  0.8846 -0.4262
 5024SOL    HW126708   0.257   4.360   5.271 -0.3850 -1.2231 -0.5505
 5024SOL    HW226709   0.172   4.317   5.155 -0.9695 -1.9856  1.0660
 5025SOL     OW26710   2.338   0.724  15.168 -0.5859 -0.0040  0.6207
 5025SOL    HW126711   2.257   0.766  15.196 -1.8744 -1.7982 -0.4485
 5025SOL    HW226712   2.306   0.634  15.178  1.3469 -0.8045 -0.4179
 5026SOL     OW26713   3.340   4.666   5.159 -0.5643  0.3742  0.0798
 5026SOL    HW126714   3.408   4.732   5.172 -0.3670 -0.3717  3.0415
 5026SOL    HW226715   3.258   4.701   5.195 -1.0980  0.4470 -1.2285
 5027SOL     OW26716   0.370   4.067  15.034 -0.6949  0.2093  0.6087
 5027SOL    HW126717   0.310   4.018  14.977  0.3749 -0.0639 -0.2750
 5027SOL    HW226718   0.327   4.038  15.115  1.1658 -1.2684  1.0594
 5028SOL     OW26719   2.667   3.173   6.010  0.0602  0.0166  0.1665
 5028SOL    HW126720   2.661   3.169   6.106  1.6137 -1.5203  0.1944
 5028SOL    HW226721   2.721   3.099   5.984 -1.9379 -1.3814 -0.0398
 5029SOL     OW26722   4.663   4.167  14.845 -0.1018 -0.2918 -0.3340
 5029SOL    HW126723   4.619   4.245  14.809 -0.6684 -0.5289 -0.1614
 5029SOL    HW226724   0.013   4.210  14.865  0.0179 -0.5709 -0.2325
 5030SOL     OW26725   3.973   3.708   4.469  0.0904  0.5843  1.1835
 5030SOL    HW126726   4.022   3.710   4.387  0.6403  2.2137  1.5584
 5030SOL    HW226727   3.935   3.621   4.453  0.5397  0.7905 -0.8873
 5031SOL     OW26728   3.818   4.389   5.611 -0.0708  0.0757 -0.0192
 5031SOL    HW126729   3.734   4.361   5.646 -0.7321  0.8366 -0.9729
 5031SOL    HW226730   3.839   4.466   5.664 -0.7287 -0.2813  0.7495
 5032SOL     OW26731   2.176   3.373  12.689  0.0101 -0.0231  0.6932
 5032SOL    HW126732   2.125   3.419  12.622  0.0729  1.6718  1.8093
 5032SOL    HW226733   2.249   3.431  12.708  0.1887  0.1217 -0.4323
 5033SOL     OW26734   1.613   3.224   9.536  0.3483 -0.1331  0.0502
 5033SOL    HW126735   1.518   3.216   9.528  0.3423 -1.8712  1.8796
 5033SOL    HW226736   1.642   3.200   9.448 -1.8726  0.3798 -0.8141
 5034SOL     OW26737   1.171   1.476  16.317 -0.2001 -0.4517  0.3051
 5034SOL    HW126738   1.094   1.441  16.361 -1.1556  1.7127  0.3269
 5034SOL    HW226739   1.129   1.486  16.232  1.3246  0.8978 -0.3034
 5035SOL     OW26740   1.829   3.609   0.483  0.1381  0.2072  0.0325
 5035SOL    HW126741   1.925   3.613   0.486  0.0233  1.6752  1.4156
 5035SOL    HW226742   1.802   3.688   0.530 -0.7613 -1.6682  2.6425
 5036SOL     OW26743   2.344   1.345   0.123  0.0670  0.3277 -0.4208
 5036SOL    HW126744   2.314   1.275   0.066  0.2906 -1.6664  1.9213
 5036SOL    HW226745   2.268   1.401   0.142 -1.1585 -0.4984 -2.9265
 5037SOL     OW26746   4.576   1.447   5.687 -0.2781  0.2018 -0.5510
 5037SOL    HW126747   4.498   1.498   5.665 -0.0008  0.8594 -0.0125
 5037SOL    HW226748   4.534   1.394   5.755 -1.4462 -1.8382 -2.8586
 5038SOL     OW26749   4.014   1.237   4.836 -0.1440 -0.3557  0.4251
 5038SOL    HW126750   4.011   1.251   4.741 -0.3906 -1.0826  0.3256
 5038SOL    HW226751   3.929   1.196   4.847 -0.4699  0.1489 -0.2064
 5039SOL     OW26752   2.807   2.515   6.387  0.7625 -0.3740 -0.0156
 5039SOL    HW126753   2.895   2.491   6.414  0.4539 -0.3823  1.0062
 5039SOL    HW226754   2.758   2.434   6.398  1.6850 -0.8689  0.4398
 5040SOL     OW26755   0.308   3.538   2.238  0.0255 -0.1493  0.0363
 5040SOL    HW126756   0.249   3.497   2.175 -0.6102  0.2615  0.3621
 5040SOL    HW226757   0.248   3.559   2.310 -0.9546 -0.4339 -0.6911
 5041SOL     OW26758   1.798   3.142   7.730 -0.2472 -0.2175 -0.2432
 5041SOL    HW126759   1.843   3.225   7.714 -1.2503  0.4312  0.2966
 5041SOL    HW226760   1.712   3.160   7.691 -1.1033  0.1843  1.8221
 5042SOL     OW26761   1.677   2.269   6.269  0.1277 -0.5457  0.0865
 5042SOL    HW126762   1.754   2.285   6.216  0.1979 -1.3976 -0.0733
 5042SOL    HW226763   1.622   2.218   6.209  0.0272 -2.2245  1.5721
 5043SOL     OW26764   4.248   2.820   4.568 -0.0298  0.3058 -0.4564
 5043SOL    HW126765   4.156   2.837   4.549 -0.9491 -1.4326  2.5790
 5043SOL    HW226766   4.255   2.725   4.573  0.6015  0.3206 -1.1011
 5044SOL     OW26767   2.464   4.221   7.143  0.2324 -0.1240 -0.2064
 5044SOL    HW126768   2.522   4.233   7.218 -1.4715  3.0580  0.6182
 5044SOL    HW226769   2.524   4.203   7.071  0.2246  0.0437 -0.2537
 5045SOL     OW26770   0.828   1.300   7.963  0.2122  0.1974  0.1747
 5045SOL    HW126771   0.810   1.256   7.880  0.3215 -1.6308  1.1188
 5045SOL    HW226772   0.788   1.232   8.017  1.0198 -0.9929 -0.7320
 5046SOL     OW26773   1.641   2.979   6.189  0.7133  0.0277 -0.2399
 5046SOL    HW126774   1.548   3.000   6.177  1.0022  1.6655  0.4599
 5046SOL    HW226775   1.652   2.948   6.279 -3.7587 -0.8014  0.0086
 5047SOL     OW26776   2.178   4.492   3.921  0.0164  0.1364  0.4357
 5047SOL    HW126777   2.136   4.411   3.891  1.8066 -1.2512  1.7129
 5047SOL    HW226778   2.224   4.455   3.996 -1.2197  1.2645  1.7351
 5048SOL     OW26779   1.132   0.606   7.918  0.0199  0.2474  0.2279
 5048SOL    HW126780   1.207   0.641   7.870  0.3279 -0.7163  0.0024
 5048SOL    HW226781   1.066   0.650   7.865 -0.3359 -2.6560 -1.6919
 5049SOL     OW26782   3.489   3.424  15.777  0.4162  0.0234 -0.0235
 5049SOL    HW126783   3.451   3.343  15.742  2.2246 -0.7613 -0.1372
 5049SOL    HW226784   3.448   3.431  15.864  1.4165  1.9241  0.2799
 5050SOL     OW26785   3.638   4.383   8.069 -0.1755  0.2503 -0.0575
 5050SOL    HW126786   3.571   4.451   8.084 -0.1729  0.4754 -1.1147
 5050SOL    HW226787   3.657   4.358   8.160 -1.1274 -0.5508 -0.0710
 5051SOL     OW26788   1.223   1.944   4.998  0.0938 -0.0527  0.5515
 5051SOL    HW126789   1.254   2.028   5.031  1.5092 -0.9936  1.6309
 5051SOL    HW226790   1.302   1.906   4.961  0.1925 -0.5711  1.2960
 5052SOL     OW26791   3.458   0.544  15.992  0.1185  0.4851 -0.0425
 5052SOL    HW126792   3.404   0.575  16.065 -0.4875  0.8631 -0.6447
 5052SOL    HW226793   3.539   0.523  16.037  0.4394 -1.0605 -1.3399
 5053SOL     OW26794   3.889   0.622   7.232  0.4578 -0.0863 -0.0220
 5053SOL    HW126795   3.816   0.562   7.218  0.3612 -0.1003  0.5195
 5053SOL    HW226796   3.966   0.583   7.273 -0.5385 -0.1621  1.8091
 5054SOL     OW26797   2.441   1.618   9.669 -0.3616  0.1667 -0.0568
 5054SOL    HW126798   2.361   1.577   9.701  0.0437 -1.1244 -0.6678
 5054SOL    HW226799   2.433   1.606   9.575 -0.5084 -0.6671  0.0613
 5055SOL     OW26800   2.577   1.337   8.446 -0.1737  0.2203 -0.0306
 5055SOL    HW126801   2.512   1.396   8.409 -1.5806 -0.5007  1.2757
 5055SOL    HW226802   2.518   1.264   8.465  1.9266 -1.2575  0.8058
 5056SOL     OW26803   2.588   4.273   9.474  0.3484  0.3452  0.3635
 5056SOL    HW126804   2.561   4.217   9.547 -0.5123 -0.2587 -0.4133
 5056SOL    HW226805   2.677   4.240   9.463 -0.6466 -1.5263 -2.1813
 5057SOL     OW26806   3.457   3.951  11.308 -0.0215  0.3003 -0.0860
 5057SOL    HW126807   3.447   4.046  11.312 -1.0132  0.2712 -1.7196
 5057SOL    HW226808   3.493   3.920  11.392 -0.0186 -1.7720 -0.8560
 5058SOL     OW26809   0.266   2.328   8.569  0.2063  0.2722 -0.4906
 5058SOL    HW126810   0.317   2.247   8.568 -0.3074 -0.0471 -0.7474
 5058SOL    HW226811   0.301   2.375   8.645  0.1369  1.5003 -1.2212
 5059SOL     OW26812   1.110   3.265  17.363  0.5931 -0.7152  0.1177
 5059SOL    HW126813   1.052   3.332  17.328 -1.7049 -1.8592  1.7187
 5059SOL    HW226814   1.164   3.325  17.414 -0.8371  0.6295  0.0537
 5060SOL     OW26815   1.006   3.453   4.226  0.6202  0.0290 -0.2410
 5060SOL    HW126816   0.920   3.477   4.261  0.9653  1.6879 -0.5287
 5060SOL    HW226817   1.026   3.388   4.294 -2.6503 -0.6603  0.0366
 5061SOL     OW26818   1.913   2.596  12.769 -0.0949  0.2913  0.7464
 5061SOL    HW126819   1.823   2.606  12.737 -0.3505  0.9116  1.6550
 5061SOL    HW226820   1.939   2.688  12.775 -3.0240  1.1668  0.1882
 5062SOL     OW26821   3.526   3.017   8.161  0.1661 -0.2006  0.5549
 5062SOL    HW126822   3.475   3.022   8.243 -0.8322 -0.5225 -0.0480
 5062SOL    HW226823   3.610   3.003   8.205 -0.2458 -1.1276  1.0601
 5063SOL     OW26824   4.649   2.670   6.122  0.6614 -0.2413 -0.1293
 5063SOL    HW126825   4.577   2.713   6.167  0.9154  1.0156 -0.9370
 5063SOL    HW226826   4.594   2.598   6.092 -1.3474  1.4251 -0.4111
 5064SOL     OW26827   2.596   2.642   4.905  0.2163 -0.5027 -0.2005
 5064SOL    HW126828   2.667   2.585   4.875  0.9292  0.4917 -0.3990
 5064SOL    HW226829   2.646   2.705   4.957 -1.2963  0.1389  0.4771
 5065SOL     OW26830   1.606   0.934   5.751 -0.2501 -0.0007  0.0370
 5065SOL    HW126831   1.555   0.983   5.687 -0.2079  1.7406  1.3284
 5065SOL    HW226832   1.662   0.893   5.685 -0.7990 -0.2090 -0.2957
 5066SOL     OW26833   2.912   0.025   1.916  0.2814 -0.3641 -0.0230
 5066SOL    HW126834   2.984   4.695   1.907  0.5098 -0.1938  0.6543
 5066SOL    HW226835   2.835   4.705   1.935 -1.2612  1.1942 -1.8838
 5067SOL     OW26836   4.391   1.802   5.113  0.5146  0.5493 -0.3892
 5067SOL    HW126837   4.383   1.758   5.029 -0.8765 -0.4162  0.2464
 5067SOL    HW226838   4.399   1.891   5.079 -0.1914  0.2146 -1.4210
 5068SOL     OW26839   1.517   2.866   3.977 -0.1213 -0.4345  0.3465
 5068SOL    HW126840   1.537   2.957   3.954 -2.3214  0.0658  0.3321
 5068SOL    HW226841   1.535   2.858   4.070  0.2882  0.3594  0.3412
 5069SOL     OW26842   3.651   2.602   4.274  0.0921  0.1599  0.8024
 5069SOL    HW126843   3.728   2.658   4.263 -0.5241  0.9255  0.3912
 5069SOL    HW226844   3.691   2.516   4.285  1.6691  0.8111  0.1380
 5070SOL     OW26845   2.020   0.242   9.434  0.1089  0.8002  0.6389
 5070SOL    HW126846   2.091   0.186   9.468 -1.1117 -0.9113  0.3541
 5070SOL    HW226847   2.017   0.317   9.494  0.9458  0.3499  1.2482
 5071SOL     OW26848   4.584   2.428  16.339 -0.2212 -0.0876 -0.4713
 5071SOL    HW126849   4.615   2.401  16.425 -0.1469  0.6945 -0.2604
 5071SOL    HW226850   4.658   2.472  16.298 -0.2634  0.0668 -0.3814
 5072SOL     OW26851   3.798   4.717   2.056  0.2175 -0.2550  0.1857
 5072SOL    HW126852   3.877   4.672   2.083  1.4836  0.8437 -1.6387
 5072SOL    HW226853   3.821   0.010   1.967 -0.7259  0.4703  0.1486
 5073SOL     OW26854   3.784   3.547   5.043 -0.0832  0.1885  0.1281
 5073SOL    HW126855   3.857   3.601   5.073  1.5524 -1.9156 -0.0485
 5073SOL    HW226856   3.725   3.561   5.118  0.0293 -0.4063  0.3280
 5074SOL     OW26857   4.474   2.584  14.945  0.3930  0.7827  0.1135
 5074SOL    HW126858   4.512   2.672  14.949 -1.0493  1.5119 -1.7280
 5074SOL    HW226859   4.447   2.582  15.037 -0.1751  0.6698 -0.0566
 5075SOL     OW26860   3.755   1.525   8.782 -0.2132 -0.3137 -0.0712
 5075SOL    HW126861   3.742   1.447   8.836  0.0103  0.0575  0.5243
 5075SOL    HW226862   3.807   1.585   8.837  1.2497 -1.0723 -0.6530
 5076SOL     OW26863   3.410   2.319  14.038 -0.5093  0.0380  0.5633
 5076SOL    HW126864   3.495   2.275  14.038 -0.8261 -0.5706  0.0012
 5076SOL    HW226865   3.359   2.271  13.972 -1.9480  1.1158  0.8961
 5077SOL     OW26866   1.660   0.593   5.382  0.0980  0.4400  0.6515
 5077SOL    HW126867   1.723   0.577   5.312 -1.6512  1.6155 -1.1898
 5077SOL    HW226868   1.687   0.683   5.403  1.6979 -0.2816  1.7269
 5078SOL     OW26869   1.898   0.025   3.383  0.2091  0.1056 -0.0954
 5078SOL    HW126870   1.920   0.064   3.298 -2.0499 -0.2200 -0.8266
 5078SOL    HW226871   1.840   0.090   3.423  1.1347  0.8849 -0.0211
 5079SOL     OW26872   2.407   3.086   4.451 -0.3365 -0.1136 -0.1405
 5079SOL    HW126873   2.405   3.168   4.499  0.1155 -0.7125  0.8888
 5079SOL    HW226874   2.492   3.055   4.481 -0.8481 -0.7140  0.6835
 5080SOL     OW26875   4.584   1.522   4.180  0.0216  0.0086  0.0532
 5080SOL    HW126876   4.629   1.468   4.116  1.2793  0.8439  0.2299
 5080SOL    HW226877   4.590   1.609   4.141  0.2863  0.2122  0.5391
 5081SOL     OW26878   1.984   3.835  10.130  0.1773  0.2056  0.0992
 5081SOL    HW126879   1.923   3.842  10.203  0.6877  1.2472  0.4105
 5081SOL    HW226880   2.061   3.799  10.172 -0.2338  2.1128  2.4789
 5082SOL     OW26881   1.387   0.104   0.721 -0.2821 -0.4758 -0.1577
 5082SOL    HW126882   1.402   0.198   0.720 -2.6359 -0.1047 -0.7388
 5082SOL    HW226883   1.292   0.096   0.730 -0.1081 -3.7249 -1.0732
 5083SOL     OW26884   0.568   4.051   8.382 -0.3791 -0.3467  0.2698
 5083SOL    HW126885   0.514   3.987   8.429  0.0611 -0.5985  0.4346
 5083SOL    HW226886   0.506   4.123   8.397  0.9308  1.1582 -1.6604
 5084SOL     OW26887   2.704   1.249   1.742 -0.0498  0.1788 -0.1722
 5084SOL    HW126888   2.663   1.298   1.813 -1.7006 -0.2595 -0.8189
 5084SOL    HW226889   2.626   1.210   1.703 -1.5661  1.1652  1.8272
 5085SOL     OW26890   2.937   2.066   3.383  0.9626 -0.5582 -0.1844
 5085SOL    HW126891   3.014   2.027   3.341  1.8758  1.7656 -0.6704
 5085SOL    HW226892   2.899   1.983   3.410 -2.2714  0.2724 -2.1162
 5086SOL     OW26893   2.625   4.382   4.110 -0.5334  0.2109 -0.0633
 5086SOL    HW126894   2.631   4.399   4.016  1.0229 -0.0830 -0.0239
 5086SOL    HW226895   2.685   4.308   4.114  2.2917  2.6032  1.7806
 5087SOL     OW26896   4.626   0.434   6.446 -0.8489  0.2489 -0.0194
 5087SOL    HW126897   4.685   0.359   6.448  1.0233  1.7285 -0.1098
 5087SOL    HW226898   4.560   0.407   6.510 -0.6753 -0.4159 -0.1274
 5088SOL     OW26899   3.697   1.989   7.845  0.3069 -0.5026 -0.3716
 5088SOL    HW126900   3.722   1.958   7.932  2.6461  2.2957 -0.0421
 5088SOL    HW226901   3.614   2.033   7.865  0.2329 -0.0483 -1.6719
 5089SOL     OW26902   2.277   4.476   8.550 -0.0955 -0.0323 -1.1674
 5089SOL    HW126903   2.358   4.466   8.500  1.2388  2.4209  0.4737
 5089SOL    HW226904   2.242   4.389   8.528 -0.3848  0.4418 -2.5537
 5090SOL     OW26905   0.391   1.080  13.282 -0.1975  0.4038 -0.7607
 5090SOL    HW126906   0.364   1.168  13.258 -1.2604  0.1943 -0.3384
 5090SOL    HW226907   0.478   1.095  13.318 -0.2997 -1.0946  0.1179
 5091SOL     OW26908   3.761   1.095   6.886  0.7206  0.3786 -0.0997
 5091SOL    HW126909   3.742   1.188   6.874 -3.9097 -0.8244 -1.8491
 5091SOL    HW226910   3.711   1.058   6.814  1.5611 -0.1469 -0.4175
 5092SOL     OW26911   1.249   1.445   1.525 -0.5978  0.1371 -0.5052
 5092SOL    HW126912   1.307   1.517   1.546 -1.0109  0.4109 -0.3184
 5092SOL    HW226913   1.240   1.396   1.607 -1.8151  2.3665  0.6906
 5093SOL     OW26914   0.814   4.170   0.031 -0.1170  0.1408  0.3131
 5093SOL    HW126915   0.906   4.150   0.049 -0.5713 -1.4271  0.8894
 5093SOL    HW226916   0.776   4.083   0.048  2.5084 -0.4141  3.1921
 5094SOL     OW26917   1.257   3.751  15.523  0.4300  0.4375  0.4821
 5094SOL    HW126918   1.214   3.801  15.453  0.5113 -0.5300 -0.2522
 5094SOL    HW226919   1.292   3.827  15.568 -0.1969  1.0819 -0.1050
 5095SOL     OW26920   0.663   3.707  16.827  0.2865  0.4568  0.2958
 5095SOL    HW126921   0.578   3.738  16.860 -0.5763 -2.4618  0.7949
 5095SOL    HW226922   0.711   3.780  16.866  1.4144  0.7283 -1.6288
 5096SOL     OW26923   1.710   3.751   3.428  0.0594  0.2748 -0.0935
 5096SOL    HW126924   1.627   3.757   3.476  0.5596 -2.6117  1.1371
 5096SOL    HW226925   1.706   3.823   3.365  1.6884  0.4248 -0.0225
 5097SOL     OW26926   2.845   2.808   4.698  0.5378  0.3451  0.6003
 5097SOL    HW126927   2.804   2.758   4.627 -2.5396  3.0870  0.4098
 5097SOL    HW226928   2.827   2.743   4.765 -1.1529 -0.2635 -0.4363
 5098SOL     OW26929   0.107   4.558   2.243 -0.1517  0.3942 -0.3593
 5098SOL    HW126930   0.098   4.652   2.261 -0.5915  0.1076  0.8966
 5098SOL    HW226931   0.017   4.531   2.231  0.1351 -0.2795 -0.9695
 5099SOL     OW26932   1.475   3.412  15.892 -0.3349 -0.4056  0.4668
 5099SOL    HW126933   1.529   3.453  15.961  1.1315 -0.8399 -0.4206
 5099SOL    HW226934   1.460   3.486  15.833  1.1248 -0.1658  0.3880
 5100SOL     OW26935   1.580   2.754   4.601  0.0216 -0.2903  0.4764
 5100SOL    HW126936   1.486   2.769   4.611  0.1379  1.3214 -0.8609
 5100SOL    HW226937   1.598   2.660   4.597 -0.3127 -0.3696  0.7708
 5101SOL     OW26938   0.646   3.367   5.802 -0.6131 -0.3649  0.4666
 5101SOL    HW126939   0.614   3.396   5.716  0.1118  1.3924  0.8046
 5101SOL    HW226940   0.577   3.401   5.858 -0.8150 -0.4310  0.2611
 5102SOL     OW26941   4.637   4.221   6.774 -0.6504  0.3166 -0.4050
 5102SOL    HW126942   4.564   4.268   6.815  0.0784  1.8281 -0.8274
 5102SOL    HW226943   4.604   4.220   6.684 -0.0443  0.0482 -0.6206
 5103SOL     OW26944   3.789   2.839   4.190  0.7492  0.4313 -0.3120
 5103SOL    HW126945   3.873   2.883   4.203  0.7757  0.3791 -0.3074
 5103SOL    HW226946   3.816   2.800   4.107  0.2742  0.8169 -0.6526
 5104SOL     OW26947   0.365   1.863   3.967  0.1531  0.3782  0.6772
 5104SOL    HW126948   0.274   1.850   3.938 -0.1520 -0.9345  2.1740
 5104SOL    HW226949   0.348   1.906   4.051  1.7346 -0.7425  1.5734
 5105SOL     OW26950   3.701   1.250  17.226 -0.2816 -0.3054  0.0477
 5105SOL    HW126951   3.620   1.205  17.200 -0.8303  0.5673  0.2537
 5105SOL    HW226952   3.728   1.290  17.143  1.4208 -1.3428  0.0897
 5106SOL     OW26953   3.452   4.234   8.648  0.2146  0.2594  0.6228
 5106SOL    HW126954   3.457   4.143   8.678  2.8737  0.2424  0.1297
 5106SOL    HW226955   3.541   4.269   8.653  0.8231 -1.2352  0.3626
 5107SOL     OW26956   2.225   3.969  13.278 -0.2850  0.4881  0.0903
 5107SOL    HW126957   2.257   4.029  13.345 -1.6847 -1.6085  2.6369
 5107SOL    HW226958   2.306   3.945  13.231 -0.5292  0.8367 -0.5159
 5108SOL     OW26959   3.813   0.284  14.095  0.2644  0.0561  0.1568
 5108SOL    HW126960   3.776   0.201  14.127  1.8660 -0.0820  1.6549
 5108SOL    HW226961   3.787   0.287  14.003  0.7221 -0.2735  0.0158
 5109SOL     OW26962   0.810   3.976  11.733 -0.0287 -0.6298 -1.1435
 5109SOL    HW126963   0.784   3.958  11.824 -1.2666 -0.5452 -1.4868
 5109SOL    HW226964   0.904   3.987  11.746 -0.0351  0.3385 -1.9229
 5110SOL     OW26965   3.533   1.434  12.859 -0.3636 -0.0572 -0.3485
 5110SOL    HW126966   3.494   1.410  12.943  1.8812  1.7502  1.2372
 5110SOL    HW226967   3.609   1.484  12.890  0.4149  0.2373 -2.6958
 5111SOL     OW26968   3.022   1.736   7.870  0.6222 -0.2019  0.5189
 5111SOL    HW126969   3.067   1.718   7.953 -1.4992 -1.8490  1.3225
 5111SOL    HW226970   2.952   1.670   7.872  0.7307 -0.2781  2.3110
 5112SOL     OW26971   3.315   2.388   8.394  0.1198 -0.0902 -0.1051
 5112SOL    HW126972   3.262   2.408   8.317  0.2855 -2.1807 -0.7531
 5112SOL    HW226973   3.365   2.310   8.371  1.7834  1.2124 -0.9340
 5113SOL     OW26974   1.418   1.564  10.403  0.2159  0.0855  0.6566
 5113SOL    HW126975   1.411   1.659  10.403  1.8295  0.2126  0.5508
 5113SOL    HW226976   1.334   1.545  10.361 -1.2389  2.0503  2.6649
 5114SOL     OW26977   0.203   4.334   4.246  0.1240  0.1166 -0.3611
 5114SOL    HW126978   0.146   4.411   4.242 -0.5739 -0.4575 -1.3235
 5114SOL    HW226979   0.171   4.294   4.327  0.5886  1.1818  0.3494
 5115SOL     OW26980   2.155   1.310  14.395 -0.0476  0.2741 -0.1907
 5115SOL    HW126981   2.073   1.285  14.352  0.1440 -1.2677  0.3240
 5115SOL    HW226982   2.155   1.406  14.397 -1.7367  0.2764 -0.3572
 5116SOL     OW26983   3.720   4.270   9.734 -0.1424 -0.2308 -0.8945
 5116SOL    HW126984   3.716   4.248   9.828 -1.4668  1.2021 -0.6178
 5116SOL    HW226985   3.652   4.336   9.720 -0.3217 -0.6236 -1.8662
 5117SOL     OW26986   1.293   1.376  16.552 -0.1073 -0.1108 -0.1430
 5117SOL    HW126987   1.271   1.406  16.464  4.1749  0.6470 -0.9843
 5117SOL    HW226988   1.310   1.456  16.601  3.1484  0.0429 -1.5153
 5118SOL     OW26989   0.709   1.450  16.392  0.1859  0.5039  0.3850
 5118SOL    HW126990   0.649   1.378  16.373  2.2619 -0.2849 -3.3896
 5118SOL    HW226991   0.669   1.486  16.470 -0.5670 -0.5796  0.4941
 5119SOL     OW26992   2.056   4.718   7.836  0.0886 -0.2691  0.5752
 5119SOL    HW126993   2.024   4.723   7.746  1.6934 -0.7618 -0.0283
 5119SOL    HW226994   1.972   4.733   7.879 -0.2237  0.3807 -0.2676
 5120SOL     OW26995   2.647   3.248   5.384 -0.3453  0.2290 -0.4009
 5120SOL    HW126996   2.659   3.188   5.310  0.7094  0.4108 -0.3828
 5120SOL    HW226997   2.602   3.196   5.450  1.0215  1.7659  1.7340
 5121SOL     OW26998   1.832   2.299   3.149  0.0068 -0.5736  0.1485
 5121SOL    HW126999   1.783   2.380   3.138  0.3027 -0.5418 -0.8713
 5121SOL    HW227000   1.898   2.294   3.080 -0.6212 -1.2143 -0.3892
 5122SOL     OW27001   3.079   3.988   2.204 -0.8200 -0.4513  0.1583
 5122SOL    HW127002   3.173   3.983   2.219 -0.5244  1.4519 -1.0208
 5122SOL    HW227003   3.060   3.910   2.151 -0.3099 -0.6218  0.2269
 5123SOL     OW27004   2.675   3.980   9.847 -0.1927  0.0400  0.5279
 5123SOL    HW127005   2.731   4.050   9.880 -1.0078  0.9471 -0.0113
 5123SOL    HW227006   2.702   3.911   9.907 -1.0044  1.2075  2.2327
 5124SOL     OW27007   3.450   2.952   6.341 -0.0534 -0.5849  0.3553
 5124SOL    HW127008   3.515   2.969   6.410  1.3360  0.8345 -1.2939
 5124SOL    HW227009   3.368   2.958   6.389 -0.0869 -1.3532  0.3933
 5125SOL     OW27010   3.497   3.907   7.123 -0.5498  0.0937 -0.1155
 5125SOL    HW127011   3.581   3.899   7.169 -1.4293  1.0439  1.6637
 5125SOL    HW227012   3.495   3.822   7.080  1.4201  1.0572 -2.0729
 5126SOL     OW27013   3.626   2.748   2.737 -0.1959  0.2166  0.3625
 5126SOL    HW127014   3.669   2.752   2.651 -0.0394 -0.5366  0.4018
 5126SOL    HW227015   3.652   2.831   2.777  0.6396 -1.0377  2.4523
 5127SOL     OW27016   1.391   1.512   3.017 -0.1708 -0.0668  0.1543
 5127SOL    HW127017   1.370   1.478   3.103  0.8664  0.5464  0.6523
 5127SOL    HW227018   1.486   1.514   3.029 -0.2123  0.4126  0.4092
 5128SOL     OW27019   0.777   4.029   6.307  0.5826 -0.3983  0.4644
 5128SOL    HW127020   0.731   4.031   6.223 -1.1099 -1.0103  1.3652
 5128SOL    HW227021   0.754   3.948   6.353  0.6302  0.1873  1.5234
 5129SOL     OW27022   2.177   0.817   6.458 -0.3246  0.4225  0.2189
 5129SOL    HW127023   2.138   0.811   6.545 -3.3494  2.5253 -0.9823
 5129SOL    HW227024   2.215   0.904   6.465 -0.8804  0.6747  0.0972
 5130SOL     OW27025   1.671   3.559  16.015 -0.4084 -0.0950  0.4566
 5130SOL    HW127026   1.679   3.633  15.955 -0.5456  0.2746  0.8883
 5130SOL    HW227027   1.764   3.544  16.030 -0.1112  0.5345 -0.7776
 5131SOL     OW27028   3.740   1.314   8.322 -0.1426 -0.1303 -0.0145
 5131SOL    HW127029   3.761   1.345   8.410 -0.4924 -1.1412  0.4281
 5131SOL    HW227030   3.705   1.227   8.342 -0.8076 -0.1449 -1.2264
 5132SOL     OW27031   0.083   3.796  16.942 -0.2183  0.8927 -0.1890
 5132SOL    HW127032   0.065   3.876  16.992  2.9743 -0.1885  2.6619
 5132SOL    HW227033   4.726   3.767  16.930  0.2474  0.4933 -2.7892
 5133SOL     OW27034   2.763   4.239  10.015 -0.4506  0.2644  0.0290
 5133SOL    HW127035   2.798   4.286  10.090  0.8916 -2.0650  0.8582
 5133SOL    HW227036   2.670   4.239  10.037 -0.1570 -1.4927  1.2599
 5134SOL     OW27037   3.442   4.510   3.352  0.3110  0.2271  0.0623
 5134SOL    HW127038   3.448   4.414   3.350 -1.1861  0.1543 -0.6268
 5134SOL    HW227039   3.536   4.530   3.356  0.6892 -1.4093 -0.4710
 5135SOL     OW27040   1.635   0.105   4.905  0.0675 -0.8797  0.1840
 5135SOL    HW127041   1.692   0.029   4.894  2.0274  0.4660  1.0658
 5135SOL    HW227042   1.564   0.075   4.847  0.4953 -0.3842 -0.6002
 5136SOL     OW27043   3.438   4.235   3.254 -0.2095 -0.3039  0.2859
 5136SOL    HW127044   3.388   4.157   3.228  1.3833 -0.7824 -1.3995
 5136SOL    HW227045   3.472   4.254   3.166 -1.7283 -0.3441 -0.3129
 5137SOL     OW27046   2.405   4.215  11.240  0.8652 -0.4222 -0.5334
 5137SOL    HW127047   2.465   4.244  11.309  1.3340 -3.1908  0.2126
 5137SOL    HW227048   2.459   4.175  11.173  0.9635 -1.0815 -0.0576
 5138SOL     OW27049   0.188   3.175  13.972  0.7229 -0.0569  0.6070
 5138SOL    HW127050   0.099   3.170  13.936  1.6009 -0.2650 -1.5010
 5138SOL    HW227051   0.212   3.083  13.962 -0.1361 -0.0878 -1.2752
 5139SOL     OW27052   2.606   2.204   2.164 -0.3616 -0.3781 -0.1326
 5139SOL    HW127053   2.657   2.188   2.084 -0.7184  2.1394 -0.8716
 5139SOL    HW227054   2.533   2.143   2.153  1.4530 -2.0790 -2.9130
 5140SOL     OW27055   3.865   3.375   6.081  0.0680  1.0919  0.3463
 5140SOL    HW127056   3.775   3.407   6.093 -0.2879 -0.1382  0.9777
 5140SOL    HW227057   3.894   3.430   6.008 -0.6021  1.2967  0.2310
 5141SOL     OW27058   0.095   1.674  17.330 -0.4314 -0.9940  0.2119
 5141SOL    HW127059   0.074   1.663  17.423  0.4844  0.6752  0.6213
 5141SOL    HW227060   0.018   1.634  17.289 -0.4055 -1.1733  0.3398
 5142SOL     OW27061   2.817   4.079   2.225 -0.1264 -0.1652  0.0124
 5142SOL    HW127062   2.910   4.060   2.229 -0.1221 -0.1369  0.0505
 5142SOL    HW227063   2.772   4.012   2.276 -0.7146  0.7702  0.7410
 5143SOL     OW27064   4.692   4.610   7.238  0.1348 -0.0162  0.3169
 5143SOL    HW127065   0.034   4.621   7.295  0.4928 -0.5493 -0.0564
 5143SOL    HW227066   4.689   4.514   7.245 -1.1891 -0.0079 -0.0856
 5144SOL     OW27067   1.117   1.747   6.817 -0.5148 -0.2419  0.2759
 5144SOL    HW127068   1.195   1.693   6.804 -0.2415  0.1053  0.5127
 5144SOL    HW227069   1.101   1.762   6.724  1.3439 -2.3024 -0.3920
 5145SOL     OW27070   1.377   2.778   9.059  0.1565 -0.4975 -0.8556
 5145SOL    HW127071   1.405   2.687   9.061 -1.3001 -0.9330  0.0876
 5145SOL    HW227072   1.434   2.814   9.127  0.3912 -1.5954 -0.4738
 5146SOL     OW27073   4.116   0.923  17.627 -0.5407 -0.0797  0.3161
 5146SOL    HW127074   4.074   0.839  17.646 -1.6958 -0.1988 -2.7227
 5146SOL    HW227075   4.078   0.982  17.692 -1.2419 -0.3057  0.1102
 5147SOL     OW27076   1.346   3.592   3.251  0.1808 -0.1155 -0.8945
 5147SOL    HW127077   1.397   3.671   3.235 -0.3133  0.6002  1.0740
 5147SOL    HW227078   1.402   3.532   3.301 -0.2479  0.5598  0.4111
 5148SOL     OW27079   1.130   3.572   2.717  0.5524  0.0275 -0.0136
 5148SOL    HW127080   1.105   3.540   2.631  1.2211 -0.8067  0.1063
 5148SOL    HW227081   1.143   3.490   2.765 -0.3830 -0.6190 -0.8818
 5149SOL     OW27082   3.401   3.957   9.376  0.1042 -0.2567 -0.9604
 5149SOL    HW127083   3.436   3.965   9.465  0.5775 -1.2914 -1.0552
 5149SOL    HW227084   3.470   3.986   9.317 -1.4332  0.3722 -2.4240
 5150SOL     OW27085   2.151   4.383   6.596 -0.2445  0.3028  0.4717
 5150SOL    HW127086   2.084   4.451   6.599  0.2594  0.7460  1.6453
 5150SOL    HW227087   2.217   4.430   6.647 -1.3007  1.4940  0.7268
 5151SOL     OW27088   0.127   1.621  10.195 -0.3378  0.2731  0.0909
 5151SOL    HW127089   0.165   1.533  10.199 -3.0778 -0.9776 -1.3813
 5151SOL    HW227090   0.190   1.673  10.145  0.4438  0.0201  0.8049
 5152SOL     OW27091   3.770   0.131   9.917 -0.2838 -0.1935  0.0577
 5152SOL    HW127092   3.733   0.044   9.931  3.5815 -1.8563 -0.1345
 5152SOL    HW227093   3.720   0.184   9.979  0.2648  0.2279  0.1447
 5153SOL     OW27094   1.202   0.658   4.731  0.3324 -0.1235  0.2008
 5153SOL    HW127095   1.151   0.651   4.651  1.0685 -1.2075 -0.1695
 5153SOL    HW227096   1.284   0.623   4.697 -0.0082  0.1467 -0.8710
 5154SOL     OW27097   2.488   2.661   9.237 -0.6525 -0.0760 -0.4529
 5154SOL    HW127098   2.492   2.741   9.289  1.4731  0.7754 -1.9302
 5154SOL    HW227099   2.571   2.658   9.190 -0.7187  0.4535 -0.6002
 5155SOL     OW27100   4.697   1.975   6.517 -0.5143  0.2216  0.4323
 5155SOL    HW127101   4.708   1.897   6.463  0.3366  0.9322 -0.4158
 5155SOL    HW227102   0.002   1.945   6.599  2.6313 -0.3466 -1.2397
 5156SOL     OW27103   4.604   1.090   4.179 -0.0427 -0.3977 -0.1741
 5156SOL    HW127104   4.543   1.137   4.123 -0.2954  0.8603  1.1478
 5156SOL    HW227105   4.578   1.129   4.263  0.0167 -1.4564  0.3323
 5157SOL     OW27106   1.752   2.368   4.106 -0.3372  0.9062 -0.3391
 5157SOL    HW127107   1.802   2.444   4.136  1.1360 -0.7841  1.4725
 5157SOL    HW227108   1.761   2.387   4.013  2.1183  1.6172  0.0316
 5158SOL     OW27109   0.971   0.397   6.755  0.0863  0.0786  0.0610
 5158SOL    HW127110   0.916   0.382   6.832 -1.9046  3.1695 -0.7216
 5158SOL    HW227111   0.921   0.347   6.691  0.0826  0.9328 -0.5996
 5159SOL     OW27112   3.602   1.865   2.338  0.0573 -0.1351 -0.1244
 5159SOL    HW127113   3.517   1.905   2.319 -0.6553  0.0517  3.4010
 5159SOL    HW227114   3.578   1.773   2.336 -0.7333  0.0994 -1.8158
 5160SOL     OW27115   3.562   2.348   5.741  0.8177 -0.1509  0.7802
 5160SOL    HW127116   3.599   2.267   5.705 -0.8854 -0.0466 -1.2086
 5160SOL    HW227117   3.478   2.312   5.770  0.5147 -0.5407 -0.5532
 5161SOL     OW27118   4.316   2.297   2.135 -0.3148 -0.1596  0.4060
 5161SOL    HW127119   4.410   2.311   2.128 -0.5132  1.7087  1.3518
 5161SOL    HW227120   4.303   2.263   2.047  1.8108  0.8744 -0.3047
 5162SOL     OW27121   1.828   0.352   7.725  0.2848 -0.2556 -0.2152
 5162SOL    HW127122   1.842   0.258   7.713  1.0250 -0.1206 -0.4153
 5162SOL    HW227123   1.844   0.363   7.819 -0.6334  0.6934 -0.1633
 5163SOL     OW27124   0.167   4.349   8.197 -0.3325  0.0086 -0.7782
 5163SOL    HW127125   0.243   4.340   8.139  0.9524  1.3893  0.6740
 5163SOL    HW227126   0.190   4.290   8.269 -0.2029  1.5477  0.4565
 5164SOL     OW27127   1.971   2.103   8.972 -0.0865  0.0961  0.0481
 5164SOL    HW127128   2.031   2.073   9.040 -0.4206  1.4579  0.9405
 5164SOL    HW227129   2.021   2.086   8.892 -0.2203 -1.3711  0.2757
 5165SOL     OW27130   2.251   4.601  13.854  0.3460 -0.4941 -0.1452
 5165SOL    HW127131   2.312   4.590  13.927  0.8618 -1.3319 -0.7054
 5165SOL    HW227132   2.258   4.696  13.842 -0.9518 -0.7213 -2.7841
 5166SOL     OW27133   4.651   3.180   7.244 -0.1077 -0.0797  0.3865
 5166SOL    HW127134   4.605   3.144   7.168 -0.1216  1.0463 -0.1394
 5166SOL    HW227135   4.609   3.123   7.308 -0.5249  0.5426  0.6625
 5167SOL     OW27136   1.385   2.557  13.957  0.6460 -0.5165  0.0979
 5167SOL    HW127137   1.367   2.560  13.863 -1.1784  1.1190  0.4791
 5167SOL    HW227138   1.381   2.650  13.981  1.4225 -0.3810 -0.3228
 5168SOL     OW27139   4.236   4.399   5.754 -0.4701  0.0943 -0.9501
 5168SOL    HW127140   4.276   4.485   5.747 -0.1103  0.0621  0.6105
 5168SOL    HW227141   4.224   4.396   5.849 -0.0587 -0.9698 -0.9266
 5169SOL     OW27142   3.287   4.221   7.290  0.4371 -0.2378  0.1920
 5169SOL    HW127143   3.268   4.183   7.204  0.4488 -0.6700  0.3796
 5169SOL    HW227144   3.255   4.311   7.284  2.5128  0.5627  1.4312
 5170SOL     OW27145   0.878   1.387   6.932 -0.1868 -0.6146  0.6762
 5170SOL    HW127146   0.950   1.380   6.995  0.5871 -0.8305 -0.2270
 5170SOL    HW227147   0.862   1.481   6.929  0.3569 -0.5780 -1.0021
 5171SOL     OW27148   2.317   4.415   7.232 -0.3104 -0.4134  0.1657
 5171SOL    HW127149   2.336   4.500   7.194  1.1291 -1.5560 -1.7213
 5171SOL    HW227150   2.382   4.362   7.185 -0.2217 -0.3817  0.2529
 5172SOL     OW27151   1.619   2.479   4.672 -0.3843 -0.7674 -0.1999
 5172SOL    HW127152   1.552   2.460   4.606 -1.3366 -1.5720  0.9740
 5172SOL    HW227153   1.603   2.424   4.749 -0.8360 -0.5222 -0.1137
 5173SOL     OW27154   2.578   1.264   6.839 -0.4546 -0.0227 -0.0398
 5173SOL    HW127155   2.585   1.231   6.749  1.9802 -2.5940  1.0973
 5173SOL    HW227156   2.485   1.286   6.839 -0.4136  0.1436  0.2226
 5174SOL     OW27157   1.195   1.796   7.402 -0.0722  0.3496 -0.8631
 5174SOL    HW127158   1.271   1.778   7.457 -0.4918 -0.9739 -0.7277
 5174SOL    HW227159   1.218   1.727   7.341  2.0201 -0.1598  0.5172
 5175SOL     OW27160   1.369   2.758   4.875 -0.2962 -0.7143 -0.6072
 5175SOL    HW127161   1.299   2.794   4.928  1.8404  0.7256  1.2474
 5175SOL    HW227162   1.420   2.720   4.947  0.2530  0.6832 -0.2432
 5176SOL     OW27163   2.072   0.762   4.532 -0.0005  0.0285 -0.2402
 5176SOL    HW127164   2.074   0.708   4.611  0.1942  0.9953  0.4200
 5176SOL    HW227165   2.122   0.703   4.476 -0.7299 -0.4833 -0.3578
 5177SOL     OW27166   0.870   0.060  10.590 -0.3446 -0.2634  0.0749
 5177SOL    HW127167   0.957   0.098  10.579 -0.5746  0.3938  0.5094
 5177SOL    HW227168   0.826   0.084  10.508 -0.7615  1.1297  0.6939
 5178SOL     OW27169   1.981   0.618   1.468 -0.2657  0.0074  0.0367
 5178SOL    HW127170   2.000   0.656   1.554 -2.3329  1.3004 -0.0727
 5178SOL    HW227171   2.041   0.547   1.447  1.2918  0.4166  3.1474
 5179SOL     OW27172   1.876   1.902   0.023  0.0246  0.1843  0.3367
 5179SOL    HW127173   1.958   1.948   0.039  1.2638 -1.9333  0.1036
 5179SOL    HW227174   1.903   1.848  17.681 -0.5010  2.1876 -1.3015
 5180SOL     OW27175   0.522   3.168   7.420  0.1836  0.4404 -0.3079
 5180SOL    HW127176   0.500   3.089   7.370  0.2828  0.2031  0.0257
 5180SOL    HW227177   0.455   3.172   7.488 -1.8923 -1.4010 -2.2360
 5181SOL     OW27178   1.968   2.186  16.063 -0.0341 -0.0449 -0.1645
 5181SOL    HW127179   2.015   2.109  16.030  0.7236  0.3379  0.0271
 5181SOL    HW227180   1.932   2.227  15.985  2.7478  3.9677  0.6375
 5182SOL     OW27181   3.133   1.470  15.633 -0.0444 -0.0117 -0.2660
 5182SOL    HW127182   3.188   1.439  15.705 -2.2541  0.1895  1.4732
 5182SOL    HW227183   3.093   1.548  15.670 -1.3390  0.1979 -2.1194
 5183SOL     OW27184   3.318   0.762   5.567  0.2678 -0.4036  0.3591
 5183SOL    HW127185   3.248   0.774   5.631 -0.2763 -1.2441 -0.0821
 5183SOL    HW227186   3.366   0.844   5.583 -0.1547  0.1697 -1.3414
 5184SOL     OW27187   3.570   2.022   3.663  0.5958  0.8874 -0.1325
 5184SOL    HW127188   3.655   2.066   3.666 -0.3271  2.5468  1.3509
 5184SOL    HW227189   3.516   2.098   3.638 -1.8678 -1.1581 -1.0161
 5185SOL     OW27190   2.809   3.153  16.597 -0.0311 -0.2036 -0.0543
 5185SOL    HW127191   2.799   3.169  16.691 -2.0897  0.1882 -0.3588
 5185SOL    HW227192   2.724   3.119  16.570  0.0222  1.2232 -1.9416
 5186SOL     OW27193   2.233   3.809   9.120  0.3278  0.6368  0.4632
 5186SOL    HW127194   2.241   3.748   9.194 -0.6237 -0.9317 -0.7387
 5186SOL    HW227195   2.145   3.785   9.092  0.0319  1.7247  0.4609
 5187SOL     OW27196   0.004   0.629   8.062  0.2266 -0.3131  0.2412
 5187SOL    HW127197   4.716   0.580   8.142  1.3519 -1.5380 -0.2029
 5187SOL    HW227198   4.711   0.566   7.995  0.1171  0.3093 -0.2975
 5188SOL     OW27199   4.443   1.166  10.359 -0.4304  0.7434 -0.7151
 5188SOL    HW127200   4.529   1.157  10.399 -0.5644  0.7138 -0.4347
 5188SOL    HW227201   4.426   1.257  10.381 -1.6273 -0.2149  2.3204
 5189SOL     OW27202   3.840   2.264   9.142 -0.5272 -0.0203  0.4461
 5189SOL    HW127203   3.932   2.285   9.123 -2.0489  2.3593 -4.3261
 5189SOL    HW227204   3.828   2.320   9.218 -1.4698 -1.4614  1.3538
 5190SOL     OW27205   3.238   3.232   7.016  0.7454  0.3074  0.2618
 5190SOL    HW127206   3.166   3.171   6.999 -0.1721  1.1368  1.1623
 5190SOL    HW227207   3.289   3.175   7.073  1.1429  2.1129  1.7218
 5191SOL     OW27208   4.642   2.510   7.927 -0.2891 -0.1810  0.2302
 5191SOL    HW127209   4.721   2.457   7.915 -0.2997 -0.1030 -0.1904
 5191SOL    HW227210   4.635   2.512   8.022 -1.2071  0.2216  0.1568
 5192SOL     OW27211   1.068   2.442   6.218 -0.1870 -0.5961  0.4262
 5192SOL    HW127212   0.985   2.482   6.245 -0.1663 -0.2985  0.0387
 5192SOL    HW227213   1.049   2.394   6.138  3.2438 -0.7486 -0.2940
 5193SOL     OW27214   2.576   0.014   4.427 -0.1467  0.2713 -0.2805
 5193SOL    HW127215   2.532   0.095   4.404 -0.2395 -0.2148 -1.7989
 5193SOL    HW227216   2.605   0.031   4.517  1.5799  0.0729 -0.7980
 5194SOL     OW27217   1.521   2.346   4.243 -0.2364 -0.6462 -0.4010
 5194SOL    HW127218   1.588   2.394   4.194 -0.9059  0.3956 -0.2975
 5194SOL    HW227219   1.465   2.310   4.173 -2.3570 -0.3248  1.1242
 5195SOL     OW27220   0.727   2.566   5.813  0.4663 -0.2634  0.1815
 5195SOL    HW127221   0.645   2.591   5.856 -0.4224  1.0660 -2.2868
 5195SOL    HW227222   0.796   2.609   5.863 -0.9426  3.1006 -0.8129
 5196SOL     OW27223   2.822   3.322   4.521 -0.6008 -0.4993  0.0554
 5196SOL    HW127224   2.915   3.329   4.544 -0.3210 -0.3249 -1.1429
 5196SOL    HW227225   2.826   3.346   4.428  0.2677  1.4052  0.5850
 5197SOL     OW27226   2.115   1.693   4.165 -0.0575  0.4241 -0.6874
 5197SOL    HW127227   2.128   1.788   4.174  0.0032  0.3725 -0.2212
 5197SOL    HW227228   2.204   1.659   4.173  1.1136  3.5541 -0.3111
 5198SOL     OW27229   1.939   2.556   4.929 -0.9972  0.1355  0.2285
 5198SOL    HW127230   1.873   2.589   4.990  1.3113 -2.6336  4.1708
 5198SOL    HW227231   1.938   2.462   4.945 -2.0704  0.0065 -0.5652
 5199SOL     OW27232   3.954   2.499   5.750  0.4366 -0.2675 -0.2602
 5199SOL    HW127233   3.897   2.575   5.740  0.4981 -0.2750 -0.6573
 5199SOL    HW227234   3.959   2.493   5.846  1.1294  0.7165 -0.2339
 5200SOL     OW27235   1.339   2.272   3.827 -0.4308  0.2247  0.4732
 5200SOL    HW127236   1.335   2.232   3.915  3.1208  0.1827  0.5851
 5200SOL    HW227237   1.290   2.353   3.840 -0.8378  0.1660 -0.7569
 5201SOL     OW27238   1.632   3.267  11.020  0.0013  0.8333 -0.1906
 5201SOL    HW127239   1.635   3.183  10.974 -2.5958  0.4376  0.3644
 5201SOL    HW227240   1.718   3.259  11.059 -1.0287 -0.4111  1.8249
 5202SOL     OW27241   1.955   4.248  15.899 -0.3422 -0.2422 -0.7780
 5202SOL    HW127242   2.025   4.311  15.880 -0.1927 -0.4978 -1.0781
 5202SOL    HW227243   1.940   4.266  15.992  1.2663 -0.8714 -0.3881
 5203SOL     OW27244   3.123   0.218   3.577  0.6404 -0.0202  0.5451
 5203SOL    HW127245   3.194   0.261   3.623  0.0315  0.0214  1.4425
 5203SOL    HW227246   3.065   0.185   3.645 -1.9211  0.7063 -1.2779
 5204SOL     OW27247   3.966   4.648   2.676 -0.2219  0.1676  0.2732
 5204SOL    HW127248   4.038   4.585   2.682 -1.0565 -0.6233  1.9437
 5204SOL    HW227249   3.941   4.647   2.768 -2.9185 -0.1618 -0.4784
 5205SOL     OW27250   0.561   3.010  11.677  0.5573  0.1398  0.5639
 5205SOL    HW127251   0.639   3.024  11.729  0.9151  0.0636  0.0494
 5205SOL    HW227252   0.517   3.091  11.702  1.1555  0.0783  1.8082
 5206SOL     OW27253   0.588   4.561   0.947 -0.1722  0.2440 -0.6572
 5206SOL    HW127254   0.666   4.566   0.892 -0.6482  0.0090 -1.3518
 5206SOL    HW227255   0.638   4.571   1.029 -1.3453 -0.1662  0.1115
 5207SOL     OW27256   3.595   2.016   6.910 -0.8078  0.2195  0.7487
 5207SOL    HW127257   3.643   2.017   6.827 -1.2973  0.5906  0.4687
 5207SOL    HW227258   3.670   2.026   6.969  1.0809 -0.9612 -1.4553
 5208SOL     OW27259   4.143   3.905   9.729  0.2997  0.0520  0.1031
 5208SOL    HW127260   4.160   3.817   9.762  0.8865  0.3031  0.4662
 5208SOL    HW227261   4.048   3.897   9.720  0.3343 -1.0579  0.7860
 5209SOL     OW27262   3.483   2.874  16.834 -0.3058 -0.0099  0.0169
 5209SOL    HW127263   3.573   2.848  16.812 -0.4561  1.5733 -2.3848
 5209SOL    HW227264   3.446   2.900  16.750 -0.7030  0.6828  0.4128
 5210SOL     OW27265   1.615   1.269   6.579 -0.4796  0.4540  0.1403
 5210SOL    HW127266   1.575   1.209   6.642  0.4940  1.2000  1.4746
 5210SOL    HW227267   1.557   1.248   6.506  1.7970  0.9318 -1.8049
 5211SOL     OW27268   3.576   3.370  10.829 -0.6054  0.4549  0.0428
 5211SOL    HW127269   3.493   3.324  10.835  0.0415 -0.8356 -1.0737
 5211SOL    HW227270   3.550   3.461  10.847  1.1660  0.5470  2.1248
 5212SOL     OW27271   0.247   3.271   5.497  0.1206 -0.3534  0.6097
 5212SOL    HW127272   0.277   3.320   5.573  1.4820 -0.0529 -0.1172
 5212SOL    HW227273   0.152   3.269   5.509  0.0329  1.4036  0.2368
 5213SOL     OW27274   1.316   0.038   5.622  0.3426  0.3233 -0.0637
 5213SOL    HW127275   1.221   0.026   5.622  0.5212 -1.1092  0.2605
 5213SOL    HW227276   1.331   0.115   5.568 -0.0818  0.9668  0.7526
 5214SOL     OW27277   3.153   1.824   2.202  0.1104  0.4336 -0.7460
 5214SOL    HW127278   3.125   1.913   2.225 -1.5763 -0.1367 -0.6599
 5214SOL    HW227279   3.072   1.793   2.163  0.0693  0.0214 -0.3338
 5215SOL     OW27280   1.128   2.392   2.902 -0.1795  0.4183 -0.1708
 5215SOL    HW127281   1.058   2.331   2.923  0.6264 -0.2538  0.5470
 5215SOL    HW227282   1.133   2.433   2.988 -0.4739 -1.5755  0.7754
 5216SOL     OW27283   2.953   2.578   7.960  0.7950 -0.7263  0.0814
 5216SOL    HW127284   2.873   2.612   7.999 -0.9012 -1.7282 -2.5568
 5216SOL    HW227285   3.007   2.657   7.957  1.6181 -1.2698  0.4005
 5217SOL     OW27286   3.839   0.632   6.023 -0.5097 -0.3920  0.7859
 5217SOL    HW127287   3.800   0.713   5.990  0.1641 -0.1847  0.5038
 5217SOL    HW227288   3.807   0.630   6.113  1.0931  1.5522  1.4066
 5218SOL     OW27289   3.408   4.593  17.730 -0.1249 -0.4967 -0.3476
 5218SOL    HW127290   3.375   4.506  17.708  0.8992 -0.7655 -0.8117
 5218SOL    HW227291   3.368   4.644  17.660 -0.1486 -0.1031 -0.0482
 5219SOL     OW27292   1.261   1.698  11.657 -0.1298  0.2717  0.1619
 5219SOL    HW127293   1.180   1.723  11.613  1.3016 -0.8565 -3.1129
 5219SOL    HW227294   1.282   1.784  11.693  2.2401 -0.1392 -0.2075
 5220SOL     OW27295   0.134   0.369   9.151 -0.1847 -0.4348  0.0777
 5220SOL    HW127296   0.212   0.424   9.166 -0.6624  0.1484  0.4287
 5220SOL    HW227297   0.156   0.329   9.066 -0.1681 -2.4469  1.0389
 5221SOL     OW27298   2.248   1.810   4.864  0.6028 -0.5583 -0.3465
 5221SOL    HW127299   2.158   1.785   4.843 -0.0643  2.9827 -1.7174
 5221SOL    HW227300   2.238   1.902   4.892  0.0563 -0.4014 -1.0564
 5222SOL     OW27301   1.169   0.002   6.034  0.5218 -0.4143  0.6819
 5222SOL    HW127302   1.229   0.009   5.961 -1.1979  0.8148 -0.6178
 5222SOL    HW227303   1.158   4.641   6.048 -0.9794 -0.5417 -1.4280
 5223SOL     OW27304   1.022   0.804   7.391 -0.3081  0.2836 -0.6548
 5223SOL    HW127305   1.036   0.732   7.453  0.7429  1.4055  0.4078
 5223SOL    HW227306   0.928   0.794   7.372 -0.2931 -2.8016  0.8021
 5224SOL     OW27307   0.845   2.359   0.752  0.8330  0.5486  0.2072
 5224SOL    HW127308   0.847   2.345   0.846  0.2218 -0.5157  0.0676
 5224SOL    HW227309   0.940   2.358   0.741  0.6101 -1.2967 -1.6304
 5225SOL     OW27310   3.114   1.414   6.605  0.1328 -0.6690 -0.4666
 5225SOL    HW127311   3.115   1.507   6.582  0.5936 -0.5210  0.1702
 5225SOL    HW227312   3.098   1.378   6.518  0.4750 -1.3211 -0.2575
 5226SOL     OW27313   3.731   1.134  14.933  0.1000 -0.2572  0.4414
 5226SOL    HW127314   3.723   1.056  14.878 -0.6018 -0.9463  1.5355
 5226SOL    HW227315   3.695   1.203  14.876 -0.5538 -0.6969  0.3116
 5227SOL     OW27316   1.570   0.380   8.793  0.3618  0.1066  0.2110
 5227SOL    HW127317   1.579   0.475   8.797 -3.6364  0.5798 -2.2345
 5227SOL    HW227318   1.506   0.362   8.862  1.4012  0.5951  1.3101
 5228SOL     OW27319   1.440   4.118   0.949  0.1325  0.5004  0.3015
 5228SOL    HW127320   1.370   4.072   0.994  0.2952  0.7317  0.7881
 5228SOL    HW227321   1.509   4.074   0.997 -0.4962  1.7354  2.3329
 5229SOL     OW27322   4.266   2.237   9.370 -0.4427  0.1938  0.0691
 5229SOL    HW127323   4.272   2.197   9.457  1.2632 -0.7800 -0.4962
 5229SOL    HW227324   4.277   2.331   9.387  0.3378  0.8657 -4.2123
 5230SOL     OW27325   3.632   3.577   6.212  0.8968 -0.3968  0.3427
 5230SOL    HW127326   3.539   3.567   6.193  1.0177 -0.6880 -0.1027
 5230SOL    HW227327   3.624   3.672   6.212  0.2504 -0.4540 -0.4364
 5231SOL     OW27328   1.393   1.973   7.735  0.4567  0.3993  0.0730
 5231SOL    HW127329   1.365   2.025   7.660  0.0443 -1.7016 -1.2182
 5231SOL    HW227330   1.435   2.041   7.788 -0.2060 -0.1886  1.3338
 5232SOL     OW27331   4.586   1.458   0.992 -0.0129  0.1945 -0.3254
 5232SOL    HW127332   4.513   1.484   0.936  0.0965 -1.1630 -1.0920
 5232SOL    HW227333   4.551   1.376   1.026 -1.1686  1.2075  0.9414
 5233SOL     OW27334   0.588   3.153  16.229 -0.3922  0.4345  0.0364
 5233SOL    HW127335   0.681   3.173  16.218 -0.1430 -0.5765  0.2530
 5233SOL    HW227336   0.551   3.214  16.293 -1.2896 -0.3605  0.2851
 5234SOL     OW27337   3.059   1.302  13.835  0.2763 -0.2277  0.7762
 5234SOL    HW127338   2.986   1.293  13.896 -0.2475 -0.3955  0.1222
 5234SOL    HW227339   3.035   1.239  13.767 -0.9514  0.1760  0.8352
 5235SOL     OW27340   2.538   4.595  13.410  0.0425 -0.1946 -0.6304
 5235SOL    HW127341   2.540   4.622  13.501  2.7071  0.6824 -0.9428
 5235SOL    HW227342   2.471   4.659  13.388 -1.2480 -1.8290 -1.5084
 5236SOL     OW27343   4.137   3.791  17.490 -0.0046 -0.2723  0.5129
 5236SOL    HW127344   4.178   3.705  17.487 -1.8016 -1.2124  3.1587
 5236SOL    HW227345   4.199   3.841  17.437 -1.1247 -1.1484 -1.6096
 5237SOL     OW27346   1.079   1.672   7.775  0.0024  0.3771  0.7458
 5237SOL    HW127347   1.097   1.740   7.840 -0.4565 -0.3115  1.5863
 5237SOL    HW227348   1.139   1.605   7.808 -0.3683  1.1307  2.9063
 5238SOL     OW27349   1.027   4.689   5.429  0.6844  0.1178 -0.0379
 5238SOL    HW127350   1.015   0.012   5.505  3.6343  0.2114  0.3678
 5238SOL    HW227351   1.091   0.011   5.384  0.5004 -0.1319 -0.6071
 5239SOL     OW27352   1.398   0.107   9.399 -0.0050  0.5319 -0.4856
 5239SOL    HW127353   1.478   0.089   9.448 -0.0656 -0.3768 -0.7289
 5239SOL    HW227354   1.383   0.019   9.365  1.0353  0.2783 -0.3051
 5240SOL     OW27355   3.927   4.456   7.667  0.2230 -0.8628 -0.8247
 5240SOL    HW127356   3.883   4.404   7.735  0.2306  0.5233  0.2437
 5240SOL    HW227357   4.013   4.441   7.705  1.0012  0.8005 -1.9291
 5241SOL     OW27358   4.503   2.351  10.881 -0.0570 -0.4499  0.5813
 5241SOL    HW127359   4.465   2.365  10.968  1.7530  1.8554  0.9893
 5241SOL    HW227360   4.585   2.314  10.913  0.8520  0.2293 -1.0042
 5242SOL     OW27361   3.512   1.870   6.575 -0.0963  0.0050  0.3527
 5242SOL    HW127362   3.448   1.800   6.569 -1.5576  1.3227  0.5760
 5242SOL    HW227363   3.467   1.931   6.633  1.9136  1.2902  0.5699
 5243SOL     OW27364   3.807   4.395  13.273 -0.4212  0.0262 -0.2358
 5243SOL    HW127365   3.712   4.390  13.285 -0.2700  1.3794  1.5889
 5243SOL    HW227366   3.811   4.340  13.195 -0.1000 -0.2893  0.0031
 5244SOL     OW27367   1.410   2.615   3.295  0.0132 -0.0392  0.4130
 5244SOL    HW127368   1.328   2.644   3.254  0.8041 -0.6442 -1.6150
 5244SOL    HW227369   1.435   2.554   3.226  0.8882  0.0398  0.6644
 5245SOL     OW27370   0.021   1.801   3.098  0.0239 -0.0062  0.4665
 5245SOL    HW127371   0.116   1.809   3.107  0.0176 -0.6832  1.0802
 5245SOL    HW227372   0.003   1.709   3.117 -1.3189  0.3402  0.8384
 5246SOL     OW27373   2.575   4.342  12.118 -0.4211 -0.4549 -0.2750
 5246SOL    HW127374   2.634   4.295  12.059  1.5043  1.6700 -0.0503
 5246SOL    HW227375   2.564   4.272  12.183  1.4275 -1.7647 -1.3396
 5247SOL     OW27376   0.642   1.486   5.577 -0.3960  0.0107  0.2489
 5247SOL    HW127377   0.650   1.404   5.625  2.2109 -0.9734 -1.8637
 5247SOL    HW227378   0.710   1.540   5.617  0.6654 -0.5793 -0.7539
 5248SOL     OW27379   3.925   4.081   8.428 -0.3060 -0.7568  0.7804
 5248SOL    HW127380   3.964   3.999   8.397  1.3008  1.2020 -2.4188
 5248SOL    HW227381   3.974   4.087   8.510 -2.0654 -1.0125  1.8451
 5249SOL     OW27382   2.116   4.139   4.696  0.3859  0.3350 -0.1055
 5249SOL    HW127383   2.118   4.045   4.717  3.6964  1.3190  4.0587
 5249SOL    HW227384   2.088   4.183   4.777 -0.7047 -0.1037 -0.2438
 5250SOL     OW27385   1.884   0.642   5.230  0.0704  0.2543  0.2427
 5250SOL    HW127386   1.946   0.602   5.168 -1.1100 -2.0407  0.5140
 5250SOL    HW227387   1.944   0.660   5.303 -0.3067 -3.2992  1.4818
 5251SOL     OW27388   3.179   3.856   1.797  0.0467  0.1613 -0.0470
 5251SOL    HW127389   3.130   3.811   1.728 -2.2718 -1.7385  2.8260
 5251SOL    HW227390   3.116   3.925   1.818 -1.3674 -0.8646 -0.9073
 5252SOL     OW27391   3.900   1.636   3.470  0.4654  0.4391  0.1773
 5252SOL    HW127392   3.963   1.571   3.439 -0.1990 -0.4246  0.6573
 5252SOL    HW227393   3.855   1.674   3.394  0.3430 -1.0183 -0.4750
 5253SOL     OW27394   2.212   0.808   3.001 -0.0811 -0.4122  0.2367
 5253SOL    HW127395   2.117   0.794   3.003 -0.2702  0.8616  0.9341
 5253SOL    HW227396   2.216   0.853   2.917  3.7762 -1.0155  0.1195
 5254SOL     OW27397   3.912   0.295   7.397 -0.0201 -0.1130 -0.3841
 5254SOL    HW127398   3.861   0.370   7.428 -2.5625 -1.8149 -0.4592
 5254SOL    HW227399   3.866   0.231   7.451 -1.2448 -0.0273 -1.3449
 5255SOL     OW27400   0.854   0.434  16.714 -0.1282  0.2018 -0.2662
 5255SOL    HW127401   0.905   0.375  16.769 -0.6728  1.4706  1.6016
 5255SOL    HW227402   0.769   0.425  16.757 -1.2324  1.7550 -2.1238
 5256SOL     OW27403   1.931   3.601   7.468 -1.1657  0.2648 -0.4760
 5256SOL    HW127404   1.977   3.664   7.523  1.1006  1.1361 -3.3194
 5256SOL    HW227405   2.011   3.576   7.421 -2.2222 -1.1844 -1.5037
 5257SOL     OW27406   0.500   3.474   2.607 -0.1030 -0.1484 -0.8920
 5257SOL    HW127407   0.486   3.529   2.684 -0.6987 -1.5455  0.0016
 5257SOL    HW227408   0.408   3.451   2.596 -0.1034 -0.5033 -0.1417
 5258SOL     OW27409   4.037   0.153   8.855  0.1869 -0.2351 -0.1721
 5258SOL    HW127410   4.092   0.078   8.834  0.0498 -0.1621 -0.8075
 5258SOL    HW227411   4.109   0.215   8.867  2.0586 -2.2987 -0.7227
 5259SOL     OW27412   3.157   1.437   5.977  0.2910 -0.5155 -0.2710
 5259SOL    HW127413   3.224   1.506   5.977 -1.0600  0.8033 -0.2970
 5259SOL    HW227414   3.213   1.362   5.997  1.2936  0.6612  1.3617
 5260SOL     OW27415   3.192   2.680  11.015 -0.1298  0.6564  0.2269
 5260SOL    HW127416   3.265   2.646  11.067 -1.0770  1.1262  1.8594
 5260SOL    HW227417   3.133   2.606  10.998  1.1217 -0.3335  0.1343
 5261SOL     OW27418   4.197   1.042  10.292  0.3068 -0.1742  0.3869
 5261SOL    HW127419   4.161   1.029  10.380  1.2289  2.6221  1.1768
 5261SOL    HW227420   4.285   1.077  10.308  0.4317 -0.6099  0.6464
 5262SOL     OW27421   1.726   1.814   9.077  0.5281 -0.1196 -0.5876
 5262SOL    HW127422   1.723   1.795   8.983 -0.1726  1.5649 -0.9030
 5262SOL    HW227423   1.662   1.884   9.087  3.1444  2.3856 -1.4764
 5263SOL     OW27424   2.148   0.177   4.181 -0.0508  0.2385 -0.3136
 5263SOL    HW127425   2.094   0.249   4.213 -0.3026 -1.2430  2.5619
 5263SOL    HW227426   2.104   0.162   4.097  2.8065  0.0185 -1.7569
 5264SOL     OW27427   0.580   0.730   2.891 -0.1990 -0.2022 -0.5470
 5264SOL    HW127428   0.542   0.792   2.953  1.7723 -1.2091  1.6461
 5264SOL    HW227429   0.510   0.712   2.829 -1.0997  0.6036  0.2375
 5265SOL     OW27430   1.638   2.155   7.436  0.2265 -0.0243 -0.2101
 5265SOL    HW127431   1.572   2.093   7.406  0.8586 -0.0154 -1.6121
 5265SOL    HW227432   1.615   2.230   7.380  0.2757  0.4687  0.4239
 5266SOL     OW27433   3.879   0.880   4.349  0.4790  0.1421  0.0549
 5266SOL    HW127434   3.876   0.872   4.253  1.1804 -0.2611  0.0716
 5266SOL    HW227435   3.810   0.819   4.375  2.0115 -1.7539 -0.3599
 5267SOL     OW27436   1.057   3.175   5.056  0.1610 -0.1174  1.3100
 5267SOL    HW127437   1.153   3.183   5.060  0.3971 -1.2339 -2.1508
 5267SOL    HW227438   1.046   3.146   5.147  2.6180  1.4419  2.0966
 5268SOL     OW27439   1.865   0.654   4.818  0.2684  0.1995  0.2337
 5268SOL    HW127440   1.953   0.617   4.815  0.6590  1.1068  0.4853
 5268SOL    HW227441   1.888   0.727   4.875  0.2255 -0.0916  0.6193
 5269SOL     OW27442   0.497   1.077   1.220  0.1717 -0.7472 -0.2846
 5269SOL    HW127443   0.516   1.131   1.144 -0.0420 -0.0697  0.1407
 5269SOL    HW227444   0.584   1.046   1.245 -0.0755 -2.0345 -0.9708
 5270SOL     OW27445   1.804   3.821  10.344 -0.1344 -0.2727 -0.4052
 5270SOL    HW127446   1.751   3.778  10.277 -0.1613 -0.0125 -0.5478
 5270SOL    HW227447   1.743   3.884  10.382  1.2428  1.0344 -0.3914
 5271SOL     OW27448   4.424   4.424   2.938 -0.2479 -0.0064 -0.4459
 5271SOL    HW127449   4.424   4.330   2.957  0.1253  0.0086 -0.3751
 5271SOL    HW227450   4.345   4.438   2.886 -2.4974 -0.5036  2.8449
 5272SOL     OW27451   3.484   2.805  12.844  0.3085 -0.8983  0.2251
 5272SOL    HW127452   3.407   2.748  12.842  0.3623 -1.0272  1.9331
 5272SOL    HW227453   3.502   2.823  12.751  2.0298 -0.6504  0.5977
 5273SOL     OW27454   2.179   4.586   8.820  0.6035  0.0467  0.0749
 5273SOL    HW127455   2.198   4.557   8.731  1.3832 -1.1575  0.6365
 5273SOL    HW227456   2.197   4.505   8.868  0.5161  0.1477  0.2800
 5274SOL     OW27457   3.332   1.016   7.008  0.6710 -0.1989 -0.5391
 5274SOL    HW127458   3.360   1.032   6.917 -0.6960  0.2407 -0.8859
 5274SOL    HW227459   3.373   1.087   7.058  2.9228 -2.6706  1.0954
 5275SOL     OW27460   1.403   3.270   0.978  0.3912  0.4005 -0.0450
 5275SOL    HW127461   1.389   3.179   1.003  0.9379  0.4296  0.3615
 5275SOL    HW227462   1.460   3.260   0.902  0.0929 -1.1612 -0.0625
 5276SOL     OW27463   2.353   2.556  11.265 -0.1638 -0.7894 -0.1132
 5276SOL    HW127464   2.376   2.560  11.172 -1.1087  2.4354 -0.1981
 5276SOL    HW227465   2.429   2.586  11.314 -2.6454  1.1214  2.5706
 5277SOL     OW27466   0.118   0.045   5.405  0.0898 -0.3091 -0.1882
 5277SOL    HW127467   0.033   0.042   5.449  1.5509  1.0906  2.7813
 5277SOL    HW227468   0.094   4.719   5.335 -0.0502  0.4393 -0.7760
 5278SOL     OW27469   1.071   2.013   7.046  0.1166 -0.5082  0.3702
 5278SOL    HW127470   1.003   2.061   7.093 -0.4891 -0.8039 -0.2096
 5278SOL    HW227471   1.020   1.978   6.973  0.1958  0.4702 -0.1531
 5279SOL     OW27472   4.246   0.365   7.010  0.2900  0.2893  0.3030
 5279SOL    HW127473   4.171   0.367   6.951  1.4760  1.5118 -1.1835
 5279SOL    HW227474   4.209   0.340   7.095 -0.0218 -0.9098 -0.1898
 5280SOL     OW27475   4.172   0.446  11.809  0.1521  0.1795 -0.2473
 5280SOL    HW127476   4.170   0.540  11.795 -1.5870 -0.1113 -1.9434
 5280SOL    HW227477   4.135   0.437  11.897 -1.7238 -0.1765 -1.0640
 5281SOL     OW27478   4.569   1.614   6.977  0.3828 -0.1893 -0.3957
 5281SOL    HW127479   4.658   1.618   6.944  0.7670 -0.4294  0.5952
 5281SOL    HW227480   4.543   1.706   6.985  1.8440  0.1527  0.2785
 5282SOL     OW27481   1.236   3.915   7.006  0.4034  0.5813 -0.2809
 5282SOL    HW127482   1.186   3.952   7.079  1.6150  0.9165  0.3897
 5282SOL    HW227483   1.306   3.875   7.058 -0.8073 -0.6884  0.3622
 5283SOL     OW27484   3.014   0.599   2.719 -0.0537 -0.2582 -0.0207
 5283SOL    HW127485   2.960   0.559   2.651 -1.0858  1.7064 -0.3474
 5283SOL    HW227486   3.023   0.523   2.777 -1.1613 -1.6188 -1.6308
 5284SOL     OW27487   1.583   1.419   4.528 -0.4445 -0.1617 -0.1548
 5284SOL    HW127488   1.617   1.432   4.439  0.4361 -1.0054  0.0565
 5284SOL    HW227489   1.603   1.325   4.526  0.8608  0.0707  2.3614
 5285SOL     OW27490   3.422   0.567   7.191  0.3386 -0.3053  0.1799
 5285SOL    HW127491   3.454   0.649   7.153  1.2410 -1.6363 -1.9526
 5285SOL    HW227492   3.507   0.523   7.184  0.5260  0.1388 -0.4368
 5286SOL     OW27493   1.551   2.430   3.723 -0.5172  0.3086  0.7392
 5286SOL    HW127494   1.550   2.417   3.628  0.9773 -1.3866  0.9567
 5286SOL    HW227495   1.496   2.360   3.756 -1.1923  1.8886  2.9983
 5287SOL     OW27496   1.183   0.764  11.139 -0.4441 -0.1322 -0.0995
 5287SOL    HW127497   1.208   0.723  11.222 -2.8829  0.2249  0.8253
 5287SOL    HW227498   1.262   0.806  11.106 -0.2450  1.1286  1.9752
 5288SOL     OW27499   3.809   4.690  12.202  0.0182  0.1440 -0.7250
 5288SOL    HW127500   3.724   4.685  12.245 -0.3613 -1.3502 -1.6561
 5288SOL    HW227501   3.824   4.598  12.177  0.3687  0.0998 -0.3617
 5289SOL     OW27502   2.559   0.984   0.491 -0.5132  0.4239  0.0843
 5289SOL    HW127503   2.570   1.045   0.418 -0.7537 -1.5710 -1.5971
 5289SOL    HW227504   2.627   1.020   0.547 -1.2779 -0.2065  1.4347
 5290SOL     OW27505   1.615   2.637   5.369  0.5042 -0.2167  0.0519
 5290SOL    HW127506   1.664   2.613   5.447 -0.4172  0.3083  0.7894
 5290SOL    HW227507   1.668   2.602   5.297  0.6289  3.1883 -1.4762
 5291SOL     OW27508   3.946   2.096   6.751  0.6959 -0.1972  0.1442
 5291SOL    HW127509   3.853   2.080   6.736  0.2610  1.8693  0.6275
 5291SOL    HW227510   3.978   2.025   6.695  1.5381  1.3400 -1.3125
 5292SOL     OW27511   0.510   0.910   8.501  0.0249 -0.2209  0.2100
 5292SOL    HW127512   0.602   0.884   8.509 -0.2098 -0.9528  0.5353
 5292SOL    HW227513   0.515   1.003   8.478 -0.0065  0.2109  1.9796
 5293SOL     OW27514   1.233   2.565   8.077 -0.5551 -0.1063 -0.1807
 5293SOL    HW127515   1.263   2.609   8.156  0.4285 -0.8929 -0.1064
 5293SOL    HW227516   1.147   2.603   8.061 -0.7370 -1.0747 -1.5701
 5294SOL     OW27517   4.608   2.000  11.427 -0.2992 -0.5289 -0.2333
 5294SOL    HW127518   4.588   1.917  11.382 -2.2107 -1.1686  1.7585
 5294SOL    HW227519   4.523   2.039  11.404  0.8363  2.2742  0.3839
 5295SOL     OW27520   3.474   0.493   9.805 -0.0352 -0.4578  0.5760
 5295SOL    HW127521   3.487   0.587   9.792 -1.4586 -0.0730  1.8665
 5295SOL    HW227522   3.424   0.473   9.726 -0.2821  1.4355  0.2611
 5296SOL     OW27523   4.103   1.822   3.269  0.2971 -0.0074 -0.4211
 5296SOL    HW127524   4.158   1.842   3.193 -0.0113  1.6244 -0.1953
 5296SOL    HW227525   4.072   1.735   3.243  0.4885 -0.8464  2.1647
 5297SOL     OW27526   2.652   0.181   4.632 -0.2963  0.0981 -0.1714
 5297SOL    HW127527   2.652   0.245   4.561  1.7462 -1.5104 -1.6176
 5297SOL    HW227528   2.700   0.235   4.694 -0.5335  0.2897 -0.1563
 5298SOL     OW27529   1.783   1.270   8.403  0.0490  0.3081 -0.3693
 5298SOL    HW127530   1.715   1.337   8.416 -0.8512 -1.0264  1.8802
 5298SOL    HW227531   1.764   1.210   8.475  1.7574  0.8589  0.5294
 5299SOL     OW27532   3.814   3.151   0.429  0.2361  0.5183 -0.0965
 5299SOL    HW127533   3.879   3.221   0.437  3.1741 -2.1524 -0.6875
 5299SOL    HW227534   3.870   3.080   0.400 -0.6774  0.8032 -2.5775
 5300SOL     OW27535   1.487   1.424   2.155 -0.8471  0.9722 -0.0807
 5300SOL    HW127536   1.440   1.403   2.235 -1.1873  2.4120  0.0984
 5300SOL    HW227537   1.488   1.331   2.130  0.9425  0.4379  1.9789
 5301SOL     OW27538   1.133   1.146   6.578 -0.2092 -0.5829 -0.0195
 5301SOL    HW127539   1.185   1.086   6.630  0.8700  1.0394  0.7638
 5301SOL    HW227540   1.164   1.229   6.614  2.9560 -1.4719 -0.6978
 5302SOL     OW27541   2.518   2.692   6.944 -0.2742  0.2265 -0.1328
 5302SOL    HW127542   2.597   2.657   6.904  0.6536  2.5277 -0.3200
 5302SOL    HW227543   2.503   2.764   6.883 -1.2189  0.7906  0.7673
 5303SOL     OW27544   0.578   1.268   7.591 -0.3783  0.1453 -0.1696
 5303SOL    HW127545   0.560   1.182   7.553 -2.1761  0.7081 -0.5620
 5303SOL    HW227546   0.659   1.260   7.642 -1.2397 -2.1795  0.8372
 5304SOL     OW27547   3.579   2.567   2.940  0.2356 -0.1169 -0.4673
 5304SOL    HW127548   3.589   2.649   2.987  0.7299  0.1654 -1.0552
 5304SOL    HW227549   3.589   2.599   2.850 -0.0820  2.5137  0.4253
 5305SOL     OW27550   0.472   2.087   3.233 -0.1789  0.3440 -0.0523
 5305SOL    HW127551   0.463   2.161   3.173 -0.4882 -0.2652 -0.7625
 5305SOL    HW227552   0.567   2.077   3.224 -0.4875 -2.1684 -0.4858
 5306SOL     OW27553   1.465   1.966   7.289 -0.2745  0.2842 -0.1574
 5306SOL    HW127554   1.415   1.921   7.221  1.2660  0.7138 -1.5708
 5306SOL    HW227555   1.537   1.905   7.302  0.3915  0.7134 -1.7235
 5307SOL     OW27556   2.798   0.817   3.773 -0.7689 -0.4137 -0.3766
 5307SOL    HW127557   2.874   0.817   3.715  1.1745 -1.4211  2.1668
 5307SOL    HW227558   2.746   0.888   3.735 -0.8741  0.2679  1.0652
 5308SOL     OW27559   2.217   0.816  12.493  0.6214  0.2538 -0.8689
 5308SOL    HW127560   2.237   0.909  12.505  0.0947  0.3991 -1.1237
 5308SOL    HW227561   2.302   0.775  12.505  0.9613  1.1808 -0.0965
 5309SOL     OW27562   3.008   0.708   0.510 -0.1362 -0.2333  0.1115
 5309SOL    HW127563   2.936   0.726   0.450  2.3484  3.9785 -1.6216
 5309SOL    HW227564   3.081   0.696   0.449  0.3095  1.0615  0.3814
 5310SOL     OW27565   2.630   0.027  16.732  0.3593  0.1723 -0.4612
 5310SOL    HW127566   2.630   4.718  16.646 -0.4768  0.6639 -0.7102
 5310SOL    HW227567   2.563   0.094  16.718  0.5180  0.1969 -1.0780
 5311SOL     OW27568   0.048   3.888   7.248  0.1755 -0.1920 -0.1664
 5311SOL    HW127569   0.015   3.943   7.319 -1.4421 -1.8842  0.3831
 5311SOL    HW227570   0.118   3.939   7.206  1.4759 -1.4034  0.5637
 5312SOL     OW27571   3.054   2.478  14.670 -0.6755  0.0967  0.6272
 5312SOL    HW127572   3.133   2.530  14.656 -1.9416  1.9019  0.1424
 5312SOL    HW227573   3.030   2.444  14.583  1.9604  0.5016 -0.2519
 5313SOL     OW27574   0.378   0.441   8.487  0.1722  0.1567  0.1218
 5313SOL    HW127575   0.387   0.388   8.566 -0.1080 -1.2839 -0.8096
 5313SOL    HW227576   0.469   0.449   8.458  0.1017 -2.1861 -0.7517
 5314SOL     OW27577   1.816   4.501   0.665  0.0964  0.4485  0.0095
 5314SOL    HW127578   1.761   4.575   0.637  0.8840  1.0940  0.1760
 5314SOL    HW227579   1.873   4.544   0.728 -0.5388  1.0810  0.1505
 5315SOL     OW27580   1.263   3.251   2.924 -0.2524 -0.1538  0.0573
 5315SOL    HW127581   1.196   3.276   2.861 -0.9943 -0.3638  0.7631
 5315SOL    HW227582   1.258   3.157   2.907 -0.7585 -0.4835  2.0173
 5316SOL     OW27583   3.102   3.356   9.584 -0.9184 -0.0631  0.0842
 5316SOL    HW127584   3.060   3.438   9.556 -0.8711  0.0761  0.4169
 5316SOL    HW227585   3.053   3.294   9.531 -0.0467  0.4359 -1.3035
 5317SOL     OW27586   2.601   2.868   8.546  0.0275 -0.0169  0.2249
 5317SOL    HW127587   2.680   2.866   8.599 -1.0628 -1.0888  1.8108
 5317SOL    HW227588   2.539   2.893   8.615 -0.5773 -0.0390 -0.3091
 5318SOL     OW27589   3.460   2.835  16.520 -0.0731  0.0798  0.0015
 5318SOL    HW127590   3.438   2.899  16.452  2.4191  1.4528  0.4880
 5318SOL    HW227591   3.371   2.815  16.549  0.2119  1.5281  1.8443
 5319SOL     OW27592   1.715   2.638   2.449 -0.1287  0.3984  0.5459
 5319SOL    HW127593   1.668   2.649   2.366  0.3877  0.5919  0.2799
 5319SOL    HW227594   1.770   2.716   2.449 -1.0157  1.0322 -1.7846
 5320SOL     OW27595   3.634   1.524  12.151 -0.0336 -0.6191 -0.3564
 5320SOL    HW127596   3.634   1.428  12.157  0.9435 -0.6602 -0.9926
 5320SOL    HW227597   3.552   1.546  12.196  1.4689 -0.9013  2.4753
 5321SOL     OW27598   4.349   0.245  11.940 -0.0650 -0.6430  0.1766
 5321SOL    HW127599   4.299   0.287  11.870  0.6489 -2.0044 -1.1538
 5321SOL    HW227600   4.312   0.287  12.018  0.4236  0.7142 -0.3212
 5322SOL     OW27601   0.845   0.913   3.806  0.5311 -0.0477  0.2416
 5322SOL    HW127602   0.808   0.836   3.849 -1.9618  0.6092 -0.7228
 5322SOL    HW227603   0.901   0.956   3.871 -1.1143  0.6557  1.2009
 5323SOL     OW27604   0.073   0.657   5.323  0.3391 -0.4797  0.5231
 5323SOL    HW127605   0.093   0.588   5.387  0.4054  1.1588  2.2601
 5323SOL    HW227606   0.161   0.661   5.286  0.8502 -2.4979  1.5062
 5324SOL     OW27607   0.149   2.941   7.280 -0.0722 -0.0020  0.1992
 5324SOL    HW127608   0.099   2.908   7.354  0.5107 -1.0116  0.1490
 5324SOL    HW227609   0.225   2.978   7.326 -1.1841  0.5135  1.5997
 5325SOL     OW27610   3.767   4.380   1.966  0.3492 -0.5315 -0.2697
 5325SOL    HW127611   3.836   4.444   1.951 -0.9657  0.6888 -1.0861
 5325SOL    HW227612   3.782   4.332   1.885  1.9570 -3.2936  1.6532
 5326SOL     OW27613   1.439   0.589  12.006 -0.1213  1.2043  0.0495
 5326SOL    HW127614   1.349   0.608  11.980 -0.9661 -1.2936  1.1087
 5326SOL    HW227615   1.482   0.673  11.990 -1.2442  1.3471 -2.1586
 5327SOL     OW27616   2.215   3.181   2.257 -0.1755  0.3206 -0.0105
 5327SOL    HW127617   2.243   3.207   2.169  0.9636  0.4272  0.3758
 5327SOL    HW227618   2.286   3.231   2.297 -0.5723  1.0075 -0.1750
 5328SOL     OW27619   2.741   4.432   5.925 -0.1133  0.0056  0.0798
 5328SOL    HW127620   2.719   4.398   6.012 -2.5950 -0.1979 -0.6334
 5328SOL    HW227621   2.693   4.515   5.928  0.9884  0.6111  0.7954
 5329SOL     OW27622   2.759   0.616  12.510 -0.1216 -0.4215 -0.0806
 5329SOL    HW127623   2.813   0.599  12.433 -2.2868 -0.6298 -1.5790
 5329SOL    HW227624   2.831   0.636  12.569 -0.0326 -0.1893 -0.2697
 5330SOL     OW27625   2.518   1.167   2.279 -0.0077 -0.6433  0.0777
 5330SOL    HW127626   2.443   1.156   2.220  0.0488  0.9281 -0.2801
 5330SOL    HW227627   2.541   1.259   2.266  0.2712 -0.5137  1.5868
 5331SOL     OW27628   3.348   2.946  16.298 -0.2278  0.0125 -0.0231
 5331SOL    HW127629   3.349   2.890  16.220  0.0173 -0.1552  0.1019
 5331SOL    HW227630   3.284   3.008  16.263 -1.6977 -1.3951  0.1923
 5332SOL     OW27631   1.847   4.262   7.094  0.2196 -0.2231  0.7251
 5332SOL    HW127632   1.786   4.205   7.046  0.4106 -1.8343  2.4276
 5332SOL    HW227633   1.912   4.200   7.126  0.2081 -0.1751  0.8402
 5333SOL     OW27634   1.691   1.578   2.105  0.1607  0.0282 -0.0492
 5333SOL    HW127635   1.713   1.515   2.037 -0.9929 -0.1567 -0.2550
 5333SOL    HW227636   1.627   1.520   2.147 -0.3247 -1.9389 -3.4856
 5334SOL     OW27637   3.224   0.774   3.038 -0.1686  0.2689  0.1032
 5334SOL    HW127638   3.272   0.698   3.071  1.0450  0.2701 -1.6460
 5334SOL    HW227639   3.231   0.756   2.945 -0.2405 -2.3290  0.6177
 5335SOL     OW27640   1.021   2.392   5.278 -0.2100  0.7268  0.3342
 5335SOL    HW127641   1.041   2.375   5.370 -1.2758  0.2181  0.4652
 5335SOL    HW227642   1.043   2.310   5.235 -0.7143  1.0768 -0.5855
 5336SOL     OW27643   1.751   0.181   8.712 -0.3327  0.5020 -0.0231
 5336SOL    HW127644   1.743   0.122   8.637  1.4544 -0.8673  0.8842
 5336SOL    HW227645   1.837   0.223   8.702  0.7381 -1.3715  1.3610
 5337SOL     OW27646   0.671   0.885  11.415 -0.0758  0.1389  0.1981
 5337SOL    HW127647   0.743   0.824  11.402 -0.8501 -0.6914 -0.1821
 5337SOL    HW227648   0.594   0.841  11.380  0.4956 -2.5049  2.2578
 5338SOL     OW27649   0.577   0.164   2.500 -0.6732 -0.0924 -0.9105
 5338SOL    HW127650   0.491   0.135   2.470 -0.3083 -1.0604 -0.9940
 5338SOL    HW227651   0.601   0.080   2.540  1.6501  0.4553 -1.1784
 5339SOL     OW27652   1.602   1.326   3.236  0.4720 -0.0464 -0.2146
 5339SOL    HW127653   1.662   1.293   3.303  0.3047  0.4022  0.1538
 5339SOL    HW227654   1.661   1.382   3.187  0.3806  2.5686  2.6971
 5340SOL     OW27655   2.805   0.340   9.021  0.5305 -0.3364 -0.2880
 5340SOL    HW127656   2.819   0.263   8.966  0.7217 -3.1211  3.6277
 5340SOL    HW227657   2.895   0.357   9.049  0.7645 -3.0190  0.5352
 5341SOL     OW27658   4.400   1.026   3.598 -0.4232 -0.8610 -0.2215
 5341SOL    HW127659   4.366   0.993   3.681  0.9325 -0.2343  0.5836
 5341SOL    HW227660   4.477   0.970   3.588 -0.5174 -1.2382  1.2175
 5342SOL     OW27661   0.190   1.131   1.129  0.1656 -0.1865 -0.7241
 5342SOL    HW127662   0.270   1.135   1.181 -0.4040 -1.0954  0.2415
 5342SOL    HW227663   0.219   1.157   1.042  1.5200 -1.7395 -0.7393
 5343SOL     OW27664   1.665   0.268   1.465  0.0345  0.8419 -0.2378
 5343SOL    HW127665   1.695   0.340   1.410 -2.4336  0.2192 -2.3898
 5343SOL    HW227666   1.638   0.320   1.541  0.3990  1.4089 -0.4950
 5344SOL     OW27667   2.188   0.890   3.274 -0.0376 -0.2113  0.2033
 5344SOL    HW127668   2.209   0.974   3.232  2.1280 -0.6680  0.3898
 5344SOL    HW227669   2.195   0.827   3.204  0.4614 -0.2487  0.2901
 5345SOL     OW27670   3.249   1.550   2.562  0.0600  0.1209 -0.3770
 5345SOL    HW127671   3.182   1.512   2.619  2.4555 -1.9746  1.0726
 5345SOL    HW227672   3.259   1.639   2.597 -1.8261 -0.1378  0.8282
 5346SOL     OW27673   3.448   3.822  17.459 -0.3280  0.4468  0.1048
 5346SOL    HW127674   3.444   3.912  17.425 -0.7838  0.3552 -0.0816
 5346SOL    HW227675   3.456   3.788  17.370 -2.7597 -0.2345  0.1482
 5347SOL     OW27676   0.127   2.297  17.629 -0.0908 -0.3160 -0.0733
 5347SOL    HW127677   0.056   2.288  17.565  0.1938 -0.5341 -0.3595
 5347SOL    HW227678   0.197   2.245  17.588  0.2527 -1.4459  1.9596
 5348SOL     OW27679   3.402   3.188   0.387 -0.6271 -0.1499  0.3416
 5348SOL    HW127680   3.441   3.213   0.471  1.7754  1.3017 -1.2239
 5348SOL    HW227681   3.464   3.222   0.323 -1.5881 -1.3522 -1.2310
 5349SOL     OW27682   1.650   3.083   8.864 -0.4734 -0.5176 -0.0648
 5349SOL    HW127683   1.644   2.988   8.869  1.8010 -0.7123 -0.9885
 5349SOL    HW227684   1.572   3.104   8.812 -0.3238 -3.5658 -1.4802
 5350SOL     OW27685   3.314   2.045   5.483  0.4048  0.0011 -0.0203
 5350SOL    HW127686   3.280   2.133   5.502  1.1820  0.5020 -0.9343
 5350SOL    HW227687   3.247   2.003   5.429 -0.6463  1.1833  0.3847
 5351SOL     OW27688   2.482   2.853  13.226  0.5315 -0.0992  0.5262
 5351SOL    HW127689   2.434   2.783  13.270  0.5113  1.0483  2.3397
 5351SOL    HW227690   2.541   2.880  13.296  0.2539  1.0993  0.2966
 5352SOL     OW27691   2.139   4.299  12.289 -0.1411 -0.5695  0.2933
 5352SOL    HW127692   2.199   4.245  12.341 -1.5026 -1.2590  1.1778
 5352SOL    HW227693   2.199   4.366  12.257  0.0560 -1.2330 -0.7190
 5353SOL     OW27694   4.270   3.204  17.676  0.7388  0.2477  0.2225
 5353SOL    HW127695   4.286   3.135  17.612  0.1792  0.4651 -0.1462
 5353SOL    HW227696   4.346   3.262  17.664  0.9687  0.6319  3.5052
 5354SOL     OW27697   0.272   2.877   4.214 -0.0228  0.3223  0.2333
 5354SOL    HW127698   0.219   2.816   4.162  0.8776  0.6759 -1.1008
 5354SOL    HW227699   0.270   2.840   4.302 -2.6802 -3.2435 -1.3524
 5355SOL     OW27700   4.407   4.559   3.577 -0.1058  0.1503  0.2967
 5355SOL    HW127701   4.345   4.607   3.631 -0.1042  2.7787 -2.0525
 5355SOL    HW227702   4.483   4.542   3.632  0.2453 -0.8684 -0.4777
 5356SOL     OW27703   1.676   3.906   4.966  0.3384 -0.0264  0.3317
 5356SOL    HW127704   1.727   3.979   5.000  1.2772 -0.1806 -0.7583
 5356SOL    HW227705   1.605   3.894   5.029  0.8126 -0.9004  0.6906
 5357SOL     OW27706   1.089   4.677   0.820  0.1999  0.2965 -0.4416
 5357SOL    HW127707   0.997   4.690   0.795 -0.5568 -0.1734  2.0856
 5357SOL    HW227708   1.112   0.014   0.881 -0.9151 -1.2820  1.8147
 5358SOL     OW27709   3.160   1.716   8.125 -0.9529 -0.0541  0.0153
 5358SOL    HW127710   3.226   1.647   8.136  0.0626  0.7577 -0.9891
 5358SOL    HW227711   3.083   1.673   8.161 -0.8380 -1.3143 -1.2468
 5359SOL     OW27712   0.830   4.157  11.276 -0.2489 -0.0498 -0.5122
 5359SOL    HW127713   0.830   4.137  11.369  0.4346 -1.8946 -0.9269
 5359SOL    HW227714   0.856   4.083  11.221 -0.3106 -0.3386 -0.1496
 5360SOL     OW27715   3.717   1.973  16.345  0.4462  0.7418 -0.2998
 5360SOL    HW127716   3.742   2.043  16.284  0.3450 -0.5830 -1.8609
 5360SOL    HW227717   3.625   1.965  16.321 -0.0382  0.2206  1.7466
 5361SOL     OW27718   3.933   1.721   8.834  0.0203  0.1423  0.0157
 5361SOL    HW127719   3.876   1.742   8.907  1.9946  1.2639  1.2482
 5361SOL    HW227720   3.992   1.655   8.872 -0.4425  0.7443  1.7395
 5362SOL     OW27721   4.445   1.988   1.843 -0.1974 -0.6562 -0.1865
 5362SOL    HW127722   4.533   2.024   1.828  0.1957 -0.9218  1.4325
 5362SOL    HW227723   4.473   1.902   1.812 -2.4718 -0.3514 -3.0667
 5363SOL     OW27724   3.951   2.279  15.772  0.8266 -0.0157  0.3622
 5363SOL    HW127725   3.866   2.297  15.812 -0.4163  2.0334 -3.1431
 5363SOL    HW227726   3.984   2.363  15.739  0.1161 -0.9041 -2.6593
 5364SOL     OW27727   3.136   4.350   0.422  0.4557  0.4892  0.2356
 5364SOL    HW127728   3.231   4.358   0.416  0.8928 -3.4894  1.6051
 5364SOL    HW227729   3.114   4.434   0.462 -0.8422  0.8541 -1.2133
 5365SOL     OW27730   3.371   3.124   4.210 -0.2449 -0.1228  0.0269
 5365SOL    HW127731   3.390   3.144   4.118 -2.4606  3.3670  0.3243
 5365SOL    HW227732   3.332   3.037   4.210 -0.8698  0.1576  0.0184
 5366SOL     OW27733   4.187   3.711   5.292  0.2862  0.8798 -0.3051
 5366SOL    HW127734   4.199   3.716   5.387 -0.6636 -0.7657 -0.0873
 5366SOL    HW227735   4.202   3.618   5.275  0.1622  1.1095 -1.6380
 5367SOL     OW27736   3.462   1.099   4.628 -0.1895  0.3178  0.1079
 5367SOL    HW127737   3.515   1.123   4.552  1.2180  1.0696  1.3316
 5367SOL    HW227738   3.478   1.177   4.681  1.7839  0.6252 -0.9142
 5368SOL     OW27739   0.448   4.680  14.759  1.2059  0.0532 -0.0506
 5368SOL    HW127740   0.359   4.678  14.726  1.8611 -1.6351 -1.6852
 5368SOL    HW227741   0.478   4.605  14.708 -1.5368  0.8297 -2.8118
 5369SOL     OW27742   2.388   2.173   2.455 -0.3860 -0.2674  0.0835
 5369SOL    HW127743   2.442   2.095   2.466  0.6669  0.2717 -1.2797
 5369SOL    HW227744   2.391   2.221   2.538  0.4941  0.6021 -0.4543
 5370SOL     OW27745   4.351   1.242   5.593 -0.0164 -0.2151  0.5785
 5370SOL    HW127746   4.435   1.272   5.559  0.5805 -1.5709  0.8656
 5370SOL    HW227747   4.293   1.308   5.556 -0.7227  0.2389  2.5045
 5371SOL     OW27748   4.607   0.999   7.892  0.1147 -0.7095 -0.1199
 5371SOL    HW127749   4.559   0.919   7.869 -0.9754 -0.5533  1.6160
 5371SOL    HW227750   4.551   1.069   7.861 -1.8555 -2.9456 -1.6077
 5372SOL     OW27751   2.321   1.841  16.278 -0.1033  0.6977  0.3185
 5372SOL    HW127752   2.331   1.884  16.193 -1.0940 -0.3942 -0.3465
 5372SOL    HW227753   2.288   1.914  16.329  2.0773  3.7136 -2.6119
 5373SOL     OW27754   1.317   3.403   7.938 -0.2061 -0.0817  0.0940
 5373SOL    HW127755   1.328   3.389   8.032 -0.4406 -1.1431 -0.0371
 5373SOL    HW227756   1.227   3.370   7.934  0.3938 -1.7671  0.5010
 5374SOL     OW27757   3.435   1.365   8.555  0.5648  0.3817  0.0602
 5374SOL    HW127758   3.462   1.366   8.647  0.3376 -0.6470  0.1373
 5374SOL    HW227759   3.421   1.458   8.542 -0.6619  0.0115 -1.3016
 5375SOL     OW27760   2.152   4.518  15.944  0.5151  0.0541 -0.1645
 5375SOL    HW127761   2.233   4.568  15.943  0.4481  0.1702  0.1347
 5375SOL    HW227762   2.163   4.479  16.031 -2.8313  0.0708  0.2607
 5376SOL     OW27763   0.706   2.982   2.697 -0.0792 -0.1726 -0.2701
 5376SOL    HW127764   0.644   3.054   2.691 -0.0199 -0.2076 -1.2453
 5376SOL    HW227765   0.733   2.983   2.605 -0.9476  3.2321 -0.4753
 5377SOL     OW27766   2.944   0.760   8.547 -0.2703  0.4946 -0.3396
 5377SOL    HW127767   2.886   0.690   8.578 -2.9031  2.4920 -0.7011
 5377SOL    HW227768   3.031   0.724   8.566 -0.7941 -0.5938  0.0174
 5378SOL     OW27769   4.455   3.341   5.991  0.6389  0.2272  0.9621
 5378SOL    HW127770   4.497   3.275   6.046  3.1935  1.1173  0.0928
 5378SOL    HW227771   4.521   3.410   6.003 -0.5677  1.4287  0.6664
 5379SOL     OW27772   0.541   2.390  10.090 -0.5108  0.6037 -0.0148
 5379SOL    HW127773   0.559   2.481  10.115  0.9164 -0.0053  1.1834
 5379SOL    HW227774   0.619   2.355  10.133 -0.3128  0.7612 -0.2449
 5380SOL     OW27775   1.209   3.784   1.412  0.0466  0.1494  0.2410
 5380SOL    HW127776   1.291   3.780   1.363 -0.9064  0.6772 -1.4373
 5380SOL    HW227777   1.220   3.726   1.487  0.6622  1.1773  0.9379
 5381SOL     OW27778   3.747   0.567   9.499  0.0166  0.1540 -0.0034
 5381SOL    HW127779   3.786   0.528   9.421  0.7125  1.8395 -0.5036
 5381SOL    HW227780   3.700   0.491   9.533  0.9327 -0.3166  0.2134
 5382SOL     OW27781   3.741   1.915   6.384 -0.2924  0.0331 -0.1273
 5382SOL    HW127782   3.731   1.975   6.458 -2.6812  0.1897 -0.5729
 5382SOL    HW227783   3.651   1.902   6.354  0.0173 -1.5270 -0.3912
 5383SOL     OW27784   3.220   0.185  11.571 -0.1022 -0.1692 -0.2175
 5383SOL    HW127785   3.280   0.257  11.593 -0.7385  1.3669 -3.5834
 5383SOL    HW227786   3.283   0.113  11.574 -0.4832 -0.5516 -1.6291
 5384SOL     OW27787   4.132   3.933  11.310 -0.1775 -0.3919  1.1211
 5384SOL    HW127788   4.104   3.859  11.257 -1.1170 -0.2353  1.3897
 5384SOL    HW227789   4.053   3.968  11.352  0.5066  0.6268  1.5529
 5385SOL     OW27790   2.001   3.976   6.013 -0.1900  0.0759 -0.8680
 5385SOL    HW127791   1.952   3.923   6.078  2.8740 -1.3829  0.2434
 5385SOL    HW227792   2.066   4.024   6.064  0.7376 -2.5823  0.4782
 5386SOL     OW27793   0.459   3.061  16.613  0.3750  0.7596 -0.1070
 5386SOL    HW127794   0.427   3.003  16.683  0.4505 -0.1737 -0.8401
 5386SOL    HW227795   0.491   2.999  16.547  0.7876 -0.2715  1.0657
 5387SOL     OW27796   4.665   0.043   6.720  0.0629 -0.8158 -0.3851
 5387SOL    HW127797   4.588   0.096   6.739  1.0590  0.6329 -0.3829
 5387SOL    HW227798   4.679   0.014   6.810  1.2997  3.1700  0.7155
 5388SOL     OW27799   3.070   2.256   7.356 -0.2414 -0.4401 -0.1301
 5388SOL    HW127800   3.159   2.289   7.370 -0.2063  0.7334 -3.1283
 5388SOL    HW227801   3.085   2.170   7.395  1.0610 -1.6691 -3.3132
 5389SOL     OW27802   0.885   0.292  14.805 -0.0104 -0.2762 -0.0430
 5389SOL    HW127803   0.905   0.212  14.853  1.6649  1.3124  1.9016
 5389SOL    HW227804   0.861   0.242  14.727  0.3879 -1.3611  0.5261
 5390SOL     OW27805   1.832   3.247  11.224  0.0459 -0.0562 -0.3114
 5390SOL    HW127806   1.745   3.211  11.241  0.1040  0.1545  0.4348
 5390SOL    HW227807   1.853   3.283  11.311 -0.0406  2.3222 -1.2845
 5391SOL     OW27808   2.260   0.919  11.570  0.5870 -0.6578 -0.5982
 5391SOL    HW127809   2.341   0.917  11.621  1.5273  1.4384 -2.0474
 5391SOL    HW227810   2.223   1.007  11.579 -1.1790 -1.4998  0.5881
 5392SOL     OW27811   1.690   1.255  15.510 -0.7497 -0.3093  0.6154
 5392SOL    HW127812   1.669   1.162  15.513 -1.6240 -0.1365  0.0287
 5392SOL    HW227813   1.758   1.266  15.576  0.6755 -1.3202 -0.6760
 5393SOL     OW27814   2.738   0.938   5.074  0.3047  0.6000  0.0754
 5393SOL    HW127815   2.697   1.024   5.087  0.3197  0.3226  2.0640
 5393SOL    HW227816   2.681   0.901   5.007 -0.0024  0.5373  0.3669
 5394SOL     OW27817   3.310   4.030  14.929 -0.5640  0.4320  0.0910
 5394SOL    HW127818   3.299   4.115  14.887 -1.1296  0.2370 -0.1505
 5394SOL    HW227819   3.399   4.005  14.904  0.4497  3.7787  0.4954
 5395SOL     OW27820   4.021   3.859  15.823  0.5935 -0.2142 -0.1368
 5395SOL    HW127821   4.115   3.867  15.842  0.6614 -1.7316  0.1593
 5395SOL    HW227822   3.990   3.947  15.843 -0.9041 -0.9315  0.6943
 5396SOL     OW27823   4.020   2.500   4.474 -0.2888 -0.1878  0.1958
 5396SOL    HW127824   3.927   2.478   4.482 -0.3346 -0.3498 -0.7891
 5396SOL    HW227825   4.025   2.488   4.379 -0.9587 -2.0206  0.3895
 5397SOL     OW27826   3.968   1.776   6.303 -0.8101 -0.2110 -0.1444
 5397SOL    HW127827   3.984   1.834   6.229 -2.2471 -0.5648 -0.7392
 5397SOL    HW227828   3.888   1.817   6.333  1.0040  3.2193 -0.0495
 5398SOL     OW27829   0.270   3.166   7.547  0.7060 -0.3247 -0.2418
 5398SOL    HW127830   0.246   3.216   7.625 -0.1243 -0.7609 -0.2260
 5398SOL    HW227831   0.232   3.223   7.479 -2.2613 -1.5564  0.3776
 5399SOL     OW27832   1.072   0.257   9.459 -0.7013 -0.3355  0.1188
 5399SOL    HW127833   1.066   0.161   9.464 -0.7398 -0.4634 -2.6577
 5399SOL    HW227834   0.991   0.282   9.503 -0.7751 -0.1314 -0.1350
 5400SOL     OW27835   1.973   4.314   8.274  0.2716  0.2604 -0.2936
 5400SOL    HW127836   2.029   4.347   8.345 -0.0377  1.0935 -0.4451
 5400SOL    HW227837   1.940   4.391   8.228  0.5774 -0.1332 -1.1836
 5401SOL     OW27838   3.806   0.892   2.634  0.1787 -0.2210  0.0144
 5401SOL    HW127839   3.834   0.823   2.574  0.4770  0.4143 -0.5698
 5401SOL    HW227840   3.821   0.842   2.715 -0.5672 -3.0170 -1.5746
 5402SOL     OW27841   0.763   0.595  12.409 -0.0984 -0.4086 -0.2230
 5402SOL    HW127842   0.827   0.525  12.422  0.9886  0.4138 -1.1845
 5402SOL    HW227843   0.814   0.665  12.370  0.6713 -0.2550  1.0350
 5403SOL     OW27844   2.810   1.623   4.005 -0.0133  0.3697  0.5726
 5403SOL    HW127845   2.853   1.696   3.961 -0.8715  1.0072  0.8024
 5403SOL    HW227846   2.770   1.575   3.932  1.2768 -0.1499  0.2027
 5404SOL     OW27847   2.663   4.212  12.451 -0.4793  0.2684 -0.1972
 5404SOL    HW127848   2.739   4.175  12.406  1.7677 -0.8914  4.5236
 5404SOL    HW227849   2.688   4.304  12.452  0.0470  0.1091  2.1504
 5405SOL     OW27850   4.588   3.851   8.692  0.0133  0.2700 -0.2146
 5405SOL    HW127851   4.501   3.857   8.731 -0.4648 -0.0878 -1.2413
 5405SOL    HW227852   4.591   3.935   8.647  1.2722 -0.5966 -1.7347
 5406SOL     OW27853   3.735   0.961   7.161 -0.4913 -0.4647  0.1084
 5406SOL    HW127854   3.724   1.037   7.104 -0.1134  0.6376  1.4911
 5406SOL    HW227855   3.813   0.921   7.123  0.4702  3.1951 -1.7494
 5407SOL     OW27856   2.832   1.152   2.373 -0.4974 -0.2626  0.8850
 5407SOL    HW127857   2.787   1.226   2.331 -0.8924  0.1839  2.0799
 5407SOL    HW227858   2.784   1.128   2.453  1.9551 -2.2477  1.7381
 5408SOL     OW27859   2.605   1.991   2.535 -0.0739  0.1552  0.3916
 5408SOL    HW127860   2.602   1.897   2.521  0.4407  0.0551  0.9378
 5408SOL    HW227861   2.593   1.988   2.630 -2.9886 -1.7940 -0.0396
 5409SOL     OW27862   4.457   4.501   8.457  0.2607  0.2278  0.5753
 5409SOL    HW127863   4.375   4.512   8.409  0.2106 -1.6832  0.2358
 5409SOL    HW227864   4.449   4.423   8.513  2.2110 -0.2186  0.2289
 5410SOL     OW27865   2.107   3.522   4.495  0.0716 -0.2670  0.2169
 5410SOL    HW127866   2.052   3.598   4.477 -0.0779 -0.0658  1.5893
 5410SOL    HW227867   2.144   3.506   4.408 -1.3621 -0.5664 -0.3446
 5411SOL     OW27868   0.737   1.317   1.169 -0.1438  0.5688 -0.2133
 5411SOL    HW127869   0.712   1.409   1.176  1.4077  0.9643  0.2750
 5411SOL    HW227870   0.672   1.279   1.110 -0.4457  1.4868 -0.4611
 5412SOL     OW27871   2.792   0.446   5.805  0.3998 -0.1474 -0.2299
 5412SOL    HW127872   2.881   0.437   5.770  0.1824 -0.7885 -0.6135
 5412SOL    HW227873   2.757   0.358   5.790  0.5205 -0.4190  1.0922
 5413SOL     OW27874   1.754   4.609   2.532  0.1005 -0.1373  0.3690
 5413SOL    HW127875   1.816   4.672   2.495 -1.0988 -0.1444 -1.6189
 5413SOL    HW227876   1.784   4.520   2.512 -0.8139 -0.7482  1.6438
 5414SOL     OW27877   1.135   1.261  11.508  0.4047  0.2688  0.3635
 5414SOL    HW127878   1.083   1.299  11.578  0.8077 -1.3422  1.5534
 5414SOL    HW227879   1.120   1.168  11.526 -0.6438  0.4933  0.6376
 5415SOL     OW27880   2.007   0.862  11.684  0.1785 -0.0815  0.0127
 5415SOL    HW127881   2.029   0.934  11.744 -3.3801  0.5814  0.5154
 5415SOL    HW227882   2.087   0.871  11.632  1.3208  1.0001  1.9448
 5416SOL     OW27883   1.399   2.178   4.662  0.4438  0.1537  0.1066
 5416SOL    HW127884   1.404   2.260   4.614 -0.7760  0.4162  0.4354
 5416SOL    HW227885   1.315   2.193   4.706 -0.1527 -0.3100 -0.8492
 5417SOL     OW27886   2.094   2.358   6.507  0.4727 -0.3774  0.3704
 5417SOL    HW127887   2.122   2.267   6.496  1.0037 -0.2416  0.5855
 5417SOL    HW227888   1.999   2.358   6.495  0.8087  0.6418 -2.2473
 5418SOL     OW27889   4.573   1.496  12.038  0.2430 -0.2262  0.5695
 5418SOL    HW127890   4.602   1.585  12.059  0.1885  0.2890 -1.5358
 5418SOL    HW227891   4.640   1.450  12.089  1.3606  1.0105  0.2039
 5419SOL     OW27892   1.620   0.809   7.962  0.5908  0.6958  0.5166
 5419SOL    HW127893   1.591   0.819   8.053  1.3199  0.6243  0.7627
 5419SOL    HW227894   1.608   0.898   7.931  0.1246  0.0118 -1.2276
 5420SOL     OW27895   3.158   3.748   2.060 -0.3287  0.3654  0.3245
 5420SOL    HW127896   3.166   3.773   1.968 -1.7325  0.6151  0.2720
 5420SOL    HW227897   3.236   3.699   2.085 -1.0693 -0.5325  0.8521
 5421SOL     OW27898   3.021   3.296   0.663  0.0041  0.0328  0.2067
 5421SOL    HW127899   2.972   3.215   0.650  0.6124 -0.3224  0.1532
 5421SOL    HW227900   2.952   3.352   0.698  0.5920  1.2055 -0.4929
 5422SOL     OW27901   2.655   4.459  15.595 -0.2316 -0.0758  0.4634
 5422SOL    HW127902   2.577   4.513  15.588  0.1046  0.1536 -1.6102
 5422SOL    HW227903   2.648   4.410  15.513  0.6186  2.5270 -1.1586
 5423SOL     OW27904   1.612   4.552   2.914  0.1767  0.6574 -0.1944
 5423SOL    HW127905   1.646   4.641   2.911  2.0685 -0.0538  0.7804
 5423SOL    HW227906   1.520   4.578   2.921 -0.3663 -0.7606 -1.9510
 5424SOL     OW27907   0.718   0.519  14.517  0.3982 -0.1232 -0.2219
 5424SOL    HW127908   0.776   0.559  14.582 -0.9027  1.6763 -0.1865
 5424SOL    HW227909   0.728   0.427  14.544 -0.0511 -0.6194 -1.7814
 5425SOL     OW27910   2.951   2.148   1.751 -0.3822 -0.0821 -0.5340
 5425SOL    HW127911   2.951   2.170   1.658  0.1528 -0.4986 -0.6319
 5425SOL    HW227912   2.996   2.225   1.786  2.2163 -1.8148 -0.0655
 5426SOL     OW27913   3.305   0.769  12.174 -0.2914  0.4949 -0.3508
 5426SOL    HW127914   3.262   0.784  12.258  0.1893 -0.2148  0.0186
 5426SOL    HW227915   3.368   0.703  12.204  2.2887  1.5502 -3.4043
 5427SOL     OW27916   1.764   2.927   4.509 -0.6454 -0.1224 -0.2584
 5427SOL    HW127917   1.689   2.871   4.530  1.3547 -3.4109 -1.8197
 5427SOL    HW227918   1.798   2.881   4.432  1.6985 -1.9275  1.8254
 5428SOL     OW27919   2.951   2.830  16.981  0.2821  0.9129  0.4513
 5428SOL    HW127920   3.046   2.836  16.980  0.4403 -1.6514 -2.6676
 5428SOL    HW227921   2.943   2.745  17.025  0.4709  0.7055  0.0845
 5429SOL     OW27922   0.936   1.323  12.407  0.0313  0.4083  0.2363
 5429SOL    HW127923   0.972   1.277  12.332  0.2435 -0.2353  0.7410
 5429SOL    HW227924   0.985   1.405  12.404  0.1191  0.4579  2.5838
 5430SOL     OW27925   1.710   2.246  10.255  0.2599  0.3579  0.1410
 5430SOL    HW127926   1.682   2.213  10.169  0.8226 -1.6098  0.7070
 5430SOL    HW227927   1.787   2.194  10.279 -0.0634 -0.1234  0.1268
 5431SOL     OW27928   3.880   3.706  16.736  0.7841 -0.0017  0.9233
 5431SOL    HW127929   3.881   3.775  16.669 -3.3983 -0.8165  0.0015
 5431SOL    HW227930   3.823   3.641  16.695  0.6664  2.5583 -3.0842
 5432SOL     OW27931   3.187   0.364   6.030  0.0272  0.0450 -0.0316
 5432SOL    HW127932   3.222   0.446   5.993 -1.2818 -0.2510 -1.9569
 5432SOL    HW227933   3.178   0.313   5.950  0.1774  2.3385 -1.5206
 5433SOL     OW27934   2.495   1.202   9.069 -0.0502  0.1327  0.4015
 5433SOL    HW127935   2.510   1.274   9.130  2.3436  0.7804 -0.9477
 5433SOL    HW227936   2.433   1.142   9.110 -0.0902  0.0794  0.2618
 5434SOL     OW27937   3.202   1.009   2.599  0.0949 -0.0766  0.1024
 5434SOL    HW127938   3.125   0.954   2.589  1.1445 -1.4399 -0.4778
 5434SOL    HW227939   3.199   1.055   2.515  1.6382  0.6506  0.4348
 5435SOL     OW27940   0.797   4.379  13.691 -0.4700  0.2845 -0.5679
 5435SOL    HW127941   0.788   4.353  13.783 -2.7889 -1.3191 -1.2320
 5435SOL    HW227942   0.743   4.459  13.689 -1.1746 -0.2263 -1.8394
 5436SOL     OW27943   4.445   0.745   8.634 -0.2048  0.3454  0.1818
 5436SOL    HW127944   4.464   0.777   8.546 -1.0026 -0.7198 -0.3842
 5436SOL    HW227945   4.462   0.822   8.688 -2.0616  1.4481 -0.8311
 5437SOL     OW27946   4.257   4.602  11.202 -1.1251 -0.6380  0.6255
 5437SOL    HW127947   4.210   4.642  11.129  0.3206  0.7163  0.4526
 5437SOL    HW227948   4.335   4.656  11.205 -0.9539 -0.9494  2.2702
 5438SOL     OW27949   1.040   2.881   5.759  0.2789  0.4365 -0.1210
 5438SOL    HW127950   1.030   2.824   5.683  0.9758  0.2458 -0.0661
 5438SOL    HW227951   1.084   2.960   5.725 -1.4811  1.4439 -0.0707
 5439SOL     OW27952   4.516   3.670   7.773  0.2846  0.0983  0.6030
 5439SOL    HW127953   4.492   3.763   7.773  0.8288  0.2520 -1.6929
 5439SOL    HW227954   4.433   3.632   7.800 -0.2861 -2.3741 -4.5400
 5440SOL     OW27955   3.417   2.658   4.000  0.3743 -0.3570  0.1414
 5440SOL    HW127956   3.424   2.601   3.923  1.5476  1.3120 -0.9905
 5440SOL    HW227957   3.471   2.595   4.047 -0.8230 -2.2906 -1.0850
 5441SOL     OW27958   4.426   0.110   8.481 -0.0332 -0.7400 -0.0550
 5441SOL    HW127959   4.412   0.171   8.409  0.3504  0.7812  1.1730
 5441SOL    HW227960   4.489   0.045   8.449  0.4917 -0.2749  0.0570
 5442SOL     OW27961   4.632   3.746   5.227 -0.3267 -0.1361  0.2858
 5442SOL    HW127962   4.688   3.760   5.303  1.3282  0.2253 -0.9889
 5442SOL    HW227963   4.670   3.667   5.187 -0.2333 -0.5499  1.2053
 5443SOL     OW27964   1.451   4.721   4.734 -0.3152  0.4169 -0.2731
 5443SOL    HW127965   1.381   4.683   4.788 -0.6103 -1.0533 -1.6784
 5443SOL    HW227966   1.435   4.661   4.661  0.8217 -0.0278 -0.1652
 5444SOL     OW27967   1.535   2.110   3.174  1.0291  0.3104  0.6992
 5444SOL    HW127968   1.599   2.143   3.237  0.4527  3.1706 -0.2064
 5444SOL    HW227969   1.540   2.014   3.175  2.4530  0.3727 -0.5154
 5445SOL     OW27970   3.419   1.028   6.746  0.8353  0.3942 -0.0698
 5445SOL    HW127971   3.408   1.106   6.691 -0.5923 -0.7333 -1.3802
 5445SOL    HW227972   3.438   0.965   6.677  0.1569 -1.7534  1.7298
 5446SOL     OW27973   1.242   1.053   2.116 -0.8661 -0.4877 -0.0075
 5446SOL    HW127974   1.224   1.146   2.131  0.6664  0.0514 -1.5380
 5446SOL    HW227975   1.183   1.020   2.183  2.5497 -0.5404  2.9839
 5447SOL     OW27976   2.488   1.065  10.347  0.2266  0.9978  0.0337
 5447SOL    HW127977   2.453   1.096  10.431 -2.9827  0.4873 -1.1383
 5447SOL    HW227978   2.502   1.153  10.312  1.4577  1.7141  2.2587
 5448SOL     OW27979   0.629   0.237   5.258 -0.7432  0.2535 -0.2807
 5448SOL    HW127980   0.672   0.155   5.284 -0.9570  0.2437  0.0404
 5448SOL    HW227981   0.658   0.289   5.333  0.6758  1.6699 -1.8031
 5449SOL     OW27982   1.257   3.004   2.711 -0.7442  0.1698  0.0455
 5449SOL    HW127983   1.294   2.922   2.744 -0.4015  0.6876  0.9232
 5449SOL    HW227984   1.290   2.993   2.622  0.3493  0.9333  0.3729
 5450SOL     OW27985   4.709   0.683   8.736  0.7069 -0.2396 -0.1325
 5450SOL    HW127986   0.032   0.618   8.779 -1.1203 -1.2594  0.7137
 5450SOL    HW227987   0.023   0.766   8.733  0.6106 -0.1554  0.8107
 5451SOL     OW27988   0.856   2.082   6.217  0.7283  0.0838 -0.0979
 5451SOL    HW127989   0.911   2.098   6.140  0.1623  0.3450 -0.4506
 5451SOL    HW227990   0.823   2.172   6.222 -0.1066 -0.2883  0.9781
 5452SOL     OW27991   2.532   3.003   5.220 -0.1395  0.2410  0.2352
 5452SOL    HW127992   2.511   3.089   5.185 -1.4072 -0.6568 -1.2241
 5452SOL    HW227993   2.446   2.971   5.248  0.2066 -0.6544  0.2862
 5453SOL     OW27994   2.456   4.352  10.646  0.2262  0.3158 -0.5232
 5453SOL    HW127995   2.430   4.370  10.555  0.8569  1.7291 -0.4263
 5453SOL    HW227996   2.450   4.439  10.687  1.4267 -0.0301  0.3913
 5454SOL     OW27997   4.303   1.647   1.628 -0.1349  0.1869  0.3989
 5454SOL    HW127998   4.223   1.700   1.635 -0.7583 -1.0652  2.6180
 5454SOL    HW227999   4.280   1.578   1.690 -0.2061 -0.8229 -0.7654
 5455SOL     OW28000   4.675   3.600   8.451  0.4334 -0.0213  0.3803
 5455SOL    HW128001   4.701   3.685   8.486  1.0545 -0.0889  0.0790
 5455SOL    HW228002   4.666   3.546   8.529  0.1378 -0.1816  0.2341
 5456SOL     OW28003   3.599   0.735   7.799 -0.2121  0.6059 -0.0812
 5456SOL    HW128004   3.539   0.764   7.868 -0.9192  0.7710 -0.7623
 5456SOL    HW228005   3.675   0.783   7.830 -0.4213  1.2959 -0.6336
 5457SOL     OW28006   2.102   3.736  15.520  0.6913 -0.7076 -0.6326
 5457SOL    HW128007   2.065   3.823  15.507  2.6164  0.0070 -1.2432
 5457SOL    HW228008   2.177   3.772  15.566 -0.9740 -0.2296  1.7287
 5458SOL     OW28009   0.316   1.957   6.553  0.0855 -0.3085  0.2514
 5458SOL    HW128010   0.304   1.867   6.522 -1.7439  0.5638 -1.6205
 5458SOL    HW228011   0.379   1.981   6.485 -0.3070  0.5173  0.1843
 5459SOL     OW28012   4.413   0.918   2.546  0.8612  0.0650  0.5456
 5459SOL    HW128013   4.420   0.891   2.638  0.2783 -1.3410  0.1908
 5459SOL    HW228014   4.361   0.849   2.503 -0.0739  0.8375  0.4436
 5460SOL     OW28015   1.921   0.930   7.903  0.0223  0.3034 -0.0325
 5460SOL    HW128016   1.895   1.022   7.903 -0.6460  0.1117 -0.1724
 5460SOL    HW228017   1.924   0.907   7.810  0.7298 -1.4443  0.4098
 5461SOL     OW28018   3.223   4.696  10.057  0.1028 -0.3105 -0.0003
 5461SOL    HW128019   3.171   4.629  10.014  0.9377 -0.9694  0.0186
 5461SOL    HW228020   3.315   4.670  10.052  0.5174  1.2229 -0.5744
 5462SOL     OW28021   3.878   1.772   6.712 -0.2952  0.2049 -0.4850
 5462SOL    HW128022   3.970   1.794   6.724 -0.0380 -0.8281 -0.5149
 5462SOL    HW228023   3.868   1.681   6.740 -0.1788  0.1218 -0.7156
 5463SOL     OW28024   4.390   4.130   7.565  0.3653 -0.1418 -0.1046
 5463SOL    HW128025   4.301   4.165   7.563  0.6683  0.6437  0.4293
 5463SOL    HW228026   4.434   4.207   7.531 -0.6024  0.8758  0.9647
 5464SOL     OW28027   1.790   1.441   9.087 -0.0815  0.0386  0.1520
 5464SOL    HW128028   1.695   1.436   9.098  0.1735 -1.4394  1.6153
 5464SOL    HW228029   1.787   1.433   8.991  0.3496  0.2720  0.1221
 5465SOL     OW28030   2.576   0.735   6.354  0.6440 -0.0742  0.1166
 5465SOL    HW128031   2.639   0.800   6.386 -0.0201  0.0001  1.2800
 5465SOL    HW228032   2.551   0.692   6.435 -0.9477 -0.9460 -0.8326
 5466SOL     OW28033   3.115   4.444   5.294 -0.1713  0.3546  0.9343
 5466SOL    HW128034   3.068   4.378   5.242 -0.7547 -0.4464  2.4704
 5466SOL    HW228035   3.040   4.466   5.349 -0.1303 -0.0088  1.1330
 5467SOL     OW28036   3.470   4.309   4.334  0.2385  0.0654 -0.6086
 5467SOL    HW128037   3.379   4.326   4.360  0.3555 -0.8556  0.3636
 5467SOL    HW228038   3.453   4.221   4.301  3.0952 -0.6120 -0.2728
 5468SOL     OW28039   3.933   0.159   8.057  0.0234  0.3464  0.0271
 5468SOL    HW128040   3.956   0.111   7.978 -0.9681 -2.4394  1.4272
 5468SOL    HW228041   3.871   0.094   8.090 -0.3466  0.0538 -1.2512
 5469SOL     OW28042   2.036   0.777   0.051  0.1190 -0.0113 -0.4848
 5469SOL    HW128043   1.958   0.767   0.105 -0.5933  0.7145 -1.3703
 5469SOL    HW228044   2.040   0.872   0.038  2.1348 -0.2239 -1.4241
 5470SOL     OW28045   1.322   3.557   8.954  0.0108  0.0025 -0.1774
 5470SOL    HW128046   1.242   3.609   8.962 -0.5257 -0.8218 -0.1395
 5470SOL    HW228047   1.281   3.470   8.949  1.7374 -1.0833  4.4074
 5471SOL     OW28048   0.051   0.562  17.562  0.3656  0.4210 -0.1838
 5471SOL    HW128049   0.088   0.517  17.486 -0.3308 -0.2009 -0.1558
 5471SOL    HW228050   0.104   0.641  17.558  2.2305 -0.6569  3.5428
 5472SOL     OW28051   1.706   2.843   7.403 -0.4971  0.1583 -0.4537
 5472SOL    HW128052   1.685   2.893   7.482  0.6374 -0.0843  0.0059
 5472SOL    HW228053   1.778   2.896   7.368  0.1402 -0.1977  0.3214
 5473SOL     OW28054   3.778   0.759   1.258 -0.4263  0.1321  0.5329
 5473SOL    HW128055   3.849   0.755   1.194 -0.1809 -0.2520  0.8273
 5473SOL    HW228056   3.824   0.739   1.340  1.8871  2.2608 -0.2518
 5474SOL     OW28057   2.028   3.471  15.304  0.1480 -0.0450  0.5871
 5474SOL    HW128058   2.104   3.457  15.361  0.0286 -0.3585  0.6734
 5474SOL    HW228059   2.036   3.565  15.288 -2.5138 -0.0845 -0.9489
 5475SOL     OW28060   2.363   2.681   1.389  0.0820 -0.0200  0.3582
 5475SOL    HW128061   2.322   2.721   1.466 -0.0222  0.8381 -0.1540
 5475SOL    HW228062   2.297   2.615   1.372 -1.3961  1.1819  1.4260
 5476SOL     OW28063   1.658   2.793   8.761  0.0612 -0.5857 -0.2337
 5476SOL    HW128064   1.698   2.822   8.679 -1.7314 -0.9304 -1.2293
 5476SOL    HW228065   1.707   2.713   8.776  0.8854  0.0339  0.3785
 5477SOL     OW28066   0.366   4.435   2.737 -0.8574  0.5558 -0.6406
 5477SOL    HW128067   0.430   4.455   2.804  0.7285 -1.7101 -1.4635
 5477SOL    HW228068   0.291   4.428   2.797 -2.2926 -0.0375 -2.4661
 5478SOL     OW28069   3.046   4.189   8.830 -0.0797  0.5870  0.0623
 5478SOL    HW128070   3.054   4.256   8.898 -2.9018  3.0261 -2.0115
 5478SOL    HW228071   2.952   4.181   8.818  0.1249 -3.2190  0.9189
 5479SOL     OW28072   4.566   2.198   5.934  0.1572  0.3334 -0.2624
 5479SOL    HW128073   4.575   2.124   5.874 -3.3391  0.1699 -0.5735
 5479SOL    HW228074   4.555   2.272   5.875  2.8313  1.3580  0.5037
 5480SOL     OW28075   1.581   3.256   0.794  0.0408 -0.3714  0.1381
 5480SOL    HW128076   1.656   3.293   0.749 -2.2782  2.9432 -1.0187
 5480SOL    HW228077   1.587   3.166   0.762  3.3732  0.4667 -1.5716
 5481SOL     OW28078   0.325   3.741  13.762 -0.6123  0.5805 -0.3045
 5481SOL    HW128079   0.413   3.711  13.787 -0.5087  0.9483 -0.2299
 5481SOL    HW228080   0.275   3.662  13.784  0.3499 -0.4499 -1.8174
 5482SOL     OW28081   3.335   4.476   5.715 -0.1494  0.4979 -0.4945
 5482SOL    HW128082   3.295   4.391   5.734  0.1943  0.2885 -0.7111
 5482SOL    HW228083   3.326   4.472   5.620 -0.4365  0.9784 -0.4878
 5483SOL     OW28084   1.776   4.529   5.950  0.3527  0.0843 -0.3503
 5483SOL    HW128085   1.864   4.533   5.911 -0.6893 -2.1486 -2.9290
 5483SOL    HW228086   1.718   4.493   5.883 -2.2603 -0.2508  2.0868
 5484SOL     OW28087   4.584   2.963  13.816  0.1349 -0.1668 -0.4026
 5484SOL    HW128088   4.640   3.038  13.800 -0.2484 -0.0717 -1.2624
 5484SOL    HW228089   4.501   2.992  13.779 -0.2601 -2.6969 -1.5404
 5485SOL     OW28090   2.915   3.360   7.975 -0.4890  0.4375  0.0259
 5485SOL    HW128091   2.873   3.303   7.910 -2.6785  1.4290  0.5839
 5485SOL    HW228092   2.989   3.306   8.003  0.4186  1.6255 -0.0763
 5486SOL     OW28093   4.018   2.532  15.674  0.3975 -0.4898 -0.0211
 5486SOL    HW128094   4.085   2.592  15.706 -0.7501  0.9101 -0.2246
 5486SOL    HW228095   3.982   2.578  15.598 -1.0749  2.5874  2.5565
 5487SOL     OW28096   2.537   1.827   3.591  0.3692  0.1682  0.4639
 5487SOL    HW128097   2.454   1.851   3.631 -0.3810 -2.2665  0.3463
 5487SOL    HW228098   2.582   1.909   3.569 -2.9137  1.7049 -0.4748
 5488SOL     OW28099   2.455   0.300   7.915 -0.1452  0.2924 -0.6713
 5488SOL    HW128100   2.360   0.309   7.914 -0.2832 -1.2981 -1.6935
 5488SOL    HW228101   2.463   0.368   7.849  0.1047 -0.6349 -1.6009
 5489SOL     OW28102   2.720   4.423   1.459 -0.4406  0.0963  0.0822
 5489SOL    HW128103   2.633   4.405   1.494 -0.6602 -1.3535 -1.1763
 5489SOL    HW228104   2.765   4.459   1.535 -0.6803  0.4685  0.0452
 5490SOL     OW28105   4.354   1.523  13.749  0.2895 -0.3273 -0.2420
 5490SOL    HW128106   4.434   1.549  13.703 -0.9715  1.7528 -1.2465
 5490SOL    HW228107   4.372   1.429  13.755 -0.5493 -0.2376  3.1007
 5491SOL     OW28108   0.355   2.145   6.788  0.0447  0.1388 -0.2776
 5491SOL    HW128109   0.320   2.092   6.717 -1.5815  1.1299 -0.2295
 5491SOL    HW228110   0.282   2.197   6.821  1.1378  1.3725  0.2004
 5492SOL     OW28111   4.328   2.636  11.825 -0.0991 -0.1258 -0.6701
 5492SOL    HW128112   4.322   2.728  11.798 -0.2926  0.2063  0.5045
 5492SOL    HW228113   4.362   2.592  11.747  1.3821 -0.9354  0.4297
 5493SOL     OW28114   2.973   0.702  12.679 -0.1522 -0.2884 -0.2465
 5493SOL    HW128115   3.010   0.790  12.665 -2.1203  0.9376  2.2230
 5493SOL    HW228116   2.950   0.727  12.768  1.1952  0.7494 -0.1822
 5494SOL     OW28117   2.843   4.683   8.105 -0.4727  0.1442 -0.0058
 5494SOL    HW128118   2.839   4.589   8.090  1.2321  0.0104  0.3438
 5494SOL    HW228119   2.937   4.694   8.117 -0.4515  0.8591 -0.8561
 5495SOL     OW28120   2.776   3.806  10.019 -0.3396 -0.0219 -0.1655
 5495SOL    HW128121   2.803   3.714  10.025  1.7267  0.5195 -1.1275
 5495SOL    HW228122   2.745   3.825  10.108 -0.5131  1.8681 -0.6305
 5496SOL     OW28123   0.776   0.990   7.021 -0.0453  1.1153 -0.1091
 5496SOL    HW128124   0.711   0.920   7.033 -0.8027  1.7886 -0.2377
 5496SOL    HW228125   0.835   0.942   6.964 -0.0579 -1.1645  1.7952
 5497SOL     OW28126   2.957   1.888  11.925  0.5386 -0.2749 -0.2957
 5497SOL    HW128127   2.925   1.910  11.837 -0.9139  1.6877  0.7276
 5497SOL    HW228128   2.910   1.941  11.989 -0.6125 -2.8774  1.0403
 5498SOL     OW28129   2.232   4.088   6.127  0.6367  0.7400 -0.5420
 5498SOL    HW128130   2.254   3.995   6.130  0.2676  0.6331 -1.2140
 5498SOL    HW228131   2.280   4.107   6.046 -1.1008  1.5222 -1.3972
 5499SOL     OW28132   4.375   3.025   9.211  0.2476 -0.0787 -0.4169
 5499SOL    HW128133   4.461   3.063   9.196  1.2234 -2.2388 -0.1810
 5499SOL    HW228134   4.394   2.943   9.256 -1.5441 -0.3812 -0.2157
 5500SOL     OW28135   2.692   3.179   8.457 -0.2417 -0.2935  0.1330
 5500SOL    HW128136   2.686   3.211   8.367  0.7279 -2.0839 -0.5761
 5500SOL    HW228137   2.610   3.201   8.501  0.6029  1.9205  0.6176
 5501SOL     OW28138   0.155   1.635   9.577 -0.0014 -0.3588  0.1931
 5501SOL    HW128139   0.235   1.634   9.629 -0.1739 -0.8603  0.4496
 5501SOL    HW228140   0.113   1.713   9.613 -0.5307  0.3431 -1.9294
 5502SOL     OW28141   1.620   3.247   8.211 -0.5603 -0.3897 -0.1770
 5502SOL    HW128142   1.628   3.323   8.269  0.7951  0.2971 -1.2498
 5502SOL    HW228143   1.696   3.265   8.154  0.0941 -1.1297  0.4649
 5503SOL     OW28144   2.522   1.657   5.293  0.4659  0.1467 -0.9781
 5503SOL    HW128145   2.593   1.687   5.236  1.7048  1.0757  1.0638
 5503SOL    HW228146   2.514   1.572   5.251 -0.8253 -0.3436  0.2672
 5504SOL     OW28147   2.726   3.101  14.975 -0.4726  0.0089  0.0218
 5504SOL    HW128148   2.649   3.050  14.951 -0.8361  0.9088 -0.7602
 5504SOL    HW228149   2.702   3.165  14.907  1.3245  2.1074  1.3559
 5505SOL     OW28150   1.346   3.488   7.675  0.7346 -0.1154 -0.3386
 5505SOL    HW128151   1.350   3.468   7.768 -0.0240  0.3759 -0.1990
 5505SOL    HW228152   1.293   3.413   7.648  0.2016 -0.4627  1.6713
 5506SOL     OW28153   0.931   1.057   4.705  0.0165 -0.6738  0.4069
 5506SOL    HW128154   0.927   1.093   4.793 -0.4142  0.0236  0.0997
 5506SOL    HW228155   0.935   0.965   4.732 -0.2961 -0.9888 -0.6292
 5507SOL     OW28156   3.169   3.384  10.202  0.4701 -0.3155  0.0264
 5507SOL    HW128157   3.165   3.310  10.141  0.7996  0.1652 -0.5847
 5507SOL    HW228158   3.131   3.345  10.280  1.1414 -0.3335  0.3393
 5508SOL     OW28159   2.758   1.383   0.322 -0.0047  0.0185 -0.0470
 5508SOL    HW128160   2.813   1.331   0.262 -0.0943  1.0294 -1.0138
 5508SOL    HW228161   2.796   1.352   0.404  2.0556 -1.5286 -1.5407
 5509SOL     OW28162   3.665   2.654  12.174 -0.1384  0.5920 -0.6707
 5509SOL    HW128163   3.710   2.617  12.250 -0.8552  1.6617  0.2851
 5509SOL    HW228164   3.596   2.586  12.172 -1.3187  1.7516  0.3707
 5510SOL     OW28165   0.113   1.076  14.793  0.5613  0.3976 -0.1313
 5510SOL    HW128166   0.068   1.159  14.803 -0.9450 -0.8680  3.6400
 5510SOL    HW228167   0.154   1.055  14.877  1.0099  0.2700 -0.3782
 5511SOL     OW28168   0.213   2.628   7.905 -0.3181 -0.3506 -0.0030
 5511SOL    HW128169   0.309   2.623   7.899 -0.1975  2.3290 -0.4381
 5511SOL    HW228170   0.198   2.612   7.998 -0.0804  2.4807  0.5354
 5512SOL     OW28171   4.110   2.275   3.371 -0.4048  0.3896  0.3630
 5512SOL    HW128172   4.014   2.278   3.367 -0.3475  1.4882 -0.2533
 5512SOL    HW228173   4.123   2.289   3.278 -0.6313 -0.6713  0.1672
 5513SOL     OW28174   1.601   1.619   5.106  0.1908  0.5475 -0.3760
 5513SOL    HW128175   1.545   1.630   5.184  1.6841  3.3692  0.2750
 5513SOL    HW228176   1.543   1.561   5.056  1.4637 -0.9390 -0.1402
 5514SOL     OW28177   0.505   4.574   5.288  1.1803 -1.1059  0.4475
 5514SOL    HW128178   0.459   4.516   5.349  0.8607 -0.8634  0.4398
 5514SOL    HW228179   0.580   4.606   5.338 -0.1175  1.5631  0.6684
 5515SOL     OW28180   3.152   0.383   3.242  0.2973  0.2180 -0.2198
 5515SOL    HW128181   3.183   0.460   3.288  0.7859  1.0839 -1.9867
 5515SOL    HW228182   3.213   0.388   3.168  1.3087  0.2520  0.6248
 5516SOL     OW28183   1.680   1.390   3.530 -0.3145 -0.1102  0.1891
 5516SOL    HW128184   1.660   1.476   3.568  0.5989  0.5082 -0.7415
 5516SOL    HW228185   1.633   1.329   3.587 -0.8720 -0.4410 -0.6273
 5517SOL     OW28186   1.293   1.762   2.904  0.0323  0.4870  0.1734
 5517SOL    HW128187   1.346   1.785   2.980  0.3742 -2.1064  0.7237
 5517SOL    HW228188   1.308   1.668   2.912  0.9722  0.4382 -2.0609
 5518SOL     OW28189   1.154   1.886   5.865  0.3917  0.5071 -0.0268
 5518SOL    HW128190   1.097   1.863   5.791  0.9602 -0.2227 -0.2346
 5518SOL    HW228191   1.189   1.801   5.891 -0.0790  0.6289  1.0058
 5519SOL     OW28192   3.223   3.890  10.183 -0.1170  0.1567  0.2767
 5519SOL    HW128193   3.190   3.802  10.164 -0.7750  0.4572  0.0405
 5519SOL    HW228194   3.312   3.865  10.208 -0.4653 -1.0371  0.3366
 5520SOL     OW28195   4.539   3.964  14.700 -0.1964  0.1300 -0.2724
 5520SOL    HW128196   4.506   3.972  14.790  2.7016  1.5285  0.6676
 5520SOL    HW228197   4.589   4.045  14.711  0.8441 -0.2605 -2.1483
 5521SOL     OW28198   1.448   3.593   1.733 -0.5129 -0.3449 -0.0998
 5521SOL    HW128199   1.363   3.577   1.692  0.3926 -1.9386 -1.3626
 5521SOL    HW228200   1.468   3.663   1.670 -1.4933  0.5971  0.6413
 5522SOL     OW28201   0.226   0.011   7.700 -0.2885  0.0000  0.1113
 5522SOL    HW128202   0.180   4.682   7.757 -1.2111  0.9676  0.4012
 5522SOL    HW228203   0.219   0.092   7.749 -1.1641  0.6097 -1.0328
 5523SOL     OW28204   1.244   0.632   6.422 -0.5273  0.3993 -0.4648
 5523SOL    HW128205   1.294   0.616   6.503  0.7193  4.0223 -0.5156
 5523SOL    HW228206   1.219   0.723   6.437 -0.0837  0.5202 -0.4469
 5524SOL     OW28207   0.891   4.147   8.468 -0.0444 -0.1700 -0.0892
 5524SOL    HW128208   0.811   4.151   8.519 -0.2914 -0.9071 -0.4239
 5524SOL    HW228209   0.866   4.194   8.388 -2.8127 -1.5749 -0.0241
 5525SOL     OW28210   0.360   1.344  12.881  0.2380  0.2460 -0.1675
 5525SOL    HW128211   0.305   1.303  12.948 -0.3409 -1.3878 -1.6489
 5525SOL    HW228212   0.447   1.333  12.919 -0.0204  1.1076  0.6620
 5526SOL     OW28213   1.905   4.283  12.136  0.0216  0.2663  0.5895
 5526SOL    HW128214   1.874   4.279  12.226  0.9155  0.6767  0.9103
 5526SOL    HW228215   1.992   4.247  12.150  0.0426  0.7965  1.7907
 5527SOL     OW28216   2.235   2.891   4.517  0.0298  0.1215 -0.4176
 5527SOL    HW128217   2.275   2.965   4.471 -0.5192  0.1990 -0.7673
 5527SOL    HW228218   2.228   2.934   4.603 -2.4441  2.2169 -1.6689
 5528SOL     OW28219   4.095   3.422   8.257 -0.0144  0.6429  0.2244
 5528SOL    HW128220   4.149   3.357   8.212  0.2782  0.7341  0.4487
 5528SOL    HW228221   4.061   3.360   8.321  1.0860 -0.1585  0.0184
 5529SOL     OW28222   3.378   3.364   6.834 -0.3152 -0.2037 -0.2132
 5529SOL    HW128223   3.328   3.319   6.902  1.4176 -1.1603  0.4564
 5529SOL    HW228224   3.351   3.455   6.838 -1.1815 -0.3840 -2.2404
 5530SOL     OW28225   3.272   3.201   5.938 -0.2562 -0.6533  0.5005
 5530SOL    HW128226   3.288   3.140   6.010  1.4677 -2.1868 -1.1786
 5530SOL    HW228227   3.358   3.244   5.939  0.1468 -1.4613  0.4864
 5531SOL     OW28228   2.124   0.954   8.732  0.1511  0.1195 -0.2086
 5531SOL    HW128229   2.106   0.861   8.719 -0.7652  0.4195 -1.0790
 5531SOL    HW228230   2.075   0.997   8.662 -2.0763 -3.4540 -0.8634
 5532SOL     OW28231   0.313   4.507   6.611  0.0578 -0.0307 -0.1159
 5532SOL    HW128232   0.274   4.445   6.673  0.0628  0.9317  0.8425
 5532SOL    HW228233   0.399   4.532   6.646 -0.5583 -0.1937  1.5244
 5533SOL     OW28234   1.493   0.370   5.316 -0.3926 -0.3950 -0.5796
 5533SOL    HW128235   1.534   0.290   5.283 -0.2564 -0.8905  0.8094
 5533SOL    HW228236   1.551   0.436   5.276 -1.5420  0.5682 -0.6763
 5534SOL     OW28237   4.654   3.224   2.053 -0.1991  0.4014 -0.2776
 5534SOL    HW128238   4.605   3.288   2.104  0.5620  0.2543  0.6538
 5534SOL    HW228239   4.676   3.172   2.131  0.3885  1.4213  0.2369
 5535SOL     OW28240   0.481   1.785   3.530  0.2695 -0.5442  0.5872
 5535SOL    HW128241   0.567   1.822   3.512 -0.3886 -0.9713 -3.3380
 5535SOL    HW228242   0.496   1.766   3.623  0.9603 -1.3527  0.3037
 5536SOL     OW28243   4.538   3.045   7.475  0.3332 -0.5902 -0.2312
 5536SOL    HW128244   4.612   2.994   7.507 -0.5886 -0.3994  2.2176
 5536SOL    HW228245   4.480   2.972   7.451 -0.9037  0.5139 -0.5631
 5537SOL     OW28246   2.302   2.813   5.356 -0.3110  0.0211 -0.1501
 5537SOL    HW128247   2.246   2.822   5.279  1.6038 -2.6678 -1.8902
 5537SOL    HW228248   2.250   2.738   5.384 -0.3228 -0.5039 -1.5891
 5538SOL     OW28249   4.548   3.541   5.024  0.3495  0.4792  0.6652
 5538SOL    HW128250   4.579   3.580   4.942  0.2195 -1.3180 -0.2346
 5538SOL    HW228251   4.453   3.534   5.016  0.4465  1.9166 -1.9920
 5539SOL     OW28252   1.499   2.938   8.477  0.4520  0.0303  0.2271
 5539SOL    HW128253   1.486   2.948   8.571  1.8106 -1.8445  0.6086
 5539SOL    HW228254   1.592   2.920   8.471  0.7177  1.4106  0.2481
 5540SOL     OW28255   0.760   2.069   2.681  0.0974 -0.2915 -0.3081
 5540SOL    HW128256   0.714   1.995   2.642 -1.8159  0.4838  0.4276
 5540SOL    HW228257   0.721   2.144   2.635 -1.6180 -0.4799  0.8489
 5541SOL     OW28258   2.997   3.626   7.629  0.3229  0.3942  0.2905
 5541SOL    HW128259   2.956   3.712   7.616 -0.6939  0.2467  2.6774
 5541SOL    HW228260   3.000   3.633   7.724 -0.7832  1.0954  0.2693
 5542SOL     OW28261   2.999   3.084   1.155  0.3168 -0.0785  0.1955
 5542SOL    HW128262   3.033   3.149   1.094  3.8833 -0.7376  1.4330
 5542SOL    HW228263   3.057   3.009   1.138  1.9308  0.9074  1.2838
 5543SOL     OW28264   3.521   2.897  10.566  0.1526  0.1494 -0.0466
 5543SOL    HW128265   3.492   2.824  10.512 -1.0334 -2.1301  3.6270
 5543SOL    HW228266   3.589   2.851  10.616  0.9872  0.4952 -0.8607
 5544SOL     OW28267   1.028   3.698  16.710  0.2885 -0.5468 -0.1297
 5544SOL    HW128268   0.949   3.657  16.675 -0.6664  0.2401  1.1079
 5544SOL    HW228269   1.061   3.629  16.768  0.0983 -1.7356 -1.4456
 5545SOL     OW28270   4.419   2.497   9.189  0.2530 -0.1840  0.0805
 5545SOL    HW128271   4.380   2.476   9.274  2.3772 -1.4514  0.7530
 5545SOL    HW228272   4.492   2.436   9.180  0.4909 -0.1558  1.8955
 5546SOL     OW28273   4.617   4.430   3.745 -0.0535 -0.1789 -0.3610
 5546SOL    HW128274   4.674   4.360   3.712  0.8467  0.1580  0.4855
 5546SOL    HW228275   4.628   4.404   3.837  2.8163 -0.0105 -0.6574
 5547SOL     OW28276   1.120   4.659   8.077 -0.4142  0.1598 -0.1020
 5547SOL    HW128277   1.204   4.662   8.121 -0.8597  1.0535  0.6831
 5547SOL    HW228278   1.131   4.578   8.026  2.5535  0.4269  0.1234
 5548SOL     OW28279   1.297   3.236  14.155  0.0031 -0.6218 -0.3146
 5548SOL    HW128280   1.360   3.302  14.127  0.4157 -0.3300  1.3167
 5548SOL    HW228281   1.359   3.182  14.202 -1.1002 -0.5456  1.2211
 5549SOL     OW28282   3.996   0.689   7.683 -0.1042 -0.1239 -0.2770
 5549SOL    HW128283   4.014   0.741   7.761  0.2854  1.4962 -1.4460
 5549SOL    HW228284   3.963   0.753   7.621 -1.1230  1.5626  2.0171
 5550SOL     OW28285   4.620   1.529   2.320  0.0391  0.1261  0.0198
 5550SOL    HW128286   4.599   1.531   2.226 -0.1821  0.7819  0.0811
 5550SOL    HW228287   4.637   1.438   2.344 -2.2768 -0.9016 -2.1930
 5551SOL     OW28288   1.799   1.908  15.244  0.0755 -0.1190  0.3811
 5551SOL    HW128289   1.889   1.877  15.251  0.1835 -0.0379 -0.5993
 5551SOL    HW228290   1.808   1.995  15.204  0.8353 -1.7591 -2.9690
 5552SOL     OW28291   4.272   2.540   4.573  0.4844 -0.1248 -0.1193
 5552SOL    HW128292   4.177   2.538   4.563  0.4875 -2.1876  0.3029
 5552SOL    HW228293   4.307   2.507   4.491 -0.0795  0.4960 -0.6023
 5553SOL     OW28294   1.803   0.471   8.537  0.4469 -0.0065  0.2436
 5553SOL    HW128295   1.714   0.434   8.539 -0.7006  2.7349 -0.7728
 5553SOL    HW228296   1.856   0.413   8.482 -1.1004 -0.8484 -0.3655
 5554SOL     OW28297   1.460   4.530   5.541  0.3584  0.0827 -0.6201
 5554SOL    HW128298   1.501   4.523   5.455 -0.7689  0.7752 -1.2048
 5554SOL    HW228299   1.456   4.625   5.548 -0.8050 -0.0291  0.2575
 5555SOL     OW28300   0.585   2.812  11.481 -0.3180 -0.5401 -0.3021
 5555SOL    HW128301   0.559   2.895  11.522 -1.0806 -0.7608 -0.3367
 5555SOL    HW228302   0.598   2.767  11.564 -0.3995  0.0942  0.0539
 5556SOL     OW28303   4.285   2.187  12.561 -0.1237  0.3331 -0.0190
 5556SOL    HW128304   4.204   2.235  12.581 -0.3493 -1.1120  2.5135
 5556SOL    HW228305   4.265   2.152  12.474  0.0915 -0.2447  0.1631
 5557SOL     OW28306   3.249   1.561   1.253  0.0012  0.1228  0.3472
 5557SOL    HW128307   3.309   1.498   1.213 -0.1945 -0.7700  1.4693
 5557SOL    HW228308   3.225   1.616   1.178  0.2068 -1.1733 -0.6768
 5558SOL     OW28309   4.294   1.299   6.093  0.7285  0.3156  0.0923
 5558SOL    HW128310   4.328   1.247   6.020 -0.4992  1.8527 -1.5780
 5558SOL    HW228311   4.276   1.378   6.041  1.7644  0.4837 -0.0186
 5559SOL     OW28312   4.434   3.905   3.881  0.0251 -0.4073 -0.2365
 5559SOL    HW128313   4.512   3.873   3.835 -0.1084 -0.7018 -0.2587
 5559SOL    HW228314   4.458   3.997   3.869 -1.7397 -0.0436 -1.0054
 5560SOL     OW28315   4.101   1.347  10.567  0.0907 -0.2821  0.1812
 5560SOL    HW128316   4.082   1.407  10.639 -0.1232  0.1697 -0.2485
 5560SOL    HW228317   4.089   1.258  10.597  0.1521 -0.0676  0.8334
 5561SOL     OW28318   2.308   1.869   0.954  0.6423 -0.6596 -0.6404
 5561SOL    HW128319   2.303   1.962   0.974  0.8249 -0.6811 -0.4905
 5561SOL    HW228320   2.392   1.862   0.907 -0.4576 -0.2016 -2.6661
 5562SOL     OW28321   4.320   1.509  12.193 -0.0855 -0.0085  0.0337
 5562SOL    HW128322   4.359   1.477  12.274  1.7679 -0.0033 -0.8617
 5562SOL    HW228323   4.387   1.493  12.127  0.4810 -0.5555  0.7525
 5563SOL     OW28324   0.893   4.181   9.134  0.1909 -0.2730  0.0813
 5563SOL    HW128325   0.947   4.187   9.055  2.5897  1.0254  1.8419
 5563SOL    HW228326   0.949   4.222   9.199  1.2576  0.7405 -1.4890
 5564SOL     OW28327   1.377   3.534  17.184 -0.1022  0.1927  0.2914
 5564SOL    HW128328   1.441   3.497  17.124 -1.2268 -0.4007 -0.5498
 5564SOL    HW228329   1.298   3.481  17.174  0.4374 -0.5374 -0.1035
 5565SOL     OW28330   0.491   3.935   9.254 -0.5534 -0.0937 -0.6143
 5565SOL    HW128331   0.497   3.873   9.181 -1.7600 -1.2958  0.2967
 5565SOL    HW228332   0.396   3.948   9.252 -0.5959 -0.0477  2.6099
 5566SOL     OW28333   3.457   4.339   6.619 -0.3184 -0.0445 -0.8233
 5566SOL    HW128334   3.363   4.334   6.637 -0.5824 -0.2429 -2.2179
 5566SOL    HW228335   3.447   4.313   6.527  0.1487 -2.2030 -0.2534
 5567SOL     OW28336   4.502   3.871  12.773 -0.2153  0.1348 -0.0041
 5567SOL    HW128337   4.525   3.941  12.711  1.5859 -1.5624 -1.2687
 5567SOL    HW228338   4.436   3.922  12.820 -0.9484  0.6777 -1.5968
 5568SOL     OW28339   0.590   3.418   9.647  0.2660 -0.1375 -0.0866
 5568SOL    HW128340   0.524   3.426   9.578  1.1012  1.2368 -0.7292
 5568SOL    HW228341   0.665   3.460   9.605 -0.2253 -0.7791 -1.6218
 5569SOL     OW28342   3.122   0.744   6.755  0.7060 -0.6606  0.2768
 5569SOL    HW128343   3.129   0.653   6.783  1.1443 -1.1309 -1.3253
 5569SOL    HW228344   3.121   0.799   6.834 -0.5000 -0.8569  0.3907
 5570SOL     OW28345   4.460   2.959   3.970  0.1439  0.1305 -0.4606
 5570SOL    HW128346   4.447   3.037   3.917 -0.7725 -0.8988 -1.7467
 5570SOL    HW228347   4.541   2.921   3.935  0.2994 -0.5401  0.6269
 5571SOL     OW28348   3.727   4.376   0.696 -0.1170  0.4668 -0.1633
 5571SOL    HW128349   3.727   4.469   0.673  2.8340 -0.0564 -2.3753
 5571SOL    HW228350   3.634   4.355   0.686  0.1756 -1.8106  1.9005
 5572SOL     OW28351   2.149   4.067   8.847  0.6622  0.1301 -1.3208
 5572SOL    HW128352   2.080   4.127   8.874  0.1137 -2.2473  2.6349
 5572SOL    HW228353   2.153   4.095   8.756  0.9242 -1.7590 -1.8888
 5573SOL     OW28354   1.376   0.741   2.285  0.0236  0.0222 -1.0846
 5573SOL    HW128355   1.451   0.716   2.340 -1.5091 -0.7849  0.6215
 5573SOL    HW228356   1.308   0.774   2.344 -0.6479 -0.0872 -1.7983
 5574SOL     OW28357   4.459   0.535   8.836  0.0130  0.0123  0.4109
 5574SOL    HW128358   4.449   0.491   8.752 -0.0110 -0.0997  0.4732
 5574SOL    HW228359   4.478   0.619   8.794  1.1650 -0.1838  0.5559
 5575SOL     OW28360   3.160   1.749  12.025 -0.1249 -0.1500 -0.5310
 5575SOL    HW128361   3.094   1.796  11.973 -1.1082 -0.9433 -0.0013
 5575SOL    HW228362   3.129   1.762  12.115 -1.0461  0.7152 -0.9707
 5576SOL     OW28363   2.556   3.959  12.206  0.0139 -0.4426  1.4037
 5576SOL    HW128364   2.534   3.968  12.299  0.3331  3.6409  1.0876
 5576SOL    HW228365   2.513   3.876  12.185  0.1847 -0.0846 -0.3452
 5577SOL     OW28366   1.491   2.440   7.676  0.1378 -0.6552 -0.5568
 5577SOL    HW128367   1.579   2.480   7.676 -0.5806  0.9516  1.8221
 5577SOL    HW228368   1.451   2.504   7.734 -0.5700  0.0275 -1.8192
 5578SOL     OW28369   0.572   2.979   7.050  0.2901 -0.1067 -0.3295
 5578SOL    HW128370   0.636   2.923   7.096 -0.1029  0.0917  0.4617
 5578SOL    HW228371   0.538   3.009   7.135 -0.5296 -2.2664  0.1043
 5579SOL     OW28372   1.409   0.881  14.777  0.1429 -0.0738 -0.1378
 5579SOL    HW128373   1.381   0.816  14.842  1.0180 -1.4771 -1.1782
 5579SOL    HW228374   1.406   0.967  14.820 -4.1483 -0.2262 -0.1414
 5580SOL     OW28375   1.088   4.650   6.973 -0.4643  0.2616  0.5396
 5580SOL    HW128376   1.130   4.566   6.994  2.3481  1.4273 -0.4823
 5580SOL    HW228377   1.146   4.682   6.904  1.0409 -0.5697  1.3963
 5581SOL     OW28378   3.088   1.643  14.113  0.0692 -0.3053  0.3801
 5581SOL    HW128379   3.182   1.637  14.095 -0.3587 -0.4333 -1.9168
 5581SOL    HW228380   3.077   1.608  14.201  2.5907  1.3526  1.3570
 5582SOL     OW28381   2.546   0.843   5.653  0.3289 -0.0252  0.2796
 5582SOL    HW128382   2.452   0.857   5.665  0.2108 -0.6976  0.1418
 5582SOL    HW228383   2.567   0.911   5.589 -2.6109 -1.4553 -2.2051
 5583SOL     OW28384   3.783   2.175  17.728  0.3069  0.5671 -0.0215
 5583SOL    HW128385   3.844   2.100  17.729  1.9999  1.9670  2.6259
 5583SOL    HW228386   3.826   2.247   0.042 -1.5670 -0.4229  3.2123
 5584SOL     OW28387   4.027   1.565   7.848  0.4629  0.2241 -0.4265
 5584SOL    HW128388   4.047   1.657   7.862 -0.0320  0.4679 -1.3455
 5584SOL    HW228389   4.073   1.526   7.923 -1.3904 -1.4037 -0.1425
 5585SOL     OW28390   1.256   2.290   8.035  0.1897 -0.4427  0.3737
 5585SOL    HW128391   1.331   2.284   7.975 -0.2207  0.6689 -0.2580
 5585SOL    HW228392   1.254   2.383   8.059 -2.7935  0.0360 -1.7319
 5586SOL     OW28393   4.655   0.818  15.444 -0.1817 -0.2252 -0.3611
 5586SOL    HW128394   4.588   0.840  15.508 -1.5161 -1.1568 -1.4282
 5586SOL    HW228395   4.649   0.883  15.374  2.1438 -0.7589 -1.0619
 5587SOL     OW28396   3.919   3.648  17.257 -0.2562  0.3422 -0.3238
 5587SOL    HW128397   3.930   3.656  17.352 -1.2719 -0.9010 -0.1055
 5587SOL    HW228398   3.999   3.618  17.215 -1.3877 -1.4800 -1.1902
 5588SOL     OW28399   3.935   2.229   5.697  0.5397 -0.6501  0.2503
 5588SOL    HW128400   3.863   2.206   5.638  1.4314 -1.6074 -0.4528
 5588SOL    HW228401   3.918   2.321   5.716  1.0986 -0.8290  1.6098
 5589SOL     OW28402   1.888   3.407   5.654  0.0442 -0.3889 -0.2867
 5589SOL    HW128403   1.853   3.483   5.607 -0.2842 -0.3484  0.0214
 5589SOL    HW228404   1.916   3.446   5.736 -0.8209  0.2463 -0.2875
 5590SOL     OW28405   0.097   4.034   5.723  0.3377 -0.0103  0.3780
 5590SOL    HW128406   0.129   4.036   5.633 -0.2358 -2.6301  0.1130
 5590SOL    HW228407   0.138   4.110   5.763 -0.2334  0.7134 -0.4157
 5591SOL     OW28408   3.331   2.458   4.959 -0.2275  0.3910  0.1786
 5591SOL    HW128409   3.307   2.474   5.050  0.2910  0.8472  0.2343
 5591SOL    HW228410   3.374   2.540   4.937 -1.0491  0.3966 -1.4143
 5592SOL     OW28411   3.721   1.882  14.800 -0.5187 -0.6753 -0.6224
 5592SOL    HW128412   3.627   1.889  14.815 -0.6977  2.2005 -3.0777
 5592SOL    HW228413   3.752   1.938  14.872  1.0801 -1.6181 -0.5817
 5593SOL     OW28414   3.967   2.964  10.792  0.3794  0.2826  0.1940
 5593SOL    HW128415   3.954   3.045  10.842  0.4398 -0.4139  1.3527
 5593SOL    HW228416   4.030   2.916  10.845 -0.2143 -0.3832  0.2978
 5594SOL     OW28417   2.910   4.441   2.790 -0.2952  0.0847  0.3061
 5594SOL    HW128418   2.860   4.389   2.727  1.3852 -3.3642  1.7611
 5594SOL    HW228419   2.891   4.394   2.871 -0.7680 -0.5189 -0.1560
 5595SOL     OW28420   1.866   4.424   0.402 -0.1276 -0.1374  0.1226
 5595SOL    HW128421   1.927   4.358   0.435  0.0735  0.5460  1.0957
 5595SOL    HW228422   1.863   4.464   0.489 -0.2716 -0.0799  0.0908
 5596SOL     OW28423   1.136   1.476   6.401  0.3650 -0.1092  0.0583
 5596SOL    HW128424   1.230   1.480   6.381  0.6302  1.3982  1.5850
 5596SOL    HW228425   1.118   1.558   6.447 -1.6138 -1.3636  1.5460
 5597SOL     OW28426   4.328   2.151   8.783 -0.1992  0.7206 -0.0634
 5597SOL    HW128427   4.287   2.084   8.837 -0.0027 -0.4407 -1.3580
 5597SOL    HW228428   4.281   2.230   8.813  0.2356  0.5067  1.1712
 5598SOL     OW28429   0.003   3.043   2.247 -0.3514 -0.1752  0.4433
 5598SOL    HW128430   4.716   2.954   2.216 -0.2670  0.2467 -0.8254
 5598SOL    HW228431   0.098   3.045   2.240 -0.4793  0.2658 -1.1523
 5599SOL     OW28432   0.366   2.218   8.203 -0.0691 -0.5558  0.1135
 5599SOL    HW128433   0.447   2.215   8.255  0.0608 -0.8289 -0.1004
 5599SOL    HW228434   0.366   2.127   8.172  0.6347  0.0414 -1.6287
 5600SOL     OW28435   3.771   2.967  16.738  0.1759 -0.1071  1.0748
 5600SOL    HW128436   3.751   3.024  16.664 -0.7282 -1.2986  0.4106
 5600SOL    HW228437   3.836   3.026  16.777  1.1581 -0.2981 -0.2964
 5601SOL     OW28438   3.540   2.564   1.882 -0.7262  0.7233  0.4534
 5601SOL    HW128439   3.454   2.529   1.904 -0.3285 -0.5395  0.0064
 5601SOL    HW228440   3.575   2.506   1.814  0.0704  0.2278  1.2834
 5602SOL     OW28441   3.784   4.038  12.706  0.1645 -0.1265  0.2223
 5602SOL    HW128442   3.733   3.958  12.695  2.7239 -1.6418 -0.5990
 5602SOL    HW228443   3.715   4.104  12.695  2.0769  2.2170  2.2291
 5603SOL     OW28444   3.222   1.747   5.929 -0.3822 -0.0233 -0.2536
 5603SOL    HW128445   3.189   1.801   6.000 -0.3627  1.0951 -1.1037
 5603SOL    HW228446   3.227   1.813   5.860  1.2549  0.5071  0.3852
 5604SOL     OW28447   0.518   3.723   6.210  0.2342 -0.0533  0.0768
 5604SOL    HW128448   0.578   3.794   6.233 -0.3037  0.1747  0.7860
 5604SOL    HW228449   0.500   3.686   6.297  1.6911 -0.1483  0.3355
 5605SOL     OW28450   0.379   2.788   9.875 -0.2016 -0.4407 -0.0153
 5605SOL    HW128451   0.332   2.705   9.879  1.2704 -1.1700  2.3416
 5605SOL    HW228452   0.367   2.817   9.785 -0.9451 -2.5795 -0.5999
 5606SOL     OW28453   3.409   3.718  17.199 -0.1130  0.1974  0.5293
 5606SOL    HW128454   3.472   3.721  17.127  0.1778 -1.8811  0.6835
 5606SOL    HW228455   3.370   3.631  17.187  0.7366  0.0729 -1.2679
 5607SOL     OW28456   4.345   4.718   6.844 -0.4159 -0.4001 -0.0765
 5607SOL    HW128457   4.375   0.075   6.831 -1.1345 -0.0862  0.4442
 5607SOL    HW228458   4.318   4.691   6.756 -1.2551  1.3143 -0.3377
 5608SOL     OW28459   3.974   0.457  13.828 -0.1627  0.6406 -0.4335
 5608SOL    HW128460   4.064   0.489  13.834  0.3423 -0.9692  0.3861
 5608SOL    HW228461   3.964   0.364  13.846 -0.6378  0.8685  0.4571
 5609SOL     OW28462   3.353   2.230   0.296  0.1881 -0.2422  0.1509
 5609SOL    HW128463   3.394   2.297   0.350  1.1184  0.4194 -1.3712
 5609SOL    HW228464   3.311   2.281   0.226  0.8332  0.3766  0.2216
 5610SOL     OW28465   4.392   4.363   3.395  0.2000  0.7081  0.3638
 5610SOL    HW128466   4.397   4.417   3.474  1.7776 -0.8547  1.3301
 5610SOL    HW228467   4.483   4.363   3.367  0.5350  1.3141  1.4496
 5611SOL     OW28468   3.706   4.300  17.022 -0.0204 -0.4002 -0.6810
 5611SOL    HW128469   3.777   4.357  17.052 -1.5176  0.7117  0.7730
 5611SOL    HW228470   3.711   4.217  17.069  4.2723  1.7509  2.6085
 5612SOL     OW28471   0.552   1.582   3.341  0.6562  0.6104  0.1730
 5612SOL    HW128472   0.594   1.616   3.262  0.2349 -0.0743 -0.3388
 5612SOL    HW228473   0.507   1.662   3.369 -0.4415  1.1906 -3.2376
 5613SOL     OW28474   0.705   0.388   8.769  0.3021  0.2353 -0.4230
 5613SOL    HW128475   0.783   0.339   8.795  0.3472  0.7962  0.5145
 5613SOL    HW228476   0.732   0.477   8.790  0.9735  0.7372 -3.3685
 5614SOL     OW28477   3.873   2.437   1.182 -0.4015 -0.5112 -0.1433
 5614SOL    HW128478   3.925   2.517   1.179  2.8775 -2.5286  2.2191
 5614SOL    HW228479   3.827   2.440   1.266 -0.7265  1.3723 -0.3901
 5615SOL     OW28480   3.758   1.235   8.935  0.3204  0.9915 -0.0036
 5615SOL    HW128481   3.813   1.247   9.013 -0.2963 -2.3355  0.9215
 5615SOL    HW228482   3.821   1.201   8.871 -2.0863 -1.7358 -0.9307
 5616SOL     OW28483   4.306   0.517   8.542 -0.3487 -0.2566  0.0791
 5616SOL    HW128484   4.307   0.604   8.583 -1.3463  0.2683 -0.9916
 5616SOL    HW228485   4.244   0.477   8.603  0.1593 -1.4330 -0.1795
 5617SOL     OW28486   2.314   4.193  16.079  0.3964 -0.0312 -0.0954
 5617SOL    HW128487   2.387   4.211  16.138 -0.5921  3.7543 -0.0812
 5617SOL    HW228488   2.248   4.254  16.111 -0.4056 -1.5679  1.1674
 5618SOL     OW28489   1.438   2.285   2.933  0.6229  0.0052 -0.2374
 5618SOL    HW128490   1.354   2.241   2.927  1.5709 -1.6436 -1.5002
 5618SOL    HW228491   1.496   2.216   2.967  0.4331 -0.1951 -0.3246
 5619SOL     OW28492   1.999   1.607   7.920 -0.1642  0.2578 -0.0445
 5619SOL    HW128493   2.019   1.678   7.980 -1.7934  0.3259  0.4155
 5619SOL    HW228494   1.952   1.546   7.978 -0.7053  0.8200  0.1166
 5620SOL     OW28495   0.300   2.279   6.219 -0.0872 -0.1786  0.2172
 5620SOL    HW128496   0.225   2.256   6.165  0.3149 -2.9375  0.8194
 5620SOL    HW228497   0.257   2.256   6.301  2.2178 -1.5770  1.0339
 5621SOL     OW28498   0.510   1.455   1.328 -0.1402  0.1505  0.1993
 5621SOL    HW128499   0.421   1.419   1.327 -0.6957  1.5848 -1.9690
 5621SOL    HW228500   0.505   1.549   1.346  0.6301  0.7392 -2.5541
 5622SOL     OW28501   1.343   3.921   5.735  0.1004 -0.7109 -0.5995
 5622SOL    HW128502   1.322   3.924   5.642  2.6673 -0.3619 -1.1694
 5622SOL    HW228503   1.266   3.868   5.756  0.1384 -1.3693 -2.2006
 5623SOL     OW28504   0.267   3.652  17.542 -0.6927 -0.2275  0.2539
 5623SOL    HW128505   0.196   3.663  17.606  0.2445  1.1955  1.0528
 5623SOL    HW228506   0.322   3.726  17.569  1.7459 -1.9377  0.0132
 5624SOL     OW28507   0.546   4.471  12.102 -0.4884 -0.4082 -0.5439
 5624SOL    HW128508   0.570   4.386  12.064 -1.4924 -1.1348  0.4643
 5624SOL    HW228509   0.570   4.524  12.026  0.7014  1.4809  1.1328
 5625SOL     OW28510   2.476   4.461   4.818 -0.0844  0.7172 -0.0931
 5625SOL    HW128511   2.548   4.492   4.873  0.1163  0.6926 -0.3437
 5625SOL    HW228512   2.467   4.528   4.751 -0.3967  0.1070 -0.6690
 5626SOL     OW28513   4.343   0.582   8.011  0.3059 -0.2970 -0.5594
 5626SOL    HW128514   4.266   0.575   8.067  0.8237 -2.1729 -0.0767
 5626SOL    HW228515   4.302   0.545   7.932  0.6312 -0.8567 -0.4660
 5627SOL     OW28516   1.040   0.878   8.006 -0.6025 -0.2357 -0.6551
 5627SOL    HW128517   0.946   0.861   8.019 -1.2649  3.0588 -1.0779
 5627SOL    HW228518   1.071   0.789   8.020  0.7286  0.5956  1.8015
 5628SOL     OW28519   1.169   2.731   3.455 -0.1281 -0.1431 -0.1838
 5628SOL    HW128520   1.206   2.665   3.514 -0.2670  0.4091  0.5213
 5628SOL    HW228521   1.156   2.686   3.372  1.7085  0.0312 -0.5660
 5629SOL     OW28522   3.224   1.631  17.351 -0.6690  0.4095 -0.0809
 5629SOL    HW128523   3.171   1.606  17.426  0.2050  2.0014  1.0570
 5629SOL    HW228524   3.246   1.542  17.323  0.3485  1.0991 -1.4716
 5630SOL     OW28525   3.964   4.578  15.605  0.6568  0.4138  0.0134
 5630SOL    HW128526   3.977   4.539  15.518 -0.0521 -1.0533  0.5612
 5630SOL    HW228527   3.880   4.623  15.604  0.9047  0.9103  1.3509
 5631SOL     OW28528   4.174   1.342   3.728  0.0535  0.6118 -0.3090
 5631SOL    HW128529   4.207   1.422   3.689  1.1680  1.4954  2.4544
 5631SOL    HW228530   4.233   1.314   3.798  1.1939  0.8611 -1.1816
 5632SOL     OW28531   4.168   4.682   6.022  0.3950 -0.5463 -0.1004
 5632SOL    HW128532   4.258   4.662   6.047  0.1953 -1.0933  0.1851
 5632SOL    HW228533   4.178   0.037   5.984 -0.4683  1.5171  4.4629
 5633SOL     OW28534   2.461   0.709   8.729  0.1252  0.2589  0.0495
 5633SOL    HW128535   2.542   0.690   8.681  0.7468 -0.9177  1.5678
 5633SOL    HW228536   2.494   0.706   8.819 -2.5599 -0.0506  1.0304
 5634SOL     OW28537   0.262   1.039   2.928  0.2524  0.1666 -0.1486
 5634SOL    HW128538   0.340   0.992   2.957 -1.2966 -1.8332  0.7695
 5634SOL    HW228539   0.207   1.001   2.996  1.0934  0.0224  0.4486
 5635SOL     OW28540   2.028   0.443   4.208 -0.2096 -0.2093 -0.2847
 5635SOL    HW128541   1.990   0.427   4.121  0.2152  0.3204 -0.5652
 5635SOL    HW228542   2.080   0.521   4.193  0.3372 -0.3525  0.8532
 5636SOL     OW28543   4.058   1.895  17.067  0.2091 -0.0123 -0.2632
 5636SOL    HW128544   4.040   1.989  17.061 -0.2994 -0.2305 -2.2840
 5636SOL    HW228545   3.983   1.874  17.122 -0.2359 -1.4160 -1.4019
 5637SOL     OW28546   2.239   2.250  16.622  0.3556  0.2374  0.7210
 5637SOL    HW128547   2.185   2.296  16.686 -1.8574 -1.4398  0.0794
 5637SOL    HW228548   2.324   2.293  16.627 -0.0832  1.2314 -0.5101
 5638SOL     OW28549   3.593   0.797   5.816 -0.2226  0.1324  0.6639
 5638SOL    HW128550   3.670   0.815   5.869 -0.3716 -0.9929  1.2596
 5638SOL    HW228551   3.534   0.776   5.888  0.0625  1.2687  1.2188
 5639SOL     OW28552   0.391   4.728   3.007 -0.4149  0.0446  0.3589
 5639SOL    HW128553   0.398   4.662   3.076 -0.8401 -1.3167 -0.9054
 5639SOL    HW228554   0.318   0.049   3.037  0.6510  2.2056 -0.9075
 5640SOL     OW28555   0.314   4.279   8.990  0.1049 -0.1884  0.1410
 5640SOL    HW128556   0.296   4.304   9.081 -1.9025  2.6147 -1.0044
 5640SOL    HW228557   0.404   4.301   8.968 -0.0995 -0.5805 -1.1088
 5641SOL     OW28558   2.868   3.974  13.391  0.4195  0.3881  0.3290
 5641SOL    HW128559   2.816   4.010  13.320  0.2049  0.1369  0.3561
 5641SOL    HW228560   2.872   4.044  13.456 -1.4969  1.1363 -0.3618
 5642SOL     OW28561   0.642   2.465   2.572  0.6846  0.7197  0.1280
 5642SOL    HW128562   0.626   2.496   2.661  0.1261  0.0580  0.2609
 5642SOL    HW228563   0.581   2.391   2.580  2.6952 -0.9147  0.4860
 5643SOL     OW28564   0.274   3.787   9.505  0.8335  0.1429  0.1584
 5643SOL    HW128565   0.209   3.831   9.450  3.1974  0.7700 -2.1209
 5643SOL    HW228566   0.274   3.843   9.583  0.7976 -1.5131  1.3539
 5644SOL     OW28567   2.228   2.928   4.156  0.5409 -0.5683  0.3598
 5644SOL    HW128568   2.288   2.865   4.196 -0.2026 -0.4825  1.6091
 5644SOL    HW228569   2.285   2.965   4.089  1.7733  2.2341  2.9753
 5645SOL     OW28570   1.057   3.639   4.717 -0.5388  0.5059  0.7213
 5645SOL    HW128571   1.099   3.692   4.785  0.7823  0.0602  0.2565
 5645SOL    HW228572   1.108   3.666   4.641 -0.8786  1.0862  0.6995
 5646SOL     OW28573   1.520   0.613  15.091  0.0470 -0.0458  0.5713
 5646SOL    HW128574   1.434   0.643  15.062  0.7329  1.9812  0.6654
 5646SOL    HW228575   1.537   0.547  15.023  0.9918  1.6066 -0.7766
 5647SOL     OW28576   1.221   4.063   9.219 -0.0409 -0.7823  0.0465
 5647SOL    HW128577   1.224   4.158   9.208  2.0257 -0.7260  1.1880
 5647SOL    HW228578   1.174   4.048   9.301  2.3262  1.0945  1.7686
 5648SOL     OW28579   4.313   1.406   2.622  0.4753  0.2212 -0.3101
 5648SOL    HW128580   4.360   1.393   2.704  0.9575  1.1602 -0.4349
 5648SOL    HW228581   4.225   1.432   2.648  0.9937  0.1681  1.4669
 5649SOL     OW28582   1.202   0.194  11.817  0.3235  0.5546  0.1659
 5649SOL    HW128583   1.185   0.265  11.756 -2.6473  1.4854  2.0669
 5649SOL    HW228584   1.295   0.176  11.807  0.1788 -1.1530  1.7576
 5650SOL     OW28585   3.753   0.141   5.825  0.0527  0.6992 -0.1427
 5650SOL    HW128586   3.845   0.163   5.812 -0.2893  0.4049 -3.0241
 5650SOL    HW228587   3.730   0.216   5.881 -0.6810  0.4414 -0.0883
 5651SOL     OW28588   2.401   4.408  10.377  1.0583  0.3150 -0.3246
 5651SOL    HW128589   2.352   4.326  10.369  0.0736  0.8443  0.3215
 5651SOL    HW228590   2.369   4.455  10.300  1.0186  2.0648  0.7419
 5652SOL     OW28591   3.392   3.555  12.454 -0.2235 -0.5656  0.0997
 5652SOL    HW128592   3.331   3.523  12.388  0.9420  0.6938 -1.5926
 5652SOL    HW228593   3.349   3.634  12.486  0.1198  1.5536 -4.6243
 5653SOL     OW28594   4.600   0.494   8.513  0.3792 -0.7072  0.0351
 5653SOL    HW128595   4.601   0.561   8.582 -1.3423 -1.0426  0.3911
 5653SOL    HW228596   4.506   0.489   8.495  0.0786 -2.3018  2.0954
 5654SOL     OW28597   4.244   2.613   3.850  0.0400 -0.2881  0.0378
 5654SOL    HW128598   4.267   2.640   3.938  1.7323 -3.3264  0.5356
 5654SOL    HW228599   4.323   2.568   3.819 -1.6064 -2.4384 -1.1137
 5655SOL     OW28600   3.671   3.220   6.663 -0.5595  0.2811  0.6613
 5655SOL    HW128601   3.598   3.281   6.653  0.7673  1.6126 -0.9074
 5655SOL    HW228602   3.732   3.251   6.597 -1.8883  1.6194  0.0494
 5656SOL     OW28603   1.619   0.698   8.306  0.1518  0.8841 -0.4257
 5656SOL    HW128604   1.572   0.772   8.267 -0.3467 -0.4259 -2.3148
 5656SOL    HW228605   1.549   0.636   8.287  0.5382  0.1813  0.4562
 5657SOL     OW28606   2.972   2.598   7.078 -0.1352 -0.0798 -0.7343
 5657SOL    HW128607   2.977   2.677   7.131  0.6639 -0.5593 -0.0902
 5657SOL    HW228608   3.007   2.629   6.994  0.2195  2.6486  0.4261
 5658SOL     OW28609   2.560   0.310  15.349 -0.2186 -0.4045 -0.1172
 5658SOL    HW128610   2.546   0.403  15.330  3.2382  0.6356  2.4379
 5658SOL    HW228611   2.531   0.287  15.260 -0.4254  0.1909 -0.2057
 5659SOL     OW28612   3.945   1.370   4.311  0.4661 -0.1542  0.0354
 5659SOL    HW128613   4.011   1.400   4.249  0.4266  0.3116  0.2235
 5659SOL    HW228614   3.944   1.283   4.270 -1.3019 -0.7087  1.2276
 5660SOL     OW28615   0.345   1.626   4.966 -0.6785  0.1120  0.2380
 5660SOL    HW128616   0.436   1.651   4.949 -0.6020 -0.6469 -0.4384
 5660SOL    HW228617   0.346   1.535   4.937 -0.3649  0.5776 -1.2178
 5661SOL     OW28618   3.705   3.847   3.444 -0.0925 -0.2883  0.4986
 5661SOL    HW128619   3.651   3.850   3.365  3.0383 -0.6008 -1.6324
 5661SOL    HW228620   3.647   3.813   3.513 -0.7537 -0.3990 -0.1075
 5662SOL     OW28621   2.012   0.769   8.346 -0.8294 -0.2653  0.3592
 5662SOL    HW128622   1.939   0.708   8.354 -0.1797 -1.1941 -0.8696
 5662SOL    HW228623   1.965   0.848   8.322 -3.3858 -2.4262 -1.7287
 5663SOL     OW28624   4.291   2.947   5.449  0.2794 -0.3315 -0.0112
 5663SOL    HW128625   4.303   2.864   5.403  0.9347  0.9645 -2.1977
 5663SOL    HW228626   4.260   2.920   5.535  0.1279  1.5257  0.5095
 5664SOL     OW28627   4.603   3.168   6.121  0.7191  0.1419  0.0470
 5664SOL    HW128628   4.613   3.087   6.071  0.7498 -0.4235  0.9804
 5664SOL    HW228629   4.637   3.137   6.205 -2.0054 -0.1049  1.0643
 5665SOL     OW28630   2.866   4.267   9.436 -0.5861  0.1437 -0.3372
 5665SOL    HW128631   2.906   4.224   9.360  0.9212 -0.9181  1.0573
 5665SOL    HW228632   2.865   4.194   9.498  1.9207  0.1253 -0.3270
 5666SOL     OW28633   4.590   4.412   6.069  0.2337 -0.0126  0.3179
 5666SOL    HW128634   4.674   4.410   6.115  1.4372 -0.1956 -1.9019
 5666SOL    HW228635   4.591   4.320   6.044  0.9728  0.6271 -2.0096
 5667SOL     OW28636   3.221   0.382  16.065  0.5068 -0.4713 -0.0910
 5667SOL    HW128637   3.248   0.408  15.976  0.9297  0.3022  0.2695
 5667SOL    HW228638   3.299   0.403  16.116 -0.3365  0.5725  0.7332
 5668SOL     OW28639   2.130   0.405  15.818 -0.0940  0.3066  0.7632
 5668SOL    HW128640   2.041   0.384  15.846 -1.1688  1.9053 -1.4195
 5668SOL    HW228641   2.165   0.422  15.906 -0.7099 -0.9327  1.2474
 5669SOL     OW28642   3.253   0.680   1.775 -0.2771 -0.1245 -0.2134
 5669SOL    HW128643   3.190   0.701   1.844 -1.8673 -0.8352 -1.4175
 5669SOL    HW228644   3.299   0.609   1.820 -0.3741 -1.3363 -2.0094
 5670SOL     OW28645   0.146   0.781   6.265 -0.2316  0.4683 -0.1516
 5670SOL    HW128646   0.194   0.860   6.287  1.3088 -0.4100 -0.3395
 5670SOL    HW228647   0.218   0.727   6.232 -0.7466 -1.3553  1.6467
 5671SOL     OW28648   2.201   1.178   9.169 -0.1944 -0.0211 -0.1994
 5671SOL    HW128649   2.140   1.190   9.097 -0.1149 -2.1366 -0.5959
 5671SOL    HW228650   2.190   1.090   9.205  1.4717  1.2591  3.4694
 5672SOL     OW28651   4.401   0.206   2.539  0.0953  0.8794  0.0650
 5672SOL    HW128652   4.453   0.280   2.571  1.3960 -0.8454  1.9647
 5672SOL    HW228653   4.334   0.255   2.492  0.5774  1.1747 -0.3115
 5673SOL     OW28654   1.549   3.651   4.064 -0.3879 -0.2847 -0.6510
 5673SOL    HW128655   1.500   3.710   4.008 -1.7370  0.8241  1.6805
 5673SOL    HW228656   1.634   3.696   4.061 -0.6026  0.3217  1.9266
 5674SOL     OW28657   0.913   1.481   5.113  0.0737 -0.2129 -0.3238
 5674SOL    HW128658   0.965   1.561   5.108 -0.6137  0.1042 -2.4095
 5674SOL    HW228659   0.922   1.448   5.024  1.6645  0.7450 -0.5133
 5675SOL     OW28660   2.949   1.976   4.751 -0.7366 -0.5211  0.4569
 5675SOL    HW128661   2.939   1.924   4.672  1.2629  0.5698 -0.5226
 5675SOL    HW228662   3.019   2.034   4.722 -2.1250  1.3006  0.6855
 5676SOL     OW28663   4.155   3.624   9.887  0.1386  0.6687 -0.0619
 5676SOL    HW128664   4.236   3.645   9.933  0.0573  1.0457 -0.0870
 5676SOL    HW228665   4.096   3.613   9.961  0.5749 -1.6320 -0.0668
 5677SOL     OW28666   3.137   0.309  14.416  0.8760 -0.6647  0.5677
 5677SOL    HW128667   3.170   0.237  14.362  0.4896 -1.5094  1.4495
 5677SOL    HW228668   3.105   0.254  14.488  0.1483  0.5974  1.2078
 5678SOL     OW28669   3.820   0.029   8.780 -0.6102 -0.2589 -0.0147
 5678SOL    HW128670   3.764   0.084   8.835  1.0175  1.2273  0.1633
 5678SOL    HW228671   3.904   0.068   8.804  0.4239 -1.6188 -1.4229
 5679SOL     OW28672   2.194   2.551   5.453 -0.8130 -0.6494 -0.3036
 5679SOL    HW128673   2.123   2.524   5.396 -0.2165 -0.6465 -1.0469
 5679SOL    HW228674   2.207   2.466   5.494  1.2730 -0.1133  0.1566
 5680SOL     OW28675   3.206   2.185   7.920 -0.1445 -0.6823  0.1187
 5680SOL    HW128676   3.195   2.251   7.851 -0.9875  0.0799  0.9904
 5680SOL    HW228677   3.119   2.187   7.960  0.7283  4.5023  1.7788
 5681SOL     OW28678   2.649   3.288   2.565 -0.6104 -0.3323  0.1399
 5681SOL    HW128679   2.644   3.238   2.483 -0.4878 -1.4410  0.8092
 5681SOL    HW228680   2.697   3.230   2.624  1.5639 -2.0242 -3.3216
 5682SOL     OW28681   1.046   2.343   6.629 -0.0188  0.2124  0.0169
 5682SOL    HW128682   1.027   2.399   6.705 -0.9047 -1.0735  0.7467
 5682SOL    HW228683   0.959   2.321   6.597 -0.2941  1.8379 -0.3572
 5683SOL     OW28684   3.550   0.199   3.133 -0.3086  0.3763 -0.3062
 5683SOL    HW128685   3.617   0.137   3.161 -1.2210  1.1477  3.6649
 5683SOL    HW228686   3.598   0.271   3.175 -2.2475  0.1554  2.3615
 5684SOL     OW28687   0.114   2.851   5.788 -0.7899 -0.1961 -0.1169
 5684SOL    HW128688   0.070   2.767   5.769 -0.2439 -0.2545 -1.1350
 5684SOL    HW228689   0.181   2.856   5.720  0.6588 -2.1330  1.1589
 5685SOL     OW28690   2.204   2.427  17.223 -0.5665  0.4493 -0.1718
 5685SOL    HW128691   2.225   2.337  17.197  2.4318  0.6405  1.5664
 5685SOL    HW228692   2.143   2.446  17.152 -1.0427 -1.7936 -0.3454
 5686SOL     OW28693   3.325   1.067   8.917  0.0361  0.2276 -0.7307
 5686SOL    HW128694   3.265   1.046   8.845 -1.7186  0.2907  0.7248
 5686SOL    HW228695   3.406   1.038   8.875 -0.7071 -2.7415 -0.0946
 5687SOL     OW28696   2.944   1.323  12.541  0.3680 -0.1330 -0.2546
 5687SOL    HW128697   2.958   1.410  12.504 -4.5958 -0.5039 -2.9375
 5687SOL    HW228698   2.944   1.271  12.461  2.5740  1.4783 -1.2965
 5688SOL     OW28699   3.961   0.289   9.471  0.5794 -0.0576  0.2493
 5688SOL    HW128700   3.927   0.325   9.553  0.9713 -0.4909  0.6091
 5688SOL    HW228701   4.026   0.357   9.454 -0.4824  1.0023  0.4036
 5689SOL     OW28702   0.394   2.884   3.748  0.0535  0.0812 -0.6277
 5689SOL    HW128703   0.353   2.805   3.714 -1.5138  0.6365 -0.0230
 5689SOL    HW228704   0.447   2.910   3.673 -0.2217  0.3966 -0.7128
 5690SOL     OW28705   1.719   3.235   2.761 -0.1023  0.0338  0.7569
 5690SOL    HW128706   1.664   3.258   2.687  1.8295 -0.7769 -0.9375
 5690SOL    HW228707   1.750   3.324   2.781 -0.1544 -0.0026  1.0045
 5691SOL     OW28708   1.859   1.737   2.226  0.1209  0.3491 -0.0148
 5691SOL    HW128709   1.829   1.816   2.180  1.0285  0.4994 -0.3397
 5691SOL    HW228710   1.794   1.678   2.187  0.3311 -0.9170  1.5593
 5692SOL     OW28711   0.078   0.430   5.034  0.2003  0.6051 -0.5526
 5692SOL    HW128712   0.146   0.495   5.018  0.7153 -0.3389 -2.2503
 5692SOL    HW228713   0.106   0.389   5.115 -0.5355  1.8718  0.3462
 5693SOL     OW28714   2.348   2.317   3.701  0.2416  0.0053  0.0658
 5693SOL    HW128715   2.303   2.285   3.622  1.4974 -0.5369 -0.4396
 5693SOL    HW228716   2.431   2.338   3.657  0.0611 -3.4943 -1.9716
 5694SOL     OW28717   2.346   0.695  10.158  0.2601  0.6196 -0.3460
 5694SOL    HW128718   2.298   0.754  10.216 -2.9221 -0.0079 -2.3229
 5694SOL    HW228719   2.435   0.730  10.156  1.0974 -1.4785  0.7018
 5695SOL     OW28720   1.388   0.310   8.059  0.1254  0.4000 -0.1821
 5695SOL    HW128721   1.431   0.253   7.995 -1.8043  0.2672 -1.3404
 5695SOL    HW228722   1.297   0.281   8.049  0.5930 -0.6396 -1.4610
 5696SOL     OW28723   4.142   2.410  15.398 -0.3869 -0.3565  0.0317
 5696SOL    HW128724   4.084   2.475  15.439  0.2863 -0.4696  1.1848
 5696SOL    HW228725   4.225   2.450  15.424  0.4518 -3.2055  1.6946
 5697SOL     OW28726   2.191   4.145  15.072 -0.2479 -0.2145  0.4961
 5697SOL    HW128727   2.268   4.147  15.015 -1.3574  1.2817 -0.9161
 5697SOL    HW228728   2.134   4.099  15.010 -0.7224  2.3686 -0.9489
 5698SOL     OW28729   2.005   3.387   8.858  0.5011 -0.1822  0.1604
 5698SOL    HW128730   1.922   3.432   8.841  1.9611  2.5249  0.2131
 5698SOL    HW228731   1.983   3.294   8.861  3.7748 -0.9768 -1.1778
 5699SOL     OW28732   3.283   1.164   2.206 -0.1304 -0.3139  0.8817
 5699SOL    HW128733   3.191   1.145   2.193 -0.2176  0.8437 -0.1791
 5699SOL    HW228734   3.308   1.101   2.274  1.4739 -1.0375 -0.3915
 5700SOL     OW28735   1.737   3.835   4.054 -0.0859 -0.4207  0.0105
 5700SOL    HW128736   1.824   3.871   4.038  0.0657 -0.9271 -0.3004
 5700SOL    HW228737   1.737   3.834   4.149  1.6590  4.2723  0.0696
 5701SOL     OW28738   3.367   1.263  15.972 -0.2394  0.1303 -0.4113
 5701SOL    HW128739   3.287   1.232  15.929 -1.8692 -0.1216  2.8641
 5701SOL    HW228740   3.413   1.288  15.891  0.1977 -1.0443 -0.5258
 5702SOL     OW28741   2.461   2.791  13.692  0.1508 -0.1335  0.4084
 5702SOL    HW128742   2.369   2.812  13.708  0.0846  1.0409 -1.5713
 5702SOL    HW228743   2.473   2.713  13.746  0.2762 -0.9466 -0.7956
 5703SOL     OW28744   0.203   4.110   6.585 -0.2857 -0.3724  0.0955
 5703SOL    HW128745   0.277   4.135   6.530  0.3401 -1.1813  0.5746
 5703SOL    HW228746   0.188   4.179   6.649 -1.0989 -0.2189 -0.2598
 5704SOL     OW28747   3.890   2.660   8.844  0.3715 -0.2259 -0.2381
 5704SOL    HW128748   3.800   2.661   8.876 -0.1248  0.8493 -1.6941
 5704SOL    HW228749   3.911   2.749   8.819  3.2133 -0.4152  1.4122
 5705SOL     OW28750   1.009   0.404  14.339  0.1967 -0.6833  0.3597
 5705SOL    HW128751   1.037   0.489  14.305 -3.6407  0.1374 -0.6523
 5705SOL    HW228752   1.086   0.384  14.392  1.7327 -0.4084 -1.7790
 5706SOL     OW28753   4.171   3.941   8.172 -0.2470  0.2316  0.1757
 5706SOL    HW128754   4.135   3.857   8.143  1.1707 -0.3096 -0.0430
 5706SOL    HW228755   4.220   3.924   8.253  0.3997  2.9508  0.3631
 5707SOL     OW28756   0.633   1.020   2.519 -0.2106 -0.9013 -0.1755
 5707SOL    HW128757   0.666   1.082   2.583  1.1722  0.2112 -1.9601
 5707SOL    HW228758   0.565   1.072   2.476  1.7134  0.3846 -1.6599
 5708SOL     OW28759   3.083   2.716   4.424 -0.0160 -0.3401 -0.1118
 5708SOL    HW128760   3.162   2.756   4.387 -0.4422 -0.9683 -1.6911
 5708SOL    HW228761   3.070   2.649   4.357 -0.7871  2.5361 -2.8522
 5709SOL     OW28762   2.080   1.052   3.731  0.0390  0.2191  0.2118
 5709SOL    HW128763   2.066   0.988   3.661  3.4592 -1.1761  0.8096
 5709SOL    HW228764   2.137   1.116   3.688  1.4855 -0.7956  0.6294
 5710SOL     OW28765   3.414   4.660   9.535  0.0341  0.0278 -0.0644
 5710SOL    HW128766   3.351   4.648   9.606  1.9070 -0.7505  1.4663
 5710SOL    HW228767   3.360   4.664   9.457 -1.8840 -0.6940  1.2171
 5711SOL     OW28768   1.194   0.225  14.130  0.5725 -0.1990  0.2507
 5711SOL    HW128769   1.191   0.298  14.068  0.8907 -0.4182 -0.0250
 5711SOL    HW228770   1.198   0.268  14.216  0.7171  0.8523 -0.2738
 5712SOL     OW28771   2.434   1.618   6.956 -0.0502  0.1347 -0.3091
 5712SOL    HW128772   2.384   1.541   6.982  1.7587  0.3697  3.7934
 5712SOL    HW228773   2.361   1.680   6.955  1.0877  1.4751  0.0889
 5713SOL     OW28774   1.458   0.330   6.852  0.2370  0.3208 -0.1924
 5713SOL    HW128775   1.526   0.263   6.861 -0.5525 -0.5748 -0.9075
 5713SOL    HW228776   1.390   0.301   6.913  1.0248 -0.4566  0.3216
 5714SOL     OW28777   3.436   3.252  16.938  0.0241 -0.3318 -0.4400
 5714SOL    HW128778   3.530   3.241  16.923  0.2429 -0.2419  0.8148
 5714SOL    HW228779   3.394   3.190  16.878 -0.6488  0.5298 -0.8574
 5715SOL     OW28780   1.947   4.136  15.634  0.3495 -0.0346  0.0983
 5715SOL    HW128781   1.930   4.229  15.651  1.0350  0.2129 -0.5396
 5715SOL    HW228782   1.917   4.104  15.719 -0.9112 -0.1803 -0.3939
 5716SOL     OW28783   2.887   0.881  11.833  0.0592 -0.3633  0.4166
 5716SOL    HW128784   2.908   0.938  11.758 -0.1067  0.5107  1.0336
 5716SOL    HW228785   2.972   0.888  11.876 -0.1354  1.1006  0.5715
 5717SOL     OW28786   1.699   4.061   3.370 -0.7158  0.1154  0.0208
 5717SOL    HW128787   1.608   4.060   3.401 -1.1629  0.8450 -1.2656
 5717SOL    HW228788   1.726   4.147   3.400 -1.6639 -0.2029  1.7916
 5718SOL     OW28789   3.765   0.815   5.556 -0.7015 -0.0561  0.7101
 5718SOL    HW128790   3.779   0.905   5.587 -2.1455 -0.2643  2.0009
 5718SOL    HW228791   3.812   0.768   5.624  0.2090 -2.0778 -1.3491
 5719SOL     OW28792   1.735   1.803   8.496 -0.4793 -0.1190 -0.4245
 5719SOL    HW128793   1.644   1.802   8.465 -0.7037  3.5217  0.1029
 5719SOL    HW228794   1.757   1.896   8.490 -1.8728  0.2153 -0.3521
 5720SOL     OW28795   4.503   3.995   9.913 -0.3804 -0.0996 -0.7035
 5720SOL    HW128796   4.518   4.086   9.890  1.0253  0.6482  3.0725
 5720SOL    HW228797   4.524   3.993  10.007 -1.4908 -0.0581 -0.4510
 5721SOL     OW28798   1.941   1.356   5.915 -0.2903  0.5443  0.1669
 5721SOL    HW128799   1.991   1.426   5.875  0.0250 -0.3533 -0.9913
 5721SOL    HW228800   1.918   1.298   5.842 -0.5565  3.2040 -1.8591
 5722SOL     OW28801   1.000   2.734   5.530  0.3985  0.1746  0.4358
 5722SOL    HW128802   1.063   2.804   5.517  0.8595 -0.3702 -0.2851
 5722SOL    HW228803   0.949   2.746   5.450  0.6439 -2.6429 -0.1436
 5723SOL     OW28804   0.198   3.827   7.581  0.0747  0.0236 -0.3084
 5723SOL    HW128805   0.162   3.910   7.613 -0.9447 -0.5352  0.0309
 5723SOL    HW228806   0.272   3.816   7.640 -1.8484 -0.8877  1.9421
 5724SOL     OW28807   0.018   1.413  13.780  0.0542 -0.7070 -0.0883
 5724SOL    HW128808   0.086   1.361  13.737 -1.9966 -1.7799 -1.9899
 5724SOL    HW228809   4.673   1.359  13.769  0.9051 -2.1450  0.8782
 5725SOL     OW28810   3.275   3.215   5.144 -0.2923  0.9259  0.0898
 5725SOL    HW128811   3.190   3.246   5.177  1.3165  5.2987  0.1221
 5725SOL    HW228812   3.280   3.238   5.051 -1.7954 -2.1381 -0.7165
 5726SOL     OW28813   4.300   1.476  10.098  0.1006 -0.3456  0.4187
 5726SOL    HW128814   4.233   1.408  10.111  0.2232 -0.6397 -0.4909
 5726SOL    HW228815   4.374   1.415  10.100 -0.2605 -0.7649  1.0105
 5727SOL     OW28816   3.298   3.190   1.286 -0.8281 -0.2906  0.3565
 5727SOL    HW128817   3.215   3.173   1.240 -0.4815 -0.3655 -0.2393
 5727SOL    HW228818   3.285   3.141   1.367  1.3602 -0.8218  0.3724
 5728SOL     OW28819   0.011   1.828  11.729 -0.0067  0.4487  0.4296
 5728SOL    HW128820   0.085   1.781  11.692 -0.4011 -0.1024  0.3357
 5728SOL    HW228821   0.039   1.817  11.820  0.4076 -1.1636  0.1126
 5729SOL     OW28822   2.177   2.872   7.029 -0.1850  0.5999 -0.4714
 5729SOL    HW128823   2.245   2.931   7.060  1.4778 -1.7239  0.2446
 5729SOL    HW228824   2.107   2.937   7.018 -1.3240 -0.5711 -0.0565
 5730SOL     OW28825   3.571   2.908  12.316 -0.2917 -0.1106  0.1921
 5730SOL    HW128826   3.641   2.879  12.257  1.0691  1.7860  0.8951
 5730SOL    HW228827   3.559   2.997  12.285 -2.1986 -1.1546 -2.0253
 5731SOL     OW28828   1.051   1.914   3.436  0.6374 -0.4378 -0.4470
 5731SOL    HW128829   0.980   1.953   3.488 -0.4975  0.0198 -2.3502
 5731SOL    HW228830   1.064   1.829   3.479  1.9748 -0.5834 -1.1383
 5732SOL     OW28831   1.879   3.101  13.595 -0.2138  0.3275  0.2254
 5732SOL    HW128832   1.789   3.133  13.594 -0.8159 -1.3008  1.3940
 5732SOL    HW228833   1.891   3.092  13.690  2.6424  1.3025 -0.0598
 5733SOL     OW28834   1.539   4.590   6.779  0.0586 -0.3006 -0.3069
 5733SOL    HW128835   1.485   4.586   6.700 -0.6952  1.9154  0.0975
 5733SOL    HW228836   1.578   4.503   6.773  0.3338 -0.0113 -2.9316
 5734SOL     OW28837   0.605   0.954   5.202 -0.1357 -0.3534 -0.1098
 5734SOL    HW128838   0.530   0.898   5.218 -0.8345  1.0294  1.3492
 5734SOL    HW228839   0.630   0.973   5.292  0.8414 -1.0481 -0.2313
 5735SOL     OW28840   1.432   2.959   8.758 -0.2348  0.1659  0.4287
 5735SOL    HW128841   1.340   2.933   8.755 -0.0036 -0.5726 -0.1228
 5735SOL    HW228842   1.473   2.876   8.782  0.2113  0.5750  1.0732
 5736SOL     OW28843   4.556   3.196   9.452  0.1151  0.2032  0.2163
 5736SOL    HW128844   4.642   3.225   9.483  1.2102 -1.8325 -0.9552
 5736SOL    HW228845   4.507   3.179   9.533  2.1006 -0.8362  1.2045
 5737SOL     OW28846   0.849   1.183  16.582 -0.6306  0.5396 -0.3981
 5737SOL    HW128847   0.847   1.156  16.674  3.7019  0.7306 -0.2436
 5737SOL    HW228848   0.789   1.117  16.549  1.2342 -1.5490  0.3691
 5738SOL     OW28849   0.225   1.024  13.522 -0.0096  0.5635  0.2938
 5738SOL    HW128850   0.280   0.961  13.567 -0.0227  0.8311  0.6861
 5738SOL    HW228851   0.231   0.991  13.432 -1.3429 -0.2277  0.4937
 5739SOL     OW28852   3.972   2.913   8.809 -0.4380 -0.2159  0.5458
 5739SOL    HW128853   3.894   2.959   8.840  0.1729 -1.0072  3.2595
 5739SOL    HW228854   4.037   2.957   8.865 -0.6413 -3.3159  3.2073
 5740SOL     OW28855   1.133   0.443  14.953  0.0313 -0.2254  0.5576
 5740SOL    HW128856   1.172   0.366  14.995 -0.6590 -2.9934 -3.8833
 5740SOL    HW228857   1.149   0.424  14.861 -0.4151  1.1606  0.1849
 5741SOL     OW28858   1.468   0.016   1.462 -0.4837  0.3289 -0.5673
 5741SOL    HW128859   1.504   0.049   1.380 -0.2442  0.7471 -0.2916
 5741SOL    HW228860   1.543   4.704   1.500 -0.5133 -0.6965 -1.7005
 5742SOL     OW28861   1.525   0.331   4.616 -0.4257  0.2041  0.4053
 5742SOL    HW128862   1.444   0.285   4.637  1.1291 -2.6055  0.3328
 5742SOL    HW228863   1.593   0.277   4.656  1.1304  1.3154 -0.6992
 5743SOL     OW28864   1.720   0.829   2.378 -0.1077 -0.0897  0.3242
 5743SOL    HW128865   1.776   0.904   2.393 -0.6169  0.0344  1.5285
 5743SOL    HW228866   1.636   0.874   2.376  0.7688  1.4945 -0.9358
 5744SOL     OW28867   3.623   2.916   5.139  0.3633  0.2739 -0.3032
 5744SOL    HW128868   3.656   2.986   5.195 -1.3835 -0.5890  1.7956
 5744SOL    HW228869   3.563   2.880   5.205  0.8608  0.9443  0.5095
 5745SOL     OW28870   0.318   1.823   5.345 -0.8817 -0.0056 -0.0072
 5745SOL    HW128871   0.285   1.773   5.271  0.3424 -2.0506  0.8227
 5745SOL    HW228872   0.273   1.777   5.416  0.9282  0.8383  1.7101
 5746SOL     OW28873   4.148   4.720   4.822  0.1450  0.0158 -0.0623
 5746SOL    HW128874   4.199   0.058   4.783  1.0450 -0.7230 -0.2201
 5746SOL    HW228875   4.153   4.642   4.768 -0.8235 -0.7104  0.8961
 5747SOL     OW28876   1.636   1.859  13.260 -0.1181 -0.0387 -0.1400
 5747SOL    HW128877   1.587   1.920  13.314  0.6983  1.3997 -1.0316
 5747SOL    HW228878   1.684   1.814  13.330 -0.2415 -0.2804 -0.2117
 5748SOL     OW28879   0.136   2.895   6.055 -0.1999 -0.0913  0.0623
 5748SOL    HW128880   0.045   2.865   6.057 -0.7345  1.5509  0.2807
 5748SOL    HW228881   0.147   2.890   5.960  0.4983 -2.0734  0.2399
 5749SOL     OW28882   4.635   4.181   7.059  0.1117  0.1286  0.3469
 5749SOL    HW128883   4.644   4.217   6.971 -0.2675  1.8170  1.0007
 5749SOL    HW228884   4.572   4.110   7.052 -0.3710  0.5681  0.2520
 5750SOL     OW28885   2.212   0.467   0.050  0.0591  0.5595 -0.7922
 5750SOL    HW128886   2.277   0.520   0.097 -0.4378 -0.8660  1.5016
 5750SOL    HW228887   2.267   0.390   0.063 -0.7003  0.5057  2.1339
 5751SOL     OW28888   0.107   0.890   1.892 -0.0203  0.6750  0.3987
 5751SOL    HW128889   0.194   0.925   1.906  0.8871 -0.1912 -3.1808
 5751SOL    HW228890   0.083   0.842   1.972 -5.3241  1.2350 -0.8247
 5752SOL     OW28891   1.998   3.586  10.887  0.7625 -0.0655  0.2245
 5752SOL    HW128892   2.042   3.628  10.812 -1.7949  0.3597 -1.0238
 5752SOL    HW228893   1.916   3.558  10.847  0.8650 -0.0090 -0.0289
 5753SOL     OW28894   2.648   4.481  16.030  0.2041 -0.0232 -0.1202
 5753SOL    HW128895   2.696   4.401  16.009  0.4957  0.8258 -2.6391
 5753SOL    HW228896   2.717   4.547  16.022  1.0907 -0.8458  0.8350
 5754SOL     OW28897   2.974   1.612  11.829  0.0911  0.0879  0.1694
 5754SOL    HW128898   2.889   1.645  11.801 -0.8588 -1.6023  1.0399
 5754SOL    HW228899   2.972   1.614  11.925 -0.7233  0.2139  0.1467
 5755SOL     OW28900   1.030   1.790   8.763 -0.2356 -0.5435  0.0544
 5755SOL    HW128901   0.977   1.736   8.822  1.5704 -0.0312  2.1775
 5755SOL    HW228902   1.008   1.743   8.683 -1.8912 -1.2604  0.9082
 5756SOL     OW28903   2.135   1.274  16.750 -0.2459  0.2203  0.9228
 5756SOL    HW128904   2.168   1.275  16.660  1.7872 -0.6306  1.6469
 5756SOL    HW228905   2.049   1.312  16.732  0.1367  1.1434  1.0489
 5757SOL     OW28906   2.565   4.421  10.918 -0.1567  0.4132  0.4096
 5757SOL    HW128907   2.549   4.330  10.894  0.3601  0.0031  1.5886
 5757SOL    HW228908   2.646   4.439  10.870 -0.4340  0.2467 -0.1226
 5758SOL     OW28909   0.198   2.036  17.570 -0.2414  0.8206 -0.3108
 5758SOL    HW128910   0.120   1.992  17.604  2.1304 -1.8958  1.6009
 5758SOL    HW228911   0.270   1.999  17.621 -0.3426  1.6305  0.4219
 5759SOL     OW28912   1.848   3.215   0.485 -0.2627  0.4765 -0.3041
 5759SOL    HW128913   1.801   3.285   0.531 -0.2604 -0.4364  1.1037
 5759SOL    HW228914   1.934   3.255   0.482 -0.8150  1.8922  2.0399
 5760SOL     OW28915   0.256   0.890   6.961  0.3088  0.7012  0.3155
 5760SOL    HW128916   0.163   0.871   6.954  0.6418  0.2467 -3.0128
 5760SOL    HW228917   0.285   0.836   6.887 -3.7694  0.0701 -0.8148
 5761SOL     OW28918   3.279   2.853   4.692 -0.0765  0.4305 -0.3572
 5761SOL    HW128919   3.315   2.838   4.780 -1.5226  0.3005  0.2228
 5761SOL    HW228920   3.242   2.766   4.676 -1.6245  0.8459  0.9345
 5762SOL     OW28921   3.483   0.265   4.852  0.4329  0.4243  0.0494
 5762SOL    HW128922   3.423   0.193   4.872 -0.9733  1.9452  1.3559
 5762SOL    HW228923   3.435   0.336   4.894 -3.2481 -0.3379 -2.8240
 5763SOL     OW28924   2.708   4.270   2.669 -1.2643 -0.0345  0.0288
 5763SOL    HW128925   2.683   4.179   2.659 -0.6593 -0.4645  2.2626
 5763SOL    HW228926   2.630   4.305   2.712 -0.7710  0.3869  0.5916
 5764SOL     OW28927   4.349   2.229   3.858  0.8080 -0.0670  0.0880
 5764SOL    HW128928   4.289   2.229   3.783  1.2517  2.4607 -0.2599
 5764SOL    HW228929   4.412   2.294   3.827 -0.6794  1.7795  0.8939
 5765SOL     OW28930   2.741   0.813   9.694 -0.7182  0.0923  0.0418
 5765SOL    HW128931   2.689   0.871   9.638  0.7339 -1.3779 -2.8594
 5765SOL    HW228932   2.683   0.791   9.766 -0.8225  0.7274  0.1524
 5766SOL     OW28933   1.476   1.904   5.521  0.4226  0.6119  0.0048
 5766SOL    HW128934   1.401   1.871   5.472 -0.3387  0.8148  1.0217
 5766SOL    HW228935   1.444   1.881   5.608  0.4553 -0.2119 -0.2002
 5767SOL     OW28936   2.687   3.067   4.527 -0.9697 -0.2253  0.3264
 5767SOL    HW128937   2.714   3.156   4.550 -0.7766 -0.5391  1.2863
 5767SOL    HW228938   2.762   3.038   4.474 -0.0377 -2.4341  2.8611
 5768SOL     OW28939   2.678   0.324   9.412  0.0194  0.4761 -0.6675
 5768SOL    HW128940   2.743   0.394   9.421  1.3219 -0.8434  0.1843
 5768SOL    HW228941   2.749   0.259   9.411 -1.1556 -0.8218  0.5010
 5769SOL     OW28942   2.534   1.680   6.343  0.0287 -0.2306 -0.2224
 5769SOL    HW128943   2.537   1.594   6.386  2.3086 -0.3991 -0.7244
 5769SOL    HW228944   2.614   1.671   6.292 -1.3947 -4.2230 -1.7570
 5770SOL     OW28945   1.751   1.690   6.654 -0.2734 -0.2230  0.0368
 5770SOL    HW128946   1.821   1.631   6.678  0.8942  1.6438  1.1978
 5770SOL    HW228947   1.780   1.773   6.691 -1.5644  0.2921 -0.0814
 5771SOL     OW28948   4.587   0.344   6.069 -0.1650 -0.2284 -0.1199
 5771SOL    HW128949   4.679   0.357   6.049 -0.4376 -0.0148 -1.2118
 5771SOL    HW228950   4.580   0.399   6.148 -1.7913 -1.4418  0.5798
 5772SOL     OW28951   3.311   0.965   3.420  0.0008 -0.4700 -0.0336
 5772SOL    HW128952   3.235   0.958   3.363 -0.2379 -0.0004  0.2253
 5772SOL    HW228953   3.365   0.905   3.368  0.4869 -0.6127  0.6392
 5773SOL     OW28954   0.653   4.472   2.933 -0.2954 -0.4515  0.1748
 5773SOL    HW128955   0.657   4.387   2.976 -2.0113 -0.6641 -0.0963
 5773SOL    HW228956   0.674   4.442   2.845 -0.3880  1.0512 -0.3584
 5774SOL     OW28957   4.409   0.885   7.167 -0.1666 -0.1347  0.5446
 5774SOL    HW128958   4.395   0.836   7.085 -1.1351 -0.3386  0.8326
 5774SOL    HW228959   4.342   0.842   7.220 -1.6499  0.7286 -0.6404
 5775SOL     OW28960   0.187   4.010   3.422 -0.4304  0.1294 -0.1958
 5775SOL    HW128961   0.248   3.978   3.489 -0.5792 -0.6544 -0.4290
 5775SOL    HW228962   0.114   3.959   3.460 -0.3982  0.1799 -0.0667
 5776SOL     OW28963   1.336   2.109   9.796  0.3422 -0.6544 -0.4008
 5776SOL    HW128964   1.429   2.085   9.788  0.2352 -1.2759  0.2678
 5776SOL    HW228965   1.315   2.140   9.708  1.5567  0.4396 -0.3083
 5777SOL     OW28966   3.818   0.907   6.390  0.3123 -0.2786  0.3737
 5777SOL    HW128967   3.773   0.989   6.368  3.3266  1.0214 -1.0286
 5777SOL    HW228968   3.893   0.904   6.330  1.1747 -0.9305  1.4906
 5778SOL     OW28969   3.523   2.854  13.844  0.0639  0.1185  0.3594
 5778SOL    HW128970   3.440   2.900  13.846 -0.3852 -0.6958  0.6642
 5778SOL    HW228971   3.499   2.762  13.859  0.0230 -0.2701 -2.2254
 5779SOL     OW28972   0.604   2.230   0.852 -0.4157  0.2479 -0.8062
 5779SOL    HW128973   0.695   2.206   0.838 -0.8855 -0.4099 -2.6532
 5779SOL    HW228974   0.627   2.277   0.932 -4.3786  0.3701  0.2721
 5780SOL     OW28975   2.441   0.168  15.570  0.0665  0.3713  0.3433
 5780SOL    HW128976   2.367   0.227  15.554  0.9814  1.4228 -0.0760
 5780SOL    HW228977   2.490   0.200  15.493 -0.7283 -0.0613 -0.3342
 5781SOL     OW28978   2.665   2.442   8.634  0.5661 -0.6272 -0.5703
 5781SOL    HW128979   2.746   2.437   8.584 -0.0391  1.6042 -1.7947
 5781SOL    HW228980   2.608   2.377   8.592 -1.5203 -0.0272  1.3047
 5782SOL     OW28981   2.784   3.099   3.549  0.2147 -0.1533  0.3112
 5782SOL    HW128982   2.754   3.144   3.470 -0.1290 -1.9409 -0.5787
 5782SOL    HW228983   2.794   3.007   3.524  0.9222 -0.1034  0.4183
 5783SOL     OW28984   1.488   1.266  11.423 -0.1798  0.2380 -0.0569
 5783SOL    HW128985   1.420   1.328  11.448  1.0094  1.5988 -0.2077
 5783SOL    HW228986   1.467   1.243  11.333 -0.3450 -0.9089  0.2750
 5784SOL     OW28987   4.605   4.564   5.145  0.2093  0.0199 -0.3699
 5784SOL    HW128988   4.547   4.512   5.090 -1.0670 -0.6986  1.6618
 5784SOL    HW228989   4.536   4.614   5.188  1.7698  0.6184  1.4258
 5785SOL     OW28990   2.985   0.457   0.302 -0.0089  0.8210  0.0897
 5785SOL    HW128991   3.024   0.378   0.265  2.0062  0.6837  2.5692
 5785SOL    HW228992   2.940   0.414   0.375 -0.9625 -1.2628 -1.7223
 5786SOL     OW28993   0.554   0.052   4.043  0.1639 -0.0722 -0.2950
 5786SOL    HW128994   0.461   0.073   4.040  0.2969  0.7753  1.2193
 5786SOL    HW228995   0.584   0.127   4.094 -0.0224 -0.3994  0.2849
 5787SOL     OW28996   2.242   2.297   5.549  0.0030 -0.1571 -0.6527
 5787SOL    HW128997   2.231   2.223   5.489 -1.7834 -0.6765  0.3359
 5787SOL    HW228998   2.282   2.252   5.624  0.0588 -1.2137 -1.3172
 5788SOL     OW28999   4.578   2.039   5.218 -0.4925  0.0775  0.3342
 5788SOL    HW129000   4.571   2.062   5.126 -0.1720 -0.8981  0.0719
 5788SOL    HW229001   4.666   2.005   5.230 -0.7190 -1.2419 -1.7405
 5789SOL     OW29002   1.992   2.721   3.825  0.1710  0.5281  0.6278
 5789SOL    HW129003   1.988   2.768   3.908  2.3791  0.8054  0.5695
 5789SOL    HW229004   1.942   2.641   3.844  1.0335 -0.6806 -2.2614
 5790SOL     OW29005   3.577   2.082   0.269 -0.1294  0.3806  0.3629
 5790SOL    HW129006   3.643   2.149   0.255  1.8740 -1.6063  0.2328
 5790SOL    HW229007   3.498   2.121   0.234 -0.5020 -0.1307  0.6297
 5791SOL     OW29008   1.041   4.212  14.804  0.1554 -0.1589 -0.0323
 5791SOL    HW129009   1.102   4.266  14.753 -2.5063  2.2476 -0.7415
 5791SOL    HW229010   0.966   4.272  14.807  1.5009  1.5198  0.0905
 5792SOL     OW29011   1.378   0.749   6.208  0.4165 -0.0841 -0.2316
 5792SOL    HW129012   1.329   0.708   6.137 -0.1380 -0.4368  0.3569
 5792SOL    HW229013   1.353   0.699   6.285 -1.7261 -0.4772 -1.1540
 5793SOL     OW29014   2.442   1.362   0.992 -0.1065 -0.0573  0.1995
 5793SOL    HW129015   2.500   1.366   0.916  2.1192 -2.7465  1.7496
 5793SOL    HW229016   2.361   1.345   0.944  0.1030 -0.2321 -0.1020
 5794SOL     OW29017   2.451   3.006   5.914 -0.1839  0.2881 -0.1643
 5794SOL    HW129018   2.449   3.049   5.829  0.7426 -0.0694 -0.3701
 5794SOL    HW229019   2.543   3.016   5.940 -0.4545  1.4115  0.3438
 5795SOL     OW29020   2.080   1.410   5.439  0.1344  0.0234 -0.1931
 5795SOL    HW129021   2.161   1.358   5.437  1.3248  1.9483 -1.8934
 5795SOL    HW229022   2.115   1.482   5.386 -0.8911  1.5793  1.2517
 5796SOL     OW29023   1.503   1.509  10.712 -0.1470  0.3242  0.2104
 5796SOL    HW129024   1.518   1.460  10.631 -1.3516  1.9279 -0.9917
 5796SOL    HW229025   1.499   1.595  10.671  1.4834  0.3738  0.1579
 5797SOL     OW29026   3.327   0.478   5.521 -0.1010  0.0334  0.0791
 5797SOL    HW129027   3.284   0.561   5.541  1.0754  1.0919 -1.8572
 5797SOL    HW229028   3.412   0.492   5.562 -0.3822  1.5954  0.1121
 5798SOL     OW29029   2.752   0.140  12.147 -0.0694  0.7329 -0.3837
 5798SOL    HW129030   2.740   0.061  12.199  0.4374  1.9793  1.6310
 5798SOL    HW229031   2.693   0.193  12.201  0.5226  1.1399 -0.1268
 5799SOL     OW29032   2.217   1.469   0.852  0.0722  0.3114 -0.5951
 5799SOL    HW129033   2.145   1.418   0.814  1.6183 -0.9776 -1.7620
 5799SOL    HW229034   2.254   1.501   0.769  0.9546  0.3815 -0.1655
 5800SOL     OW29035   0.262   3.813   5.641 -0.1621 -0.1500  0.1180
 5800SOL    HW129036   0.193   3.862   5.595  1.0633  3.2180  1.8673
 5800SOL    HW229037   0.253   3.850   5.729 -0.7762 -3.0289  1.2630
 5801SOL     OW29038   1.447   1.139   4.213 -0.1336 -0.6864  0.2135
 5801SOL    HW129039   1.489   1.206   4.159 -1.4668  0.8851  1.1375
 5801SOL    HW229040   1.403   1.195   4.277 -2.4206 -1.2640 -0.8772
 5802SOL     OW29041   0.899   2.849   6.408  0.1723 -0.1435 -0.0795
 5802SOL    HW129042   0.979   2.893   6.380 -0.1272  1.2632  1.2778
 5802SOL    HW229043   0.938   2.764   6.426 -0.3208 -0.6247 -1.2469
 5803SOL     OW29044   0.207   3.993  10.167  0.2270  0.4578  0.3535
 5803SOL    HW129045   0.160   3.914  10.138 -0.3410 -0.3007  3.3077
 5803SOL    HW229046   0.216   3.977  10.261 -0.4990  1.1202  0.5408
 5804SOL     OW29047   1.286   4.263   7.265 -0.1377 -0.0193  0.2787
 5804SOL    HW129048   1.361   4.220   7.223 -1.4229 -0.5271 -1.4955
 5804SOL    HW229049   1.298   4.252   7.360 -0.0894 -0.1171  0.2617
 5805SOL     OW29050   1.548   3.631   6.799 -0.1102  0.0693 -0.6392
 5805SOL    HW129051   1.471   3.585   6.832 -0.7605  2.4998  1.2285
 5805SOL    HW229052   1.508   3.704   6.751 -1.3422 -1.0431 -1.3024
 5806SOL     OW29053   1.685   0.597   2.177  0.0326  0.5188 -0.1049
 5806SOL    HW129054   1.612   0.536   2.188 -0.2490  1.0668  1.0981
 5806SOL    HW229055   1.659   0.684   2.208  0.2321  0.4609  0.2273
 5807SOL     OW29056   1.065   3.046   0.228 -0.3355  0.5085 -0.7094
 5807SOL    HW129057   1.038   3.062   0.319 -1.1084 -1.0605 -0.6420
 5807SOL    HW229058   1.017   3.109   0.175 -1.4052 -0.4180 -0.8536
 5808SOL     OW29059   2.817   0.225   6.157 -0.7119 -0.5814 -0.1401
 5808SOL    HW129060   2.822   0.238   6.062 -0.0825  1.9370  0.2396
 5808SOL    HW229061   2.871   0.296   6.192 -2.3361 -0.6014  2.3857
 5809SOL     OW29062   0.584   0.572   6.769  0.5898  0.6008  0.4470
 5809SOL    HW129063   0.601   0.666   6.764  2.3299  0.1792 -1.5337
 5809SOL    HW229064   0.489   0.574   6.782  0.6411  0.5496  0.8324
 5810SOL     OW29065   3.781   0.764   9.968 -0.2474 -0.3330  0.1298
 5810SOL    HW129066   3.755   0.706  10.039 -2.3673  0.2979 -0.1467
 5810SOL    HW229067   3.789   0.703   9.895 -1.1999 -1.2648  0.8141
 5811SOL     OW29068   3.137   4.165   5.698 -0.5129  0.0428 -0.6091
 5811SOL    HW129069   3.175   4.190   5.614 -2.4792 -0.1065 -1.5485
 5811SOL    HW229070   3.197   4.184   5.770  1.5998 -0.5483 -2.2154
 5812SOL     OW29071   0.541   2.910   2.009  0.4366 -0.8223 -0.3979
 5812SOL    HW129072   0.449   2.896   1.986  0.1826  1.4742 -0.7761
 5812SOL    HW229073   0.592   2.887   1.932 -0.7019 -2.4760 -0.6789
 5813SOL     OW29074   2.473   0.332   1.044 -1.0490  0.1493  0.4948
 5813SOL    HW129075   2.520   0.377   1.115  2.1148  0.4121 -1.7255
 5813SOL    HW229076   2.543   0.299   0.988 -0.1532 -0.2998  1.8804
 5814SOL     OW29077   4.192   3.213   9.249  0.2638  0.1443 -0.0253
 5814SOL    HW129078   4.244   3.134   9.261 -1.4665 -0.9285  0.4890
 5814SOL    HW229079   4.247   3.271   9.301 -0.0551 -1.1461  1.7684
 5815SOL     OW29080   0.722   3.771   8.996 -0.8183  0.0799 -0.2139
 5815SOL    HW129081   0.682   3.717   8.928 -2.4741  0.7710  0.2007
 5815SOL    HW229082   0.706   3.722   9.076  1.8395  0.0776  0.3139
 5816SOL     OW29083   4.640   1.326  12.517  0.2745 -0.2914  0.2544
 5816SOL    HW129084   4.689   1.247  12.541  0.4663 -0.1541  0.3146
 5816SOL    HW229085   4.605   1.346  12.604 -0.0039 -0.9024  0.2849
 5817SOL     OW29086   1.121   2.028   4.507  0.9874  0.6300  1.2042
 5817SOL    HW129087   1.055   2.009   4.574 -1.1624  0.0563 -1.0659
 5817SOL    HW229088   1.144   2.115   4.540  0.0417  1.3192  0.0312
 5818SOL     OW29089   4.450   1.070   1.003 -0.2956 -0.0589 -0.1940
 5818SOL    HW129090   4.462   1.136   0.935  1.2268 -0.3094 -0.1753
 5818SOL    HW229091   4.479   1.114   1.082  0.9273  0.4864 -0.9550
 5819SOL     OW29092   3.401   4.364  13.706 -0.3673 -0.1410  0.4052
 5819SOL    HW129093   3.378   4.412  13.786  2.6848  0.0888  1.1515
 5819SOL    HW229094   3.371   4.280  13.739 -1.4039 -0.6683 -1.9535
 5820SOL     OW29095   3.616   1.525   4.930 -0.0185 -0.3208 -0.2220
 5820SOL    HW129096   3.573   1.446   4.895 -2.5727  0.9799 -0.0257
 5820SOL    HW229097   3.697   1.495   4.969 -0.8430 -0.2864  1.4989
 5821SOL     OW29098   0.295   3.068  16.882  0.5769  0.5167  0.1330
 5821SOL    HW129099   0.305   3.160  16.905 -0.3986  0.9303 -1.0619
 5821SOL    HW229100   0.325   3.023  16.961 -0.5603 -1.8805 -0.7738
 5822SOL     OW29101   4.213   0.025   0.111 -0.0623  0.2085 -0.1990
 5822SOL    HW129102   4.221   0.058   0.200 -1.7493 -0.4585  0.2044
 5822SOL    HW229103   4.203   4.664   0.119  0.2586  0.1581 -0.4098
 5823SOL     OW29104   3.333   0.926  15.324  0.0034 -0.0068  0.4910
 5823SOL    HW129105   3.346   1.013  15.361  0.5669  0.4487 -0.8163
 5823SOL    HW229106   3.300   0.866  15.392  0.5822 -1.6402 -0.6717
 5824SOL     OW29107   3.621   3.559   8.938 -0.4006  0.2361  0.1426
 5824SOL    HW129108   3.558   3.546   9.009 -0.6438  1.8886  0.2228
 5824SOL    HW229109   3.701   3.533   8.985  0.5555  0.7589 -1.1846
 5825SOL     OW29110   3.421   1.242   7.520  0.0664 -0.3056  0.0042
 5825SOL    HW129111   3.492   1.299   7.550 -0.2539  0.9176 -1.5383
 5825SOL    HW229112   3.457   1.216   7.435 -0.9151 -0.0598 -0.4909
 5826SOL     OW29113   2.178   2.074   6.998 -0.1656 -1.1701 -0.4266
 5826SOL    HW129114   2.136   2.125   7.067  1.4410  2.4463 -2.0799
 5826SOL    HW229115   2.207   2.140   6.935 -2.2928  0.8804  0.7498
 5827SOL     OW29116   2.849   0.149  16.811  0.4914  0.3354  0.2188
 5827SOL    HW129117   2.925   0.092  16.801 -0.0358 -0.6763  2.0205
 5827SOL    HW229118   2.774   0.092  16.793  0.3207  0.3574  0.8836
 5828SOL     OW29119   2.001   0.157   3.161  0.2092  0.0736  0.1845
 5828SOL    HW129120   2.012   0.200   3.076 -0.3509 -1.2214 -0.5352
 5828SOL    HW229121   2.089   0.170   3.198  1.2134  1.2295 -2.5377
 5829SOL     OW29122   2.566   1.779   8.469 -0.6921  0.2785  0.2559
 5829SOL    HW129123   2.606   1.845   8.525 -1.7196  1.6497 -0.6376
 5829SOL    HW229124   2.638   1.764   8.408 -0.0564  0.2965  1.0117
 5830SOL     OW29125   4.534   4.513  10.553 -0.4415 -0.0672  0.2959
 5830SOL    HW129126   4.478   4.589  10.540  1.7304  1.5705  0.6841
 5830SOL    HW229127   4.464   4.458  10.589  0.7240 -0.2559  2.2179
 5831SOL     OW29128   3.126   1.559   4.945 -0.1708 -0.4875  0.2909
 5831SOL    HW129129   3.136   1.652   4.925 -0.5856 -0.8522 -1.6276
 5831SOL    HW229130   3.059   1.555   5.014  2.4857  1.0601  2.9943
 5832SOL     OW29131   0.732   3.048   3.363 -0.5271  0.4193  0.6137
 5832SOL    HW129132   0.777   3.111   3.419  1.1122 -1.4347  1.3825
 5832SOL    HW229133   0.765   3.079   3.280 -1.4439 -0.2744 -0.0165
 5833SOL     OW29134   2.359   0.257   0.099  0.1097 -0.0927 -0.2559
 5833SOL    HW129135   2.335   0.170   0.068 -2.0068  0.1920  0.6006
 5833SOL    HW229136   2.419   0.226   0.166  1.9538  0.0268 -1.8414
 5834SOL     OW29137   3.426   4.601  12.524 -0.1876 -0.2131 -0.2068
 5834SOL    HW129138   3.477   4.681  12.527  2.4050 -1.7664 -2.0456
 5834SOL    HW229139   3.438   4.580  12.616 -1.0641  2.5140  0.5121
 5835SOL     OW29140   0.798   1.612   8.236  0.8712 -0.2793  0.1340
 5835SOL    HW129141   0.888   1.627   8.208  1.5507 -0.1018  2.4302
 5835SOL    HW229142   0.804   1.572   8.323 -0.5453  3.1560  1.7834
 5836SOL     OW29143   2.818   2.293   3.551  0.1089  0.4028 -0.2843
 5836SOL    HW129144   2.875   2.350   3.603  0.4178 -0.6153  0.5052
 5836SOL    HW229145   2.868   2.212   3.547  0.0679  0.4718 -1.8316
 5837SOL     OW29146   1.829   2.586   5.569 -0.2183  0.1584  0.2517
 5837SOL    HW129147   1.812   2.493   5.587 -0.5044 -0.2221 -1.9779
 5837SOL    HW229148   1.831   2.610   5.662 -0.1766  0.0249  0.2867
 5838SOL     OW29149   1.017   3.513  15.892 -0.0217  0.2795  1.0606
 5838SOL    HW129150   0.968   3.594  15.879 -2.1344 -1.2970 -0.6879
 5838SOL    HW229151   1.102   3.545  15.862  0.7887 -1.9948  0.8942
 5839SOL     OW29152   0.072   3.935  10.440 -0.4459  0.6898  0.0304
 5839SOL    HW129153   4.717   3.971  10.431 -0.8382  0.0331  1.1993
 5839SOL    HW229154   0.053   3.890  10.522  1.4027  0.7405  0.4908
 5840SOL     OW29155   4.396   3.585   3.486  0.0998  0.5605 -0.4311
 5840SOL    HW129156   4.331   3.558   3.421 -0.7329 -0.8038  0.9557
 5840SOL    HW229157   4.365   3.669   3.519 -0.8461  0.2689 -0.5757
 5841SOL     OW29158   1.964   1.117   7.238  0.0408 -0.5114  0.2386
 5841SOL    HW129159   1.989   1.025   7.237 -0.5791 -0.6814  0.5042
 5841SOL    HW229160   1.918   1.119   7.154  0.1031  0.3983  0.2290
 5842SOL     OW29161   3.634   1.438   2.260  0.5452  0.4509  0.4063
 5842SOL    HW129162   3.539   1.433   2.274  0.3588  0.1176 -0.9781
 5842SOL    HW229163   3.663   1.347   2.273 -0.2709  0.4076  1.9017
 5843SOL     OW29164   0.159   2.531  12.678 -0.1218 -0.2893 -0.4119
 5843SOL    HW129165   0.110   2.584  12.615 -1.8232 -0.1226  1.0330
 5843SOL    HW229166   0.240   2.505  12.635  0.1688  0.9377 -0.5954
 5844SOL     OW29167   1.951   0.224   1.508 -0.0720  0.1446 -0.4277
 5844SOL    HW129168   1.915   0.278   1.579 -2.5784  1.2073 -2.4876
 5844SOL    HW229169   1.870   0.189   1.469 -0.7579  3.6028 -2.1717
 5845SOL     OW29170   3.014   2.433  11.677  0.6956 -0.2817  0.3493
 5845SOL    HW129171   2.922   2.408  11.676  0.3768  0.7788  2.5481
 5845SOL    HW229172   3.053   2.345  11.679 -0.1759 -0.7137 -1.9644
 5846SOL     OW29173   1.887   3.839   1.520  0.1907  0.0576 -0.2661
 5846SOL    HW129174   1.972   3.858   1.558 -0.6610  1.2911  1.0056
 5846SOL    HW229175   1.824   3.898   1.563  0.9283  0.9184 -0.3743
 5847SOL     OW29176   3.851   2.718   2.188  0.1658 -0.0021  0.0006
 5847SOL    HW129177   3.896   2.801   2.171  0.6661 -0.4201 -0.6802
 5847SOL    HW229178   3.914   2.654   2.157 -0.5337 -0.9739  0.6008
 5848SOL     OW29179   0.755   2.112   4.450 -0.0981 -0.2993  0.6152
 5848SOL    HW129180   0.735   2.204   4.436 -0.9421 -0.5337  0.2659
 5848SOL    HW229181   0.671   2.082   4.484 -0.6015 -0.1997 -0.5437
 5849SOL     OW29182   4.081   2.755   4.209  0.8162  0.2097  0.3644
 5849SOL    HW129183   4.169   2.762   4.173  0.3083  2.1034 -0.5065
 5849SOL    HW229184   4.062   2.661   4.214 -1.2415  0.5658 -0.7545
 5850SOL     OW29185   2.698   3.610   5.732  0.0752 -0.3331  0.3884
 5850SOL    HW129186   2.769   3.590   5.672  0.8574  1.8780  0.5918
 5850SOL    HW229187   2.700   3.526   5.779  1.1646  0.2003  1.2969
 5851SOL     OW29188   1.932   2.036   1.101  0.4033  0.0987  0.1090
 5851SOL    HW129189   1.850   2.079   1.125  0.5555  0.8660 -0.7493
 5851SOL    HW229190   1.944   1.962   1.160  1.0149  1.8528  2.1485
 5852SOL     OW29191   3.695   3.419   3.122  0.4384  0.0076 -0.0411
 5852SOL    HW129192   3.726   3.506   3.145 -1.0692  0.7837 -0.9536
 5852SOL    HW229193   3.735   3.373   3.196  0.0159 -0.5583 -0.1624
 5853SOL     OW29194   3.028   4.018   4.781  0.6928 -0.0245  0.0672
 5853SOL    HW129195   3.028   3.923   4.783  0.8974 -0.0927 -2.4539
 5853SOL    HW229196   3.023   4.033   4.686  1.6420 -0.1660  0.0012
 5854SOL     OW29197   3.516   1.828   3.893 -0.6309 -0.0426  0.3033
 5854SOL    HW129198   3.533   1.883   3.816  2.8181  0.3976  1.3634
 5854SOL    HW229199   3.587   1.764   3.889  0.5763  1.3623 -1.4689
 5855SOL     OW29200   3.188   3.054  13.023 -0.5681  0.1898  0.6312
 5855SOL    HW129201   3.143   3.126  12.980 -2.1528 -0.7913  0.6671
 5855SOL    HW229202   3.117   3.024  13.079 -2.4128  0.8130 -1.4037
 5856SOL     OW29203   1.039   4.183   7.485  0.3349 -0.3019  0.0680
 5856SOL    HW129204   1.134   4.194   7.493  0.2819 -0.5804  0.9782
 5856SOL    HW229205   1.032   4.094   7.518  0.9819 -0.3576  0.0608
 5857SOL     OW29206   4.579   4.385   9.405  0.2074 -0.2431 -0.7982
 5857SOL    HW129207   4.590   4.479   9.396 -1.5912 -0.3425 -4.0734
 5857SOL    HW229208   4.523   4.378   9.483  0.9108 -0.9296 -0.3501
 5858SOL     OW29209   0.848   1.177   7.728  0.0009 -0.3569  0.1573
 5858SOL    HW129210   0.928   1.125   7.724  1.8806  2.5925 -0.6714
 5858SOL    HW229211   0.860   1.228   7.648  0.7538 -0.1187  0.4202
 5859SOL     OW29212   2.845   1.396   6.319 -0.1227 -0.1573  0.0558
 5859SOL    HW129213   2.860   1.440   6.236  7.2090 -0.8856  0.9542
 5859SOL    HW229214   2.928   1.348   6.327  1.5773  2.5127 -1.7323
 5860SOL     OW29215   4.315   1.968   3.917  0.4325 -0.7926  0.4806
 5860SOL    HW129216   4.322   1.940   4.008  0.0863  0.9240  1.0362
 5860SOL    HW229217   4.342   2.060   3.922  0.7813 -1.0130  2.5448
 5861SOL     OW29218   0.264   4.281   4.969  0.2006 -0.0016 -0.2977
 5861SOL    HW129219   0.340   4.330   5.001  0.0962 -0.5920  0.8461
 5861SOL    HW229220   0.298   4.191   4.969  2.1844  0.7306 -1.4426
 5862SOL     OW29221   2.050   0.210   5.500  0.0457  0.1758 -0.0636
 5862SOL    HW129222   2.011   0.293   5.526 -0.6189 -0.0958 -0.2066
 5862SOL    HW229223   2.016   0.153   5.569 -1.2432  0.1885 -0.6890
 5863SOL     OW29224   0.584   1.802  12.313 -0.0611  0.1495 -0.6123
 5863SOL    HW129225   0.590   1.796  12.408 -2.3184 -1.4223 -0.5551
 5863SOL    HW229226   0.650   1.737  12.288 -1.7823 -1.3614 -1.3161
 5864SOL     OW29227   4.252   2.628   8.069 -0.3584  0.3305  0.3023
 5864SOL    HW129228   4.311   2.700   8.048 -1.4987  1.1637 -0.0767
 5864SOL    HW229229   4.308   2.553   8.083  1.6289  1.8361  0.3669
 5865SOL     OW29230   2.957   2.341  13.078  0.3373  0.3292  0.1511
 5865SOL    HW129231   3.004   2.390  13.146 -1.2462  1.5222  0.3812
 5865SOL    HW229232   2.936   2.266  13.133 -0.3481 -0.7505 -1.5844
 5866SOL     OW29233   0.750   1.906   6.397  0.9839  0.2341  0.2382
 5866SOL    HW129234   0.811   1.834   6.382  2.6752  1.9287 -1.0076
 5866SOL    HW229235   0.793   1.972   6.343  0.3218  1.7904  1.5954
 5867SOL     OW29236   2.132   2.143   0.677 -0.0673 -0.8052  0.8566
 5867SOL    HW129237   2.206   2.174   0.730 -0.9728  0.9792  1.0909
 5867SOL    HW229238   2.171   2.093   0.606 -1.2518 -1.0603  0.3738
 5868SOL     OW29239   0.871   3.299  15.998 -0.0629 -0.0850 -0.0200
 5868SOL    HW129240   0.952   3.252  15.978 -0.3027 -0.6558  0.3468
 5868SOL    HW229241   0.885   3.365  15.929  0.2891 -0.9351 -0.7627
 5869SOL     OW29242   2.989   0.026   4.312 -0.3068  0.4708 -0.2247
 5869SOL    HW129243   2.981   4.674   4.354 -0.2469  0.1144 -0.9395
 5869SOL    HW229244   2.903   0.025   4.269 -0.2956 -2.6866 -0.1480
 5870SOL     OW29245   1.002   2.083   2.005  0.2171 -0.3013 -0.4802
 5870SOL    HW129246   1.091   2.058   1.982  0.3193 -0.9164  0.6029
 5870SOL    HW229247   0.953   2.010   1.968 -0.4097  0.1982 -0.6389
 5871SOL     OW29248   0.001   3.965   6.816 -0.0302 -0.2013 -0.1980
 5871SOL    HW129249   4.686   3.960   6.898  0.4840  0.5516  0.1476
 5871SOL    HW229250   4.703   4.049   6.783  1.9948  0.6007 -0.0802
 5872SOL     OW29251   1.154   3.847   3.190  0.5393 -0.0664 -0.6783
 5872SOL    HW129252   1.203   3.777   3.235  0.0010  0.9405  1.5065
 5872SOL    HW229253   1.131   3.802   3.109  0.7403 -0.8876 -0.2810
 5873SOL     OW29254   3.016   1.367   3.290 -0.3062  0.3466  0.2575
 5873SOL    HW129255   3.072   1.290   3.281 -0.6809 -0.1522  2.2346
 5873SOL    HW229256   3.086   1.412   3.336  1.1263  0.1183 -1.7144
 5874SOL     OW29257   2.013   0.882  13.910  0.3540  1.0741  0.5029
 5874SOL    HW129258   2.013   0.952  13.975  0.2454  0.7285  0.8729
 5874SOL    HW229259   2.089   0.917  13.863  0.2408  0.4568 -0.1288
 5875SOL     OW29260   4.495   1.541  13.142  0.0734 -0.2460 -0.1281
 5875SOL    HW129261   4.433   1.564  13.073 -0.8750 -0.8723  0.5058
 5875SOL    HW229262   4.504   1.446  13.129 -1.2328 -0.2484 -0.9615
 5876SOL     OW29263   1.644   0.617   3.034  0.4883  0.0000 -0.1097
 5876SOL    HW129264   1.608   0.661   3.111 -0.7256 -0.0681 -0.6429
 5876SOL    HW229265   1.606   0.674   2.967 -1.4925  2.1799  2.8553
 5877SOL     OW29266   1.169   4.505   8.734  0.6689 -0.6371  0.3476
 5877SOL    HW129267   1.220   4.571   8.686 -1.4275 -1.0953 -2.5626
 5877SOL    HW229268   1.092   4.495   8.678  0.5338 -0.6984  0.5479
 5878SOL     OW29269   3.461   3.549  16.494 -0.3825 -0.0272 -0.5165
 5878SOL    HW129270   3.552   3.571  16.515  0.2267 -0.7902 -2.3189
 5878SOL    HW229271   3.439   3.620  16.433  1.3639  1.6135  0.7533
 5879SOL     OW29272   4.153   3.558   0.448  0.2237 -0.3234  0.1465
 5879SOL    HW129273   4.196   3.597   0.523  1.2288  0.5018 -0.8619
 5879SOL    HW229274   4.200   3.603   0.378 -0.6801  0.2223 -0.1093
 5880SOL     OW29275   4.112   3.572   8.748 -0.0488 -0.5300 -0.0552
 5880SOL    HW129276   4.176   3.533   8.807  1.1015 -0.1906 -1.0699
 5880SOL    HW229277   4.028   3.546   8.784  0.7376 -3.3781 -0.2508
 5881SOL     OW29278   1.829   4.355   3.846 -0.0747  0.6421  0.5288
 5881SOL    HW129279   1.856   4.380   3.934  0.2788  1.7744  0.1098
 5881SOL    HW229280   1.905   4.303   3.821 -0.8091 -1.7853  3.4040
 5882SOL     OW29281   1.354   2.755  15.607 -0.1928 -0.2267  0.3541
 5882SOL    HW129282   1.375   2.810  15.683 -0.2129  2.5978 -1.6864
 5882SOL    HW229283   1.416   2.684  15.621 -2.6552 -2.5897 -0.7750
 5883SOL     OW29284   3.976   4.063   0.745 -0.2189 -0.8673  0.0612
 5883SOL    HW129285   3.958   3.997   0.812 -0.2663  0.1252  1.0253
 5883SOL    HW229286   4.017   4.126   0.804 -0.4029  0.7032 -1.5095
 5884SOL     OW29287   3.360   3.279  16.513 -0.1318 -0.0105 -0.0313
 5884SOL    HW129288   3.279   3.317  16.481 -0.9352 -0.7552  1.1517
 5884SOL    HW229289   3.410   3.361  16.514  2.3115 -1.4698 -0.4481
 5885SOL     OW29290   4.277   4.054  15.935  0.5626 -0.0190 -0.2173
 5885SOL    HW129291   4.241   4.141  15.951 -1.9659 -0.8535 -1.4595
 5885SOL    HW229292   4.370   4.073  15.947  0.6184  0.6291 -1.6999
 5886SOL     OW29293   4.452   2.457   3.507 -0.2492  0.5311 -0.4205
 5886SOL    HW129294   4.487   2.517   3.440 -1.3294  0.5942 -0.9339
 5886SOL    HW229295   4.468   2.376   3.459 -1.9161  0.4590 -0.8691
 5887SOL     OW29296   2.177   3.946  16.094  0.5092 -0.7375  0.4373
 5887SOL    HW129297   2.226   4.027  16.108 -0.1319 -0.5359  1.4934
 5887SOL    HW229298   2.248   3.892  16.058 -0.6652 -1.0424 -1.4307
 5888SOL     OW29299   3.908   1.754   5.631 -0.0262  0.3363  0.3662
 5888SOL    HW129300   3.822   1.726   5.602 -0.3079  0.1817  1.3397
 5888SOL    HW229301   3.957   1.710   5.562 -0.4645 -0.3377  0.4850
 5889SOL     OW29302   2.869   2.809   2.279  0.4045 -0.4011  0.9600
 5889SOL    HW129303   2.862   2.874   2.209  0.6782 -0.6909  0.6632
 5889SOL    HW229304   2.896   2.862   2.354  0.3481  0.7826  0.1326
 5890SOL     OW29305   1.956   2.535   7.429  0.3661  0.3291 -0.5526
 5890SOL    HW129306   2.008   2.460   7.457 -0.8704 -0.6325 -0.8204
 5890SOL    HW229307   2.010   2.579   7.363 -0.6364  0.8606 -1.0244
 5891SOL     OW29308   4.488   3.498  12.844 -0.1776  0.1830 -0.2021
 5891SOL    HW129309   4.554   3.550  12.797  0.3597 -1.4413 -1.2270
 5891SOL    HW229310   4.431   3.569  12.873  0.1488  0.0657  0.7272
 5892SOL     OW29311   0.067   3.228  14.405  0.4432  0.1630 -0.2046
 5892SOL    HW129312   0.160   3.233  14.428  0.7306 -2.1688 -0.9613
 5892SOL    HW229313   0.057   3.142  14.366  0.4391 -0.8282  1.9833
 5893SOL     OW29314   0.927   0.691   7.756  0.3610  0.7019 -0.5624
 5893SOL    HW129315   0.851   0.732   7.715  1.9434  0.8276 -3.3305
 5893SOL    HW229316   0.950   0.625   7.691 -2.7808 -1.3386  0.4233
 5894SOL     OW29317   2.183   4.151  13.707  0.1420 -0.8595  0.0227
 5894SOL    HW129318   2.167   4.243  13.729  0.9489 -1.2822  2.3978
 5894SOL    HW229319   2.112   4.141  13.644 -0.0360 -1.1452  0.2682
 5895SOL     OW29320   0.562   2.335   6.702 -0.4370  0.4481  0.1037
 5895SOL    HW129321   0.514   2.370   6.626 -0.1117  1.1453  0.2196
 5895SOL    HW229322   0.501   2.265   6.725  1.4890 -0.8221  1.3505
 5896SOL     OW29323   0.998   2.469   7.683  0.0795  0.2446 -0.4089
 5896SOL    HW129324   0.979   2.376   7.665  0.3322  0.0858  0.1654
 5896SOL    HW229325   1.081   2.485   7.638 -0.6481 -0.0782 -1.8690
 5897SOL     OW29326   0.738   0.430   9.326 -0.3667 -0.1319  0.3680
 5897SOL    HW129327   0.774   0.375   9.395  0.8913  0.1386 -0.0833
 5897SOL    HW229328   0.687   0.493   9.378 -2.8462 -0.5213 -1.6063
 5898SOL     OW29329   2.836   3.013   2.117 -0.6597 -0.2474  0.0023
 5898SOL    HW129330   2.849   3.091   2.063  1.2336 -0.3488  0.3117
 5898SOL    HW229331   2.765   2.972   2.067 -1.2421 -0.4875  1.0127
 5899SOL     OW29332   3.667   2.243  14.114 -0.4170  0.0424  0.1034
 5899SOL    HW129333   3.706   2.178  14.056 -1.3425  0.0677 -0.5400
 5899SOL    HW229334   3.691   2.205  14.199 -0.8092  0.2502  0.3058
 5900SOL     OW29335   0.266   2.282   5.116  0.4522 -0.3154 -0.4702
 5900SOL    HW129336   0.185   2.274   5.167  0.5102  1.1547 -0.1530
 5900SOL    HW229337   0.250   2.221   5.044  0.6687 -3.0389  1.7968
 5901SOL     OW29338   0.742   2.255  14.604 -0.0494 -0.0999 -0.0938
 5901SOL    HW129339   0.654   2.218  14.603  0.2764 -0.9107  2.0631
 5901SOL    HW229340   0.710   2.329  14.552 -1.6456 -0.5728  0.2352
 5902SOL     OW29341   2.720   0.641   3.384 -0.3621  0.6587  0.4272
 5902SOL    HW129342   2.665   0.678   3.452 -0.0608  0.3766  0.8245
 5902SOL    HW229343   2.666   0.569   3.353 -0.1247  0.0382  1.4616
 5903SOL     OW29344   2.171   0.882   4.919  0.0900 -0.1547 -0.6535
 5903SOL    HW129345   2.086   0.875   4.961  1.0410  1.0759  1.4998
 5903SOL    HW229346   2.172   0.803   4.867  2.7669  0.6356 -1.8342
 5904SOL     OW29347   4.349   4.492   4.160 -0.1525 -0.3036  0.0392
 5904SOL    HW129348   4.289   4.472   4.087  1.4142 -0.6932 -1.1442
 5904SOL    HW229349   4.364   4.407   4.202  1.1494  0.6645  1.4969
 5905SOL     OW29350   4.614   0.041   5.538 -0.1264  0.2104  0.1147
 5905SOL    HW129351   4.594   0.083   5.622  2.5318  0.1885  0.7409
 5905SOL    HW229352   4.551   0.087   5.481 -1.3423 -0.1357  1.1776
 5906SOL     OW29353   0.103   2.280  16.878 -0.1020 -0.0686 -1.0057
 5906SOL    HW129354   0.123   2.263  16.970 -1.5134 -2.6059 -1.1790
 5906SOL    HW229355   0.027   2.223  16.868 -2.0839  2.1904  1.6382
 5907SOL     OW29356   2.918   3.203   5.453  0.6174 -0.2964  0.2295
 5907SOL    HW129357   2.936   3.185   5.546 -0.5573  1.2912  0.7583
 5907SOL    HW229358   2.829   3.239   5.447 -0.7898 -3.7929  0.4231
 5908SOL     OW29359   1.034   2.229   8.943 -0.7024 -0.2718 -0.1229
 5908SOL    HW129360   0.980   2.268   9.011 -0.3451  0.1098 -0.0601
 5908SOL    HW229361   1.035   2.300   8.878 -0.4602 -1.8205 -1.8307
 5909SOL     OW29362   1.045   3.375   0.300  0.1831 -0.0414  0.3349
 5909SOL    HW129363   0.973   3.328   0.258 -2.3782  3.4650  0.8280
 5909SOL    HW229364   1.112   3.364   0.232 -0.7104  2.2045 -0.9163
 5910SOL     OW29365   3.150   0.603  12.994  0.1743 -0.7762  0.3524
 5910SOL    HW129366   3.078   0.666  12.984  0.8949  0.6395  3.9278
 5910SOL    HW229367   3.125   0.563  13.077 -0.1133 -1.1501  0.0860
 5911SOL     OW29368   1.818   2.347   8.221  0.0840 -0.0539 -0.0450
 5911SOL    HW129369   1.876   2.324   8.149  3.8702  1.6395  2.4431
 5911SOL    HW229370   1.748   2.391   8.173 -0.2216  0.8386  1.2098
 5912SOL     OW29371   1.284   2.018   2.199  0.1148 -0.1235  0.0695
 5912SOL    HW129372   1.267   1.941   2.146 -2.1181 -0.9001  1.8854
 5912SOL    HW229373   1.379   2.007   2.207  0.3448  1.8803  0.1785
 5913SOL     OW29374   0.547   4.656   4.914 -0.3221 -0.0231 -0.6143
 5913SOL    HW129375   0.494   4.701   4.980  1.1372 -1.3000  1.4574
 5913SOL    HW229376   0.564   4.720   4.846 -0.3303  0.9778  0.3229
 5914SOL     OW29377   4.031   1.894   6.925 -0.7834 -0.4428  0.3392
 5914SOL    HW129378   4.071   1.926   7.006 -0.1457 -3.6411  1.3130
 5914SOL    HW229379   3.998   1.973   6.882 -0.4039  0.0194  0.9018
 5915SOL     OW29380   3.818   1.392   7.372  0.6895 -0.1400  0.4179
 5915SOL    HW129381   3.899   1.442   7.376 -0.4765  1.7265  0.4526
 5915SOL    HW229382   3.790   1.410   7.283  1.0627  0.3383  0.3969
 5916SOL     OW29383   3.572   0.824  16.206  0.5240  0.1105 -0.2535
 5916SOL    HW129384   3.481   0.853  16.204  0.0209 -1.5363 -0.6059
 5916SOL    HW229385   3.608   0.897  16.156 -1.8157 -0.0387 -2.1174
 5917SOL     OW29386   3.454   3.548  11.231  0.7090  0.1983 -0.4122
 5917SOL    HW129387   3.456   3.455  11.211 -0.1150  0.0160  0.3329
 5917SOL    HW229388   3.527   3.556  11.293  0.3016  0.0365  0.0859
 5918SOL     OW29389   0.892   2.918   4.405  0.2368  0.3557 -0.2178
 5918SOL    HW129390   0.945   2.872   4.469 -2.1654  0.4821  1.8813
 5918SOL    HW229391   0.941   2.911   4.323  0.1900  1.5550 -0.3546
 5919SOL     OW29392   2.062   2.780   3.575 -0.4937  0.6702 -0.9572
 5919SOL    HW129393   2.041   2.872   3.591 -1.5778  0.6585 -2.3047
 5919SOL    HW229394   2.088   2.760   3.665 -0.7673  2.1615 -0.5474
 5920SOL     OW29395   3.057   2.987   3.877 -0.2542 -0.5496 -0.3433
 5920SOL    HW129396   3.086   2.955   3.962  1.1986 -0.3425 -0.7602
 5920SOL    HW229397   3.061   2.907   3.824  1.3869 -0.4942 -0.2938
 5921SOL     OW29398   1.822   3.431   0.114  0.4726 -0.5943  0.3902
 5921SOL    HW129399   1.758   3.465   0.176  0.1163  2.6386 -1.7576
 5921SOL    HW229400   1.770   3.373   0.060 -2.7750  0.0762  2.7669
 5922SOL     OW29401   4.628   3.139   2.486  0.4052 -0.4897 -0.2941
 5922SOL    HW129402   4.705   3.132   2.543 -0.5090 -2.6858  0.6862
 5922SOL    HW229403   4.665   3.096   2.409 -1.3385 -0.2668 -1.2329
 5923SOL     OW29404   0.161   1.392  12.705  0.0901 -0.4187 -0.2894
 5923SOL    HW129405   0.191   1.420  12.619 -2.4006  3.1879 -0.0092
 5923SOL    HW229406   0.244   1.384  12.752  1.0953  1.4359 -1.7468
 5924SOL     OW29407   1.557   1.451   6.762  0.3796 -0.6476  0.1373
 5924SOL    HW129408   1.590   1.406   6.685 -1.8980  0.6651 -1.5900
 5924SOL    HW229409   1.617   1.525   6.754 -2.3222  1.4784 -0.8089
 5925SOL     OW29410   3.768   2.826  12.658  0.3218  0.1918  0.2301
 5925SOL    HW129411   3.690   2.868  12.621  0.6165 -0.5477 -1.2731
 5925SOL    HW229412   3.783   2.871  12.741  0.5801  0.8147 -0.1565
 5926SOL     OW29413   0.468   2.951   6.227  0.3753  0.3916 -0.5580
 5926SOL    HW129414   0.495   3.042   6.215  0.6097  0.2703 -0.9740
 5926SOL    HW229415   0.390   2.965   6.280  1.3547  0.7226  0.7939
 5927SOL     OW29416   4.699   1.925   2.207  0.4081  0.1094 -0.3455
 5927SOL    HW129417   0.026   2.000   2.202  1.3331 -0.6692 -1.0609
 5927SOL    HW229418   0.007   1.872   2.139  1.6194  1.9324 -1.0430
 5928SOL     OW29419   4.335   2.618   2.496  0.0577 -0.8936 -0.3826
 5928SOL    HW129420   4.343   2.528   2.464  0.6623 -0.6963 -0.7729
 5928SOL    HW229421   4.416   2.630   2.545 -1.0092 -1.6512  1.6004
 5929SOL     OW29422   4.424   0.807   7.497 -0.6956 -0.1229  0.7901
 5929SOL    HW129423   4.427   0.892   7.542 -0.3669 -0.4561  1.4053
 5929SOL    HW229424   4.334   0.806   7.465 -0.7215 -1.3567  0.9126
 5930SOL     OW29425   2.599   2.856   7.869 -0.1024 -0.0169  0.0459
 5930SOL    HW129426   2.660   2.844   7.941 -0.0089 -0.8879 -0.1676
 5930SOL    HW229427   2.656   2.874   7.795  1.8762  1.1819  1.8806
 5931SOL     OW29428   3.668   0.777   2.169 -0.4893 -0.0106  0.4991
 5931SOL    HW129429   3.626   0.851   2.125  0.2846 -0.9387 -1.8333
 5931SOL    HW229430   3.606   0.705   2.172 -1.5115  0.8856  0.6046
 5932SOL     OW29431   4.551   4.449  15.315 -0.2415  0.0320  0.0802
 5932SOL    HW129432   4.543   4.544  15.319 -0.3181  0.0131  0.3807
 5932SOL    HW229433   4.484   4.418  15.376 -0.3548  1.8282  0.8517
 5933SOL     OW29434   2.195   4.265  13.297 -0.2877  0.2373 -0.3821
 5933SOL    HW129435   2.285   4.292  13.316 -0.3596  0.8029 -0.8448
 5933SOL    HW229436   2.151   4.325  13.357 -0.8071 -0.0002 -0.5327
 5934SOL     OW29437   0.576   0.341   7.133 -0.3748  0.3307  0.1999
 5934SOL    HW129438   0.487   0.313   7.113 -0.0099 -1.9415  1.8027
 5934SOL    HW229439   0.613   0.257   7.161  0.4009  1.7384  3.3916
 5935SOL     OW29440   0.672   2.552   4.289 -0.3456 -0.2314 -0.4083
 5935SOL    HW129441   0.748   2.506   4.255  0.1785  0.0575  0.3745
 5935SOL    HW229442   0.706   2.603   4.362  2.2288  0.5110 -2.1245
 5936SOL     OW29443   3.104   4.495   2.614 -0.5310  0.1992 -0.4750
 5936SOL    HW129444   3.150   4.417   2.584 -0.0922  1.1023 -2.1671
 5936SOL    HW229445   3.056   4.453   2.685 -1.0919  0.7163 -0.5423
 5937SOL     OW29446   1.610   1.406   7.656  0.3313 -0.0677  0.3625
 5937SOL    HW129447   1.699   1.440   7.658  0.9364 -1.5718 -1.3587
 5937SOL    HW229448   1.580   1.472   7.718 -0.0288 -1.6637  1.9156
 5938SOL     OW29449   1.366   0.117   5.042  0.5803  0.5973 -0.5298
 5938SOL    HW129450   1.460   0.137   5.036  1.0553 -1.7075 -0.7264
 5938SOL    HW229451   1.331   0.181   4.980 -0.3796  0.1601 -0.4406
 5939SOL     OW29452   1.213   1.306   7.708 -0.4546  0.5837  0.4773
 5939SOL    HW129453   1.210   1.229   7.651  3.1052  1.8247 -1.4019
 5939SOL    HW229454   1.241   1.375   7.648 -0.3735  0.5005  0.4197
 5940SOL     OW29455   1.554   0.785   3.479 -0.5085 -0.1859 -0.1821
 5940SOL    HW129456   1.475   0.738   3.504  0.3322 -0.1174  2.6001
 5940SOL    HW229457   1.616   0.741   3.537 -0.2120 -0.8037 -0.9638
 5941SOL     OW29458   0.519   0.322   4.129 -0.7142 -0.0691 -0.5816
 5941SOL    HW129459   0.513   0.385   4.058  2.4538 -1.0337 -1.6983
 5941SOL    HW229460   0.483   0.373   4.202 -1.0505 -1.2314  0.0530
 5942SOL     OW29461   2.070   4.463   7.915  0.0682  0.3508  0.0594
 5942SOL    HW129462   2.092   4.555   7.901  1.8955  0.1904  1.9594
 5942SOL    HW229463   2.014   4.484   7.990 -0.1731  0.3975 -0.1339
 5943SOL     OW29464   3.681   2.525  14.081  0.8155  0.5488  0.4320
 5943SOL    HW129465   3.767   2.533  14.039  0.3893  3.5985  0.1619
 5943SOL    HW229466   3.669   2.430  14.086 -0.4521  0.7736  1.7287
 5944SOL     OW29467   2.691   2.563   7.267 -0.1327 -0.5288  0.3820
 5944SOL    HW129468   2.766   2.612   7.301 -1.8848  1.8861  0.7617
 5944SOL    HW229469   2.731   2.477   7.252  0.8025  0.0419 -0.4078
 5945SOL     OW29470   1.855   1.427   8.748  0.2803 -0.6619  0.3627
 5945SOL    HW129471   1.948   1.423   8.769  1.1240  1.0738 -3.1882
 5945SOL    HW229472   1.866   1.409   8.655 -1.7191  0.6303 -0.1241
 5946SOL     OW29473   0.324   1.474   5.962 -0.0447  0.1224  0.3192
 5946SOL    HW129474   0.231   1.457   5.948 -0.5646  2.8090  0.5582
 5946SOL    HW229475   0.345   1.545   5.902 -1.0313 -0.1981 -0.4072
 5947SOL     OW29476   3.030   2.673   6.808  0.3315 -0.0649  0.3238
 5947SOL    HW129477   3.082   2.724   6.746 -1.5583  0.8174 -0.5391
 5947SOL    HW229478   2.938   2.693   6.792  0.3661  0.0075  0.2099
 5948SOL     OW29479   3.807   0.517  13.047 -0.4117  0.3211 -0.4965
 5948SOL    HW129480   3.885   0.573  13.049 -0.8033  0.9349 -3.4351
 5948SOL    HW229481   3.756   0.577  12.993  0.7712  3.9049  2.3330
 5949SOL     OW29482   2.414   3.884   6.817  0.2661 -0.1061  1.1148
 5949SOL    HW129483   2.379   3.870   6.904  0.9111  1.1793  1.5858
 5949SOL    HW229484   2.388   3.975   6.800 -1.3967 -0.3040  2.6460
 5950SOL     OW29485   4.071   1.772  12.417  0.5585  0.4643  0.9269
 5950SOL    HW129486   4.102   1.776  12.508 -0.2655 -0.7062  1.2527
 5950SOL    HW229487   4.011   1.698  12.420 -3.6260  3.8276  0.7061
 5951SOL     OW29488   2.112   4.176   1.484 -0.1595  0.1343  0.2432
 5951SOL    HW129489   2.153   4.244   1.431  2.9143 -0.9160  1.2321
 5951SOL    HW229490   2.039   4.146   1.431 -0.5354  0.8630  0.3617
 5952SOL     OW29491   1.381   1.987  11.631  1.0437  0.1292 -0.3136
 5952SOL    HW129492   1.449   2.030  11.579 -0.0895  0.9730 -1.1002
 5952SOL    HW229493   1.305   2.035  11.599  1.5025  0.0746 -1.5091
 5953SOL     OW29494   0.734   2.893   3.862 -0.2324  0.2043 -0.0978
 5953SOL    HW129495   0.767   2.983   3.853 -1.6889  0.7098 -0.3167
 5953SOL    HW229496   0.643   2.905   3.888 -0.3719 -2.0437  0.3982
 5954SOL     OW29497   0.142   3.499   4.370 -0.1079 -0.3071  1.2529
 5954SOL    HW129498   0.123   3.566   4.304 -1.1456  0.1024  1.9562
 5954SOL    HW229499   0.063   3.514   4.422  1.0599  1.1600  2.6471
 5955SOL     OW29500   1.828   4.731   3.000 -0.2416  0.4689  0.2855
 5955SOL    HW129501   1.873   4.649   3.021  1.0713  1.0518 -0.2641
 5955SOL    HW229502   1.823   0.049   3.081 -0.1694  1.6683 -0.4677
 5956SOL     OW29503   2.776   2.839  12.860 -0.3311  0.2239  0.1922
 5956SOL    HW129504   2.738   2.782  12.793  2.1110 -1.0385 -0.1356
 5956SOL    HW229505   2.744   2.922  12.826 -0.2294 -0.1374 -0.8018
 5957SOL     OW29506   3.445   2.675   0.147  0.8204  0.7753 -0.3099
 5957SOL    HW129507   3.509   2.660   0.216  1.5780  0.0319 -1.1662
 5957SOL    HW229508   3.483   2.741   0.090  3.2163 -2.1251 -2.0815
 5958SOL     OW29509   3.956   2.322  17.507  0.1334  0.0690 -0.1688
 5958SOL    HW129510   3.958   2.374  17.588  3.5783 -1.1730  0.5324
 5958SOL    HW229511   3.959   2.234  17.544  0.3231  0.3809  0.5672
 5959SOL     OW29512   1.645   3.240   6.590 -0.2264  0.1336 -0.3855
 5959SOL    HW129513   1.555   3.252   6.561 -0.8657 -0.9438  1.1665
 5959SOL    HW229514   1.679   3.326   6.565 -0.7724  0.4595 -0.0099
 5960SOL     OW29515   2.239   0.297   3.406 -0.1808 -0.2588  0.3329
 5960SOL    HW129516   2.327   0.315   3.438 -0.6638 -0.1787  1.6048
 5960SOL    HW229517   2.244   0.204   3.385 -0.3929 -0.1230 -0.3346
 5961SOL     OW29518   4.163   4.346   7.812  0.3849 -0.1143  0.3506
 5961SOL    HW129519   4.138   4.274   7.754 -1.2491  1.0740 -0.4134
 5961SOL    HW229520   4.255   4.329   7.831  0.9224  1.9308 -0.4005
 5962SOL     OW29521   1.677   0.509   3.801  0.2933 -0.4486  0.3672
 5962SOL    HW129522   1.631   0.448   3.742 -0.9428 -0.8048  1.7010
 5962SOL    HW229523   1.616   0.510   3.875  1.0698  2.3037  0.9461
 5963SOL     OW29524   4.456   2.784   9.354 -0.1982 -0.3527  0.4574
 5963SOL    HW129525   4.387   2.718   9.355  1.5769 -2.1926  0.8140
 5963SOL    HW229526   4.483   2.794   9.446 -2.4621  0.2328  1.0407
 5964SOL     OW29527   1.275   2.546   4.111 -0.4065  0.6600 -0.2169
 5964SOL    HW129528   1.363   2.578   4.092 -0.4472  1.0024  0.1962
 5964SOL    HW229529   1.264   2.587   4.196  1.3342  0.6537  0.0147
 5965SOL     OW29530   2.456   3.481   3.348  0.2787  0.2626 -0.0742
 5965SOL    HW129531   2.484   3.476   3.257  1.1491 -1.0868  0.2687
 5965SOL    HW229532   2.373   3.525   3.331  0.7420  1.5435  0.9572
 5966SOL     OW29533   3.048   4.442   3.198 -0.4572  0.4059  0.1238
 5966SOL    HW129534   2.967   4.448   3.146 -0.6332  2.3789  0.6074
 5966SOL    HW229535   3.054   4.347   3.206 -2.0760  0.3246  0.4973
 5967SOL     OW29536   1.333   0.967   7.786 -0.6279  0.8435 -0.1582
 5967SOL    HW129537   1.265   0.993   7.848 -0.0908 -1.8962  1.5853
 5967SOL    HW229538   1.411   0.997   7.834 -2.2763  1.4757  2.1180
 5968SOL     OW29539   0.662   1.393   9.358  0.2132  0.8349 -0.3228
 5968SOL    HW129540   0.751   1.403   9.324  0.4669 -1.2919 -0.2415
 5968SOL    HW229541   0.611   1.457   9.309 -0.3647  0.0887 -0.6876
 5969SOL     OW29542   2.831   0.660   2.921  0.1250  0.4774  0.3043
 5969SOL    HW129543   2.896   0.688   2.856 -1.9397 -0.9754 -2.4014
 5969SOL    HW229544   2.885   0.670   2.999 -1.7755 -0.3286  1.7021
 5970SOL     OW29545   4.682   3.477   8.228 -0.0173  0.1854  0.4394
 5970SOL    HW129546   4.659   3.522   8.309  2.6360  1.9598  0.2035
 5970SOL    HW229547   0.039   3.506   8.213 -0.7958  0.8890 -2.9073
 5971SOL     OW29548   3.765   4.458   2.250 -0.4536  0.1479  0.5970
 5971SOL    HW129549   3.856   4.483   2.265 -0.1063  0.0460 -1.2732
 5971SOL    HW229550   3.770   4.424   2.160 -1.1053  1.4365  0.0693
 5972SOL     OW29551   3.071   3.137   8.051 -0.0882  0.5390 -0.2657
 5972SOL    HW129552   3.107   3.110   8.136  0.2253 -0.4222 -0.6979
 5972SOL    HW229553   3.144   3.135   7.988 -0.3522  2.9925 -0.6379
 5973SOL     OW29554   2.028   0.595   3.582 -0.0161  0.3956 -0.1459
 5973SOL    HW129555   1.933   0.602   3.597 -0.2232 -1.9257 -0.3257
 5973SOL    HW229556   2.042   0.500   3.580 -2.8832 -0.0595  0.8270
 5974SOL     OW29557   2.981   0.349  10.074 -0.3070 -0.8605  0.4601
 5974SOL    HW129558   2.962   0.256  10.061 -0.8176 -0.9322  1.7076
 5974SOL    HW229559   3.035   0.364   9.997 -1.6139  0.0365 -0.2781
 5975SOL     OW29560   0.121   3.626  14.680 -0.5314  0.3595  0.1062
 5975SOL    HW129561   0.153   3.581  14.602  1.2642  0.8326  0.5656
 5975SOL    HW229562   0.143   3.712  14.645 -0.5265 -0.9360 -3.0349
 5976SOL     OW29563   1.662   4.548   4.259  0.0250  0.4112 -0.5671
 5976SOL    HW129564   1.699   4.595   4.334  1.0936 -1.7033  0.2329
 5976SOL    HW229565   1.598   4.615   4.238 -0.2206  0.9709  2.0009
 5977SOL     OW29566   1.937   0.230  17.621  0.5637  0.3215 -0.2351
 5977SOL    HW129567   1.899   0.160  17.674 -0.0610  0.2890 -0.7195
 5977SOL    HW229568   1.899   0.305  17.667  1.9725 -0.3017  1.9268
 5978SOL     OW29569   0.641   2.180   2.053  1.3181 -0.6438  0.4444
 5978SOL    HW129570   0.701   2.250   2.080 -0.8667  0.5038  2.3063
 5978SOL    HW229571   0.583   2.225   1.991  0.8309 -1.9174 -0.0217
 5979SOL     OW29572   1.111   4.323   9.298 -0.1119  0.4236  0.2858
 5979SOL    HW129573   1.067   4.407   9.287 -1.1827 -0.5401 -2.6532
 5979SOL    HW229574   1.124   4.322   9.393 -1.8887 -0.7428  0.5093
 5980SOL     OW29575   3.918   0.413  17.590 -0.6770  0.6669 -0.1756
 5980SOL    HW129576   3.921   0.322  17.620  2.9424  0.2034 -2.0420
 5980SOL    HW229577   3.994   0.417  17.532  0.3025  0.7595  1.1131
 5981SOL     OW29578   3.906   1.974   3.438 -0.3186  0.3784  0.2545
 5981SOL    HW129579   3.849   1.899   3.418 -1.1184  0.7962  0.9735
 5981SOL    HW229580   3.969   1.962   3.366 -2.3473 -2.5092 -1.0583
 5982SOL     OW29581   2.296   2.615   9.427  0.3498  0.3080  0.0432
 5982SOL    HW129582   2.360   2.625   9.356  2.2562  0.1294  1.7136
 5982SOL    HW229583   2.255   2.701   9.430  0.3187  0.3799 -2.0810
 5983SOL     OW29584   2.195   3.086   4.696  0.4618 -0.2868  0.1628
 5983SOL    HW129585   2.263   3.150   4.676  1.6099 -1.4445  0.3756
 5983SOL    HW229586   2.212   3.063   4.788  1.1327 -0.0564  0.0999
 5984SOL     OW29587   0.378   1.474  12.544  0.0617  0.7367 -0.8971
 5984SOL    HW129588   0.469   1.456  12.567 -0.1985  1.3410  0.5933
 5984SOL    HW229589   0.366   1.569  12.542 -0.2298  0.7445  0.9237
 5985SOL     OW29590   0.214   4.139  14.519  0.3372  0.0555 -0.0596
 5985SOL    HW129591   0.124   4.113  14.539  1.0550 -1.3980  1.3460
 5985SOL    HW229592   0.211   4.232  14.538  0.8400  0.0450  0.0660
 5986SOL     OW29593   3.114   1.762  13.820  0.8635  0.0734 -0.2399
 5986SOL    HW129594   3.056   1.789  13.891  0.7880 -2.1140  0.5308
 5986SOL    HW229595   3.202   1.745  13.853  0.3099 -2.1465  0.0901
 5987SOL     OW29596   3.951   3.779   5.117  0.0033  0.2382  0.1502
 5987SOL    HW129597   3.938   3.872   5.133 -1.3173  0.2857 -1.2099
 5987SOL    HW229598   3.979   3.752   5.204  3.3424  2.5029 -0.2269
 5988SOL     OW29599   2.795   2.299   7.271  0.0547 -0.3173 -0.4350
 5988SOL    HW129600   2.759   2.212   7.252 -1.1381 -0.4133  2.4256
 5988SOL    HW229601   2.874   2.269   7.316  0.5863 -1.0363 -1.8240
 5989SOL     OW29602   1.617   3.994  14.393 -0.1407  0.6649 -0.3195
 5989SOL    HW129603   1.589   4.064  14.335 -1.0786  0.9732  0.5196
 5989SOL    HW229604   1.599   3.907  14.356 -0.2107  2.0326 -3.4936
 5990SOL     OW29605   4.010   3.485   3.102 -0.0572 -0.5189  0.3003
 5990SOL    HW129606   3.944   3.543   3.139  0.9767  1.1305 -0.4183
 5990SOL    HW229607   4.093   3.521   3.134  0.0835  0.2298 -0.9078
 5991SOL     OW29608   2.053   4.213   3.507  0.0181 -0.5088 -0.2130
 5991SOL    HW129609   2.147   4.218   3.525 -0.0804  2.4566 -0.4085
 5991SOL    HW229610   2.029   4.121   3.502  3.8327 -1.5551  0.4947
 5992SOL     OW29611   3.497   4.721   4.402 -0.8636  0.6505  0.0685
 5992SOL    HW129612   3.412   4.716   4.358 -0.2166 -1.6231 -0.9121
 5992SOL    HW229613   3.481   0.071   4.447  1.1098  0.6454  0.7796
 5993SOL     OW29614   4.330   3.300  12.745 -0.9301 -0.5412  0.6132
 5993SOL    HW129615   4.315   3.257  12.829 -1.4356  0.4310  1.0140
 5993SOL    HW229616   4.395   3.363  12.777 -1.8094  0.3914  0.5522
 5994SOL     OW29617   3.470   1.335   0.528  0.1276 -0.0518 -0.4408
 5994SOL    HW129618   3.556   1.297   0.507 -0.3694 -0.0950 -2.4085
 5994SOL    HW229619   3.435   1.330   0.439 -0.8339 -0.6661 -0.0313
 5995SOL     OW29620   2.440   1.271   5.412  0.1569 -0.0426 -0.0437
 5995SOL    HW129621   2.457   1.275   5.318 -0.4471 -0.5807 -0.1769
 5995SOL    HW229622   2.514   1.318   5.450 -1.5871  1.9576  0.8960
 5996SOL     OW29623   0.796   0.701  16.579  0.9796 -0.3607 -0.5831
 5996SOL    HW129624   0.852   0.668  16.649  0.9881 -0.9579 -0.8721
 5996SOL    HW229625   0.709   0.690  16.617  0.7216  0.8378 -0.8093
 5997SOL     OW29626   3.479   3.555   9.572  0.5410 -0.4913 -0.3648
 5997SOL    HW129627   3.441   3.467   9.580 -2.8342  0.6977 -3.1311
 5997SOL    HW229628   3.570   3.537   9.552  0.3014 -1.6623 -0.4042
 5998SOL     OW29629   2.324   0.584   2.196 -0.1358  0.7758 -0.5009
 5998SOL    HW129630   2.377   0.559   2.272 -1.7391  0.6086  0.5708
 5998SOL    HW229631   2.242   0.541   2.219  0.8129  0.4209  2.3027
 5999SOL     OW29632   3.855   2.751   7.859  0.2718  0.7257 -0.2483
 5999SOL    HW129633   3.925   2.708   7.810 -1.3318 -1.2215 -0.7992
 5999SOL    HW229634   3.777   2.703   7.833 -0.5821  2.0821 -0.2211
 6000SOL     OW29635   0.692   2.759   3.416 -0.9431  0.2661  0.1263
 6000SOL    HW129636   0.725   2.848   3.408 -0.4024  0.1304  0.8459
 6000SOL    HW229637   0.689   2.749   3.511  0.9712 -1.1942  0.0448
 6001SOL     OW29638   0.147   3.653   4.151 -0.3203 -0.0608  0.0214
 6001SOL    HW129639   0.239   3.681   4.146 -0.1547 -0.5945  0.1342
 6001SOL    HW229640   0.103   3.736   4.130 -0.1234 -0.1079 -0.5936
 6002SOL     OW29641   1.860   1.383   0.171 -0.4443  0.3485  0.4535
 6002SOL    HW129642   1.789   1.446   0.183 -1.3449 -0.7386  0.8664
 6002SOL    HW229643   1.807   1.304   0.183 -1.4869  1.0135  0.1838
 6003SOL     OW29644   2.186   1.091   4.658  0.4155  0.6146 -0.3088
 6003SOL    HW129645   2.179   1.005   4.699 -0.7946  0.9124  0.1007
 6003SOL    HW229646   2.195   1.063   4.567  1.5694  0.1569 -0.0434
 6004SOL     OW29647   1.243   0.649  11.382  0.0188  0.4378 -1.1336
 6004SOL    HW129648   1.174   0.596  11.422  0.6460  1.4015  1.2644
 6004SOL    HW229649   1.316   0.606  11.428 -1.2337  0.5033  0.9453
 6005SOL     OW29650   2.065   2.653  14.640 -0.3127 -0.0275  0.3567
 6005SOL    HW129651   2.093   2.725  14.583 -0.6192 -0.2667 -0.1005
 6005SOL    HW229652   1.995   2.696  14.688  2.1152  2.3984  1.7283
 6006SOL     OW29653   0.474   1.266   5.711 -0.3546  0.4484  0.0699
 6006SOL    HW129654   0.424   1.187   5.691  0.6951 -0.3224  0.4144
 6006SOL    HW229655   0.414   1.322   5.759 -1.0603 -0.8727  0.7513
 6007SOL     OW29656   4.410   0.561  11.252  0.1498  0.5764 -0.0413
 6007SOL    HW129657   4.351   0.635  11.237  2.2277  2.2310  0.1112
 6007SOL    HW229658   4.348   0.488  11.263  0.4877  0.4343  0.8942
 6008SOL     OW29659   2.097   2.253   2.246 -0.0201 -0.8057 -0.5514
 6008SOL    HW129660   2.167   2.282   2.188  1.6806 -0.1777  1.7813
 6008SOL    HW229661   2.149   2.209   2.314 -1.5678  0.0592  1.2073
 6009SOL     OW29662   0.860   1.655   6.906 -0.4519 -0.4799  1.3659
 6009SOL    HW129663   0.893   1.676   6.994 -1.7967  1.2017  1.4683
 6009SOL    HW229664   0.942   1.677   6.861  0.8474  0.3217  4.0847
 6010SOL     OW29665   2.200   3.084   9.500  0.0970 -0.2229  0.1502
 6010SOL    HW129666   2.240   3.142   9.565  0.0354  0.3524 -0.3283
 6010SOL    HW229667   2.107   3.097   9.522 -0.1172  2.7094 -2.4218
 6011SOL     OW29668   1.677   4.254  15.932 -0.4452  0.2617 -0.2621
 6011SOL    HW129669   1.767   4.231  15.910 -0.6101  0.0705 -0.7570
 6011SOL    HW229670   1.659   4.203  16.010 -3.1271  0.7745 -0.5364
 6012SOL     OW29671   3.172   4.634   9.685 -0.3524 -0.0346  0.5614
 6012SOL    HW129672   3.127   4.718   9.682  0.6363  0.5156  1.1456
 6012SOL    HW229673   3.126   4.587   9.754  1.6186 -1.5963  0.8374
 6013SOL     OW29674   3.731   1.983   6.654 -0.5462  0.6005 -0.0144
 6013SOL    HW129675   3.775   1.903   6.683 -0.2459  0.9786  0.5716
 6013SOL    HW229676   3.649   1.941   6.629 -0.3067  0.4163 -0.5049
 6014SOL     OW29677   0.811   2.024  12.921 -0.2484  0.6246 -0.2868
 6014SOL    HW129678   0.888   2.078  12.938 -0.2408  0.4612  0.1805
 6014SOL    HW229679   0.835   1.932  12.911 -2.3387  0.1063 -0.5557
 6015SOL     OW29680   4.606   2.170   4.963 -0.3221  0.2638  0.3317
 6015SOL    HW129681   4.650   2.090   4.935  0.2665 -0.1203  2.3721
 6015SOL    HW229682   4.675   2.233   4.941  0.7546 -1.4879 -1.2702
 6016SOL     OW29683   2.407   1.821   6.733  0.2806 -0.7809 -0.4654
 6016SOL    HW129684   2.389   1.804   6.826 -0.6630 -0.0890 -0.5184
 6016SOL    HW229685   2.366   1.744   6.693 -2.5386 -0.2825  1.4241
 6017SOL     OW29686   1.240   0.408   5.209  0.5004  0.1208  0.4418
 6017SOL    HW129687   1.223   0.368   5.123 -0.4612  0.1771  0.6097
 6017SOL    HW229688   1.335   0.419   5.210  0.6295 -0.7565 -1.2601
 6018SOL     OW29689   3.315   4.600   8.835  0.1321 -0.4854 -0.7213
 6018SOL    HW129690   3.289   4.553   8.756  1.4768 -1.1670 -0.7520
 6018SOL    HW229691   3.316   4.536   8.907  0.9445  2.4497  1.8561
 6019SOL     OW29692   1.947   4.348   8.824 -0.2104  0.3247 -0.1641
 6019SOL    HW129693   1.999   4.376   8.749  0.1011 -0.6679 -0.3198
 6019SOL    HW229694   1.882   4.284   8.798 -1.9598  0.7381  3.1273
 6020SOL     OW29695   3.311   0.683  17.369  0.8914  0.5772 -0.0740
 6020SOL    HW129696   3.343   0.723  17.450 -0.4802  2.2757 -0.3815
 6020SOL    HW229697   3.344   0.747  17.307 -1.0427  0.7248 -0.9456
 6021SOL     OW29698   0.302   0.706  12.434  0.2396  0.1868 -0.9749
 6021SOL    HW129699   0.209   0.721  12.449  0.1729  0.2786 -1.4587
 6021SOL    HW229700   0.286   0.612  12.431 -2.3158  0.5683  1.1578
 6022SOL     OW29701   1.537   1.543   7.881 -0.7804 -0.2669 -0.2408
 6022SOL    HW129702   1.569   1.572   7.966  0.4072  0.4174 -0.9216
 6022SOL    HW229703   1.456   1.593   7.872 -0.3998  0.5797  1.1370
 6023SOL     OW29704   2.156   2.043  16.459  0.6627 -0.3438  0.5301
 6023SOL    HW129705   2.195   2.120  16.502 -0.7523  0.4394  0.4031
 6023SOL    HW229706   2.122   1.998  16.537 -0.1659 -0.0717  0.3255
 6024SOL     OW29707   2.202   4.009   1.683 -0.2110 -0.3050 -0.0634
 6024SOL    HW129708   2.161   4.061   1.614 -0.2370 -0.7553 -0.3870
 6024SOL    HW229709   2.283   4.057   1.696  1.0524 -2.4435  0.0243
 6025SOL     OW29710   2.504   4.252  16.253 -0.5390  0.4415 -0.3461
 6025SOL    HW129711   2.597   4.260  16.231 -0.8040  2.7309 -0.6993
 6025SOL    HW229712   2.515   4.192  16.326 -2.3377  1.8375  1.0781
 6026SOL     OW29713   2.574   2.139  10.205  0.1766 -0.1254 -0.1704
 6026SOL    HW129714   2.622   2.082  10.144  0.0267 -0.6064  0.1613
 6026SOL    HW229715   2.484   2.123  10.177  0.5684  0.8225 -1.9596
 6027SOL     OW29716   0.239   0.779   4.674  0.3921 -0.4284 -0.1371
 6027SOL    HW129717   0.284   0.838   4.734  1.1232 -1.2711  0.1435
 6027SOL    HW229718   0.313   0.732   4.636  1.9629 -0.5892  3.1521
 6028SOL     OW29719   0.637   4.128  15.121  0.0765  0.4900  0.6090
 6028SOL    HW129720   0.548   4.103  15.096  0.3364 -0.8710  1.0661
 6028SOL    HW229721   0.626   4.223  15.129  0.9395  0.6090  0.4095
 6029SOL     OW29722   0.365   0.296   3.557  0.1407 -0.6280  0.4378
 6029SOL    HW129723   0.402   0.217   3.597  0.4825 -0.6472  0.0802
 6029SOL    HW229724   0.291   0.314   3.615  0.6882 -1.0036  1.2706
 6030SOL     OW29725   4.585   4.554   4.064 -0.0417 -0.3986  0.3201
 6030SOL    HW129726   4.600   4.461   4.044 -2.0100 -0.6441  0.0580
 6030SOL    HW229727   4.493   4.555   4.088  0.5360  0.8126  2.4981
 6031SOL     OW29728   3.998   0.995   9.669  0.0534 -0.0455 -0.1075
 6031SOL    HW129729   4.018   1.073   9.617  0.6702 -0.6650 -0.8047
 6031SOL    HW229730   3.905   0.979   9.658  0.0559 -1.1071  1.3072
 6032SOL     OW29731   1.600   4.064   6.991 -0.5780  0.4430 -0.2304
 6032SOL    HW129732   1.637   4.015   6.917  1.9855  1.5632  0.2967
 6032SOL    HW229733   1.619   4.003   7.063  1.0800 -1.5072 -2.3054
 6033SOL     OW29734   2.247   2.214   3.471  0.2679 -0.1783 -0.5248
 6033SOL    HW129735   2.209   2.128   3.450  0.9434 -0.7534  0.5996
 6033SOL    HW229736   2.248   2.265   3.391  0.7325 -1.8560 -1.5918
 6034SOL     OW29737   0.894   2.737   2.793  0.0617 -0.2942 -0.3691
 6034SOL    HW129738   0.893   2.828   2.764 -1.3516  0.2530  1.3938
 6034SOL    HW229739   0.968   2.737   2.855  0.2534 -1.6365 -0.5972
 6035SOL     OW29740   0.900   4.297   2.193  0.1022 -0.3098 -0.2321
 6035SOL    HW129741   0.994   4.299   2.209  0.0874  1.6208 -0.4071
 6035SOL    HW229742   0.879   4.379   2.237 -0.5311 -1.0829  0.9171
 6036SOL     OW29743   3.557   2.179   4.337  0.1514  0.4484 -0.7954
 6036SOL    HW129744   3.484   2.125   4.305  1.6037 -1.8176 -0.2562
 6036SOL    HW229745   3.587   2.130   4.414 -0.1790 -0.8567 -1.5002
 6037SOL     OW29746   0.603   0.792   2.025  0.5144  0.2189  0.2887
 6037SOL    HW129747   0.630   0.745   1.945 -1.2081  0.6988 -0.5882
 6037SOL    HW229748   0.690   0.803   2.062 -0.0263  1.1756  1.2490
 6038SOL     OW29749   4.448   1.116   4.419  0.3194  0.6502 -0.2027
 6038SOL    HW129750   4.383   1.063   4.373  1.9560 -3.1673  1.8490
 6038SOL    HW229751   4.407   1.121   4.505  1.7746  1.1456  0.4694
 6039SOL     OW29752   2.497   4.528  16.261  0.0907 -0.1816 -0.1573
 6039SOL    HW129753   2.547   4.512  16.181  0.2382 -1.6804  0.2369
 6039SOL    HW229754   2.478   4.435  16.275  1.0369 -0.2760  0.4931
 6040SOL     OW29755   2.115   1.519   0.107  0.0737  0.2515  0.0950
 6040SOL    HW129756   2.117   1.518   0.011 -0.3668 -0.4143  0.0937
 6040SOL    HW229757   2.019   1.519   0.112  0.1094  3.2939  0.6553
 6041SOL     OW29758   1.141   1.878   8.069 -0.2250 -0.0409  0.3776
 6041SOL    HW129759   1.185   1.932   8.134  2.4852 -0.6203 -0.9577
 6041SOL    HW229760   1.060   1.928   8.073  0.2522  0.7818 -0.1863
 6042SOL     OW29761   1.850   0.857   3.833 -0.8013  0.1852 -0.4749
 6042SOL    HW129762   1.925   0.914   3.848  0.8230 -1.8892 -0.7364
 6042SOL    HW229763   1.840   0.828   3.924  2.4320 -0.7649 -0.4283
 6043SOL     OW29764   0.559   2.602  14.313  0.3248  0.0677  0.3530
 6043SOL    HW129765   0.567   2.591  14.219 -0.0090 -1.0180  0.4422
 6043SOL    HW229766   0.488   2.542  14.336  0.2189  0.6125  1.4495
 6044SOL     OW29767   4.053   2.034   4.470 -0.2072  0.1667 -0.1968
 6044SOL    HW129768   3.980   1.994   4.423 -1.0953  0.3666  1.0011
 6044SOL    HW229769   4.112   2.055   4.398 -0.2170  0.8696 -0.0030
 6045SOL     OW29770   0.926   1.719   6.342 -0.2333 -0.3258 -0.1834
 6045SOL    HW129771   0.919   1.627   6.315  0.2295 -0.0143 -1.3941
 6045SOL    HW229772   0.930   1.757   6.254  1.9749 -2.7509 -1.1375
 6046SOL     OW29773   4.110   0.494   5.700 -0.4633  0.1783  0.6447
 6046SOL    HW129774   4.135   0.501   5.793 -2.2835 -1.7238  1.2663
 6046SOL    HW229775   4.187   0.531   5.656  0.3375 -1.3681  0.7658
 6047SOL     OW29776   3.687   2.811   2.371  0.1183 -0.4093  0.0200
 6047SOL    HW129777   3.721   2.889   2.415 -0.1254 -0.1639 -0.2257
 6047SOL    HW229778   3.749   2.791   2.301 -0.0841  0.7164 -0.4821
 6048SOL     OW29779   2.207   0.149  11.153  0.2567  0.1596  0.3603
 6048SOL    HW129780   2.190   0.121  11.243  0.6185  2.6882  1.2219
 6048SOL    HW229781   2.223   0.243  11.159  2.3245 -0.0208 -2.2930
 6049SOL     OW29782   0.283   2.010   7.562 -0.1495 -0.4634  0.1565
 6049SOL    HW129783   0.329   2.001   7.645  2.2351  0.0845 -1.1215
 6049SOL    HW229784   0.224   2.085   7.574 -0.9384 -0.9588 -0.6316
 6050SOL     OW29785   1.029   0.803   1.636  0.4182  0.1780  0.1966
 6050SOL    HW129786   1.005   0.711   1.628  1.5625 -0.0478 -0.5729
 6050SOL    HW229787   0.947   0.845   1.609  1.4974  2.0358 -0.1852
 6051SOL     OW29788   2.728   4.250   6.528  0.1540 -0.4021  0.3535
 6051SOL    HW129789   2.765   4.327   6.486  0.7168 -0.8694 -0.0088
 6051SOL    HW229790   2.786   4.227   6.600  0.7918 -1.5301 -0.5198
 6052SOL     OW29791   0.351   3.170  12.158  0.1407 -0.0432 -0.1280
 6052SOL    HW129792   0.346   3.146  12.251 -0.6829 -0.8071 -0.3654
 6052SOL    HW229793   0.319   3.092  12.113 -0.1709  0.7598 -1.2969
 6053SOL     OW29794   1.392   3.575   2.618 -0.0987 -0.4171 -0.0027
 6053SOL    HW129795   1.307   3.618   2.612 -0.0631 -0.2661  0.4890
 6053SOL    HW229796   1.407   3.598   2.710  0.1546  2.1145 -0.6597
 6054SOL     OW29797   4.487   0.459   6.979 -0.2251  0.2002 -0.0119
 6054SOL    HW129798   4.401   0.421   6.995 -0.3607 -0.2898 -1.8402
 6054SOL    HW229799   4.457   0.549   6.994 -0.3044  0.3714 -1.1757
 6055SOL     OW29800   0.799   4.584   3.998 -0.8383 -0.1269  0.4719
 6055SOL    HW129801   0.721   4.554   3.952  1.1310 -1.8686 -1.6808
 6055SOL    HW229802   0.784   4.679   3.994  0.0193 -0.0734 -1.5632
 6056SOL     OW29803   0.386   1.993   0.300 -0.2234  0.3818 -0.5842
 6056SOL    HW129804   0.412   2.024   0.387  0.6760 -0.1962 -0.6453
 6056SOL    HW229805   0.350   1.909   0.326  1.0545  0.1178  0.3347
 6057SOL     OW29806   1.777   4.611   4.883  0.6270  0.1341 -0.3022
 6057SOL    HW129807   1.850   4.646   4.935  1.3780  0.2615 -1.4399
 6057SOL    HW229808   1.810   4.525   4.859  0.1638 -0.8411  2.5322
 6058SOL     OW29809   2.155   4.023   7.771  0.2331 -0.1430 -0.2024
 6058SOL    HW129810   2.070   4.020   7.814  0.7877 -1.1240  0.8257
 6058SOL    HW229811   2.204   4.066   7.842 -1.6418  0.0703  0.9589
 6059SOL     OW29812   0.192   0.267   7.796 -0.1677  0.4613  0.2376
 6059SOL    HW129813   0.129   0.331   7.828 -0.2276  0.7953 -0.5540
 6059SOL    HW229814   0.267   0.293   7.849 -1.8723  0.2235  2.8047
 6060SOL     OW29815   3.956   3.767   3.565 -0.1659 -0.2435  0.6212
 6060SOL    HW129816   4.023   3.831   3.541  0.3184 -0.2047  2.1164
 6060SOL    HW229817   3.888   3.794   3.503  2.3542  0.0318 -2.0333
 6061SOL     OW29818   0.203   1.842   4.872 -0.2559 -0.4245 -0.0980
 6061SOL    HW129819   0.238   1.843   4.783 -0.1393 -0.8934 -0.0573
 6061SOL    HW229820   0.252   1.772   4.915 -1.2736 -0.3495  1.1782
 6062SOL     OW29821   0.399   2.454   4.941  0.3145 -0.4503  0.4212
 6062SOL    HW129822   0.384   2.548   4.950  1.5179 -0.1449 -0.8268
 6062SOL    HW229823   0.331   2.434   5.006 -0.8435  1.0423 -0.3479
 6063SOL     OW29824   1.972   3.690   3.135  0.2439  0.1251 -0.0943
 6063SOL    HW129825   1.944   3.781   3.140  1.2011  0.4796 -0.9556
 6063SOL    HW229826   1.974   3.677   3.040 -1.1600  0.9849 -0.2508
 6064SOL     OW29827   3.161   1.501   0.468  0.1080 -0.1404  0.3765
 6064SOL    HW129828   3.182   1.528   0.378  0.7416 -0.7214  0.3449
 6064SOL    HW229829   3.090   1.560   0.493  1.3554  2.3763 -2.0144
 6065SOL     OW29830   4.147   3.319  13.492  0.1005 -0.4671  0.1043
 6065SOL    HW129831   4.094   3.287  13.565  2.0700 -4.5759 -0.2815
 6065SOL    HW229832   4.087   3.305  13.419  0.6288  1.9919 -0.8299
 6066SOL     OW29833   3.844   3.129   4.728  0.0055  0.2179 -0.4010
 6066SOL    HW129834   3.764   3.118   4.780 -0.4854 -1.4759 -1.5431
 6066SOL    HW229835   3.810   3.189   4.662 -0.0417  0.3667 -0.2432
 6067SOL     OW29836   4.483   0.602   7.352 -0.7277  0.4736 -0.3340
 6067SOL    HW129837   4.416   0.558   7.300 -1.5355 -1.4417  2.3724
 6067SOL    HW229838   4.449   0.690   7.370 -1.8104 -1.0532  5.0481
 6068SOL     OW29839   2.918   1.258   5.029 -0.0968 -0.3777 -0.1098
 6068SOL    HW129840   2.825   1.243   5.010 -0.4034  0.8496  0.4602
 6068SOL    HW229841   2.957   1.223   4.949 -0.2808  0.4884 -0.5705
 6069SOL     OW29842   0.508   3.193   4.787  0.1589  0.0352  0.4050
 6069SOL    HW129843   0.558   3.212   4.866  0.4790  0.4895  0.0958
 6069SOL    HW229844   0.516   3.280   4.747 -0.6605 -1.3413 -2.7531
 6070SOL     OW29845   1.370   3.944  12.738 -0.3710 -0.4957 -0.5705
 6070SOL    HW129846   1.460   3.962  12.766 -1.0103 -1.8297  2.4164
 6070SOL    HW229847   1.334   3.906  12.818 -0.5578  3.2278  1.1415
 6071SOL     OW29848   2.353   0.690   5.519 -0.1914  0.0533  0.0883
 6071SOL    HW129849   2.432   0.730   5.554 -1.2045  2.7384 -0.6607
 6071SOL    HW229850   2.390   0.700   5.431 -0.4847  1.3645  0.1084
 6072SOL     OW29851   4.380   4.614   5.675 -0.6003  0.1709 -0.1443
 6072SOL    HW129852   4.363   4.707   5.689 -0.9057 -0.0004  0.6260
 6072SOL    HW229853   4.458   4.610   5.731 -2.0468  0.5930  1.8570
 6073SOL     OW29854   2.377   1.698   8.286  0.1730  0.4068  0.2963
 6073SOL    HW129855   2.468   1.676   8.269  0.4841 -1.5142  4.5106
 6073SOL    HW229856   2.385   1.765   8.354 -1.5383 -0.5360  1.4453
 6074SOL     OW29857   2.652   4.443   3.865  0.1663  0.9414  0.2861
 6074SOL    HW129858   2.600   4.500   3.808  0.5087  0.9665  0.0039
 6074SOL    HW229859   2.740   4.477   3.851  0.4542  0.1618  0.2056
 6075SOL     OW29860   1.257   2.826   7.693 -0.4915 -0.1053 -0.0282
 6075SOL    HW129861   1.284   2.736   7.675  1.6716  0.4259  0.6365
 6075SOL    HW229862   1.164   2.822   7.716  0.1733  2.5063  2.9919
 6076SOL     OW29863   3.911   3.031   5.230  0.9000  0.1858 -0.2068
 6076SOL    HW129864   3.911   3.016   5.136 -0.7072 -1.8800  0.1252
 6076SOL    HW229865   3.908   3.126   5.232 -1.0236  0.1074  0.1980
 6077SOL     OW29866   4.245   2.883   3.242  0.5238  0.3791  0.1853
 6077SOL    HW129867   4.233   2.910   3.151  0.1727  2.2313  0.7704
 6077SOL    HW229868   4.249   2.788   3.230  0.4949  0.2747  0.9846
 6078SOL     OW29869   0.427   3.810   3.368  0.0184  0.1975  0.3234
 6078SOL    HW129870   0.393   3.728   3.403 -0.4376 -0.2057 -1.0674
 6078SOL    HW229871   0.419   3.857   3.451  0.5588 -1.3485  1.2386
 6079SOL     OW29872   0.102   4.054   6.310  0.2275  0.0370  0.4149
 6079SOL    HW129873   0.136   4.085   6.393 -0.1072  0.8742  0.2386
 6079SOL    HW229874   0.132   3.965   6.329  0.0929  0.3423  1.9972
 6080SOL     OW29875   1.357   1.318   5.941 -0.0989 -0.0026 -0.3540
 6080SOL    HW129876   1.391   1.387   5.998  1.0146 -1.4862  0.7883
 6080SOL    HW229877   1.346   1.253   6.010  1.7531  1.2270  1.0810
 6081SOL     OW29878   1.052   4.446   4.041 -0.0790 -0.7016 -0.2284
 6081SOL    HW129879   1.024   4.403   4.121 -0.2736 -0.3863 -0.1239
 6081SOL    HW229880   0.972   4.492   4.014  0.6991  0.0786 -1.2244
 6082SOL     OW29881   0.000   0.607   0.788  0.1641 -0.1093 -0.8501
 6082SOL    HW129882   0.061   0.562   0.846 -0.3406  1.5605  0.9585
 6082SOL    HW229883   4.676   0.639   0.857 -0.9860 -3.2866 -0.3417
 6083SOL     OW29884   2.413   0.235   2.034  0.1675 -0.1593  0.3258
 6083SOL    HW129885   2.475   0.162   2.042 -0.1718 -0.2868  1.7229
 6083SOL    HW229886   2.331   0.191   2.012  0.6952 -0.3523 -1.2819
 6084SOL     OW29887   0.214   1.355  10.239 -0.3590 -0.2462 -0.2618
 6084SOL    HW129888   0.253   1.378  10.323 -0.6829 -0.7191  0.0199
 6084SOL    HW229889   0.239   1.264  10.221 -0.8745 -0.4850  0.2220
 6085SOL     OW29890   0.329   3.932   6.111  0.7093  0.0563  0.6119
 6085SOL    HW129891   0.407   3.878   6.102 -0.1001 -1.3103  1.8398
 6085SOL    HW229892   0.280   3.904   6.189  1.3366  2.4732  1.8550
 6086SOL     OW29893   2.620   4.356   0.996  0.1955 -0.0169 -0.3965
 6086SOL    HW129894   2.689   4.363   0.930 -0.1273 -0.0859 -0.7430
 6086SOL    HW229895   2.549   4.351   0.932 -0.4374  1.0577  0.2303
 6087SOL     OW29896   0.796   2.675   8.220 -0.9033  0.4244  0.2693
 6087SOL    HW129897   0.732   2.711   8.159 -0.6832 -0.5029 -0.5082
 6087SOL    HW229898   0.872   2.679   8.162 -0.0091  2.1525  1.5549
 6088SOL     OW29899   1.162   0.775   3.952 -0.1450  0.5684  0.1989
 6088SOL    HW129900   1.235   0.742   4.003  1.3420  2.4621 -0.7032
 6088SOL    HW229901   1.132   0.859   3.988 -0.4105  0.1013  1.0598
 6089SOL     OW29902   0.877   4.182   7.087 -0.1752 -0.6199  0.1898
 6089SOL    HW129903   0.843   4.094   7.102  1.0661 -1.1453 -0.0829
 6089SOL    HW229904   0.941   4.173   7.159  2.0902 -1.6158 -1.9456
 6090SOL     OW29905   4.123   2.585   7.199  0.0347  0.2349 -0.0066
 6090SOL    HW129906   4.131   2.534   7.279  0.4454 -1.8100 -1.3508
 6090SOL    HW229907   4.157   2.530   7.128 -0.6143 -0.8401  0.5224
 6091SOL     OW29908   3.676   0.934   1.506  0.1095  0.3015  0.0973
 6091SOL    HW129909   3.580   0.937   1.504  0.1179  0.2014 -0.2986
 6091SOL    HW229910   3.697   0.950   1.599 -1.6847 -3.0114  1.0599
 6092SOL     OW29911   3.691   4.730   4.737 -0.5017 -0.7454  0.0921
 6092SOL    HW129912   3.755   4.688   4.678  0.5661  0.4190  0.4449
 6092SOL    HW229913   3.744   4.708   4.813  1.5984  0.3412 -1.0769
 6093SOL     OW29914   2.926   1.894  13.990 -0.4600  0.2674 -0.7529
 6093SOL    HW129915   2.956   1.981  13.962  1.1596  0.3226  1.1587
 6093SOL    HW229916   2.857   1.913  14.054  0.9346 -1.3504  1.2245
 6094SOL     OW29917   1.777   0.771   0.196 -0.3218 -0.5928  0.6067
 6094SOL    HW129918   1.735   0.730   0.272 -1.6621  2.5908  1.5704
 6094SOL    HW229919   1.839   0.835   0.230  2.0847 -1.7798 -1.5108
 6095SOL     OW29920   4.357   1.670   2.177 -0.4043 -0.2920  0.0672
 6095SOL    HW129921   4.303   1.726   2.120  3.0251  1.8538 -1.0597
 6095SOL    HW229922   4.378   1.734   2.245 -2.1749  1.1309 -0.7056
 6096SOL     OW29923   3.500   2.459   7.003  0.4006 -0.1422 -0.1062
 6096SOL    HW129924   3.461   2.375   6.980 -0.3211  0.2317 -0.2571
 6096SOL    HW229925   3.432   2.494   7.062  0.6379  2.8280 -1.6194
 6097SOL     OW29926   3.256   1.681   5.254 -0.4026  0.1169  0.3004
 6097SOL    HW129927   3.244   1.589   5.231 -1.8872  0.5322 -0.5827
 6097SOL    HW229928   3.290   1.717   5.172  0.6234 -1.2625  0.1301
 6098SOL     OW29929   4.095   0.040   4.023  0.8252  0.0561 -0.0239
 6098SOL    HW129930   4.099   4.707   4.092  1.0419 -0.4874 -0.5631
 6098SOL    HW229931   4.177   0.023   3.977  0.2053 -0.7012 -0.8405
 6099SOL     OW29932   0.451   2.257   2.583 -0.2263  0.8452  0.4778
 6099SOL    HW129933   0.366   2.294   2.560 -0.1734  0.3301 -0.5100
 6099SOL    HW229934   0.437   2.187   2.647  2.5167 -1.0626 -0.9807
 6100SOL     OW29935   4.318   1.196   4.875  0.3081 -0.3290 -0.1758
 6100SOL    HW129936   4.335   1.228   4.787 -1.0859  1.0066  0.0335
 6100SOL    HW229937   4.223   1.207   4.873  0.3485 -0.0193 -0.4425
 6101SOL     OW29938   3.620   1.345  15.353 -0.1201  0.0148 -0.0672
 6101SOL    HW129939   3.666   1.281  15.298  0.3930  0.5174 -0.2210
 6101SOL    HW229940   3.682   1.344  15.426 -2.9159 -2.5418  2.2810
 6102SOL     OW29941   1.473   2.123  10.539 -0.3352  0.3390  0.3285
 6102SOL    HW129942   1.517   2.195  10.583  1.3590  2.0041 -4.0088
 6102SOL    HW229943   1.440   2.160  10.456  0.3292 -0.2555 -0.2027
 6103SOL     OW29944   1.555   1.961   4.579 -0.2506  0.5349 -0.3502
 6103SOL    HW129945   1.476   2.010   4.602 -1.1637 -1.0160 -0.2269
 6103SOL    HW229946   1.590   2.024   4.516  0.6532  0.4599  0.0741
 6104SOL     OW29947   2.342   0.782   2.031  0.4258  0.4694 -0.0681
 6104SOL    HW129948   2.427   0.820   2.055  1.8349 -3.5913  1.3837
 6104SOL    HW229949   2.340   0.707   2.090  2.4342 -1.4847 -2.4845
 6105SOL     OW29950   1.590   2.901  15.112 -0.0445 -0.2448 -0.2861
 6105SOL    HW129951   1.594   2.995  15.130 -1.1118 -0.2476 -0.0895
 6105SOL    HW229952   1.615   2.872  15.200 -0.0577  2.2301  0.5170
 6106SOL     OW29953   1.705   2.349   2.793 -0.0535  0.2322  0.0235
 6106SOL    HW129954   1.642   2.371   2.862 -0.6652 -0.3797 -0.3316
 6106SOL    HW229955   1.770   2.293   2.835 -1.5819 -1.7427 -0.2383
 6107SOL     OW29956   1.122   1.352  13.003 -0.4932 -0.0498  0.9123
 6107SOL    HW129957   1.146   1.314  13.087 -0.1501 -3.2192 -0.6332
 6107SOL    HW229958   1.085   1.434  13.036 -0.2830  0.2991  0.3059
 6108SOL     OW29959   2.451   4.321   3.146  0.0778  0.5963 -0.1700
 6108SOL    HW129960   2.504   4.297   3.222  1.4609  1.8631 -0.7298
 6108SOL    HW229961   2.498   4.401   3.120  1.6924 -0.2558  0.1667
 6109SOL     OW29962   1.291   0.186   7.009 -0.0929 -0.0634 -0.8449
 6109SOL    HW129963   1.281   0.120   6.941 -1.7345 -0.3131 -0.3671
 6109SOL    HW229964   1.283   0.128   7.085  0.0668 -0.4279 -1.1087
 6110SOL     OW29965   4.616   2.197  12.137  0.0330 -0.0140 -0.2331
 6110SOL    HW129966   4.694   2.148  12.112  1.0681  1.9853 -0.9149
 6110SOL    HW229967   4.607   2.248  12.057  0.4379 -2.2108 -1.6758
 6111SOL     OW29968   1.019   1.730  11.478 -0.4308  0.5628 -0.4920
 6111SOL    HW129969   1.028   1.742  11.384 -0.9235 -1.1900 -0.7474
 6111SOL    HW229970   0.972   1.808  11.508 -0.1557  0.3700  0.4574
 6112SOL     OW29971   1.209   2.911   9.276 -0.3341  0.0848  0.3268
 6112SOL    HW129972   1.161   2.901   9.194  0.1017  0.0057  0.0820
 6112SOL    HW229973   1.250   2.997   9.270 -1.0491  0.2761 -1.8638
 6113SOL     OW29974   4.290   4.412   6.290  0.5433 -0.0619  0.6738
 6113SOL    HW129975   4.328   4.329   6.260  1.9871  0.4511  1.0912
 6113SOL    HW229976   4.344   4.472   6.238 -1.0276  0.6651 -0.1011
 6114SOL     OW29977   2.721   4.160  14.733 -0.0745  0.3710 -0.2854
 6114SOL    HW129978   2.679   4.244  14.748  0.7992  0.8801 -0.7161
 6114SOL    HW229979   2.641   4.107  14.731 -1.2076  2.1124 -0.8288
 6115SOL     OW29980   0.861   0.492  11.740  0.3668  0.4105  0.2289
 6115SOL    HW129981   0.875   0.505  11.834  1.2488  0.8985  0.0288
 6115SOL    HW229982   0.840   0.399  11.734  1.5699  0.1349  0.3454
 6116SOL     OW29983   1.029   4.049   2.000  0.1958  0.5234  0.5859
 6116SOL    HW129984   0.955   4.109   1.987 -0.0680 -0.0233 -0.3896
 6116SOL    HW229985   1.096   4.100   1.954  0.5207 -0.9831 -0.6112
 6117SOL     OW29986   0.150   3.830   2.626 -0.1177 -0.5794 -0.2657
 6117SOL    HW129987   0.169   3.740   2.651  0.3832  0.7298  4.1235
 6117SOL    HW229988   0.055   3.828   2.612 -0.2820  0.7956  0.6547
 6118SOL     OW29989   2.932   3.418   6.851 -0.7086 -0.3348  0.0732
 6118SOL    HW129990   2.966   3.386   6.935  0.4907  0.4340 -0.1230
 6118SOL    HW229991   3.013   3.437   6.804 -0.4835  0.0323  0.6096
 6119SOL     OW29992   2.079   3.047   0.168  0.4452  0.0587 -0.4596
 6119SOL    HW129993   2.147   2.992   0.205 -1.9296 -1.1049  2.2018
 6119SOL    HW229994   2.136   3.108   0.122 -0.3696  0.9273 -0.3082
 6120SOL     OW29995   1.695   0.390  14.496 -0.0724 -0.7066 -0.7369
 6120SOL    HW129996   1.673   0.434  14.414 -0.2980  2.2802  0.8842
 6120SOL    HW229997   1.704   0.464  14.556  1.4759  0.2370 -2.1277
 6121SOL     OW29998   0.321   3.281   9.191 -0.0282  0.3544 -0.1742
 6121SOL    HW129999   0.272   3.311   9.267 -0.6396  1.2318 -0.9087
 6121SOL    HW230000   0.404   3.260   9.233  0.8949  0.6778 -1.8206
 6122SOL     OW30001   0.018   3.593   7.285  0.3290 -0.1146 -0.7210
 6122SOL    HW130002   4.658   3.572   7.275 -0.3227  3.0805 -1.2354
 6122SOL    HW230003   0.015   3.683   7.316  1.0470 -0.9078  1.6310
 6123SOL     OW30004   4.707   1.380   7.733  0.2258  0.5141  0.0492
 6123SOL    HW130005   0.008   1.464   7.703  1.5875 -0.1632 -0.2677
 6123SOL    HW230006   0.034   1.330   7.678  0.2670  0.1860  0.3922
 6124SOL     OW30007   3.050   2.144  10.536 -0.2785 -0.0880 -0.7641
 6124SOL    HW130008   3.014   2.086  10.468 -1.3597 -1.9658  1.3947
 6124SOL    HW230009   3.142   2.122  10.550 -0.2143 -0.6821 -2.1094
 6125SOL     OW30010   0.451   1.143   8.299  0.1750  0.1503  0.1267
 6125SOL    HW130011   0.474   1.169   8.388  1.0331 -1.6325  0.4444
 6125SOL    HW230012   0.386   1.073   8.307  0.9686 -0.4893  0.9892
 6126SOL     OW30013   2.424   0.661  11.794  0.6020  0.1890 -0.3107
 6126SOL    HW130014   2.396   0.739  11.841 -0.1432 -0.2108 -0.0906
 6126SOL    HW230015   2.346   0.613  11.765  0.5089  0.7983 -1.0679
 6127SOL     OW30016   0.724   3.914   0.086 -0.0893 -0.3678 -0.4935
 6127SOL    HW130017   0.753   3.823   0.096 -1.4984 -0.7938 -0.2235
 6127SOL    HW230018   0.670   3.925   0.164  0.9494 -1.2866  0.3578
 6128SOL     OW30019   3.038   3.140  17.092 -0.6478 -0.2130  0.4751
 6128SOL    HW130020   3.083   3.078  17.150 -0.0132  2.3954  2.7235
 6128SOL    HW230021   2.977   3.180  17.154  0.7067 -0.5548  2.0106
 6129SOL     OW30022   2.425   3.331   5.979 -0.0270  0.2588 -0.3391
 6129SOL    HW130023   2.514   3.295   5.969 -0.5900 -1.8052  2.1929
 6129SOL    HW230024   2.431   3.422   6.008 -0.8141  0.6235 -1.3270
 6130SOL     OW30025   0.765   3.828  15.368  0.1079 -0.1125  0.8883
 6130SOL    HW130026   0.714   3.822  15.288  0.6857 -0.9015  0.5773
 6130SOL    HW230027   0.716   3.769  15.426 -0.7647 -1.9904 -1.7384
 6131SOL     OW30028   3.288   2.881   4.235  0.6972 -0.3131  0.5165
 6131SOL    HW130029   3.327   2.801   4.271  0.2074 -1.2401 -1.0418
 6131SOL    HW230030   3.240   2.841   4.163 -0.6815 -0.5492  1.5682
 6132SOL     OW30031   2.013   4.048   7.210  0.3040  0.1205 -0.4322
 6132SOL    HW130032   2.108   4.038   7.198  0.6928  0.4008  2.2576
 6132SOL    HW230033   1.983   3.957   7.216  2.3486 -0.6489 -1.6825
 6133SOL     OW30034   1.877   3.103  13.862  0.2699 -0.2858 -0.0687
 6133SOL    HW130035   1.908   3.161  13.931  0.0812  0.3576 -0.5273
 6133SOL    HW230036   1.813   3.050  13.908  0.5662  1.7013  2.6029
 6134SOL     OW30037   1.916   3.126   8.886 -0.0546 -0.4257  0.1147
 6134SOL    HW130038   1.822   3.107   8.886 -0.5980  2.2050  0.6490
 6134SOL    HW230039   1.945   3.118   8.976 -2.3577 -1.4677  0.7582
 6135SOL     OW30040   3.937   2.842   5.418 -0.2142  0.6775  0.0589
 6135SOL    HW130041   4.015   2.876   5.461 -0.0884  1.2520 -0.6338
 6135SOL    HW230042   3.912   2.912   5.358  1.1458  1.2593  0.1823
 6136SOL     OW30043   4.133   0.602   6.348 -0.3139 -0.0333  0.1182
 6136SOL    HW130044   4.155   0.686   6.388  1.0467 -0.1098 -0.4590
 6136SOL    HW230045   4.221   0.570   6.326 -0.4275 -1.1580  1.3523
 6137SOL     OW30046   2.746   1.789  15.272  0.6688 -0.1166 -0.3226
 6137SOL    HW130047   2.786   1.703  15.277 -1.6624 -1.0608  2.3806
 6137SOL    HW230048   2.742   1.802  15.367 -0.4280 -1.6901 -0.1537
 6138SOL     OW30049   3.198   4.150   5.425 -0.5442 -0.4933  0.2146
 6138SOL    HW130050   3.117   4.099   5.415 -0.3617 -0.6987 -0.2581
 6138SOL    HW230051   3.214   4.156   5.330  4.4261 -0.9641  1.0477
 6139SOL     OW30052   1.566   2.732  12.966  0.4860  0.5013 -0.5476
 6139SOL    HW130053   1.472   2.747  12.965 -0.2197 -3.8203 -1.2507
 6139SOL    HW230054   1.601   2.817  12.941 -0.0679  0.7533 -0.4589
 6140SOL     OW30055   0.049   3.962   3.148  0.1561  0.0107 -0.7101
 6140SOL    HW130056   0.073   4.038   3.096 -0.6758  2.1258  1.9890
 6140SOL    HW230057   0.121   3.969   3.211  0.6794 -0.6113 -1.2347
 6141SOL     OW30058   0.595   4.667   2.629 -0.0795 -0.0176  0.6431
 6141SOL    HW130059   0.636   4.581   2.615  1.5567  0.4752  2.3817
 6141SOL    HW230060   0.507   4.647   2.598 -0.6708  2.5807  0.6947
 6142SOL     OW30061   0.886   2.466   3.664  0.5315  0.3186 -0.9256
 6142SOL    HW130062   0.945   2.485   3.591 -1.1733  2.1781 -1.8377
 6142SOL    HW230063   0.851   2.555   3.678  0.8941  0.2938  0.1510
 6143SOL     OW30064   3.382   1.914   3.074  0.1124 -0.1054  0.2783
 6143SOL    HW130065   3.427   1.998   3.068  1.7581 -0.9454  0.8319
 6143SOL    HW230066   3.395   1.885   2.984 -1.6677  0.2193 -0.0758
 6144SOL     OW30067   0.349   3.438  12.489  0.0342  0.1380 -0.4682
 6144SOL    HW130068   0.417   3.445  12.556 -0.9811  2.2496  0.3522
 6144SOL    HW230069   0.401   3.471  12.415  0.7939 -1.9679 -0.8608
 6145SOL     OW30070   0.556   3.623   3.644  0.8121 -0.1322 -0.0619
 6145SOL    HW130071   0.615   3.606   3.717  0.1728 -3.0235 -0.2139
 6145SOL    HW230072   0.479   3.580   3.681 -0.2038  0.5230 -1.4291
 6146SOL     OW30073   3.749   0.703  11.844  0.3276 -0.9833  0.1443
 6146SOL    HW130074   3.692   0.728  11.918 -0.1866  0.7345 -0.8324
 6146SOL    HW230075   3.829   0.684  11.893  1.6719 -0.2001 -1.7683
 6147SOL     OW30076   1.752   0.436   3.302 -0.4544 -0.0181 -0.2449
 6147SOL    HW130077   1.663   0.451   3.269 -0.3841  0.4881 -0.1981
 6147SOL    HW230078   1.751   0.343   3.327  1.5218  0.2781  0.8944
 6148SOL     OW30079   2.770   3.711  13.414 -0.2067 -0.5375  0.1011
 6148SOL    HW130080   2.829   3.786  13.402 -0.0538 -0.5470  0.7938
 6148SOL    HW230081   2.714   3.736  13.487 -0.5781 -1.5961  0.1771
 6149SOL     OW30082   4.264   2.447   8.311  0.2686 -0.0385 -0.3472
 6149SOL    HW130083   4.325   2.409   8.248  1.2427 -0.0689  0.6231
 6149SOL    HW230084   4.310   2.428   8.393  0.1679 -1.1958 -0.5614
 6150SOL     OW30085   2.789   2.388   4.363  0.4230  0.0238  0.2402
 6150SOL    HW130086   2.862   2.410   4.421  0.1328 -1.6465  1.2232
 6150SOL    HW230087   2.746   2.474   4.360  2.8999  1.3625  3.6758
 6151SOL     OW30088   1.776   3.015   1.670 -0.1148  0.3012  0.7118
 6151SOL    HW130089   1.695   3.066   1.665 -0.9538 -1.1761 -0.5323
 6151SOL    HW230090   1.748   2.941   1.724 -2.3878  1.3012  0.9302
 6152SOL     OW30091   1.776   0.502   7.361 -0.4533  0.3556  0.3323
 6152SOL    HW130092   1.833   0.574   7.333 -0.2437 -0.4064 -1.2389
 6152SOL    HW230093   1.792   0.504   7.455 -1.3087 -1.1347  0.5072
 6153SOL     OW30094   3.403   2.067  16.544  0.1702  0.1532  0.5817
 6153SOL    HW130095   3.437   2.129  16.479 -0.9382  1.6075  1.3871
 6153SOL    HW230096   3.399   1.984  16.496 -0.1274 -0.6211  1.9438
 6154SOL     OW30097   3.972   3.281  10.484 -0.0054  0.2957  0.0386
 6154SOL    HW130098   3.976   3.191  10.515  1.1561 -0.0020 -0.9596
 6154SOL    HW230099   3.989   3.348  10.550 -0.0621  2.4701 -2.1566
 6155SOL     OW30100   0.826   3.952   1.392 -0.0913 -0.4569  0.3207
 6155SOL    HW130101   0.742   3.996   1.404 -0.8632 -1.7578 -0.2217
 6155SOL    HW230102   0.882   3.974   1.467  0.0439 -2.7228  0.8904
 6156SOL     OW30103   4.201   0.246   5.979  0.2688 -0.7108  0.5518
 6156SOL    HW130104   4.155   0.317   6.023  1.2628  1.2151 -1.5495
 6156SOL    HW230105   4.282   0.294   5.964 -0.7596  1.0483  0.6884
 6157SOL     OW30106   1.460   4.072   3.525 -0.3326  0.4426 -0.0602
 6157SOL    HW130107   1.464   3.977   3.538 -2.1194  0.6281  1.8259
 6157SOL    HW230108   1.514   4.107   3.596 -0.0118 -1.0004  0.4163
 6158SOL     OW30109   3.490   1.336  15.747 -1.0656  0.0080 -0.2145
 6158SOL    HW130110   3.488   1.406  15.682  0.7744  2.3230  2.2405
 6158SOL    HW230111   3.563   1.354  15.806  1.0482 -1.7404 -2.3256
 6159SOL     OW30112   3.431   1.312  15.154 -0.4072 -0.4586 -0.0659
 6159SOL    HW130113   3.493   1.334  15.223 -0.8508  0.2482  0.1019
 6159SOL    HW230114   3.442   1.385  15.093 -1.2404  0.4131  0.8173
 6160SOL     OW30115   2.804   1.596   5.708 -0.0715 -0.2411 -0.1113
 6160SOL    HW130116   2.836   1.669   5.656  1.4161 -0.9623 -0.2377
 6160SOL    HW230117   2.860   1.596   5.786  1.9523 -1.1818 -1.5496
 6161SOL     OW30118   3.197   4.278   2.938 -0.2549  0.6655  0.3638
 6161SOL    HW130119   3.191   4.241   2.850 -0.8306  0.5641  0.4452
 6161SOL    HW230120   3.274   4.334   2.926  1.1288 -0.7641  2.4519
 6162SOL     OW30121   4.347   0.054  12.144 -0.1425 -0.1362 -0.3631
 6162SOL    HW130122   4.404   0.106  12.200 -1.3237  0.4839  0.2601
 6162SOL    HW230123   4.337   0.113  12.069  0.6896 -2.3637 -2.2109
 6163SOL     OW30124   0.202   2.107   8.798  0.1475  0.2274 -0.1607
 6163SOL    HW130125   0.189   2.038   8.863 -1.5083 -0.5712 -1.3251
 6163SOL    HW230126   0.214   2.179   8.860 -0.8209  0.8251 -0.6588
 6164SOL     OW30127   3.691   1.689   6.030  0.3383  0.5014  0.0515
 6164SOL    HW130128   3.742   1.764   5.998  1.3846 -0.3229 -0.1974
 6164SOL    HW230129   3.702   1.628   5.957  2.9059  1.0140  0.0069
 6165SOL     OW30130   1.550   2.233  16.615 -0.2074 -0.0544 -0.0517
 6165SOL    HW130131   1.583   2.285  16.688 -1.8848  1.0511 -0.0754
 6165SOL    HW230132   1.625   2.197  16.568  1.6627 -0.2366  3.0346
 6166SOL     OW30133   2.351   4.671   4.226  0.0245 -0.4197 -0.8062
 6166SOL    HW130134   2.355   4.580   4.199  0.7981 -1.3676  2.5531
 6166SOL    HW230135   2.407   4.670   4.304 -0.9017 -1.5086 -0.1663
 6167SOL     OW30136   0.286   3.591   7.185 -0.5475 -0.1374  0.0369
 6167SOL    HW130137   0.257   3.638   7.106  0.1788 -0.2261 -0.2826
 6167SOL    HW230138   0.201   3.567   7.222  0.3155 -3.6862 -0.3051
 6168SOL     OW30139   2.482   3.455   5.311 -0.2377  0.1397 -0.4343
 6168SOL    HW130140   2.431   3.473   5.390 -0.6617 -0.2162 -0.6239
 6168SOL    HW230141   2.503   3.365   5.336 -0.0476  0.1115 -0.6974
 6169SOL     OW30142   2.009   1.125  14.082  0.4604  0.8900 -0.5420
 6169SOL    HW130143   1.943   1.168  14.027  0.3688  0.9763 -0.3641
 6169SOL    HW230144   1.982   1.162  14.166  1.9924  1.3030 -0.2354
 6170SOL     OW30145   2.685   3.036   7.359  0.1001 -0.2373  0.2459
 6170SOL    HW130146   2.772   3.065   7.384  0.5550 -0.2708 -1.2924
 6170SOL    HW230147   2.699   2.982   7.281 -1.7613 -1.2032  0.5686
 6171SOL     OW30148   4.354   2.577   6.593  0.1442  0.4536 -0.0011
 6171SOL    HW130149   4.333   2.484   6.594 -1.6971  0.8849  1.6956
 6171SOL    HW230150   4.272   2.612   6.558 -0.2770 -0.6764 -0.1491
 6172SOL     OW30151   1.578   2.011   5.849  0.2855 -0.3330  0.1503
 6172SOL    HW130152   1.610   1.949   5.784 -0.3406  2.1922 -2.5298
 6172SOL    HW230153   1.534   1.947   5.905 -2.5020  2.2660  0.9005
 6173SOL     OW30154   4.012   0.023   7.844  0.0537 -0.2010  0.0709
 6173SOL    HW130155   4.036   4.667   7.871  2.1010  0.7529  1.3812
 6173SOL    HW230156   4.082   0.060   7.790  0.0182 -0.6519 -0.2837
 6174SOL     OW30157   4.222   3.364   2.770 -0.4439  0.3474 -0.2667
 6174SOL    HW130158   4.286   3.434   2.754  1.6917 -2.0866 -2.3165
 6174SOL    HW230159   4.253   3.287   2.722  1.8261  1.0755  0.0501
 6175SOL     OW30160   0.255   2.963  12.017  0.0062  0.0077  0.0025
 6175SOL    HW130161   0.282   3.003  11.935 -0.1467 -0.1201 -0.1107
 6175SOL    HW230162   0.163   2.988  12.019 -0.0545 -0.1122 -1.3259
 6176SOL     OW30163   3.202   3.489   2.694  0.0814 -0.0095 -0.0572
 6176SOL    HW130164   3.201   3.534   2.609 -0.0672  1.3433  0.6547
 6176SOL    HW230165   3.123   3.437   2.681 -0.5096  1.2059 -1.4067
 6177SOL     OW30166   4.505   2.929   8.809 -0.4973 -0.2299 -0.3551
 6177SOL    HW130167   4.549   2.878   8.877  1.2937 -0.8217 -1.9913
 6177SOL    HW230168   4.422   2.881   8.806 -0.2857 -0.5393 -1.2182
 6178SOL     OW30169   2.615   0.987   3.603 -0.0124 -0.1584 -0.0754
 6178SOL    HW130170   2.676   1.010   3.533  0.5240 -0.6720  0.2261
 6178SOL    HW230171   2.602   0.893   3.591 -0.1581 -0.0218 -0.9635
 6179SOL     OW30172   2.527   2.640   8.768  0.1396 -0.3360  0.1305
 6179SOL    HW130173   2.592   2.602   8.708 -2.2436 -1.3494 -1.8350
 6179SOL    HW230174   2.577   2.624   8.848 -0.1853  2.0825  0.8151
 6180SOL     OW30175   0.245   3.526   9.669 -0.3422  0.2880 -0.1086
 6180SOL    HW130176   0.310   3.549   9.603 -0.0227  1.7636  0.7113
 6180SOL    HW230177   0.295   3.549   9.748 -0.5483 -0.7193  0.3122
 6181SOL     OW30178   2.126   4.560   6.914  0.3352  0.5822 -0.1058
 6181SOL    HW130179   2.199   4.529   6.860 -0.1048  0.6403 -0.7452
 6181SOL    HW230180   2.152   4.614   6.988  1.4516  1.6969 -1.3076
 6182SOL     OW30181   0.181   0.253   2.710  0.4976 -0.0658 -0.2945
 6182SOL    HW130182   0.175   0.296   2.795  0.1693  0.8133 -0.7609
 6182SOL    HW230183   0.262   0.284   2.669 -0.5802  1.6809 -1.1191
 6183SOL     OW30184   3.209   1.725   7.434  0.1204  0.0792  0.4099
 6183SOL    HW130185   3.147   1.654   7.453 -0.9055  1.4096  2.0195
 6183SOL    HW230186   3.291   1.677   7.449 -1.3291 -2.5504 -0.0494
 6184SOL     OW30187   3.542   4.017   4.353 -0.6090 -0.0735  0.1751
 6184SOL    HW130188   3.612   3.982   4.407 -0.1141  0.8458  0.1245
 6184SOL    HW230189   3.476   3.950   4.369 -3.2091  1.4619 -4.0585
 6185SOL     OW30190   3.295   2.672   0.780  0.0261 -0.2466  0.2191
 6185SOL    HW130191   3.272   2.713   0.697 -2.0255 -0.3572  0.7478
 6185SOL    HW230192   3.317   2.582   0.758 -0.0468 -0.1829 -0.1054
 6186SOL     OW30193   3.550   1.558   5.203 -0.0883 -0.8588 -0.1349
 6186SOL    HW130194   3.508   1.582   5.120  0.4004  1.5545  0.2951
 6186SOL    HW230195   3.539   1.640   5.252 -0.1805 -2.0366  1.8188
 6187SOL     OW30196   1.627   0.023   8.508  0.2595 -0.0929 -0.1955
 6187SOL    HW130197   1.543   4.730   8.547 -0.5942  1.1455 -1.2314
 6187SOL    HW230198   1.591   0.068   8.432  1.1502 -0.3236 -0.7509
 6188SOL     OW30199   4.218   3.461  10.203 -0.0326  0.0608 -0.9394
 6188SOL    HW130200   4.134   3.437  10.164  1.3492 -1.6226 -2.9003
 6188SOL    HW230201   4.269   3.409  10.140 -1.8868 -0.6913 -1.8192
 6189SOL     OW30202   2.452   0.007   4.705  0.2331 -0.1456 -0.0757
 6189SOL    HW130203   2.457   0.013   4.801  0.3845  0.7572 -0.1477
 6189SOL    HW230204   2.523   0.064   4.677  0.4328  0.3939  1.5306
 6190SOL     OW30205   3.082   0.896   3.245  0.4766  0.7686 -0.5229
 6190SOL    HW130206   3.001   0.920   3.201 -0.2785 -1.2540 -0.2308
 6190SOL    HW230207   3.137   0.878   3.168  0.0735 -0.7780 -0.4456
 6191SOL     OW30208   0.237   4.553   8.871 -0.6659 -0.0239  0.9673
 6191SOL    HW130209   0.321   4.514   8.895 -0.8276 -0.6286  0.5492
 6191SOL    HW230210   0.208   4.585   8.956 -1.6851  0.0520  0.5990
 6192SOL     OW30211   3.706   3.571   7.605  0.1730 -0.3151 -0.1101
 6192SOL    HW130212   3.665   3.528   7.681  1.9400  1.2091  1.7031
 6192SOL    HW230213   3.757   3.493   7.583  2.3741  1.5132 -1.3998
 6193SOL     OW30214   2.027   0.529   6.167  0.1112 -0.2955  0.9563
 6193SOL    HW130215   2.122   0.532   6.153  0.1694  0.1262  1.4346
 6193SOL    HW230216   2.019   0.452   6.223  0.4260 -0.2317  1.0898
 6194SOL     OW30217   2.912   3.248   2.279 -0.1066  0.4864  0.3602
 6194SOL    HW130218   3.003   3.233   2.305 -0.0330  0.1271 -0.1029
 6194SOL    HW230219   2.884   3.164   2.245 -1.8620  0.6041  1.5033
 6195SOL     OW30220   4.614   1.410  12.774 -0.0992 -0.6022 -0.3213
 6195SOL    HW130221   4.618   1.403  12.869  3.2326 -0.2441 -0.4205
 6195SOL    HW230222   4.705   1.382  12.764  0.2355  0.3596  0.0919
 6196SOL     OW30223   3.519   0.358   8.089 -0.2623  0.4350  0.4101
 6196SOL    HW130224   3.569   0.277   8.094 -0.8361  0.0351 -0.2938
 6196SOL    HW230225   3.554   0.408   8.163 -1.1829  1.8058 -0.0893
 6197SOL     OW30226   4.380   2.354  11.132  0.4818 -0.7767 -0.4501
 6197SOL    HW130227   4.389   2.281  11.193  0.6814  0.5192  1.0882
 6197SOL    HW230228   4.313   2.409  11.173  0.2757 -0.0133 -1.8174
 6198SOL     OW30229   2.625   2.611   2.612  0.7032 -0.2434 -0.2484
 6198SOL    HW130230   2.589   2.688   2.655  0.8353  0.5550 -1.5517
 6198SOL    HW230231   2.598   2.619   2.520 -0.2458  2.3330  0.2492
 6199SOL     OW30232   1.404   4.622   8.574  0.2949  0.1062  0.2646
 6199SOL    HW130233   1.377   4.648   8.485  1.0263 -1.2894 -0.3644
 6199SOL    HW230234   1.450   4.539   8.562 -0.9594 -0.4337 -0.8103
 6200SOL     OW30235   4.000   1.698  14.889  0.1535 -0.3492  0.5361
 6200SOL    HW130236   4.077   1.640  14.892 -0.6897 -1.3018  3.5288
 6200SOL    HW230237   3.994   1.719  14.982  0.6825  0.4877  0.3741
 6201SOL     OW30238   1.982   2.839  12.369 -0.4979  0.0300  0.3834
 6201SOL    HW130239   1.983   2.825  12.275  0.2559 -0.9294  0.5243
 6201SOL    HW230240   1.903   2.890  12.383  0.4833  1.7260 -0.2777
 6202SOL     OW30241   2.965   4.170   2.567 -0.0079  0.0868 -0.1064
 6202SOL    HW130242   2.911   4.201   2.494 -0.6006 -2.1683 -0.6438
 6202SOL    HW230243   2.906   4.162   2.642 -0.0345 -2.8552 -0.4165
 6203SOL     OW30244   3.497   1.542   6.802 -0.5705 -0.2060  0.2849
 6203SOL    HW130245   3.474   1.635   6.799 -3.7358 -1.0239 -0.7124
 6203SOL    HW230246   3.468   1.522   6.891 -1.1596  0.7462  0.3046
 6204SOL     OW30247   1.404   2.451   9.322  0.3424 -0.2835 -0.5132
 6204SOL    HW130248   1.453   2.481   9.246 -0.5879 -0.2014 -1.0797
 6204SOL    HW230249   1.389   2.540   9.352  0.9209  0.0366 -1.1809
 6205SOL     OW30250   0.786   0.476   7.612 -0.5161  0.1757 -0.6425
 6205SOL    HW130251   0.774   0.392   7.656 -3.8667  0.7990 -0.3593
 6205SOL    HW230252   0.706   0.518   7.644 -0.1376  1.0804 -0.8710
 6206SOL     OW30253   4.179   2.237   3.634  0.0143 -0.2359 -0.0138
 6206SOL    HW130254   4.181   2.277   3.547 -1.4550  2.9109  1.4280
 6206SOL    HW230255   4.114   2.168   3.619 -0.8476  0.2542  1.5923
 6207SOL     OW30256   3.573   1.193   4.402  0.5227 -0.3167  0.0236
 6207SOL    HW130257   3.480   1.193   4.379  0.1575 -0.3821  1.4868
 6207SOL    HW230258   3.597   1.274   4.359  1.4374 -1.7637 -2.1817
 6208SOL     OW30259   3.602   1.929   2.002  0.0536 -0.3108  0.3090
 6208SOL    HW130260   3.683   1.957   2.045  1.4720 -0.0908 -2.5098
 6208SOL    HW230261   3.594   1.836   2.024  1.5166 -0.7195 -0.9019
 6209SOL     OW30262   1.215   2.549  13.534 -0.5011  0.5298  0.0612
 6209SOL    HW130263   1.177   2.461  13.537  1.2539 -0.2669 -1.4521
 6209SOL    HW230264   1.143   2.592  13.486 -0.2022  0.3724 -0.5274
 6210SOL     OW30265   4.336   0.897   6.016  0.1387  0.1471 -0.4889
 6210SOL    HW130266   4.345   0.946   5.934  0.3588 -0.6284 -0.9179
 6210SOL    HW230267   4.374   0.959   6.079  1.3769 -2.0318  0.8761
 6211SOL     OW30268   2.218   3.023   0.983 -0.2253  0.0649  0.0253
 6211SOL    HW130269   2.179   3.010   1.069 -0.8479  1.8526  0.0214
 6211SOL    HW230270   2.274   2.945   0.980 -0.4941 -0.1223 -0.1272
 6212SOL     OW30271   0.729   3.237   3.133 -0.1010  0.0052 -0.2448
 6212SOL    HW130272   0.718   3.162   3.074 -0.5048  0.8129 -1.1916
 6212SOL    HW230273   0.748   3.302   3.066 -4.0340  0.8176 -0.6033
 6213SOL     OW30274   2.462   3.167   5.683  0.3107  0.3221  0.7835
 6213SOL    HW130275   2.368   3.170   5.662  0.3462 -0.8467  0.4164
 6213SOL    HW230276   2.486   3.094   5.625 -1.4108  0.7024 -0.4186
 6214SOL     OW30277   4.281   2.342   4.104  0.2907 -0.1721  0.1814
 6214SOL    HW130278   4.373   2.359   4.123  0.9260 -2.2177 -1.0151
 6214SOL    HW230279   4.282   2.309   4.015 -0.5680 -1.7691  0.7575
 6215SOL     OW30280   0.789   2.813  14.448  0.5291 -0.5260  0.5947
 6215SOL    HW130281   0.789   2.732  14.398 -1.5768  0.1670 -0.5400
 6215SOL    HW230282   0.835   2.790  14.528  0.9921 -0.9442  0.2059
 6216SOL     OW30283   4.631   4.374  13.639  0.1059  0.0623  0.4610
 6216SOL    HW130284   4.689   4.301  13.619  0.5558  0.4376  0.4036
 6216SOL    HW230285   4.582   4.368  13.558 -0.5964  0.9371  0.8170
 6217SOL     OW30286   3.734   4.507  16.548 -0.1940 -0.2095 -0.6151
 6217SOL    HW130287   3.781   4.467  16.474  2.0949 -0.3845  0.9382
 6217SOL    HW230288   3.762   4.448  16.617 -0.2106  1.3731  0.7450
 6218SOL     OW30289   3.419   0.131  17.007  0.2772  0.7288  0.1000
 6218SOL    HW130290   3.485   0.200  17.005 -1.5565  2.5146  1.0000
 6218SOL    HW230291   3.346   0.171  17.055 -0.9531  0.7023 -1.7538
 6219SOL     OW30292   2.702   3.077   0.688  0.0556 -0.2467 -0.4126
 6219SOL    HW130293   2.635   3.051   0.626 -2.2338 -2.3798  2.9621
 6219SOL    HW230294   2.719   3.165   0.655  1.4757 -1.1823 -2.2201
 6220SOL     OW30295   4.478   3.539   9.289 -0.8450  0.1442 -0.4037
 6220SOL    HW130296   4.451   3.454   9.323 -0.8200  0.5537  0.6429
 6220SOL    HW230297   4.473   3.594   9.367 -2.8922 -1.7546  0.8032
 6221SOL     OW30298   1.212   3.667  15.811  1.0072  0.5937  0.0586
 6221SOL    HW130299   1.157   3.738  15.779 -0.0034 -1.5203 -2.8828
 6221SOL    HW230300   1.283   3.674  15.747 -0.0849  2.3489 -0.9627
 6222SOL     OW30301   2.494   2.912   1.697  0.0318  1.2064 -0.2741
 6222SOL    HW130302   2.437   2.852   1.745  1.5171  0.5891  0.7173
 6222SOL    HW230303   2.441   2.991   1.683  2.2887  3.0085  1.3054
 6223SOL     OW30304   0.152   4.006   5.445 -0.0213  0.7084 -0.9746
 6223SOL    HW130305   0.103   4.082   5.415 -1.8626 -0.3279 -0.6131
 6223SOL    HW230306   0.244   4.022   5.425  0.3853 -1.6831 -1.0698
 6224SOL     OW30307   4.607   4.113  10.471  0.0799 -0.0460  0.2838
 6224SOL    HW130308   4.517   4.133  10.446  0.1143  0.4488  0.5453
 6224SOL    HW230309   4.600   4.083  10.562  0.0195 -4.7698 -1.2709
 6225SOL     OW30310   3.299   2.555   5.235  0.5554 -0.6327  0.3662
 6225SOL    HW130311   3.301   2.520   5.324 -3.8598  1.5022  1.2714
 6225SOL    HW230312   3.247   2.634   5.245 -0.6604 -0.9965 -3.0600
 6226SOL     OW30313   3.611   1.743  16.005  0.5331 -0.4761 -0.1417
 6226SOL    HW130314   3.670   1.815  16.028 -0.7344  0.4491  0.2071
 6226SOL    HW230315   3.672   1.669  16.004  0.9042 -0.1626 -0.6970
 6227SOL     OW30316   3.392   2.926  13.170 -0.5789 -0.6621 -0.2261
 6227SOL    HW130317   3.324   2.945  13.105  1.0852  0.7986 -1.5228
 6227SOL    HW230318   3.402   2.832  13.188  0.0161 -0.4957  0.2985
 6228SOL     OW30319   3.981   2.557   3.408 -0.4281  0.5211  0.1602
 6228SOL    HW130320   4.023   2.566   3.322 -0.5652 -3.5096 -0.2998
 6228SOL    HW230321   4.052   2.592   3.462  1.1321  0.4552 -1.8166
 6229SOL     OW30322   1.737   0.271  15.061 -0.3689 -0.0727 -0.6652
 6229SOL    HW130323   1.828   0.284  15.036 -0.8980  2.0366 -1.4619
 6229SOL    HW230324   1.689   0.339  15.015  1.5977  3.2114  2.0934
 6230SOL     OW30325   0.481   0.525   6.344  0.3147  0.1020  0.5874
 6230SOL    HW130326   0.472   0.611   6.386  0.4272  0.6812 -0.5773
 6230SOL    HW230327   0.407   0.517   6.283  0.4019 -0.3053  0.5344
 6231SOL     OW30328   1.524   2.688   6.395  0.4343 -0.1525 -0.3749
 6231SOL    HW130329   1.524   2.773   6.351  3.1995  0.3590  0.6384
 6231SOL    HW230330   1.597   2.690   6.456  0.2527  2.8538 -0.2665
 6232SOL     OW30331   4.224   0.658   5.921 -0.0689 -0.1824  0.4928
 6232SOL    HW130332   4.249   0.736   5.972 -0.2380  0.1796  0.0242
 6232SOL    HW230333   4.160   0.683   5.855  0.0370 -0.3413  0.3309
 6233SOL     OW30334   1.246   3.714   4.528 -0.3485  0.1675 -0.2790
 6233SOL    HW130335   1.325   3.671   4.495 -0.5764  0.7268 -1.5651
 6233SOL    HW230336   1.278   3.802   4.510 -2.4670  0.7232 -1.3118
 6234SOL     OW30337   1.262   0.285   9.248 -0.4443 -0.0828  0.5718
 6234SOL    HW130338   1.325   0.225   9.287 -3.1898 -1.6836  2.5246
 6234SOL    HW230339   1.186   0.274   9.306  0.4725  0.2951  1.8318
 6235SOL     OW30340   1.551   1.671   4.694  0.7395  0.0407  0.0834
 6235SOL    HW130341   1.547   1.715   4.609 -2.1979 -1.0035 -0.3077
 6235SOL    HW230342   1.599   1.592   4.667  0.2709 -0.1331 -0.2396
 6236SOL     OW30343   2.006   4.717   5.658 -0.3593  0.5407  0.4791
 6236SOL    HW130344   2.096   4.716   5.688  0.4365 -1.6988 -1.9381
 6236SOL    HW230345   1.999   4.626   5.628 -0.2934  1.2576 -1.7446
 6237SOL     OW30346   0.847   3.137   3.796  0.0669  0.4890  0.3525
 6237SOL    HW130347   0.895   3.087   3.730  1.6747  2.6229 -0.1151
 6237SOL    HW230348   0.830   3.217   3.745 -0.3572 -1.1144 -2.0607
 6238SOL     OW30349   1.680   1.815   3.212  0.2778  0.8600 -0.2787
 6238SOL    HW130350   1.767   1.846   3.189  1.5866 -2.2036  0.7051
 6238SOL    HW230351   1.675   1.845   3.303  0.0159  3.3676 -1.0906
 6239SOL     OW30352   3.497   3.801   5.487 -0.7625 -0.3052  0.2076
 6239SOL    HW130353   3.453   3.855   5.553 -1.2812  1.0763 -1.2799
 6239SOL    HW230354   3.452   3.721   5.514 -1.8768  1.3932  3.3932
 6240SOL     OW30355   0.917   0.384   6.170  0.4733 -0.5525  0.6999
 6240SOL    HW130356   0.983   0.315   6.165 -0.1166 -1.1286  1.0519
 6240SOL    HW230357   0.918   0.403   6.264  0.4928 -1.5778  0.9032
 6241SOL     OW30358   4.117   1.141   5.175 -0.3115 -0.2840 -0.2872
 6241SOL    HW130359   4.198   1.161   5.222  0.7044 -2.2927 -1.1656
 6241SOL    HW230360   4.092   1.234   5.169  0.4618 -0.0140  0.6122
 6242SOL     OW30361   2.328   3.904  11.892  0.5672 -0.0640 -0.2845
 6242SOL    HW130362   2.284   3.828  11.853  0.0168 -1.9919  4.1066
 6242SOL    HW230363   2.282   3.981  11.859  1.5188  0.0470 -1.3375
 6243SOL     OW30364   4.042   2.273  12.648 -0.2316 -0.0812  0.2350
 6243SOL    HW130365   3.976   2.318  12.701  1.1343  1.0895  0.9580
 6243SOL    HW230366   3.984   2.211  12.606  0.9983 -2.6917  2.3750
 6244SOL     OW30367   2.041   2.919   3.223  0.3311  0.2376 -0.0194
 6244SOL    HW130368   2.112   2.981   3.209  0.9632 -0.6547 -0.7912
 6244SOL    HW230369   2.026   2.890   3.133  0.0445 -0.7833  0.3472
 6245SOL     OW30370   2.492   0.797   7.088 -0.0187  0.0947 -0.9937
 6245SOL    HW130371   2.494   0.890   7.112 -3.4589 -0.2989  0.8708
 6245SOL    HW230372   2.451   0.801   7.002  0.3461  1.9254 -1.0877
 6246SOL     OW30373   4.114   3.846   5.915 -0.1173  0.0993  0.3880
 6246SOL    HW130374   4.104   3.928   5.868  0.9456 -0.8286 -1.4792
 6246SOL    HW230375   4.197   3.850   5.963 -0.8045 -0.0335  1.5905
 6247SOL     OW30376   1.857   0.925   4.526  0.0168  0.2831  0.4553
 6247SOL    HW130377   1.938   0.874   4.535 -0.7442 -0.8553  0.9248
 6247SOL    HW230378   1.889   0.999   4.475 -1.5006  0.6824  0.0994
 6248SOL     OW30379   1.219   1.179   3.759 -0.0820 -0.0809  0.2634
 6248SOL    HW130380   1.289   1.162   3.821  0.1712 -1.3633 -0.3804
 6248SOL    HW230381   1.156   1.225   3.815 -0.4340  0.4119 -0.5340
 6249SOL     OW30382   3.591   3.931   4.962  0.1679 -0.0004  0.5039
 6249SOL    HW130383   3.523   3.950   5.027  1.7508  1.4736  1.6967
 6249SOL    HW230384   3.672   3.930   5.012 -0.5310  3.3626  1.6897
 6250SOL     OW30385   0.924   4.677  16.806  0.0509 -0.3407  0.2860
 6250SOL    HW130386   0.905   4.628  16.726  0.3417 -0.0949  0.0662
 6250SOL    HW230387   0.866   0.019  16.796  0.5310 -0.5887 -4.5461
 6251SOL     OW30388   0.173   1.541  12.210  0.3485 -0.0018 -0.4425
 6251SOL    HW130389   0.226   1.476  12.255  2.4568  2.4467  0.6332
 6251SOL    HW230390   0.247   1.590  12.174  1.3301  0.2988  2.0304
 6252SOL     OW30391   0.255   0.193   3.957  0.0427 -0.5992  0.0737
 6252SOL    HW130392   0.171   0.161   3.988  0.8860 -0.6538  2.2895
 6252SOL    HW230393   0.267   0.266   4.019  2.7887 -1.8041  0.9799
 6253SOL     OW30394   2.797   1.464   7.048 -0.4450 -0.0915 -0.6432
 6253SOL    HW130395   2.770   1.495   7.135 -2.8547 -1.3673 -0.9416
 6253SOL    HW230396   2.813   1.370   7.063 -2.1169 -0.5703 -1.9909
 6254SOL     OW30397   0.382   2.061   2.773 -0.4571  0.4018  0.2183
 6254SOL    HW130398   0.448   2.003   2.812  2.1240  2.6263 -0.8351
 6254SOL    HW230399   0.327   2.074   2.850  0.3442  1.6041  0.5916
 6255SOL     OW30400   4.720   4.061  14.237  0.2444  0.0242 -0.7759
 6255SOL    HW130401   4.642   4.018  14.271  0.7885  0.1082  0.5474
 6255SOL    HW230402   4.676   4.127  14.183 -0.6809 -0.1141 -0.1856
 6256SOL     OW30403   0.320   4.262   3.344  0.0774 -0.3609  0.3987
 6256SOL    HW130404   0.411   4.265   3.373  0.9186  0.5923 -2.2835
 6256SOL    HW230405   0.291   4.181   3.386 -1.8960 -1.0492 -2.2713
 6257SOL     OW30406   0.345   2.699   6.134 -0.2473  0.0671  0.0776
 6257SOL    HW130407   0.290   2.623   6.114 -0.0202 -0.5997  1.9622
 6257SOL    HW230408   0.275   2.765   6.127 -0.9124 -0.6209  0.1955
 6258SOL     OW30409   3.266   3.985   3.754 -0.5901  0.4357  0.2271
 6258SOL    HW130410   3.296   3.894   3.755 -1.6284  0.0848 -0.4201
 6258SOL    HW230411   3.175   3.972   3.727 -0.0541  0.7025 -1.7796
 6259SOL     OW30412   1.441   0.102   0.409  0.0324 -0.0482 -0.0229
 6259SOL    HW130413   1.425   0.024   0.356  1.1065  0.1898 -0.6948
 6259SOL    HW230414   1.450   0.067   0.498 -1.8232 -0.8959 -0.1738
 6260SOL     OW30415   2.727   3.811   4.957  0.1111  0.4555  0.0606
 6260SOL    HW130416   2.697   3.759   5.032  0.5272 -1.4332 -1.0629
 6260SOL    HW230417   2.666   3.787   4.886  0.1755 -3.3506  1.3066
 6261SOL     OW30418   4.576   2.582  10.214  0.5340  0.5054  0.7883
 6261SOL    HW130419   4.544   2.512  10.271  0.5859  0.6792  1.0309
 6261SOL    HW230420   4.541   2.656  10.264 -1.4269 -0.0263  0.1931
 6262SOL     OW30421   3.163   3.921  13.401  0.0804 -0.0486 -0.8528
 6262SOL    HW130422   3.072   3.931  13.374 -0.0392 -2.8854 -1.4758
 6262SOL    HW230423   3.189   4.011  13.381  1.1891  0.3871  2.4958
 6263SOL     OW30424   3.939   4.462   6.751 -0.2782 -0.2521 -0.1292
 6263SOL    HW130425   3.937   4.422   6.664 -0.1857  0.2169 -0.3460
 6263SOL    HW230426   3.858   4.424   6.785 -0.7399 -2.0502 -3.2233
 6264SOL     OW30427   1.176   0.474  11.701  0.0457 -0.5699  0.0909
 6264SOL    HW130428   1.096   0.472  11.648  0.5358 -0.0188 -0.6801
 6264SOL    HW230429   1.246   0.469  11.635  0.8077  1.1673  0.7552
 6265SOL     OW30430   1.307   1.689   8.575  0.2589  0.8134 -0.2242
 6265SOL    HW130431   1.268   1.629   8.512  0.3385 -0.2114  0.6986
 6265SOL    HW230432   1.242   1.702   8.645  1.2386  0.9026  0.6573
 6266SOL     OW30433   0.843   4.420  14.746  0.2771  0.4725 -0.6157
 6266SOL    HW130434   0.791   4.383  14.675  0.2793 -0.4560 -0.1320
 6266SOL    HW230435   0.874   4.495  14.695  0.8645  0.9438  0.4471
 6267SOL     OW30436   1.631   1.154   7.544  0.1353  0.1303 -0.4182
 6267SOL    HW130437   1.605   1.213   7.614  0.5872  1.2764 -1.2256
 6267SOL    HW230438   1.660   1.212   7.474 -2.3373 -0.4693 -1.9745
 6268SOL     OW30439   4.040   0.766   6.737 -0.3597 -0.9814  0.0789
 6268SOL    HW130440   3.955   0.770   6.692  0.4358  1.2894 -1.2383
 6268SOL    HW230441   4.019   0.785   6.828  0.5283  0.1050  0.0590
 6269SOL     OW30442   1.440   4.271   8.072  0.0442 -0.8579  0.1174
 6269SOL    HW130443   1.518   4.312   8.034  0.0918 -2.4044 -1.4272
 6269SOL    HW230444   1.455   4.181   8.044 -0.1161 -1.3285  1.5524
 6270SOL     OW30445   3.157   0.327  13.742 -0.3300  0.1159 -0.3154
 6270SOL    HW130446   3.245   0.340  13.706  0.1981 -0.3512  0.8169
 6270SOL    HW230447   3.152   0.239  13.703 -2.4258  0.0956 -0.0094
 6271SOL     OW30448   2.609   2.856  13.464  0.2392 -0.6237  0.1218
 6271SOL    HW130449   2.659   2.919  13.516 -1.9951  1.7037 -0.5766
 6271SOL    HW230450   2.568   2.810  13.538  1.7479 -0.0640  1.3139
 6272SOL     OW30451   3.995   1.125   3.638 -0.0765  0.2698 -0.0037
 6272SOL    HW130452   4.058   1.197   3.637  0.5187 -0.2770 -1.1616
 6272SOL    HW230453   3.914   1.176   3.645  1.3446  2.7071 -1.1025
 6273SOL     OW30454   0.958   1.364  16.791 -0.2807 -0.0575  0.4411
 6273SOL    HW130455   0.960   1.326  16.703 -2.1884 -0.5925  0.6352
 6273SOL    HW230456   0.907   1.444  16.784  0.7434  0.7669  2.1605
 6274SOL     OW30457   1.103   0.199   6.189  0.1970 -0.1130  0.1011
 6274SOL    HW130458   1.181   0.233   6.232  0.0028  0.8373 -0.2988
 6274SOL    HW230459   1.132   0.116   6.151 -0.6665 -0.0666 -0.6581
 6275SOL     OW30460   1.046   4.042  11.875  0.4165 -0.4927  1.0432
 6275SOL    HW130461   1.100   4.002  11.944  1.0572  2.1728  2.0622
 6275SOL    HW230462   1.115   4.044  11.809  0.9538 -0.4428  1.6122
 6276SOL     OW30463   4.692   3.620  10.778  0.0492 -0.2670  0.4749
 6276SOL    HW130464   4.706   3.542  10.832  2.3137 -0.2550 -0.0809
 6276SOL    HW230465   0.038   3.621  10.725 -1.0827 -0.8613 -1.2236
 6277SOL     OW30466   0.225   2.922   8.028  0.8698  0.5443 -1.0841
 6277SOL    HW130467   0.142   2.966   8.044  0.1346 -0.6177 -1.6669
 6277SOL    HW230468   0.198   2.831   8.017 -3.2310  1.7768 -1.2097
 6278SOL     OW30469   3.550   4.358   3.895  0.1036  0.0322 -0.1010
 6278SOL    HW130470   3.521   4.302   3.967 -0.9227  0.7207  0.0321
 6278SOL    HW230471   3.486   4.341   3.826  0.3903  1.7294 -0.7735
 6279SOL     OW30472   2.554   2.037   6.686 -0.5498  0.0912 -0.1128
 6279SOL    HW130473   2.487   1.977   6.653 -2.0022  1.2688  0.7126
 6279SOL    HW230474   2.510   2.092   6.750  0.4622 -0.2221  0.8450
 6280SOL     OW30475   4.511   3.552   5.407 -0.2766  0.6257  0.3683
 6280SOL    HW130476   4.521   3.580   5.315 -1.3253  1.0898  0.3939
 6280SOL    HW230477   4.480   3.632   5.449  0.7203 -0.3360  2.8946
 6281SOL     OW30478   4.555   2.433  10.441 -0.1569 -0.5494 -0.6536
 6281SOL    HW130479   4.648   2.453  10.451 -0.1842  0.3533 -2.2695
 6281SOL    HW230480   4.560   2.339  10.457 -0.2981 -0.8439 -2.3042
 6282SOL     OW30481   3.065   4.078   3.101  0.3852  0.0262  0.1013
 6282SOL    HW130482   3.122   4.148   3.069  1.2938 -0.0924  1.4760
 6282SOL    HW230483   3.105   3.999   3.066  2.6560  0.8994  0.7484
 6283SOL     OW30484   1.525   4.430   4.037  0.0981  0.3329 -0.3715
 6283SOL    HW130485   1.530   4.334   4.037  1.8597  0.4093  0.9581
 6283SOL    HW230486   1.556   4.456   4.123 -1.4821 -1.0115  0.6045
 6284SOL     OW30487   3.251   3.076   1.529 -0.3896  0.3233 -0.0929
 6284SOL    HW130488   3.284   2.986   1.529 -3.0902 -0.6666  0.0839
 6284SOL    HW230489   3.161   3.069   1.561  0.2064 -0.6098  1.3643
 6285SOL     OW30490   3.417   0.984  14.722 -0.3849  0.1000 -0.4174
 6285SOL    HW130491   3.391   1.035  14.799 -0.1599 -0.6211  0.1319
 6285SOL    HW230492   3.338   0.931  14.710  0.0163 -0.1109 -2.0140
 6286SOL     OW30493   2.311   0.499   8.776 -0.0441 -0.5080  0.4992
 6286SOL    HW130494   2.240   0.534   8.830 -0.4027 -2.1167  1.0667
 6286SOL    HW230495   2.358   0.578   8.748  3.1902 -3.1575 -1.6114
 6287SOL     OW30496   3.719   2.421   7.578  0.2347  0.4821  0.4174
 6287SOL    HW130497   3.671   2.400   7.658  0.9464  1.4299  1.1003
 6287SOL    HW230498   3.686   2.349   7.524 -0.5146 -0.2575  1.8765
 6288SOL     OW30499   0.149   2.299   7.609  0.2026  0.0353 -0.3562
 6288SOL    HW130500   0.073   2.241   7.610 -0.0349  0.3259 -1.6669
 6288SOL    HW230501   0.146   2.332   7.519 -1.9449  0.2537 -0.2207
 6289SOL     OW30502   2.503   1.659   3.969 -0.0212 -0.3012  0.2358
 6289SOL    HW130503   2.581   1.616   3.935 -0.5587 -0.1533 -1.1595
 6289SOL    HW230504   2.511   1.747   3.930  1.8697 -1.2399 -1.4741
 6290SOL     OW30505   3.406   1.357  16.813  0.0572  0.0338 -0.8042
 6290SOL    HW130506   3.341   1.421  16.782  0.2053  0.6178  0.0635
 6290SOL    HW230507   3.445   1.329  16.731 -0.9047 -1.7154 -0.6634
 6291SOL     OW30508   1.460   2.398  11.322  0.3062 -0.4118  0.0483
 6291SOL    HW130509   1.462   2.304  11.304  4.7395 -0.0089 -1.6329
 6291SOL    HW230510   1.553   2.416  11.340  1.4755 -2.0898 -4.4152
 6292SOL     OW30511   1.212   4.570   2.379 -0.0639 -0.3022 -0.2247
 6292SOL    HW130512   1.174   4.611   2.457  1.2700  1.2817 -0.3889
 6292SOL    HW230513   1.271   4.638   2.344  0.3832 -0.9077 -0.6552
 6293SOL     OW30514   1.529   2.166   1.751 -0.0061 -0.6574 -0.8494
 6293SOL    HW130515   1.505   2.184   1.842 -0.2315  1.3143 -1.3049
 6293SOL    HW230516   1.591   2.238   1.742 -2.6608  1.5492 -1.3796
 6294SOL     OW30517   3.451   1.531   4.512  0.1817  0.1757 -0.0223
 6294SOL    HW130518   3.498   1.474   4.572 -1.2994  1.5581  2.4769
 6294SOL    HW230519   3.521   1.561   4.454  0.7219 -0.5325  0.2596
 6295SOL     OW30520   3.674   3.779   6.794  0.0215 -0.2644 -0.1272
 6295SOL    HW130521   3.644   3.814   6.710 -4.0168  2.0008  2.2792
 6295SOL    HW230522   3.763   3.751   6.770 -0.1246 -1.5196  0.8017
 6296SOL     OW30523   3.505   0.562   2.166  0.0787  0.2457  0.1832
 6296SOL    HW130524   3.431   0.590   2.221 -1.0244 -2.2524 -0.0257
 6296SOL    HW230525   3.552   0.504   2.225  1.9889  2.8891  1.2510
 6297SOL     OW30526   4.409   4.671   4.410  0.0469  1.2389  0.1935
 6297SOL    HW130527   4.334   4.627   4.449 -0.7576  0.8909 -1.7824
 6297SOL    HW230528   4.414   4.614   4.333  1.1705 -0.0609  1.2126
 6298SOL     OW30529   0.548   1.419   0.028 -0.6863  0.1075  0.2804
 6298SOL    HW130530   0.626   1.391   0.076 -1.2033  1.3182  1.7893
 6298SOL    HW230531   0.490   1.434   0.102 -1.8818  0.1819 -0.6740
 6299SOL     OW30532   1.344   0.670   7.750  0.4173 -0.3244 -0.6659
 6299SOL    HW130533   1.433   0.636   7.753  0.2799 -0.5029  1.4288
 6299SOL    HW230534   1.371   0.760   7.734 -0.5756 -0.0905 -1.0671
 6300SOL     OW30535   2.742   0.949   6.302  0.1534  0.4232 -0.8087
 6300SOL    HW130536   2.755   0.933   6.208  1.3906  0.6170 -0.6647
 6300SOL    HW230537   2.832   0.972   6.326  0.3704  0.7471 -1.9499
 6301SOL     OW30538   0.620   2.909   9.730 -0.3322  0.0563  0.2176
 6301SOL    HW130539   0.708   2.887   9.761 -0.7478  1.3819  2.3669
 6301SOL    HW230540   0.600   2.983   9.787 -2.2125 -0.5743  0.3417
 6302SOL     OW30541   1.361   3.192   8.484  0.3916 -0.1464  0.2532
 6302SOL    HW130542   1.414   3.122   8.445 -0.4899 -0.1456 -0.9655
 6302SOL    HW230543   1.276   3.148   8.493 -1.4749  3.2427 -0.6085
 6303SOL     OW30544   0.696   1.810  10.485 -0.2439  0.0880 -0.0820
 6303SOL    HW130545   0.655   1.739  10.535 -0.0984  0.3534  0.4167
 6303SOL    HW230546   0.625   1.833  10.425 -1.4504 -0.0505  1.2726
 6304SOL     OW30547   3.478   3.212  13.184  0.4749  0.2313  0.3654
 6304SOL    HW130548   3.465   3.168  13.100 -0.4877  2.8540 -0.8312
 6304SOL    HW230549   3.393   3.254  13.193 -0.4001 -1.1244 -1.5985
 6305SOL     OW30550   4.044   2.486   4.190  0.1618 -0.5204 -0.2921
 6305SOL    HW130551   4.010   2.483   4.100 -1.2354  0.9389  0.2000
 6305SOL    HW230552   4.122   2.432   4.176 -0.1874 -0.6239 -1.8315
 6306SOL     OW30553   2.538   1.300  17.438  0.1308 -0.5823 -0.3960
 6306SOL    HW130554   2.611   1.248  17.407  0.1502 -1.2296  0.7458
 6306SOL    HW230555   2.582   1.370  17.486  0.9892 -1.8330  0.6236
 6307SOL     OW30556   0.723   2.386   2.859  0.0784 -0.2967 -0.1983
 6307SOL    HW130557   0.815   2.391   2.885  0.7275 -0.7045 -2.4257
 6307SOL    HW230558   0.725   2.297   2.824 -0.2667 -0.4370  0.1359
 6308SOL     OW30559   0.101   1.536   0.806  0.3112  0.0418  0.1853
 6308SOL    HW130560   0.020   1.489   0.821 -0.3135  0.6170 -1.3922
 6308SOL    HW230561   0.113   1.527   0.712  0.0627 -3.9946  0.5339
 6309SOL     OW30562   2.955   1.764   6.297  0.1407  0.6176 -0.2366
 6309SOL    HW130563   2.985   1.745   6.386  0.0157  0.6989 -0.1776
 6309SOL    HW230564   2.871   1.717   6.293 -0.1506  1.1230 -0.0013
 6310SOL     OW30565   3.658   0.307   9.457 -0.2883 -0.1767  0.4006
 6310SOL    HW130566   3.720   0.251   9.410 -1.3198 -1.7697  0.9260
 6310SOL    HW230567   3.660   0.266   9.543 -0.3641 -0.0627  0.4573
 6311SOL     OW30568   1.155   0.096   8.803 -0.0832 -1.0496  0.0432
 6311SOL    HW130569   1.170   0.089   8.709  0.3808 -2.6458  0.2318
 6311SOL    HW230570   1.242   0.073   8.838  0.3961  2.2343  0.9894
 6312SOL     OW30571   1.301   2.207   8.505  0.3930 -0.2589  0.3704
 6312SOL    HW130572   1.236   2.249   8.448 -0.5456 -1.5229  0.5094
 6312SOL    HW230573   1.283   2.233   8.596 -0.2396  2.1163 -0.4295
 6313SOL     OW30574   0.083   1.839   3.916  0.0227 -0.1041  0.2152
 6313SOL    HW130575   0.011   1.800   3.964 -0.8234  1.6364  0.3657
 6313SOL    HW230576   0.047   1.829   3.828  0.6426 -1.9124  0.1658
 6314SOL     OW30577   0.364   1.055   3.285  0.5004  0.4866  0.0442
 6314SOL    HW130578   0.380   1.022   3.373  1.5670  1.3527  0.1728
 6314SOL    HW230579   0.437   1.018   3.235  0.6473  0.3012  0.3981
 6315SOL     OW30580   4.614   1.581  15.002 -0.3983 -0.1930 -0.1212
 6315SOL    HW130581   4.689   1.602  15.057 -0.7989 -0.4718  0.5233
 6315SOL    HW230582   4.554   1.546  15.067 -0.1792  0.9065  0.6622
 6316SOL     OW30583   0.617   3.197   7.779 -0.0719 -0.0791  0.2244
 6316SOL    HW130584   0.683   3.266   7.785  0.7586 -1.2064  4.1726
 6316SOL    HW230585   0.539   3.252   7.789 -1.2342 -1.6091 -0.5412
 6317SOL     OW30586   1.144   2.421   5.574  0.4490  0.4851 -0.0183
 6317SOL    HW130587   1.227   2.459   5.544  0.2938  0.6969 -0.1784
 6317SOL    HW230588   1.115   2.488   5.635  0.3401  0.8699 -0.4898
 6318SOL     OW30589   2.404   2.453   2.358 -0.7158 -0.1294 -0.2451
 6318SOL    HW130590   2.498   2.455   2.340 -1.2994 -0.2766 -3.3399
 6318SOL    HW230591   2.394   2.367   2.399 -0.0844 -0.4718 -0.8078
 6319SOL     OW30592   0.169   1.898  13.060  0.0863  0.1017  0.0180
 6319SOL    HW130593   0.242   1.897  12.998  1.2336 -2.4890  1.4636
 6319SOL    HW230594   0.153   1.808  13.086 -2.8992 -0.0622 -2.2733
 6320SOL     OW30595   2.437   0.334  15.100  0.1968 -0.6540  0.3992
 6320SOL    HW130596   2.408   0.424  15.089  0.2440 -0.5099  1.4546
 6320SOL    HW230597   2.362   0.279  15.123 -0.6638 -0.1172 -1.1868
 6321SOL     OW30598   3.396   2.714   4.937 -0.1141 -0.4284  0.6183
 6321SOL    HW130599   3.490   2.732   4.931 -0.3381  0.2335 -0.9777
 6321SOL    HW230600   3.364   2.794   4.978 -1.9154 -0.3256 -0.9730
 6322SOL     OW30601   0.191   3.375  11.087 -0.2840  0.6875  1.0662
 6322SOL    HW130602   0.226   3.424  11.161  0.3770 -0.8880  1.8030
 6322SOL    HW230603   0.204   3.284  11.115  0.4019  0.7564  0.9716
 6323SOL     OW30604   0.074   4.106   2.302  0.2870 -0.3567 -0.0681
 6323SOL    HW130605   0.169   4.092   2.309  0.8298  1.3902 -3.6193
 6323SOL    HW230606   0.075   4.179   2.364  0.1519 -0.4560  0.0497
 6324SOL     OW30607   2.474   0.582   0.691  0.1112 -0.3856  0.2617
 6324SOL    HW130608   2.458   0.673   0.668  2.4609  0.0023  0.1632
 6324SOL    HW230609   2.388   0.548   0.666  0.0550  1.0191 -1.4145
 6325SOL     OW30610   2.308   3.149   1.297 -0.3486  0.8182 -0.0558
 6325SOL    HW130611   2.272   3.070   1.257  0.2438 -0.8222  2.6374
 6325SOL    HW230612   2.266   3.136   1.382 -0.0584  0.7415  0.0725
 6326SOL     OW30613   2.798   3.494   3.120 -0.7550  0.2446 -0.2937
 6326SOL    HW130614   2.837   3.501   3.033 -1.0525  0.6189 -0.3945
 6326SOL    HW230615   2.774   3.584   3.140 -1.9647 -0.0584 -0.3691
 6327SOL     OW30616   0.553   1.008  15.518  0.6092 -0.5420 -0.0810
 6327SOL    HW130617   0.637   1.049  15.538  0.5764 -0.5325  0.0357
 6327SOL    HW230618   0.576   0.916  15.517 -1.0839 -0.9644 -0.4116
 6328SOL     OW30619   3.581   0.377   7.838  0.4550  0.4250 -0.4672
 6328SOL    HW130620   3.664   0.424   7.828  0.2438  1.4191  2.7062
 6328SOL    HW230621   3.538   0.423   7.910 -0.1244 -0.2034 -0.4083
 6329SOL     OW30622   1.213   2.119   3.458  0.0738 -0.3224  0.2183
 6329SOL    HW130623   1.268   2.154   3.388 -1.6288  1.1068 -0.4020
 6329SOL    HW230624   1.169   2.043   3.422 -0.3937  0.2039 -0.3193
 6330SOL     OW30625   0.168   1.793  15.122  0.0215  0.3261 -0.4946
 6330SOL    HW130626   0.262   1.776  15.118 -0.0684 -0.0029 -1.1240
 6330SOL    HW230627   0.152   1.787  15.216  1.5127  2.6081 -0.1029
 6331SOL     OW30628   0.982   2.922  14.234 -0.3816  0.0774  0.1432
 6331SOL    HW130629   0.920   2.963  14.294  0.2032 -1.3303  1.7208
 6331SOL    HW230630   0.927   2.859  14.187 -1.7741  0.1838  1.6642
 6332SOL     OW30631   4.715   2.156   7.281 -0.1771 -0.8742 -0.4277
 6332SOL    HW130632   0.014   2.245   7.268  0.5228 -1.3407 -1.8323
 6332SOL    HW230633   4.728   2.122   7.193  0.3053 -1.6329 -0.0692
 6333SOL     OW30634   3.426   4.541   7.557  0.1512  0.0678  0.0457
 6333SOL    HW130635   3.373   4.555   7.636  1.2677 -2.1771  1.2150
 6333SOL    HW230636   3.462   4.456   7.583 -1.1412 -0.4472  0.1165
 6334SOL     OW30637   3.269   1.041   9.410 -0.1670  0.2891  0.1601
 6334SOL    HW130638   3.306   1.114   9.361  0.7590 -0.0802  0.3142
 6334SOL    HW230639   3.320   0.968   9.375 -0.7304  0.2013 -0.4814
 6335SOL     OW30640   0.409   1.718   2.416  0.0932 -0.0038  0.5432
 6335SOL    HW130641   0.374   1.629   2.418 -1.6271  0.6794  0.6946
 6335SOL    HW230642   0.501   1.706   2.394 -0.3610 -1.7018 -0.3925
 6336SOL     OW30643   2.820   0.064   1.345  0.4855 -0.4713 -0.5016
 6336SOL    HW130644   2.799   0.144   1.298 -2.0542 -1.4177 -1.0039
 6336SOL    HW230645   2.865   0.099   1.421  0.2992  0.2771 -0.7361
 6337SOL     OW30646   1.057   1.322  10.058 -0.2806 -0.5138  0.0576
 6337SOL    HW130647   0.987   1.273  10.016  0.4348 -0.8267 -0.7557
 6337SOL    HW230648   1.113   1.358   9.990 -0.4769 -1.4912 -0.6136
 6338SOL     OW30649   4.685   0.437   3.707 -0.1374 -0.2461  0.3279
 6338SOL    HW130650   0.039   0.477   3.717 -0.2378 -0.0857  0.5529
 6338SOL    HW230651   4.676   0.387   3.787  0.4646  0.6791  0.9740
 6339SOL     OW30652   2.645   0.367   3.580 -0.3275  1.1697  0.3989
 6339SOL    HW130653   2.693   0.438   3.623  0.0412 -1.0577  3.6336
 6339SOL    HW230654   2.642   0.398   3.489  3.1830 -0.6237 -0.3512
 6340SOL     OW30655   3.493   1.526  14.948 -0.3441 -0.0298  0.4110
 6340SOL    HW130656   3.407   1.552  14.913 -0.2024  0.0803  0.1395
 6340SOL    HW230657   3.530   1.604  14.990 -1.6997  0.0604  1.4335
 6341SOL     OW30658   3.789   2.564   8.271  0.4201  0.2957 -0.2216
 6341SOL    HW130659   3.867   2.563   8.216  0.1494  1.9062 -0.6142
 6341SOL    HW230660   3.813   2.503   8.341 -0.9862 -1.0343 -0.8864
 6342SOL     OW30661   0.051   1.971  10.479 -0.2779 -0.2099  0.0644
 6342SOL    HW130662   0.012   1.955  10.565 -1.2329 -0.7398 -0.4800
 6342SOL    HW230663   0.045   1.886  10.437 -1.9335 -0.4421  0.7621
 6343SOL     OW30664   1.647   1.761   7.346  0.2866  0.4215 -0.1603
 6343SOL    HW130665   1.689   1.727   7.267 -1.7693  1.9051 -1.8926
 6343SOL    HW230666   1.718   1.747   7.409  1.8942 -0.3379 -2.1503
 6344SOL     OW30667   2.494   3.731   2.574 -0.2763  0.1816  0.0164
 6344SOL    HW130668   2.465   3.642   2.594  0.5093  0.1324  0.9185
 6344SOL    HW230669   2.454   3.781   2.645 -0.5592 -0.1091  0.0612
 6345SOL     OW30670   3.207   1.459   3.501 -1.0191 -0.2108 -0.9272
 6345SOL    HW130671   3.219   1.523   3.571 -0.1061  0.9698 -2.1772
 6345SOL    HW230672   3.234   1.379   3.547 -0.8832 -0.0516 -0.7310
 6346SOL     OW30673   2.537   3.728   4.749 -0.1251  0.2135 -0.0131
 6346SOL    HW130674   2.577   3.655   4.701  0.2045  0.6690 -0.4377
 6346SOL    HW230675   2.448   3.709   4.719 -0.2833 -0.0351  0.6047
 6347SOL     OW30676   1.910   1.253   5.299 -0.2109  0.2009 -0.0649
 6347SOL    HW130677   1.953   1.327   5.344  1.0387 -0.8199  0.4064
 6347SOL    HW230678   1.820   1.265   5.329 -0.4160 -0.1247 -0.5617
 6348SOL     OW30679   0.113   2.567  17.656 -0.2515 -0.0374 -0.7614
 6348SOL    HW130680   0.141   2.476  17.668 -0.9570 -0.2602 -0.8205
 6348SOL    HW230681   0.176   2.604  17.594 -0.1312  3.2708  1.3259
 6349SOL     OW30682   3.777   4.423  14.301  0.3835  0.0894  0.6597
 6349SOL    HW130683   3.693   4.383  14.321  0.9554 -0.8247  1.2334
 6349SOL    HW230684   3.784   4.478  14.379 -1.2464 -0.3151  1.0909
 6350SOL     OW30685   4.411   4.576  16.022 -0.1957  0.3311 -0.3480
 6350SOL    HW130686   4.496   4.579  16.064  0.7840 -0.3873 -2.2937
 6350SOL    HW230687   4.442   4.571  15.931  0.9017  1.0801 -0.0113
 6351SOL     OW30688   2.796   3.447   2.154 -0.3931 -0.2855  0.4184
 6351SOL    HW130689   2.835   3.388   2.218  0.7496  0.4258  0.3952
 6351SOL    HW230690   2.720   3.398   2.126 -0.1793 -0.3961  0.0351
 6352SOL     OW30691   1.867   2.271   7.136  0.1903 -0.3641  0.1128
 6352SOL    HW130692   1.955   2.273   7.174  0.6095 -0.9096 -0.8284
 6352SOL    HW230693   1.901   2.268   7.046  1.1911  1.0616  0.4370
 6353SOL     OW30694   3.817   1.551  16.485  0.2899  0.4863  0.4526
 6353SOL    HW130695   3.839   1.604  16.408  0.7622 -1.0483 -0.4716
 6353SOL    HW230696   3.730   1.586  16.499 -1.0930 -2.7505 -0.1464
 6354SOL     OW30697   1.616   3.374   7.916 -0.5432  0.0529  0.0453
 6354SOL    HW130698   1.629   3.459   7.872 -0.6542  0.5711  1.0191
 6354SOL    HW230699   1.521   3.358   7.919 -0.7551  1.0711 -0.9974
 6355SOL     OW30700   1.014   2.967   8.004 -0.5414 -0.4726  0.1796
 6355SOL    HW130701   1.032   3.003   7.918 -1.9325 -2.2360 -0.8553
 6355SOL    HW230702   0.922   2.992   8.012 -0.1255  0.8985  0.6556
 6356SOL     OW30703   0.270   1.951   7.010 -0.5501 -0.3270  0.1397
 6356SOL    HW130704   0.274   2.014   7.082  1.5332  1.2982 -1.3991
 6356SOL    HW230705   0.313   1.996   6.937  0.0299  1.0061  1.3021
 6357SOL     OW30706   4.571   4.512   8.765  0.2582  0.2059 -0.2103
 6357SOL    HW130707   4.661   4.482   8.762  0.0963 -0.3670  0.4567
 6357SOL    HW230708   4.533   4.445   8.823  1.8572  0.3313  0.9866
 6358SOL     OW30709   3.633   2.321   7.896  0.1842  0.4896 -0.6527
 6358SOL    HW130710   3.580   2.272   7.833 -1.3179  0.9674  0.2495
 6358SOL    HW230711   3.644   2.263   7.972  0.7254 -0.4609 -1.4631
 6359SOL     OW30712   2.521   4.643  13.720  0.1554  0.2750  0.2499
 6359SOL    HW130713   2.470   4.724  13.717  0.5606  0.6559  3.3858
 6359SOL    HW230714   2.467   4.588  13.777 -0.1806  0.4550  0.1063
 6360SOL     OW30715   1.716   1.078   8.664 -0.0345 -0.4099 -0.5122
 6360SOL    HW130716   1.713   1.097   8.758  2.4418  2.0580 -0.9132
 6360SOL    HW230717   1.724   0.983   8.668 -2.9837 -0.6414 -0.4602
 6361SOL     OW30718   0.430   2.245   9.889 -0.0181  0.3710 -0.2772
 6361SOL    HW130719   0.480   2.296   9.952  1.2287  2.0160 -2.5881
 6361SOL    HW230720   0.478   2.284   9.816 -0.3004 -0.9112 -1.1477
 6362SOL     OW30721   3.691   3.986   9.348 -0.6460  0.1816  0.5822
 6362SOL    HW130722   3.748   3.909   9.345  2.2355  2.3857 -1.0256
 6362SOL    HW230723   3.740   4.045   9.405 -0.1344  1.9753 -1.7284
 6363SOL     OW30724   3.082   3.702   5.582  0.1613  0.3757  0.5332
 6363SOL    HW130725   3.152   3.675   5.642  0.2287 -1.7437 -0.4855
 6363SOL    HW230726   3.040   3.767   5.639 -0.5101 -0.7655  1.3382
 6364SOL     OW30727   1.117   3.966  14.852  0.2638  0.5503 -0.2007
 6364SOL    HW130728   1.040   3.927  14.812 -0.2081 -1.4446  2.6792
 6364SOL    HW230729   1.086   4.056  14.842 -2.2315 -0.5688 -2.5264
 6365SOL     OW30730   0.192   4.662   3.683 -0.0184  0.0601 -0.4195
 6365SOL    HW130731   0.176   4.580   3.636  0.2891  0.5493 -1.3728
 6365SOL    HW230732   0.102   4.695   3.693  0.1554  0.7426 -1.1863
 6366SOL     OW30733   1.245   4.304   6.428  0.1692  0.2860  0.2668
 6366SOL    HW130734   1.205   4.296   6.515  2.3518 -1.4047  1.1117
 6366SOL    HW230735   1.178   4.259   6.377 -0.2944  1.3796 -0.1090
 6367SOL     OW30736   1.098   3.900   9.042  0.1926  0.3078 -0.3527
 6367SOL    HW130737   1.019   3.873   9.087 -1.1232  1.5966 -1.8916
 6367SOL    HW230738   1.145   3.967   9.092 -0.7100  0.7390 -0.0983
 6368SOL     OW30739   0.841   0.529  15.313 -0.1556 -0.0252  0.5443
 6368SOL    HW130740   0.829   0.450  15.366 -0.8613 -1.8464 -2.3344
 6368SOL    HW230741   0.925   0.570  15.337 -1.8837  1.5517  3.9104
 6369SOL     OW30742   4.210   3.724   6.743  0.4188  0.1619 -0.2910
 6369SOL    HW130743   4.284   3.754   6.690  0.6587  0.8867  0.4536
 6369SOL    HW230744   4.222   3.763   6.830 -1.8772 -0.5804  0.3754
 6370SOL     OW30745   4.196   4.257   3.677 -0.6724 -0.1312  0.0728
 6370SOL    HW130746   4.199   4.209   3.760  0.6676 -1.1160 -0.5288
 6370SOL    HW230747   4.286   4.236   3.651 -0.3877  0.3531  0.6898
 6371SOL     OW30748   2.687   0.710   5.866 -0.1918 -0.1841 -0.1975
 6371SOL    HW130749   2.703   0.624   5.828 -1.6701 -0.4814 -0.1343
 6371SOL    HW230750   2.650   0.763   5.794 -2.0277  0.3398  1.1346
 6372SOL     OW30751   1.902   4.662  15.075 -0.2871 -0.5679  0.0941
 6372SOL    HW130752   1.857   4.670  14.990 -1.3532 -0.4935  0.6591
 6372SOL    HW230753   1.830   4.636  15.133  0.6849  0.3117  1.6710
 6373SOL     OW30754   4.511   2.331  15.545 -0.2850  0.2593 -0.5981
 6373SOL    HW130755   4.524   2.236  15.540  1.6982  0.5494 -1.0177
 6373SOL    HW230756   4.584   2.349  15.486 -0.3708  1.7706 -0.2496
 6374SOL     OW30757   2.598   1.153   2.561 -0.2390 -0.8121 -0.2601
 6374SOL    HW130758   2.550   1.158   2.478 -1.3882  0.2347  0.4689
 6374SOL    HW230759   2.623   1.061   2.547 -0.7581 -1.0747  0.5720
 6375SOL     OW30760   1.086   0.916   5.697  0.0914 -0.1707  0.0233
 6375SOL    HW130761   1.158   0.912   5.761  0.4518 -0.2800 -0.3895
 6375SOL    HW230762   1.022   0.871   5.753 -0.2598  1.3290  0.8070
 6376SOL     OW30763   0.955   4.462   5.556  0.2893  0.3712 -0.4324
 6376SOL    HW130764   0.902   4.452   5.477  0.8538 -2.9412 -0.4080
 6376SOL    HW230765   1.020   4.524   5.522  0.0425  1.2559  0.7039
 6377SOL     OW30766   3.751   0.187   8.448  0.3794 -0.0668 -0.1803
 6377SOL    HW130767   3.733   0.189   8.542 -2.6382  4.0777 -0.8421
 6377SOL    HW230768   3.679   0.244   8.420  1.2531  0.4204 -1.4107
 6378SOL     OW30769   2.261   1.245   6.336  0.0419  0.1124 -0.2069
 6378SOL    HW130770   2.200   1.237   6.263 -0.9167  3.5767  0.2272
 6378SOL    HW230771   2.342   1.275   6.294 -0.1129 -0.0237 -0.6098
 6379SOL     OW30772   3.162   0.172   7.830 -0.1311  0.2803  0.2656
 6379SOL    HW130773   3.135   0.239   7.892  0.9594  0.5726  0.4382
 6379SOL    HW230774   3.181   0.219   7.749  0.2810  0.2345  0.3320
 6380SOL     OW30775   3.201   0.189   4.837 -0.3922  0.4902 -0.5277
 6380SOL    HW130776   3.253   0.110   4.825 -1.9865 -0.9683  2.2336
 6380SOL    HW230777   3.131   0.176   4.774  0.2672 -0.8902 -0.9797
 6381SOL     OW30778   2.643   2.118   2.990 -0.2524 -0.5453  0.1148
 6381SOL    HW130779   2.580   2.183   3.020 -2.1053 -1.3284 -2.0953
 6381SOL    HW230780   2.712   2.124   3.057 -0.1665 -1.6675  0.1150
 6382SOL     OW30781   2.831   0.518   7.535 -0.0662 -0.6968 -0.1465
 6382SOL    HW130782   2.859   0.431   7.563  0.0897 -0.7472 -0.4665
 6382SOL    HW230783   2.775   0.505   7.458  0.0806  1.0409 -0.5336
 6383SOL     OW30784   3.353   0.132   8.914  0.0705 -0.5491  0.6082
 6383SOL    HW130785   3.294   0.172   8.850  1.8239 -1.4423 -1.5873
 6383SOL    HW230786   3.335   0.041   8.891  3.0397 -1.2930  1.1624
 6384SOL     OW30787   3.031   4.139  13.754 -0.8052 -0.3495 -0.2916
 6384SOL    HW130788   2.976   4.151  13.677 -1.0974 -0.4314 -0.0967
 6384SOL    HW230789   2.969   4.090  13.808 -2.0093  1.7544  0.2195
 6385SOL     OW30790   3.386   1.398   2.349  0.2597 -0.3104  0.3258
 6385SOL    HW130791   3.325   1.431   2.415 -0.6816  0.6538 -1.0250
 6385SOL    HW230792   3.352   1.319   2.307  1.1560 -0.4347 -0.1490
 6386SOL     OW30793   4.059   0.791   7.966 -0.0382  0.0825  0.1401
 6386SOL    HW130794   4.099   0.877   7.975  1.2028 -0.3280 -1.4758
 6386SOL    HW230795   4.083   0.755   8.051 -1.0347  1.4113  0.9880
 6387SOL     OW30796   2.533   0.801   7.636  0.0402  0.4347 -0.4052
 6387SOL    HW130797   2.578   0.747   7.571  2.0272 -0.6039  1.8563
 6387SOL    HW230798   2.506   0.872   7.576 -1.1669  1.2102  1.0667
 6388SOL     OW30799   3.238   1.696   0.128  0.3398  0.5803  0.1168
 6388SOL    HW130800   3.270   1.678   0.039 -0.3282  1.7895 -0.3689
 6388SOL    HW230801   3.311   1.750   0.157 -0.6370  1.8016  0.2947
 6389SOL     OW30802   2.365   3.184   3.960  0.3354 -0.0758 -0.3201
 6389SOL    HW130803   2.400   3.162   4.046 -0.4888 -0.0987  0.0075
 6389SOL    HW230804   2.430   3.139   3.906  0.7627  0.0039  0.1221
 6390SOL     OW30805   3.185   4.164   6.664  0.2480 -0.0959  0.0135
 6390SOL    HW130806   3.090   4.172   6.670  0.5005  2.2564  0.9696
 6390SOL    HW230807   3.209   4.177   6.756  0.9464 -2.5922  0.1856
 6391SOL     OW30808   2.234   2.178   8.706 -0.2561  0.0197  0.1474
 6391SOL    HW130809   2.257   2.209   8.619  0.4749  3.0834  1.4326
 6391SOL    HW230810   2.241   2.262   8.751  1.0547 -0.2032  0.3692
 6392SOL     OW30811   0.299   0.085   5.697 -0.8250  0.2744 -0.0086
 6392SOL    HW130812   0.299   0.075   5.601  0.6152  1.3958 -0.1119
 6392SOL    HW230813   0.391   0.103   5.717 -0.6509 -0.8940  0.2745
 6393SOL     OW30814   2.143   3.752   8.591  0.7044  0.7032 -0.4711
 6393SOL    HW130815   2.167   3.707   8.673 -0.5055 -0.3909 -0.7175
 6393SOL    HW230816   2.216   3.736   8.532  2.5875  0.5219  1.8656
 6394SOL     OW30817   2.880   4.161   7.231 -0.3956 -0.0484  0.2297
 6394SOL    HW130818   2.929   4.200   7.303 -0.5115  2.1289 -0.8486
 6394SOL    HW230819   2.909   4.070   7.240 -0.1634  0.1637  1.5687
 6395SOL     OW30820   1.473   1.833   8.436 -0.0003  0.6895  0.0282
 6395SOL    HW130821   1.425   1.771   8.490  0.4031  1.4986  1.3261
 6395SOL    HW230822   1.460   1.912   8.489  1.4597 -0.1202  1.5778
 6396SOL     OW30823   2.972   3.198   5.031 -0.0737  0.0113 -0.2464
 6396SOL    HW130824   3.046   3.214   4.973  0.3071 -0.0549  0.2192
 6396SOL    HW230825   3.005   3.120   5.077 -2.9061  0.8902  3.3187
 6397SOL     OW30826   3.584   4.545   8.407  0.1792 -0.3402  0.1809
 6397SOL    HW130827   3.671   4.527   8.374 -0.5180 -1.2607 -1.1485
 6397SOL    HW230828   3.599   4.570   8.498 -0.7806 -0.1068  0.2819
 6398SOL     OW30829   3.040   1.073   7.606  0.1415 -0.0101  0.0987
 6398SOL    HW130830   3.115   1.019   7.629 -1.1414 -0.4537  3.2343
 6398SOL    HW230831   3.030   1.147   7.665  1.1481  1.7210 -1.9066
 6399SOL     OW30832   4.261   4.563   2.170 -0.7416 -0.5431 -0.4639
 6399SOL    HW130833   4.296   4.624   2.235  0.6603  0.5181 -2.2137
 6399SOL    HW230834   4.322   4.490   2.163 -1.4907 -0.9651 -2.5610
 6400SOL     OW30835   1.009   4.282   8.881 -0.0637 -0.0737  0.3815
 6400SOL    HW130836   0.976   4.318   8.799  1.7424  1.1172  0.1636
 6400SOL    HW230837   1.071   4.348   8.912  0.3635  0.4783 -1.6833
 6401SOL     OW30838   1.179   4.596   4.256  0.0535 -0.5225 -0.0443
 6401SOL    HW130839   1.258   4.542   4.252  0.3945 -0.1732  1.8922
 6401SOL    HW230840   1.119   4.556   4.193 -1.7607  0.8379  0.8079
 6402SOL     OW30841   4.332   4.520  15.121 -0.2417  0.3178  0.4741
 6402SOL    HW130842   4.388   4.459  15.168 -0.3564  0.6305  1.0071
 6402SOL    HW230843   4.318   4.467  15.042  0.0181  1.3110 -0.2494
 6403SOL     OW30844   4.453   0.567   3.702  0.4514  0.2252 -0.6055
 6403SOL    HW130845   4.528   0.508   3.696 -0.5256 -0.8768 -1.9722
 6403SOL    HW230846   4.470   0.644   3.649 -0.7004 -0.0956 -1.4392
 6404SOL     OW30847   2.409   0.646  13.721  0.2620 -0.3805  0.2633
 6404SOL    HW130848   2.370   0.717  13.773 -1.5656  0.4852 -2.3119
 6404SOL    HW230849   2.469   0.685  13.657 -0.3957  3.0717  1.7607
 6405SOL     OW30850   0.694   3.032   9.493 -0.2364 -0.2063  0.1083
 6405SOL    HW130851   0.661   2.984   9.570 -1.3177 -1.5253 -1.1639
 6405SOL    HW230852   0.779   3.067   9.519  1.1375 -2.0274 -1.9569
 6406SOL     OW30853   1.270   1.974  16.499  0.0018 -0.2319  0.4305
 6406SOL    HW130854   1.276   2.062  16.460  1.5008  0.3112  1.8546
 6406SOL    HW230855   1.181   1.956  16.471  0.1436  1.5507 -1.2306
 6407SOL     OW30856   2.372   1.573   8.941  0.3067 -0.3754  0.1471
 6407SOL    HW130857   2.356   1.597   9.032 -0.5604 -1.4330  0.2732
 6407SOL    HW230858   2.429   1.647   8.921  1.7489 -1.3664  0.6331
 6408SOL     OW30859   0.537   3.867  17.505 -0.0016 -0.2411 -0.5461
 6408SOL    HW130860   0.599   3.923  17.552  0.6777  0.5372 -2.3776
 6408SOL    HW230861   0.454   3.865  17.553  1.4429 -1.1739  1.9040
 6409SOL     OW30862   2.133   0.410   6.549  0.7039 -0.5948  0.0090
 6409SOL    HW130863   2.194   0.473   6.510  1.4281 -2.1822 -1.3821
 6409SOL    HW230864   2.175   0.402   6.635 -0.9776 -2.1345  0.6774
 6410SOL     OW30865   3.623   0.979   2.889  0.0043 -0.0765 -0.2864
 6410SOL    HW130866   3.673   1.061   2.890  0.8713 -0.6414  2.9647
 6410SOL    HW230867   3.545   1.004   2.839 -0.6778  1.0419  1.3034
 6411SOL     OW30868   0.559   2.958  14.935 -0.1095  0.2436 -0.3403
 6411SOL    HW130869   0.563   2.941  15.029 -0.4577 -1.7812 -0.6847
 6411SOL    HW230870   0.503   2.884  14.913 -0.0357  0.2937 -0.7109
 6412SOL     OW30871   2.458   3.594   6.032 -0.6283  0.2106 -0.3440
 6412SOL    HW130872   2.427   3.681   6.054 -0.3214  0.5646 -1.3086
 6412SOL    HW230873   2.447   3.603   5.937  0.4950 -1.5268 -0.6547
 6413SOL     OW30874   3.747   2.270   4.052  0.9839 -0.5283  0.0125
 6413SOL    HW130875   3.753   2.306   4.141 -0.9723 -0.2536  0.0247
 6413SOL    HW230876   3.732   2.179   4.077  0.8686 -0.4615  0.1818
 6414SOL     OW30877   0.145   3.626  12.533 -0.4862  0.3392 -0.1961
 6414SOL    HW130878   0.170   3.696  12.473 -1.9505 -0.5271 -1.8066
 6414SOL    HW230879   0.171   3.549  12.483  0.0255 -0.2358  0.9608
 6415SOL     OW30880   1.193   4.096   4.829  0.3480 -0.6194  0.2597
 6415SOL    HW130881   1.122   4.041   4.860 -2.1569  1.0301 -2.5365
 6415SOL    HW230882   1.219   4.143   4.909  0.4213 -0.8763  0.3867
 6416SOL     OW30883   3.789   3.304   4.158  0.0250 -0.5438 -0.2842
 6416SOL    HW130884   3.763   3.224   4.204 -0.9466 -0.7810 -1.2531
 6416SOL    HW230885   3.843   3.337   4.230  0.5121 -1.0905 -0.4005
 6417SOL     OW30886   1.136   1.720  16.436 -0.0131 -0.0464 -0.6237
 6417SOL    HW130887   1.143   1.627  16.414 -1.0191 -0.2213 -0.2100
 6417SOL    HW230888   1.102   1.709  16.525 -0.2424  1.5116 -0.5289
 6418SOL     OW30889   0.224   2.899  11.498 -0.0999 -0.0621  0.5692
 6418SOL    HW130890   0.276   2.896  11.578 -0.1548 -1.0489  0.5621
 6418SOL    HW230891   0.275   2.853  11.432  0.5990 -0.5839  1.4868
 6419SOL     OW30892   3.993   1.517   5.791 -0.5731 -0.2129 -0.5881
 6419SOL    HW130893   4.010   1.595   5.738 -0.4078  1.1715  1.5055
 6419SOL    HW230894   3.900   1.533   5.807 -0.3519  3.0245 -2.5214
 6420SOL     OW30895   1.275   1.115   4.834 -0.3199  0.5661 -0.0297
 6420SOL    HW130896   1.307   1.176   4.768 -0.3583 -1.4581 -1.9214
 6420SOL    HW230897   1.355   1.063   4.841 -2.1354 -2.3794 -1.1236
 6421SOL     OW30898   0.436   4.150  17.274  0.5646 -0.1406  0.5565
 6421SOL    HW130899   0.396   4.227  17.235  0.3255 -0.7189 -0.3540
 6421SOL    HW230900   0.523   4.173  17.304  0.9334  0.1570 -0.7347
 6422SOL     OW30901   0.086   2.469  10.470  0.2917 -0.2427 -0.2890
 6422SOL    HW130902   0.150   2.421  10.522  0.6951 -1.1907 -1.6504
 6422SOL    HW230903   0.054   2.537  10.529  0.1301 -1.7375  1.3381
 6423SOL     OW30904   3.307   3.409   9.857  0.2823 -0.2153 -0.1291
 6423SOL    HW130905   3.243   3.480   9.867 -0.1270 -0.4027 -1.4254
 6423SOL    HW230906   3.340   3.406   9.947  0.0440 -0.5245 -0.0515
 6424SOL     OW30907   2.761   3.929   5.202 -0.2264 -0.2057 -0.0697
 6424SOL    HW130908   2.700   3.863   5.237 -1.3059 -0.2887 -2.1056
 6424SOL    HW230909   2.756   3.910   5.109  0.8534 -2.0476  0.2529
 6425SOL     OW30910   0.373   2.952  17.109  0.5150 -0.1829 -0.0030
 6425SOL    HW130911   0.440   2.903  17.158  0.4811  0.6612  0.8919
 6425SOL    HW230912   0.327   2.870  17.091  0.2347 -1.0584  4.5597
 6426SOL     OW30913   1.951   2.286   7.614 -0.5080  0.2912  0.1228
 6426SOL    HW130914   2.023   2.247   7.663 -0.0359  0.8146 -0.1492
 6426SOL    HW230915   1.923   2.218   7.553  3.2298  0.0287 -1.2659
 6427SOL     OW30916   3.050   2.353  11.007  0.2714 -0.3926 -0.1742
 6427SOL    HW130917   2.957   2.369  10.993  0.6574  0.6899 -1.6195
 6427SOL    HW230918   3.049   2.308  11.091 -2.4944 -0.0750 -0.0355
 6428SOL     OW30919   1.264   3.466   4.135  0.0217 -0.0319 -0.6127
 6428SOL    HW130920   1.176   3.494   4.159 -0.3107 -1.0732 -0.6386
 6428SOL    HW230921   1.293   3.536   4.077 -0.6387  2.3496  1.9153
 6429SOL     OW30922   4.452   3.371   4.283 -0.6908 -0.4605  0.4235
 6429SOL    HW130923   4.469   3.280   4.257  0.9009 -0.3186  0.9537
 6429SOL    HW230924   4.434   3.411   4.198  0.0993 -1.6039 -0.2879
 6430SOL     OW30925   3.589   4.472  12.078  0.0393 -0.0070 -0.3101
 6430SOL    HW130926   3.674   4.431  12.061  0.2760 -0.1675  1.1918
 6430SOL    HW230927   3.536   4.407  12.032 -0.1234  0.3657 -0.6430
 6431SOL     OW30928   2.863   2.522  12.855  0.7357  0.0765 -0.2909
 6431SOL    HW130929   2.836   2.606  12.890 -0.7913 -0.4366 -0.2360
 6431SOL    HW230930   2.875   2.460  12.927 -0.9412  0.1946  0.0800
 6432SOL     OW30931   4.309   0.304  10.573 -0.0655 -0.2061 -0.4480
 6432SOL    HW130932   4.220   0.278  10.598  0.4696  0.2692  1.9370
 6432SOL    HW230933   4.314   0.396  10.597  1.1465 -0.1384 -0.9581
 6433SOL     OW30934   3.616   3.939   6.038 -0.4274  0.0543 -0.2055
 6433SOL    HW130935   3.629   3.990   5.959 -0.3138 -1.4984 -1.1911
 6433SOL    HW230936   3.543   3.881   6.014 -0.2577 -0.7326  1.1551
 6434SOL     OW30937   2.394   2.792  15.572 -0.2248  0.2914 -0.0776
 6434SOL    HW130938   2.387   2.860  15.505 -1.4832  3.0924  2.8911
 6434SOL    HW230939   2.384   2.712  15.521  1.3352 -0.7348  1.2566
 6435SOL     OW30940   1.336   1.334   4.372 -0.4714  0.0351 -0.2189
 6435SOL    HW130941   1.347   1.415   4.421 -1.2332  0.8603 -1.4177
 6435SOL    HW230942   1.278   1.279   4.425 -2.5118 -0.3884 -2.9172
 6436SOL     OW30943   2.749   4.170   0.565  0.0957  0.1898  0.5409
 6436SOL    HW130944   2.741   4.095   0.622  0.4589  0.6746  1.2284
 6436SOL    HW230945   2.696   4.149   0.488  1.0198 -0.3161  0.0532
 6437SOL     OW30946   2.868   1.764   2.665 -0.2432 -0.0493 -0.5365
 6437SOL    HW130947   2.860   1.842   2.721  2.4435  0.4511 -0.8181
 6437SOL    HW230948   2.898   1.804   2.583 -0.7591  2.2104  0.3909
 6438SOL     OW30949   4.494   2.466   6.047  0.0883 -0.4745  0.0204
 6438SOL    HW130950   4.496   2.453   5.952 -0.2946 -1.6737  0.1843
 6438SOL    HW230951   4.399   2.457   6.055 -0.1746  1.2752 -1.0163
 6439SOL     OW30952   2.584   2.336   3.272 -0.3356  0.3920  0.1419
 6439SOL    HW130953   2.523   2.321   3.199 -0.5033  2.1043 -0.0673
 6439SOL    HW230954   2.653   2.274   3.249  0.5323  1.2285  0.5504
 6440SOL     OW30955   2.444   2.761   3.431  0.1661  1.1808  0.3555
 6440SOL    HW130956   2.433   2.743   3.525  0.0329 -2.3752 -0.3440
 6440SOL    HW230957   2.361   2.731   3.394 -0.2334 -0.2812  2.4184
 6441SOL     OW30958   2.298   0.739   3.467  0.5704 -0.0455  0.1985
 6441SOL    HW130959   2.212   0.698   3.479 -1.1124  3.3438 -0.2543
 6441SOL    HW230960   2.283   0.784   3.384 -0.0302 -0.6946 -0.0497
 6442SOL     OW30961   1.911   0.527  17.563 -0.1863  0.0193 -0.0408
 6442SOL    HW130962   1.907   0.588  17.489  2.8450  2.5692  1.9021
 6442SOL    HW230963   1.937   0.584  17.635 -1.8445 -0.5023  0.9713
 6443SOL     OW30964   0.250   3.760   8.443 -0.5784  0.3918  0.3097
 6443SOL    HW130965   0.211   3.775   8.357 -2.8262  2.8968  1.7728
 6443SOL    HW230966   0.319   3.698   8.418 -0.0575  1.5236 -1.1151
 6444SOL     OW30967   0.813   3.262   6.575 -0.7214 -0.5781  1.1393
 6444SOL    HW130968   0.839   3.171   6.590 -0.6794 -0.9536 -1.3008
 6444SOL    HW230969   0.812   3.310   6.658  0.7794  2.6564 -0.6680
 6445SOL     OW30970   1.334   3.284   2.480  0.4717  0.5195 -0.8799
 6445SOL    HW130971   1.313   3.366   2.525 -3.5782 -0.6815 -0.4895
 6445SOL    HW230972   1.426   3.283   2.503  0.6677  0.4767 -1.6820
 6446SOL     OW30973   4.640   2.823   4.314 -0.2647 -0.4725  0.6733
 6446SOL    HW130974   4.579   2.879   4.363 -0.5970  0.6909 -1.0844
 6446SOL    HW230975   4.679   2.768   4.382  0.8321 -2.8504 -1.8870
 6447SOL     OW30976   0.132   2.417   7.314 -0.0246  0.1178 -0.2306
 6447SOL    HW130977   0.196   2.488   7.319  0.1782  0.0969 -2.3281
 6447SOL    HW230978   0.102   2.414   7.223  2.5083  0.2564 -1.0594
 6448SOL     OW30979   0.533   2.821   2.265 -0.8191  0.1388 -0.0402
 6448SOL    HW130980   0.552   2.847   2.175  0.1959 -0.5801 -0.0394
 6448SOL    HW230981   0.581   2.738   2.274 -2.4616 -1.0192 -2.1509
 6449SOL     OW30982   3.959   0.893   8.677  0.0434  0.2958  0.2030
 6449SOL    HW130983   3.910   0.910   8.596 -0.3966 -0.9144  0.2146
 6449SOL    HW230984   3.949   0.976   8.723  0.5486 -0.0614  0.9549
 6450SOL     OW30985   4.183   4.423   6.547  0.0821 -0.1422  0.2370
 6450SOL    HW130986   4.236   4.388   6.475  0.6698  0.7978  0.2116
 6450SOL    HW230987   4.095   4.392   6.522  0.5559 -1.7844  0.6058
 6451SOL     OW30988   3.684   3.222   5.863  0.1716 -0.3380 -0.0957
 6451SOL    HW130989   3.601   3.247   5.905  1.3718  0.2871  1.9457
 6451SOL    HW230990   3.708   3.292   5.803 -0.1971  0.9138  1.2031
 6452SOL     OW30991   1.315   2.621   6.540 -0.6657 -1.0608 -0.2839
 6452SOL    HW130992   1.382   2.639   6.473 -0.2009  2.8596  1.2123
 6452SOL    HW230993   1.365   2.584   6.612 -0.8625  0.8587  0.8331
 6453SOL     OW30994   3.622   3.415   0.962  0.3075 -0.3504 -0.1658
 6453SOL    HW130995   3.638   3.477   1.034 -1.5232  0.9658 -0.8770
 6453SOL    HW230996   3.552   3.356   0.990  0.6778 -0.4130  0.6524
 6454SOL     OW30997   1.214   0.312   2.463 -0.3206 -0.2837  0.2482
 6454SOL    HW130998   1.233   0.219   2.454  0.2662 -0.1815  0.4780
 6454SOL    HW230999   1.121   0.316   2.487 -0.0869 -1.2592  1.3111
 6455SOL     OW31000   3.075   3.443   7.135  0.4024  0.1355 -0.3961
 6455SOL    HW131001   3.109   3.479   7.217  0.0601 -0.0707 -0.1662
 6455SOL    HW231002   3.150   3.396   7.099  0.7673  0.9785 -0.7464
 6456SOL     OW31003   3.982   3.820   3.284  0.0335 -0.4442 -0.2798
 6456SOL    HW131004   4.068   3.782   3.302 -0.1152 -0.5653  0.1846
 6456SOL    HW231005   4.000   3.911   3.307 -2.4054 -0.2469  0.8460
 6457SOL     OW31006   2.252   4.732   3.962 -0.0569  0.3032  0.1663
 6457SOL    HW131007   2.234   4.643   3.933  0.4986  0.3097 -0.2075
 6457SOL    HW231008   2.243   4.724   4.057  1.3509 -2.1177  0.1137
 6458SOL     OW31009   4.646   0.481   2.802 -0.1573  0.0308 -0.6991
 6458SOL    HW131010   4.666   0.426   2.878 -2.2153 -0.4346 -0.4920
 6458SOL    HW231011   4.709   0.553   2.807 -0.9117  0.5303  1.5672
 6459SOL     OW31012   1.858   3.490   2.711  0.1848 -0.1411  0.2578
 6459SOL    HW131013   1.824   3.515   2.797 -1.3499  0.7327 -0.5929
 6459SOL    HW231014   1.797   3.538   2.656  1.2960  1.4067  0.3901
 6460SOL     OW31015   4.423   2.372   8.530  0.0310 -0.2537 -0.0997
 6460SOL    HW131016   4.401   2.333   8.615 -0.4861 -0.6234 -0.4051
 6460SOL    HW231017   4.462   2.300   8.481  1.5553  1.1985 -1.0266
 6461SOL     OW31018   3.729   1.921   4.804  0.0079  0.1892 -0.0318
 6461SOL    HW131019   3.652   1.901   4.858  0.2769 -1.7462 -0.3784
 6461SOL    HW231020   3.778   1.839   4.801 -3.4680 -2.0298  3.0170
 6462SOL     OW31021   0.688   0.080  16.826 -0.5862 -0.2863 -0.2632
 6462SOL    HW131022   0.663   0.168  16.854  2.4544  0.8225 -0.9442
 6462SOL    HW231023   0.606   0.042  16.797  0.8354 -3.3683 -0.2491
 6463SOL     OW31024   0.433   2.657   7.037  0.1879 -0.1256  0.4965
 6463SOL    HW131025   0.344   2.659   7.002  0.1804 -0.4543  0.4976
 6463SOL    HW231026   0.483   2.652   6.955  0.1255 -0.5962  0.4848
 6464SOL     OW31027   2.745   0.519   6.251 -0.6022  0.0035 -0.1371
 6464SOL    HW131028   2.717   0.501   6.161  1.4855  0.5485 -0.8965
 6464SOL    HW231029   2.684   0.581   6.291 -1.4856 -0.8634 -0.1460
 6465SOL     OW31030   3.660   3.317  11.282  0.1811 -0.5939  0.3089
 6465SOL    HW131031   3.565   3.306  11.294  0.1385  0.3015  0.7918
 6465SOL    HW231032   3.690   3.262  11.354 -0.4457  1.0889  1.8397
 6466SOL     OW31033   3.027   0.452   9.168 -0.5370 -0.1834 -0.4973
 6466SOL    HW131034   3.083   0.379   9.194 -1.7181 -0.4882  1.1594
 6466SOL    HW231035   2.986   0.465   9.254 -0.0678  1.6987 -0.5617
 6467SOL     OW31036   3.488   1.473   1.494  0.0555 -0.6717  0.1067
 6467SOL    HW131037   3.507   1.499   1.404  0.5843 -0.4083  0.2877
 6467SOL    HW231038   3.572   1.498   1.533 -0.8498  0.3933  1.3979
 6468SOL     OW31039   0.010   0.089   3.265  1.0317  0.6579 -0.6195
 6468SOL    HW131040   4.716   0.165   3.317  0.2708 -0.8343  1.1482
 6468SOL    HW231041   4.671   0.031   3.291  1.3702  0.1193 -0.8764
 6469SOL     OW31042   3.174   1.261   4.082 -0.6332  0.7077 -0.3310
 6469SOL    HW131043   3.128   1.344   4.096  1.4272  1.2262  3.4666
 6469SOL    HW231044   3.103   1.199   4.066  0.3475  0.5379 -4.1862
 6470SOL     OW31045   0.987   1.475  11.630 -0.0109  0.1795  0.1206
 6470SOL    HW131046   0.958   1.533  11.559 -1.0463  0.2605  0.6100
 6470SOL    HW231047   1.011   1.542  11.695  1.0227 -0.5552  0.4997
 6471SOL     OW31048   1.463   0.388   7.658  0.3327  0.7681 -0.5068
 6471SOL    HW131049   1.532   0.449   7.685  0.3931  0.6856 -0.4740
 6471SOL    HW231050   1.461   0.318   7.724 -0.5197  0.7913 -0.5071
 6472SOL     OW31051   2.376   0.902   8.013  0.6143  0.2703 -0.2599
 6472SOL    HW131052   2.389   0.932   7.923  0.1029  0.0494 -0.4086
 6472SOL    HW231053   2.328   0.975   8.052 -0.2426  0.2070 -1.1884
 6473SOL     OW31054   0.569   4.619   6.328 -0.3334 -0.5026 -0.1595
 6473SOL    HW131055   0.569   4.526   6.348 -0.9812 -0.7841 -1.4660
 6473SOL    HW231056   0.576   4.673   6.407 -0.1594 -0.9171  0.1059
 6474SOL     OW31057   1.552   0.656   5.937 -0.0595  0.0335 -0.3349
 6474SOL    HW131058   1.579   0.595   6.006 -0.7720  0.1959  0.0911
 6474SOL    HW231059   1.638   0.668   5.897 -0.3275 -1.3293 -1.3406
 6475SOL     OW31060   3.956   3.563  13.628 -0.3939  0.5165 -0.3453
 6475SOL    HW131061   3.987   3.477  13.601  1.2318  1.4500 -1.4545
 6475SOL    HW231062   4.042   3.602  13.638  0.3297 -0.6307 -2.0833
 6476SOL     OW31063   1.497   1.182   2.052 -0.2386 -0.0330 -0.6711
 6476SOL    HW131064   1.567   1.139   2.002  0.9341  1.8307 -0.6425
 6476SOL    HW231065   1.450   1.103   2.078 -1.4128  0.5140 -1.1451
 6477SOL     OW31066   2.917   2.580   3.529  0.4458 -0.2749  0.2715
 6477SOL    HW131067   2.966   2.628   3.462 -0.3347 -0.4649 -0.4377
 6477SOL    HW231068   2.829   2.587   3.491 -0.0584 -0.5958  1.3810
 6478SOL     OW31069   3.024   0.272  16.196  0.1004  0.2091 -0.7190
 6478SOL    HW131070   2.937   0.292  16.160 -0.5225  0.2624  0.7918
 6478SOL    HW231071   3.084   0.321  16.140  0.2890  1.5060  0.6156
 6479SOL     OW31072   3.102   1.391   9.063  0.2827  0.3304 -0.1878
 6479SOL    HW131073   3.161   1.334   9.014  1.0481  0.1297  0.9844
 6479SOL    HW231074   3.016   1.358   9.037 -0.0880  0.2764  1.1111
 6480SOL     OW31075   3.305   3.570  11.500 -0.0115 -0.5121 -0.8974
 6480SOL    HW131076   3.395   3.585  11.473  0.0681  1.0635  0.2010
 6480SOL    HW231077   3.259   3.634  11.444  3.5217  2.3873 -0.5061
 6481SOL     OW31078   4.220   3.993   2.039  0.4761  0.0851  0.2007
 6481SOL    HW131079   4.270   3.912   2.052 -0.5898 -0.6547 -0.2444
 6481SOL    HW231080   4.280   4.046   2.091  0.3426  0.7777 -0.3600
 6482SOL     OW31081   1.449   1.200  17.438  0.1965  0.3895 -0.9002
 6482SOL    HW131082   1.466   1.163  17.352  0.9317 -2.7741  0.5727
 6482SOL    HW231083   1.541   1.187  17.462 -0.2978 -0.1491  0.7226
 6483SOL     OW31084   0.957   4.599   1.303 -0.0351 -0.2473  0.3538
 6483SOL    HW131085   1.041   4.579   1.346  0.2333 -2.6448 -1.2894
 6483SOL    HW231086   0.927   4.510   1.289 -2.8650  0.8643 -0.5161
 6484SOL     OW31087   1.284   2.980   1.353  0.5898 -0.2380  0.1575
 6484SOL    HW131088   1.349   2.947   1.291 -0.8971 -0.5839 -1.2017
 6484SOL    HW231089   1.293   2.926   1.432 -1.8793 -1.5300 -0.4512
 6485SOL     OW31090   3.750   2.336   4.302  0.2294  0.0086  0.0360
 6485SOL    HW131091   3.770   2.342   4.395 -1.5922  0.4256  0.4043
 6485SOL    HW231092   3.671   2.285   4.318  1.7506 -2.7321 -1.1884
 6486SOL     OW31093   3.225   2.289  15.561  0.0902 -0.1491  0.0854
 6486SOL    HW131094   3.224   2.195  15.540  0.4080  0.3035 -1.9178
 6486SOL    HW231095   3.212   2.330  15.476  0.2107  1.7349  0.9756
 6487SOL     OW31096   4.024   4.140  13.988 -0.6342 -0.5554  0.2277
 6487SOL    HW131097   3.941   4.184  13.970 -1.5194 -1.1326  2.9285
 6487SOL    HW231098   4.012   4.129  14.083 -1.0060  0.2482  0.2742
 6488SOL     OW31099   4.687   2.231  17.424 -0.4506 -0.1295  0.3925
 6488SOL    HW131100   4.629   2.271  17.359  0.5359  2.7495  1.2913
 6488SOL    HW231101   4.672   2.137  17.413  0.1399 -0.1911  0.1659
 6489SOL     OW31102   2.977   0.159   8.886  0.1150  0.2568 -0.4455
 6489SOL    HW131103   3.047   0.214   8.851  0.0042  0.8984  0.3424
 6489SOL    HW231104   2.937   0.127   8.805 -0.5336 -0.9570  0.3481
 6490SOL     OW31105   0.260   4.234   9.682 -0.2159 -0.1411 -0.0496
 6490SOL    HW131106   0.196   4.291   9.638  0.7789  0.6324 -0.5079
 6490SOL    HW231107   0.197   4.186   9.736  0.6598 -1.7106 -0.4548
 6491SOL     OW31108   3.940   1.807  15.803  0.2912  0.3179 -0.6016
 6491SOL    HW131109   3.967   1.894  15.772  0.1832  0.3664 -0.5575
 6491SOL    HW231110   3.946   1.750  15.726  1.4348  0.1253 -0.3727
 6492SOL     OW31111   4.106   3.335   8.999  0.4392  0.4509  0.3094
 6492SOL    HW131112   4.116   3.290   8.914 -1.2687 -0.0344  0.3627
 6492SOL    HW231113   4.113   3.258   9.055  0.7720 -0.6812 -1.2690
 6493SOL     OW31114   3.799   4.352   1.656  0.1158 -0.0271  0.5121
 6493SOL    HW131115   3.865   4.415   1.629 -0.4633 -0.6609 -2.3565
 6493SOL    HW231116   3.720   4.403   1.636 -0.4980 -0.1313  2.6730
 6494SOL     OW31117   0.602   2.869   6.013  0.2118 -0.2028  0.2690
 6494SOL    HW131118   0.539   2.900   6.077 -0.9760 -1.9758 -0.0349
 6494SOL    HW231119   0.562   2.794   5.968 -0.8036  1.0599 -0.9473
 6495SOL     OW31120   3.643   2.339  14.875 -0.1848  0.3235 -0.5661
 6495SOL    HW131121   3.690   2.412  14.835  0.5619 -0.0128 -0.3131
 6495SOL    HW231122   3.555   2.369  14.854  1.5244  2.1201 -5.0910
 6496SOL     OW31123   0.002   4.048   9.024  0.0013 -0.4752 -0.3611
 6496SOL    HW131124   0.097   4.046   9.036 -0.1837  1.0220  1.2260
 6496SOL    HW231125   4.701   3.972   9.071  3.4168 -0.4487  2.1786
 6497SOL     OW31126   1.054   4.294  11.203 -0.3307 -0.0309  0.3481
 6497SOL    HW131127   0.973   4.250  11.230 -0.2964  0.5541  1.3755
 6497SOL    HW231128   1.032   4.333  11.118  0.5150 -0.0382  0.1285
 6498SOL     OW31129   2.637   1.315   3.547  0.1578 -0.3053 -0.0350
 6498SOL    HW131130   2.688   1.245   3.507  1.8831  0.5367  0.7004
 6498SOL    HW231131   2.641   1.377   3.475  2.0689 -1.1607 -0.6711
 6499SOL     OW31132   4.015   4.515   2.049  0.2351  0.4923 -0.1196
 6499SOL    HW131133   4.109   4.525   2.068  0.2518 -0.5528  0.3590
 6499SOL    HW231134   4.003   4.421   2.061 -1.3027  0.6787 -0.2198
 6500SOL     OW31135   3.239   1.784   8.771  0.3793 -0.0461 -0.1904
 6500SOL    HW131136   3.303   1.724   8.809 -1.0999 -1.7553 -0.4177
 6500SOL    HW231137   3.195   1.731   8.704  0.6642  1.7531 -1.7970
 6501SOL     OW31138   0.326   1.049   5.634 -0.5119  0.4457 -0.3666
 6501SOL    HW131139   0.241   1.006   5.651  0.3700 -1.0374  0.3685
 6501SOL    HW231140   0.340   1.011   5.548 -1.1937  0.4067 -0.4666
 6502SOL     OW31141   1.945   3.140   0.854 -0.3049  0.1739 -0.2294
 6502SOL    HW131142   1.895   3.112   0.778  1.2208  2.2722 -2.0059
 6502SOL    HW231143   2.033   3.111   0.827 -0.9879 -1.7323 -0.4109
 6503SOL     OW31144   0.441   3.421   7.400  0.9899  0.4134 -0.6624
 6503SOL    HW131145   0.482   3.336   7.382  0.3587 -0.0177 -0.0491
 6503SOL    HW231146   0.378   3.435   7.329 -2.3031  1.3648  2.4272
 6504SOL     OW31147   4.266   2.926   4.822  0.2366 -0.0539 -0.0059
 6504SOL    HW131148   4.245   2.908   4.730  5.3853  1.8051 -1.5764
 6504SOL    HW231149   4.327   2.999   4.808 -1.7261  1.9518  1.9630
 6505SOL     OW31150   4.546   2.159  12.392  0.2426 -0.3419 -0.7880
 6505SOL    HW131151   4.579   2.148  12.302 -3.3555 -1.1479 -2.0002
 6505SOL    HW231152   4.453   2.171  12.375 -0.1474 -0.6102  1.2080
 6506SOL     OW31153   2.079   3.436   9.583 -0.0148 -0.0861 -0.2095
 6506SOL    HW131154   2.168   3.425   9.550 -0.2436 -0.7214 -0.6380
 6506SOL    HW231155   2.022   3.428   9.506  1.9006  0.6331 -1.6912
 6507SOL     OW31156   0.115   1.520   0.533  0.2371 -0.6154 -0.7267
 6507SOL    HW131157   0.088   1.467   0.458  0.5856 -1.0276 -0.5578
 6507SOL    HW231158   0.113   1.610   0.501 -0.0819 -0.0946  0.7250
 6508SOL     OW31159   0.200   4.284  14.845 -0.2074 -0.9880  0.2478
 6508SOL    HW131160   0.221   4.311  14.756  2.2931 -2.1498  0.4907
 6508SOL    HW231161   0.277   4.313  14.894 -0.2292 -2.3449  1.0784
 6509SOL     OW31162   0.949   0.385   7.939  0.3706 -0.7763  0.6404
 6509SOL    HW131163   0.999   0.415   7.863 -0.5542 -0.0097  0.3387
 6509SOL    HW231164   1.007   0.315   7.970  1.5188 -0.8503 -1.6358
 6510SOL     OW31165   1.020   1.146  12.639  0.2717  0.3717  0.3063
 6510SOL    HW131166   0.969   1.204  12.582  0.7200  0.5517  0.0915
 6510SOL    HW231167   1.080   1.106  12.576  0.2772 -0.9434  1.1483
 6511SOL     OW31168   1.974   2.357   6.898  0.3014  0.2724  0.1227
 6511SOL    HW131169   1.981   2.444   6.858  0.2705  0.9112  1.4909
 6511SOL    HW231170   2.059   2.326   6.866  1.2767  2.0459  0.9608
 6512SOL     OW31171   1.758   0.044   0.825  1.1810  0.6635 -0.1064
 6512SOL    HW131172   1.710   0.062   0.745  1.1187  1.0026  0.0105
 6512SOL    HW231173   1.775   0.132   0.857  3.4996 -0.4474  1.7411
 6513SOL     OW31174   2.793   1.099   3.427 -0.0563 -0.5136  0.6378
 6513SOL    HW131175   2.791   1.139   3.340 -1.2984  0.9759  1.3608
 6513SOL    HW231176   2.877   1.052   3.424  0.9475  1.3430  0.1276
 6514SOL     OW31177   3.830   4.592  12.998  0.8166  0.4047 -0.7005
 6514SOL    HW131178   3.774   4.663  12.968  1.6230  1.0718 -0.6042
 6514SOL    HW231179   3.765   4.524  13.019 -1.0387  2.0168 -1.2675
 6515SOL     OW31180   0.403   2.123   3.484 -0.5686  0.7245 -0.1040
 6515SOL    HW131181   0.495   2.135   3.507 -0.5378  0.1801  0.0556
 6515SOL    HW231182   0.419   2.110   3.390  2.1901 -3.3126  0.9388
 6516SOL     OW31183   1.202   1.975  11.885  0.3863 -0.0197  0.3353
 6516SOL    HW131184   1.280   1.999  11.834  0.6093 -0.7798  0.3044
 6516SOL    HW231185   1.179   2.051  11.937 -0.0668  0.0161  0.0770
 6517SOL     OW31186   2.425   4.473   6.006  0.1053 -0.0149 -0.1900
 6517SOL    HW131187   2.456   4.501   6.093 -1.1087 -3.4700  1.3448
 6517SOL    HW231188   2.330   4.487   6.014  0.4994  1.5795  1.9175
 6518SOL     OW31189   1.547   2.279   8.964 -0.0273 -0.0664  0.1775
 6518SOL    HW131190   1.613   2.211   8.957  0.8072  0.8462 -0.9117
 6518SOL    HW231191   1.481   2.221   9.002  1.1126 -1.1604  0.4853
 6519SOL     OW31192   0.565   1.459  17.205 -0.5874  0.0467  0.0192
 6519SOL    HW131193   0.469   1.461  17.210 -0.8556 -3.5961 -3.2798
 6519SOL    HW231194   0.583   1.477  17.297 -0.0478 -1.1988  0.1552
 6520SOL     OW31195   2.164   4.391   0.779  0.1209 -0.7807  0.1926
 6520SOL    HW131196   2.132   4.344   0.702 -1.8778 -1.6398  1.5378
 6520SOL    HW231197   2.084   4.434   0.811  0.4877  0.2494 -0.2794
 6521SOL     OW31198   2.003   1.957  16.663  0.0341 -0.0231 -0.4799
 6521SOL    HW131199   1.954   1.992  16.589 -1.1344  0.2749  0.4470
 6521SOL    HW231200   1.958   1.873  16.672  0.1150 -0.0345 -0.1773
 6522SOL     OW31201   4.065   1.618   0.015  0.1087 -0.1198 -0.0091
 6522SOL    HW131202   4.013   1.678   0.068  1.6784 -0.3013  1.7393
 6522SOL    HW231203   4.003   1.582  17.684  1.1775  0.9152 -1.6584
 6523SOL     OW31204   4.144   1.152   8.566  0.2856 -0.2659 -0.0389
 6523SOL    HW131205   4.155   1.058   8.553 -1.5128 -0.5521  0.5200
 6523SOL    HW231206   4.220   1.173   8.511 -0.7180 -1.0364 -1.7137
 6524SOL     OW31207   0.198   1.290   8.488  0.3143  0.3019  0.5820
 6524SOL    HW131208   0.179   1.253   8.401 -1.2445 -0.5100  1.2606
 6524SOL    HW231209   0.143   1.231   8.540  1.2894 -0.2448  0.9784
 6525SOL     OW31210   2.164   0.315  17.001 -0.0879  0.1146  0.0501
 6525SOL    HW131211   2.169   0.261  17.079  0.6914 -0.2852 -0.2767
 6525SOL    HW231212   2.137   0.393  17.050 -0.0887  0.1636 -0.0278
 6526SOL     OW31213   1.533   3.994   8.025 -0.6051 -0.7664  0.5293
 6526SOL    HW131214   1.606   3.953   8.072 -0.6920 -2.2577 -0.6308
 6526SOL    HW231215   1.500   3.926   7.967  0.8991 -0.4631 -0.6888
 6527SOL     OW31216   0.341   4.213   0.730  0.5868 -0.1141 -0.4934
 6527SOL    HW131217   0.370   4.267   0.803  0.1313 -0.5209 -0.0161
 6527SOL    HW231218   0.368   4.281   0.668  1.7925  2.5725  2.9796
 6528SOL     OW31219   3.759   2.675   7.537  0.5140  0.9810  0.2090
 6528SOL    HW131220   3.776   2.668   7.444 -2.9002  1.4071 -0.4459
 6528SOL    HW231221   3.738   2.586   7.567  0.1650  0.2180 -2.3090
 6529SOL     OW31222   1.535   2.776  12.325 -0.6183 -0.8681 -0.3706
 6529SOL    HW131223   1.616   2.825  12.343 -1.5103  0.6462 -0.5138
 6529SOL    HW231224   1.515   2.735  12.409  1.5607 -1.8769 -0.3374
 6530SOL     OW31225   2.370   1.646  11.214 -0.6704  0.1224  0.1105
 6530SOL    HW131226   2.368   1.649  11.310 -0.4637 -2.9117  0.2199
 6530SOL    HW231227   2.286   1.604  11.192 -0.3281  0.4649 -1.8206
 6531SOL     OW31228   1.491   4.501   3.772 -0.2192  0.0491  1.0358
 6531SOL    HW131229   1.537   4.504   3.856 -0.5352 -2.9092  1.3027
 6531SOL    HW231230   1.406   4.470   3.803 -0.7699 -2.0376 -2.5584
 6532SOL     OW31231   0.041   1.824   9.247 -0.0503  0.4942  0.0196
 6532SOL    HW131232   0.020   1.816   9.340  2.1676 -2.6942  0.2336
 6532SOL    HW231233   4.724   1.753   9.208 -1.8567 -0.0367  3.3018
 6533SOL     OW31234   4.158   4.155   4.800  0.1309  0.0024  0.1977
 6533SOL    HW131235   4.101   4.093   4.845 -2.3918  1.9447 -0.3088
 6533SOL    HW231236   4.238   4.138   4.850  1.0083 -1.4825 -1.6936
 6534SOL     OW31237   1.802   4.136   6.347 -0.1140 -0.1144 -0.0653
 6534SOL    HW131238   1.896   4.134   6.330 -0.6886  1.2498 -3.3383
 6534SOL    HW231239   1.778   4.141   6.255  1.4189  0.5980 -0.4220
 6535SOL     OW31240   3.088   3.288  16.881 -0.7210  0.5201  0.4182
 6535SOL    HW131241   3.183   3.280  16.893 -0.6570 -0.2996 -0.7078
 6535SOL    HW231242   3.065   3.235  16.958  2.3126 -0.4526  0.6591
 6536SOL     OW31243   0.980   3.094   1.979  0.9173  0.1315  0.0915
 6536SOL    HW131244   0.950   3.144   1.902  0.9263 -0.7108 -0.4568
 6536SOL    HW231245   1.023   3.024   1.930 -2.9849 -1.7644 -0.6349
 6537SOL     OW31246   4.103   3.881  12.944  0.0862 -0.7599 -0.0979
 6537SOL    HW131247   4.154   3.936  12.885 -1.2189 -0.2756 -0.7682
 6537SOL    HW231248   4.018   3.910  12.912  0.8390  1.9918  0.3639
 6538SOL     OW31249   3.249   4.180  15.158 -0.2814  0.1909  0.0542
 6538SOL    HW131250   3.161   4.208  15.182 -0.4124  0.6891 -0.9981
 6538SOL    HW231251   3.244   4.114  15.088 -1.0569 -0.5982  0.8584
 6539SOL     OW31252   1.580   2.677   2.211 -0.1589  0.5815 -0.3509
 6539SOL    HW131253   1.586   2.773   2.214 -0.0114  0.5469  0.4420
 6539SOL    HW231254   1.532   2.673   2.128  1.3392 -2.0449 -1.0833
 6540SOL     OW31255   3.041   4.626  15.905 -0.1734  0.5040 -0.7883
 6540SOL    HW131256   3.116   4.595  15.856  1.4536 -1.5482  3.0167
 6540SOL    HW231257   3.063   4.717  15.927  0.3406  0.4381 -1.0441
 6541SOL     OW31258   1.774   0.785  10.366  0.2055 -0.0415  0.1565
 6541SOL    HW131259   1.862   0.821  10.358  0.2930 -0.7869 -2.2786
 6541SOL    HW231260   1.787   0.700  10.408  0.6448  0.3118  0.7366
 6542SOL     OW31261   2.344   3.811   6.149  1.0380  0.2971 -0.2618
 6542SOL    HW131262   2.292   3.741   6.188  1.9516 -0.3363 -0.1843
 6542SOL    HW231263   2.388   3.840   6.229 -0.0081 -0.6535  0.6641
 6543SOL     OW31264   4.667   4.268  14.440  0.1148  0.2615  0.4987
 6543SOL    HW131265   4.722   4.260  14.362 -0.3965 -0.1270  0.1786
 6543SOL    HW231266   4.679   4.358  14.471 -1.2347  0.4710  0.3948
 6544SOL     OW31267   2.891   0.013   8.658 -0.2828  0.4906 -0.1965
 6544SOL    HW131268   2.825   4.696   8.609  0.5301 -1.0822  0.3248
 6544SOL    HW231269   2.924   4.671   8.707  1.3201  1.7125  0.5828
 6545SOL     OW31270   0.534   3.225   2.694  0.3467  0.0776  0.0479
 6545SOL    HW131271   0.518   3.313   2.659  0.7930  0.4518  0.7646
 6545SOL    HW231272   0.512   3.243   2.786 -1.2852  0.0156 -0.3270
 6546SOL     OW31273   2.750   0.360  16.154  0.2455  0.2415  0.1897
 6546SOL    HW131274   2.673   0.304  16.148  1.7143 -1.7741 -0.2825
 6546SOL    HW231275   2.702   0.440  16.136  0.7701  0.3796 -0.5834
 6547SOL     OW31276   2.145   1.363   6.538  0.1649 -0.0330 -0.3939
 6547SOL    HW131277   2.065   1.311   6.532  0.4783 -0.3364 -2.0395
 6547SOL    HW231278   2.193   1.322   6.465 -0.1347 -0.5227 -0.3121
 6548SOL     OW31279   2.831   1.661   8.644  0.4798 -0.4640  0.2940
 6548SOL    HW131280   2.803   1.752   8.656 -0.8423 -0.7791 -0.4152
 6548SOL    HW231281   2.782   1.624   8.718 -0.3001 -0.4951 -0.2359
 6549SOL     OW31282   4.555   2.563   5.448 -0.0439 -0.1132 -0.0871
 6549SOL    HW131283   4.610   2.521   5.382  0.1874 -0.3005  0.2301
 6549SOL    HW231284   4.468   2.527   5.430  0.9395 -1.0530 -3.0065
 6550SOL     OW31285   2.341   3.413   9.504 -0.1114  0.1032  0.3231
 6550SOL    HW131286   2.425   3.459   9.493 -0.0036  0.6511  3.3747
 6550SOL    HW231287   2.364   3.351   9.574  0.2854 -2.1077 -1.7806
 6551SOL     OW31288   3.002   1.831  11.531  0.2030 -0.3675 -0.3290
 6551SOL    HW131289   3.086   1.818  11.575  0.1921  1.0926  0.1342
 6551SOL    HW231290   2.967   1.905  11.581 -1.4454 -0.5172 -1.2576
 6552SOL     OW31291   3.233   3.914  14.228 -0.7190 -0.0676  0.2172
 6552SOL    HW131292   3.224   3.996  14.276  2.5336  0.0238  0.6571
 6552SOL    HW231293   3.143   3.896  14.199  0.6772 -3.0045 -2.3422
 6553SOL     OW31294   3.035   0.764  14.776 -0.0495 -0.2384 -0.2348
 6553SOL    HW131295   2.964   0.807  14.728 -1.0160 -1.2043  0.3345
 6553SOL    HW231296   3.036   0.820  14.853  0.1958 -0.2046 -0.2632
 6554SOL     OW31297   1.178   1.748  10.039  0.4849  0.5712 -0.5732
 6554SOL    HW131298   1.212   1.679  10.096 -0.9406  0.5543  0.2413
 6554SOL    HW231299   1.234   1.819  10.071  2.0049 -2.2208  2.9197
 6555SOL     OW31300   1.688   3.765   2.984  0.7448 -0.4550  0.1775
 6555SOL    HW131301   1.669   3.825   2.912  0.4367 -1.4882 -0.6109
 6555SOL    HW231302   1.754   3.709   2.943  1.7609  0.8936 -0.0005
 6556SOL     OW31303   2.517   1.046  13.698  0.1918  0.2552  0.2891
 6556SOL    HW131304   2.548   0.966  13.656  0.7774  1.5735 -1.8121
 6556SOL    HW231305   2.576   1.106  13.651  0.3478  1.9672  2.6668
 6557SOL     OW31306   2.625   3.344   3.940  0.0693 -0.1292 -0.4014
 6557SOL    HW131307   2.624   3.344   4.036 -2.6073 -1.3744 -0.4549
 6557SOL    HW231308   2.715   3.318   3.919 -0.0674 -2.0048  1.3868
 6558SOL     OW31309   4.352   4.301  13.455 -0.2565  0.7060  0.2832
 6558SOL    HW131310   4.290   4.371  13.435 -1.1035 -0.4666 -1.2400
 6558SOL    HW231311   4.428   4.330  13.406 -0.9267 -0.8111 -1.6706
 6559SOL     OW31312   0.059   3.208   1.624  0.6401 -0.1894  0.0582
 6559SOL    HW131313   0.079   3.299   1.646 -0.2136  0.5318 -2.1600
 6559SOL    HW231314   0.029   3.221   1.534  0.8863 -1.4847 -0.1983
 6560SOL     OW31315   4.369   2.935   1.014  0.0229 -0.1715  0.1712
 6560SOL    HW131316   4.317   3.014   1.030 -0.1636 -0.6872  2.1108
 6560SOL    HW231317   4.364   2.931   0.919  0.9898  0.8510  0.0641
 6561SOL     OW31318   2.259   0.597  14.766 -0.4836  0.0774  0.0184
 6561SOL    HW131319   2.263   0.565  14.676 -0.9270 -0.8845  0.3348
 6561SOL    HW231320   2.222   0.685  14.773  1.0925  0.7776 -0.6969
 6562SOL     OW31321   1.032   0.225   4.801 -0.4464 -0.3885  0.0833
 6562SOL    HW131322   1.116   0.224   4.756 -2.1412  0.0407 -3.1285
 6562SOL    HW231323   1.028   0.132   4.825  2.8908 -0.1464  1.4734
 6563SOL     OW31324   3.239   0.055  16.160 -0.7863  0.1495  0.3113
 6563SOL    HW131325   3.176   0.118  16.194  0.1499  0.4551  1.4866
 6563SOL    HW231326   3.314   0.070  16.217 -2.5202  0.1598  2.6051
 6564SOL     OW31327   2.555   2.220   4.314 -0.0100  0.2126 -0.3744
 6564SOL    HW131328   2.638   2.266   4.329 -0.4541  0.5274  1.0580
 6564SOL    HW231329   2.501   2.260   4.382 -0.7171 -0.0606 -0.7781
 6565SOL     OW31330   3.666   3.151   7.731  0.1972  0.1338  0.0316
 6565SOL    HW131331   3.679   3.086   7.662 -0.9013  0.0562 -0.0969
 6565SOL    HW231332   3.685   3.097   7.807  0.9496  2.1226  1.2782
 6566SOL     OW31333   3.123   0.047   1.654 -0.8201 -0.1669  0.3922
 6566SOL    HW131334   3.132   0.088   1.741  2.5626 -0.7121  0.3145
 6566SOL    HW231335   3.051   0.088   1.607 -0.5464 -0.7053 -0.4964
 6567SOL     OW31336   2.585   3.321   7.630 -0.6655  0.0914  0.4747
 6567SOL    HW131337   2.640   3.288   7.559 -1.1418  2.5889 -1.0734
 6567SOL    HW231338   2.519   3.368   7.578 -1.4412  0.2796  1.6433
 6568SOL     OW31339   0.533   1.529   3.809  0.1414 -0.4269  0.4388
 6568SOL    HW131340   0.589   1.454   3.829 -0.0100 -0.7131 -0.2183
 6568SOL    HW231341   0.598   1.600   3.816 -0.2368 -0.0692  0.3528
 6569SOL     OW31342   3.282   1.843   7.733  0.0843 -0.5223  0.2737
 6569SOL    HW131343   3.221   1.780   7.772 -1.6759  0.3647 -1.0459
 6569SOL    HW231344   3.251   1.929   7.764  1.1533  0.3355 -1.0930
 6570SOL     OW31345   4.272   4.151   4.576  0.0324 -0.8555 -0.4994
 6570SOL    HW131346   4.226   4.152   4.660 -0.1297  2.0515 -0.6223
 6570SOL    HW231347   4.320   4.234   4.579  1.9925 -2.0380  0.9441
 6571SOL     OW31348   1.835   4.726   2.020 -0.3026 -0.1235 -0.2002
 6571SOL    HW131349   1.876   0.079   2.017 -0.5322 -0.0196 -0.4355
 6571SOL    HW231350   1.744   0.016   2.000 -0.1388  0.8876  0.2143
 6572SOL     OW31351   3.026   4.686  11.501  0.3588 -0.7443 -0.2197
 6572SOL    HW131352   3.080   0.030  11.520 -2.0111  1.0058 -0.5853
 6572SOL    HW231353   2.950   4.724  11.458  0.8956  0.5952  0.0243
 6573SOL     OW31354   3.085   2.865   3.530 -0.3900 -0.2475 -0.5297
 6573SOL    HW131355   3.142   2.850   3.454  1.9942  1.1446  1.0232
 6573SOL    HW231356   3.001   2.883   3.487 -0.4454 -0.3682 -0.4709
 6574SOL     OW31357   0.558   2.696  10.076 -0.5830  0.0313 -0.6150
 6574SOL    HW131358   0.506   2.710   9.997  0.3792  0.0878 -1.2353
 6574SOL    HW231359   0.530   2.761  10.141  0.1933 -0.0628 -0.1785
 6575SOL     OW31360   1.255   3.186  12.647 -0.5070  0.1975  0.0343
 6575SOL    HW131361   1.264   3.107  12.593  0.5049  1.3372 -1.4745
 6575SOL    HW231362   1.256   3.144  12.733  0.4616  0.5120  0.1735
 6576SOL     OW31363   2.616   3.990   3.314  0.3267 -0.9987 -0.1652
 6576SOL    HW131364   2.536   3.986   3.367  1.7529 -0.6455  2.0233
 6576SOL    HW231365   2.650   4.078   3.328 -1.6890 -0.1044 -0.7743
 6577SOL     OW31366   1.983   3.362   6.793  0.0746 -0.5099  0.7593
 6577SOL    HW131367   2.064   3.413   6.794 -1.3446  1.7567  1.1162
 6577SOL    HW231368   2.014   3.281   6.755  2.3248  0.5600  0.3438
 6578SOL     OW31369   4.216   1.705   8.360 -0.1003  0.0279  0.4757
 6578SOL    HW131370   4.305   1.693   8.392 -0.8791 -1.4330  2.0926
 6578SOL    HW231371   4.201   1.799   8.376  2.3304  0.7599 -1.6140
 6579SOL     OW31372   0.401   3.777   7.736  0.1903 -0.7636 -0.1778
 6579SOL    HW131373   0.468   3.830   7.779 -0.5338 -0.2653  0.3378
 6579SOL    HW231374   0.420   3.697   7.785  1.8375 -0.6251 -0.5833
 6580SOL     OW31375   3.529   4.660   2.907 -0.4786 -0.2646 -0.1379
 6580SOL    HW131376   3.580   4.590   2.947 -1.5455 -0.5736  0.6592
 6580SOL    HW231377   3.452   4.644   2.962  0.3255 -0.8357  0.8131
 6581SOL     OW31378   3.533   3.376   2.698  0.2544 -0.3319  0.2535
 6581SOL    HW131379   3.606   3.349   2.643  1.6382 -0.7374  2.2873
 6581SOL    HW231380   3.465   3.412   2.641  1.6059 -0.2594 -1.2724
 6582SOL     OW31381   4.682   0.061   3.710  0.0076 -0.7649  0.2075
 6582SOL    HW131382   4.691   0.135   3.770  2.1006  0.2012 -1.3151
 6582SOL    HW231383   4.610   0.015   3.754 -0.0353 -0.0174  0.9268
 6583SOL     OW31384   4.250   0.593   6.734  0.1323 -0.3565  0.3967
 6583SOL    HW131385   4.174   0.636   6.695 -0.3943 -2.4040 -0.8270
 6583SOL    HW231386   4.204   0.533   6.794 -0.4456 -0.4112 -0.1074
 6584SOL     OW31387   4.563   3.571   2.974 -0.5148  0.5171  0.3939
 6584SOL    HW131388   4.635   3.634   2.979  0.5080 -0.7346  1.7059
 6584SOL    HW231389   4.590   3.519   3.051 -0.7121 -1.2828 -0.7553
 6585SOL     OW31390   3.072   3.326  10.477  0.6205 -0.5959 -0.6778
 6585SOL    HW131391   2.986   3.340  10.517  0.3614  0.3584 -1.5597
 6585SOL    HW231392   3.099   3.241  10.511  0.5828  0.3051  1.5851
 6586SOL     OW31393   2.347   4.230   5.908 -0.0252 -0.1022 -0.5823
 6586SOL    HW131394   2.386   4.314   5.931 -0.5196  0.2110 -0.8839
 6586SOL    HW231395   2.419   4.209   5.848 -1.1223  0.2522 -2.0283
 6587SOL     OW31396   3.235   4.009   3.469  0.2534 -0.3817 -0.7604
 6587SOL    HW131397   3.163   4.069   3.490  1.0588  0.5557 -0.7003
 6587SOL    HW231398   3.209   3.935   3.524  1.6019  1.1428  1.9561
 6588SOL     OW31399   3.294   4.493  13.940  0.0894 -0.1517  0.2167
 6588SOL    HW131400   3.343   4.458  14.014  0.1066 -0.9639 -0.1753
 6588SOL    HW231401   3.206   4.494  13.978 -0.3453  0.5032 -0.7855
 6589SOL     OW31402   4.575   3.098   0.826  0.5722  0.1193  0.8083
 6589SOL    HW131403   4.491   3.142   0.839  0.2210 -1.1623  2.9493
 6589SOL    HW231404   4.631   3.141   0.890  1.4726  1.6335 -0.9838
 6590SOL     OW31405   1.318   0.415   7.442  0.3017  0.3411  0.5812
 6590SOL    HW131406   1.383   0.396   7.510  1.0012  0.4628 -0.0537
 6590SOL    HW231407   1.369   0.443   7.366  0.1424  0.1631  0.4098
 6591SOL     OW31408   2.059   4.242   3.769  0.0780 -0.1483  0.2021
 6591SOL    HW131409   2.042   4.235   3.674  0.3624 -0.6937  0.1915
 6591SOL    HW231410   2.123   4.174   3.792 -1.3385 -0.3859  3.3232
 6592SOL     OW31411   3.276   4.360   2.016  0.3873 -0.3908  0.1851
 6592SOL    HW131412   3.199   4.338   2.069  1.4845  1.2538  2.4743
 6592SOL    HW231413   3.309   4.275   1.989 -0.3762 -0.1521 -1.5181
 6593SOL     OW31414   0.631   3.951   4.012  0.1062  0.2065  0.4527
 6593SOL    HW131415   0.603   3.914   4.096 -0.4797  1.2572  0.7141
 6593SOL    HW231416   0.626   4.046   4.022  1.5516  0.4748 -1.2225
 6594SOL     OW31417   1.497   4.666   3.517 -0.3448 -0.0185  0.5097
 6594SOL    HW131418   1.524   4.633   3.431 -1.2864  0.6094 -0.0294
 6594SOL    HW231419   1.461   4.592   3.565 -2.4893 -0.5446 -1.9692
 6595SOL     OW31420   1.004   1.478   3.486  0.1787 -0.1597 -0.3744
 6595SOL    HW131421   1.074   1.422   3.519  0.9844  1.5217  0.8047
 6595SOL    HW231422   1.058   1.536   3.433 -1.8199  1.7084 -0.3454
 6596SOL     OW31423   0.042   2.170  11.875 -0.6604 -0.0543  0.3078
 6596SOL    HW131424   0.040   2.212  11.789 -1.6015 -0.9703 -0.1084
 6596SOL    HW231425   0.069   2.251  11.920  0.4614  0.1535 -0.7283
 6597SOL     OW31426   3.009   3.289   9.824  0.4100  0.5402 -0.0216
 6597SOL    HW131427   3.067   3.326   9.758  0.2418 -0.1508 -0.5511
 6597SOL    HW231428   3.066   3.229   9.873 -2.3372 -2.1411 -0.1568
 6598SOL     OW31429   2.707   1.911  16.992 -0.3765 -0.1864 -0.0577
 6598SOL    HW131430   2.778   1.959  17.036 -0.4262 -1.2326  1.1890
 6598SOL    HW231431   2.738   1.900  16.902 -0.0889  0.4703 -0.0364
 6599SOL     OW31432   1.666   2.791   0.639 -0.3473 -0.1189 -0.1086
 6599SOL    HW131433   1.706   2.722   0.693  1.0538 -0.3356 -1.4064
 6599SOL    HW231434   1.676   2.754   0.551 -1.4339  4.1049 -1.9943
 6600SOL     OW31435   3.091   0.379   6.313  0.1067  0.1560  0.3079
 6600SOL    HW131436   3.148   0.381   6.236 -0.9312  0.9376 -0.4434
 6600SOL    HW231437   3.055   0.467   6.323 -2.3364 -0.8620  0.5095
 6601SOL     OW31438   0.530   1.349   3.029  0.6754 -0.2496 -0.1202
 6601SOL    HW131439   0.522   1.389   2.942  0.4633 -1.8107 -0.8060
 6601SOL    HW231440   0.444   1.307   3.029  0.8858 -0.6742 -0.3410
 6602SOL     OW31441   4.696   1.132   6.614 -0.0466  0.4159 -0.0071
 6602SOL    HW131442   4.679   1.177   6.697  1.4642 -1.5771  1.3800
 6602SOL    HW231443   4.648   1.049   6.623 -1.3791  1.2217  0.3491
 6603SOL     OW31444   0.858   2.421   4.158  0.4776  0.2779  0.3520
 6603SOL    HW131445   0.902   2.336   4.159 -0.6712 -0.2767  2.5810
 6603SOL    HW231446   0.893   2.457   4.076  0.5348 -1.0792 -0.2341
 6604SOL     OW31447   1.577   3.698   8.997  0.4112  0.2370  0.4923
 6604SOL    HW131448   1.544   3.787   8.988 -0.1127  0.0154  0.2186
 6604SOL    HW231449   1.491   3.658   8.984  1.3320 -1.0770 -1.6202
 6605SOL     OW31450   3.856   2.552  12.382  0.3202  0.1357 -0.1947
 6605SOL    HW131451   3.920   2.602  12.332  0.4365 -0.3503 -0.5387
 6605SOL    HW231452   3.887   2.466  12.355 -1.9064  0.1405 -2.7138
 6606SOL     OW31453   1.430   0.729   5.439 -0.8456  0.3163  0.2118
 6606SOL    HW131454   1.504   0.675   5.412 -0.9338  0.1106  0.3799
 6606SOL    HW231455   1.402   0.785   5.366 -0.5036 -1.2155 -1.0880
 6607SOL     OW31456   4.513   3.704   6.179 -0.7069  0.0017 -0.0240
 6607SOL    HW131457   4.558   3.691   6.262 -0.9642 -1.9276 -0.1768
 6607SOL    HW231458   4.549   3.634   6.124  1.2610 -0.0092  1.2846
 6608SOL     OW31459   1.000   0.730  11.672  0.3314  0.8081 -0.1862
 6608SOL    HW131460   0.958   0.644  11.680  2.4705 -0.3720 -1.8470
 6608SOL    HW231461   0.990   0.742  11.578  0.0365  2.4972  0.0479
 6609SOL     OW31462   3.044   2.456   6.512  0.6087  0.3916  0.0360
 6609SOL    HW131463   3.029   2.407   6.593 -0.4342 -0.6943 -0.8264
 6609SOL    HW231464   3.067   2.541   6.552  0.1117 -0.0685  1.3102
 6610SOL     OW31465   2.822   4.678  16.062 -0.4856 -0.1377  0.0239
 6610SOL    HW131466   2.896   4.669  16.001 -0.1466  1.0178  0.2687
 6610SOL    HW231467   2.764   4.727  16.003 -1.3568 -0.2289  0.8182
 6611SOL     OW31468   4.020   2.517   3.096 -0.2202  0.0185  0.4694
 6611SOL    HW131469   4.080   2.466   3.042 -0.3748 -0.2179  0.5195
 6611SOL    HW231470   3.983   2.583   3.037 -0.7264  1.0514  1.9394
 6612SOL     OW31471   2.932   0.483   9.462  0.3690 -0.4103  0.2697
 6612SOL    HW131472   3.000   0.446   9.518  0.0784 -0.3329  0.6695
 6612SOL    HW231473   2.950   0.577   9.456  1.2478 -0.5125  1.3015
 6613SOL     OW31474   0.341   1.063  16.281  0.1839 -0.2001  0.4473
 6613SOL    HW131475   0.281   1.053  16.207  0.1961  0.7005  0.3088
 6613SOL    HW231476   0.302   1.010  16.350  0.5601 -2.0882 -0.7786
 6614SOL     OW31477   0.722   3.846   5.062  0.1350  0.3524  0.1026
 6614SOL    HW131478   0.717   3.766   5.010  1.5875  1.1816 -1.3249
 6614SOL    HW231479   0.639   3.849   5.108  1.0881  1.7506  1.7097
 6615SOL     OW31480   0.295   0.371   2.944 -0.3059 -0.3607  0.4360
 6615SOL    HW131481   0.382   0.386   2.908  0.2989 -0.5876  1.7701
 6615SOL    HW231482   0.310   0.376   3.039  2.2041 -0.4437  0.0464
 6616SOL     OW31483   3.767   2.073  16.080  0.1102 -0.0937 -0.6411
 6616SOL    HW131484   3.856   2.060  16.048  0.5345  0.5067  0.2809
 6616SOL    HW231485   3.743   2.156  16.038  1.6436  0.2223 -0.8810
 6617SOL     OW31486   4.675   2.644   1.227  0.7748 -0.6260  0.0801
 6617SOL    HW131487   4.655   2.625   1.318 -0.0356  0.5745  0.1547
 6617SOL    HW231488   4.610   2.708   1.198 -1.8354 -3.5474 -0.4466
 6618SOL     OW31489   2.513   3.286   6.476 -0.4823 -0.5325  0.1384
 6618SOL    HW131490   2.419   3.271   6.465 -1.2176  2.6589  1.9408
 6618SOL    HW231491   2.528   3.254   6.564  1.3147  1.3214  0.5048
 6619SOL     OW31492   0.991   1.548  12.206  0.0286  0.1424  0.4506
 6619SOL    HW131493   0.969   1.519  12.118 -0.0294 -1.1207  0.8774
 6619SOL    HW231494   1.085   1.528  12.206 -0.8146 -3.7086  0.6651
 6620SOL     OW31495   2.880   1.174   9.219 -0.0232  0.0285  0.2819
 6620SOL    HW131496   2.875   1.120   9.298 -1.1656 -3.7368 -2.3295
 6620SOL    HW231497   2.974   1.166   9.203  0.4194  0.3405  2.7360
 6621SOL     OW31498   3.109   1.186   2.439  0.2108 -0.2069 -0.0026
 6621SOL    HW131499   3.076   1.244   2.506  2.3219 -0.4952  1.2930
 6621SOL    HW231500   3.028   1.139   2.420  0.6666 -1.9343  2.3414
 6622SOL     OW31501   3.646   2.002   4.098 -0.1312 -0.3637  0.3312
 6622SOL    HW131502   3.585   1.974   4.029 -1.6733  1.1325  1.0768
 6622SOL    HW231503   3.727   1.971   4.057  0.3219  1.0912  0.1362
 6623SOL     OW31504   0.847   3.023  11.548 -0.3359  0.7470  0.2436
 6623SOL    HW131505   0.826   2.971  11.625  1.5855  1.6417  1.3711
 6623SOL    HW231506   0.857   2.957  11.480 -1.5270  0.6490  0.1650
 6624SOL     OW31507   0.724   4.105  11.530 -0.5184  0.2527 -0.5429
 6624SOL    HW131508   0.638   4.071  11.505 -0.8385  1.4570 -1.0969
 6624SOL    HW231509   0.745   4.050  11.605  1.2362  2.1029  0.3229
 6625SOL     OW31510   2.930   3.219   8.612 -0.3146 -1.0280 -0.5073
 6625SOL    HW131511   2.938   3.302   8.566 -0.3581  0.4302  2.1265
 6625SOL    HW231512   2.842   3.190   8.589 -1.0047  0.2492  0.5476
 6626SOL     OW31513   3.338   2.039   4.297  0.2987  0.3105 -0.2591
 6626SOL    HW131514   3.348   2.014   4.205  0.7738  1.3692 -0.4997
 6626SOL    HW231515   3.253   2.082   4.292 -1.3193 -2.8505  0.0753
 6627SOL     OW31516   1.420   3.811   1.221 -0.3808  0.0679 -0.5029
 6627SOL    HW131517   1.362   3.863   1.166  2.5505  0.4018 -3.2866
 6627SOL    HW231518   1.477   3.765   1.160  0.1578  0.5002 -0.3245
 6628SOL     OW31519   0.782   4.029   3.131  0.3789 -0.3476  0.3828
 6628SOL    HW131520   0.851   4.046   3.195 -0.9227 -1.0192  1.9758
 6628SOL    HW231521   0.813   3.944   3.098 -0.3358  0.0039 -1.1670
 6629SOL     OW31522   0.554   1.769   7.360  0.1099  0.1144  0.1572
 6629SOL    HW131523   0.545   1.677   7.336  2.7735  0.2451 -1.3866
 6629SOL    HW231524   0.572   1.760   7.454  0.8034  1.9216  0.2057
 6630SOL     OW31525   1.047   0.110   5.653  0.2169  0.1867 -0.3333
 6630SOL    HW131526   1.046   0.205   5.647 -1.9729  0.2035  0.0281
 6630SOL    HW231527   0.956   0.103   5.683  0.5111 -0.6606  0.3775
 6631SOL     OW31528   3.278   1.125   3.852  0.0917  0.4181  0.0979
 6631SOL    HW131529   3.216   1.056   3.873  1.2331 -1.6322 -3.2332
 6631SOL    HW231530   3.260   1.189   3.921  2.6033  0.4952  0.6926
 6632SOL     OW31531   0.665   1.908   2.009  0.0441 -0.2067  0.2572
 6632SOL    HW131532   0.681   1.889   2.102  0.7451  0.5502  0.2878
 6632SOL    HW231533   0.639   1.998   2.028 -2.3496 -0.6761 -0.7683
 6633SOL     OW31534   4.511   4.250   4.885  0.2450 -0.1840 -0.0318
 6633SOL    HW131535   4.599   4.285   4.892  0.3557 -0.4772  0.0427
 6633SOL    HW231536   4.463   4.333   4.892  0.4863 -0.1615  1.2640
 6634SOL     OW31537   0.707   3.780  11.534 -0.5775 -0.2360  0.1198
 6634SOL    HW131538   0.703   3.822  11.620 -1.8580 -0.5649  0.2208
 6634SOL    HW231539   0.797   3.748  11.541 -0.8546 -0.7393  1.5687
 6635SOL     OW31540   0.629   1.484   8.077  0.6104 -0.4978  0.0455
 6635SOL    HW131541   0.711   1.444   8.047  0.0610 -0.7577 -1.1285
 6635SOL    HW231542   0.672   1.552   8.128  0.1421 -1.1219  1.2701
 6636SOL     OW31543   2.381   0.464  11.022 -0.1274 -0.1946  0.2618
 6636SOL    HW131544   2.361   0.425  11.107  1.1864 -0.0299  0.6419
 6636SOL    HW231545   2.305   0.521  11.007 -1.4941 -1.5225  2.2485
 6637SOL     OW31546   1.813   3.151  14.147  0.6592  0.0081  0.0393
 6637SOL    HW131547   1.897   3.185  14.179 -0.1362  0.5599  1.5247
 6637SOL    HW231548   1.794   3.072  14.197  2.1280  0.3920  1.1948
 6638SOL     OW31549   3.832   0.043   3.905 -0.2441 -0.0683 -1.0034
 6638SOL    HW131550   3.914   0.023   3.950 -0.6973  1.3284  0.4392
 6638SOL    HW231551   3.799   4.687   3.898 -0.6293 -0.0764  1.0503
 6639SOL     OW31552   0.717   0.815   4.530 -0.3083 -0.1291 -0.2056
 6639SOL    HW131553   0.750   0.888   4.477  0.4495 -0.0572  0.3627
 6639SOL    HW231554   0.796   0.761   4.528 -1.6656 -2.1682  1.6503
 6640SOL     OW31555   0.620   3.311  16.665 -0.4112  0.8660 -0.2545
 6640SOL    HW131556   0.611   3.297  16.571  1.4247  3.2594 -0.8095
 6640SOL    HW231557   0.573   3.232  16.690 -0.0597  0.6048 -0.4231
 6641SOL     OW31558   1.922   1.267  17.605 -0.5700 -0.1102  0.4261
 6641SOL    HW131559   1.859   1.275  17.533  2.7448 -0.2502 -2.4718
 6641SOL    HW231560   1.991   1.332  17.595 -0.6972 -0.2971 -1.6752
 6642SOL     OW31561   1.161   1.626   3.329 -0.0147 -0.2361 -0.3308
 6642SOL    HW131562   1.217   1.703   3.339 -0.7327  0.2958 -0.4174
 6642SOL    HW231563   1.234   1.568   3.306 -1.3898 -2.4341  0.7784
 6643SOL     OW31564   2.810   3.725   4.432  0.7293  0.2971 -0.2108
 6643SOL    HW131565   2.793   3.815   4.404 -0.5987  0.6518  1.7586
 6643SOL    HW231566   2.896   3.729   4.472  0.4982  0.3226  0.2810
 6644SOL     OW31567   2.689   0.640   6.605  0.3981  0.2217  0.2010
 6644SOL    HW131568   2.777   0.678   6.604  0.0171  1.1356  0.5837
 6644SOL    HW231569   2.668   0.696   6.680 -2.7987 -1.2374  0.3733
 6645SOL     OW31570   2.781   0.601  10.123  0.3092 -0.2613  0.4918
 6645SOL    HW131571   2.763   0.512  10.152  1.7807 -0.3782  1.0454
 6645SOL    HW231572   2.732   0.650  10.189  1.4200 -0.1753  1.2525
 6646SOL     OW31573   3.454   0.517   9.398 -0.0453  1.3850 -0.3046
 6646SOL    HW131574   3.431   0.491   9.308  0.2097  2.3469 -0.6498
 6646SOL    HW231575   3.532   0.462   9.399 -1.5737 -0.7936 -1.1527
 6647SOL     OW31576   3.457   0.057  15.528  0.8914 -0.1473  0.0945
 6647SOL    HW131577   3.452   0.149  15.552  1.5388 -0.4648  1.4848
 6647SOL    HW231578   3.423   0.059  15.438 -3.6224  0.2322  1.8295
 6648SOL     OW31579   1.987   2.486  17.050 -0.5427 -0.0478 -0.0250
 6648SOL    HW131580   1.935   2.539  16.990 -0.0422  0.4093 -0.0566
 6648SOL    HW231581   1.921   2.461  17.115 -0.1013  0.5085  0.6391
 6649SOL     OW31582   1.820   1.098   0.771  0.1928 -0.2095  0.0091
 6649SOL    HW131583   1.847   1.017   0.813  3.8113  0.8509 -0.2434
 6649SOL    HW231584   1.737   1.116   0.815  0.6565  0.4768  0.6028
 6650SOL     OW31585   4.204   0.912   8.471  0.2745  0.1278 -0.1965
 6650SOL    HW131586   4.132   0.874   8.421  2.4130 -2.0207 -1.6896
 6650SOL    HW231587   4.276   0.862   8.431 -0.5541 -0.2301 -1.2663
 6651SOL     OW31588   2.123   2.058   6.345 -0.5356 -0.3206 -0.8081
 6651SOL    HW131589   2.031   2.031   6.343 -1.2416  2.0715 -0.6468
 6651SOL    HW231590   2.149   1.985   6.401 -0.0106  1.5942  1.4463
 6652SOL     OW31591   3.132   1.786  12.319 -0.1916 -0.5619 -0.1272
 6652SOL    HW131592   3.081   1.865  12.298  1.4790  0.9639  1.6091
 6652SOL    HW231593   3.205   1.830  12.361  0.0614 -1.0772 -0.0325
 6653SOL     OW31594   3.180   4.511   7.696  0.2411  0.3828  0.0165
 6653SOL    HW131595   3.101   4.527   7.645  1.8720  1.9559 -2.0280
 6653SOL    HW231596   3.167   4.575   7.766 -2.8501  0.2933 -0.4953
 6654SOL     OW31597   4.189   3.061   4.073  0.2548 -1.1185  0.1073
 6654SOL    HW131598   4.283   3.040   4.075  0.2649 -1.1139 -0.2354
 6654SOL    HW231599   4.179   3.015   3.989  0.7353 -3.5084  1.3599
 6655SOL     OW31600   4.116   0.561   4.450 -0.1911  0.3164 -0.2248
 6655SOL    HW131601   4.093   0.492   4.512  0.5079 -0.4512 -0.8354
 6655SOL    HW231602   4.159   0.628   4.503 -0.5987 -0.3502  0.9575
 6656SOL     OW31603   1.896   0.435   8.807 -0.2659 -0.3927 -0.1966
 6656SOL    HW131604   1.837   0.452   8.734 -0.4986  0.0812  0.1007
 6656SOL    HW231605   1.888   0.515   8.860  3.4794 -0.1143 -0.0495
 6657SOL     OW31606   2.453   2.377   5.954 -0.1387  0.6076  0.2246
 6657SOL    HW131607   2.391   2.450   5.951 -0.2686  0.5234  0.7610
 6657SOL    HW231608   2.475   2.387   6.047 -1.8460  2.2305  0.4449
 6658SOL     OW31609   0.590   4.070   8.991  0.6197  0.5686 -0.2301
 6658SOL    HW131610   0.661   4.010   9.014 -0.0853  0.0823  0.6439
 6658SOL    HW231611   0.525   4.002   8.974  2.7232 -1.3137 -0.8541
 6659SOL     OW31612   2.859   2.027   6.321 -0.2982  0.2371 -0.3723
 6659SOL    HW131613   2.868   1.931   6.319 -0.4242  0.2224 -0.1577
 6659SOL    HW231614   2.783   2.045   6.266 -0.4809 -1.0025 -0.5269
 6660SOL     OW31615   0.971   3.950   3.863 -0.5476  0.2378 -0.3725
 6660SOL    HW131616   0.928   4.021   3.910 -2.0781 -0.8395 -0.1243
 6660SOL    HW231617   0.914   3.874   3.875 -1.6748  1.3604  1.4827
 6661SOL     OW31618   0.375   1.416  10.978  0.2106  0.2684 -0.3969
 6661SOL    HW131619   0.382   1.366  11.059  1.2911  0.9165 -0.0842
 6661SOL    HW231620   0.280   1.426  10.979  0.2710  0.9300 -1.3051
 6662SOL     OW31621   0.512   3.870   5.538 -0.1071  0.5759  0.5468
 6662SOL    HW131622   0.475   3.944   5.491  0.1107 -0.4448 -1.2353
 6662SOL    HW231623   0.433   3.839   5.584  0.8889  0.8981  2.5025
 6663SOL     OW31624   2.468   0.433   5.361 -0.3101  0.3817  0.2913
 6663SOL    HW131625   2.539   0.495   5.380  0.9304 -0.5594 -1.2568
 6663SOL    HW231626   2.405   0.484   5.310 -0.0985 -1.8343 -2.1651
 6664SOL     OW31627   1.622   4.608   3.249  0.0210  0.5202  0.3159
 6664SOL    HW131628   1.577   4.581   3.169 -0.9837 -2.0446  1.7582
 6664SOL    HW231629   1.681   4.534   3.260  1.2881  1.4516 -0.1678
 6665SOL     OW31630   0.321   3.731   0.231 -0.0283  0.2844 -0.3857
 6665SOL    HW131631   0.404   3.717   0.276 -0.7472  0.2973  0.9399
 6665SOL    HW231632   0.314   3.645   0.191  0.3163  0.0766  0.0017
 6666SOL     OW31633   3.937   1.166  10.278 -0.2600 -0.2198 -0.0845
 6666SOL    HW131634   3.873   1.114  10.327  1.0905 -0.2495  1.6324
 6666SOL    HW231635   4.016   1.116  10.298  1.1199  1.0318 -2.3812
 6667SOL     OW31636   4.727   3.105   6.350 -0.5652  0.3110 -0.1449
 6667SOL    HW131637   4.732   3.123   6.444 -1.3351 -1.6001  0.2658
 6667SOL    HW231638   0.012   3.011   6.354 -3.9015 -0.2411  1.5424
 6668SOL     OW31639   3.615   0.508  17.390  0.4095 -0.7221 -0.0062
 6668SOL    HW131640   3.705   0.478  17.383  0.4091 -0.6299 -0.3884
 6668SOL    HW231641   3.620   0.598  17.356  1.8047 -0.8555 -0.1277
 6669SOL     OW31642   0.944   1.294   0.043 -0.0439  0.8501  0.1312
 6669SOL    HW131643   0.868   1.303   0.101  0.0060  1.8540  0.0520
 6669SOL    HW231644   0.940   1.377  17.726  3.8419 -0.0634 -1.7148
 6670SOL     OW31645   3.828   2.393   6.411  0.1143  0.2591 -0.5858
 6670SOL    HW131646   3.759   2.438   6.461 -0.8054  0.5491 -2.1270
 6670SOL    HW231647   3.773   2.331   6.362 -0.6035  0.1366  0.3665
 6671SOL     OW31648   0.445   0.518  14.419 -0.0558  0.0856  0.6205
 6671SOL    HW131649   0.538   0.536  14.428  0.2405 -1.0916 -0.1246
 6671SOL    HW231650   0.418   0.550  14.505 -1.0133 -0.1423  0.4102
 6672SOL     OW31651   1.084   0.792  15.155  0.3572 -0.2211  0.1927
 6672SOL    HW131652   1.024   0.815  15.226  0.2305  0.9116 -0.2764
 6672SOL    HW231653   1.172   0.810  15.189  0.2022  1.0827 -0.1014
 6673SOL     OW31654   3.645   0.013   9.615 -0.3569  0.4364 -0.0282
 6673SOL    HW131655   3.616   0.084   9.672 -1.9203 -1.0090  0.9964
 6673SOL    HW231656   3.559   4.713   9.589 -0.1957  0.6997 -0.9119
 6674SOL     OW31657   2.907   2.669   3.849 -1.1250 -0.6804 -0.2470
 6674SOL    HW131658   3.002   2.671   3.855 -1.1012  1.9420 -1.3209
 6674SOL    HW231659   2.884   2.652   3.757  1.9254  0.5125 -1.2355
 6675SOL     OW31660   2.644   1.371   7.903  0.3097 -0.3372  0.2106
 6675SOL    HW131661   2.682   1.385   7.990 -0.0124  1.9442 -0.0200
 6675SOL    HW231662   2.562   1.328   7.928  0.0024 -1.0392 -2.0226
 6676SOL     OW31663   3.521   2.349   7.320  0.0532 -0.4024 -0.1235
 6676SOL    HW131664   3.486   2.262   7.301  0.8827 -1.1944  2.0338
 6676SOL    HW231665   3.593   2.348   7.258  0.2732  0.1318  0.1271
 6677SOL     OW31666   3.349   1.774  11.107  0.2365  0.6113  0.6221
 6677SOL    HW131667   3.297   1.696  11.087 -0.0109  1.1359 -0.7640
 6677SOL    HW231668   3.316   1.837  11.043  1.0229  0.4393  0.0472
 6678SOL     OW31669   1.769   4.679   4.519 -0.4083 -0.2573 -0.4212
 6678SOL    HW131670   1.679   4.654   4.538  0.2201 -0.4127  2.2542
 6678SOL    HW231671   1.813   4.647   4.597 -2.2777 -1.2583  0.2070
 6679SOL     OW31672   4.169   2.978   8.242 -0.0788 -0.5059  0.3762
 6679SOL    HW131673   4.112   2.961   8.167  3.1434 -0.9133 -1.9564
 6679SOL    HW231674   4.205   3.059   8.205  0.0515 -0.4923  0.5300
 6680SOL     OW31675   3.896   4.126  15.621 -0.2206  0.4216 -0.1652
 6680SOL    HW131676   3.851   4.196  15.668  0.0482 -0.4952  1.4536
 6680SOL    HW231677   3.842   4.107  15.544 -0.0120  0.3500 -0.2970
 6681SOL     OW31678   0.199   2.024   7.964  0.2078 -0.3053  0.1997
 6681SOL    HW131679   0.128   1.961   7.953  0.1696 -0.2580  0.1780
 6681SOL    HW231680   0.238   1.993   8.046 -0.1168 -1.6296 -0.1459
 6682SOL     OW31681   3.488   3.056  12.918 -0.2970 -0.0212 -0.0442
 6682SOL    HW131682   3.513   2.966  12.901  1.5398  1.0048 -2.7218
 6682SOL    HW231683   3.395   3.041  12.931 -0.3733  0.5103  0.0558
 6683SOL     OW31684   0.576   4.101  16.907 -0.0290 -0.0039  0.4711
 6683SOL    HW131685   0.625   4.020  16.896  0.1046  0.3797 -1.7881
 6683SOL    HW231686   0.645   4.166  16.918  0.5488 -0.5055 -0.2090
 6684SOL     OW31687   1.142   2.746  10.799  0.0547  0.3355 -0.5410
 6684SOL    HW131688   1.152   2.688  10.875  2.6453 -0.8849 -1.8192
 6684SOL    HW231689   1.140   2.676  10.734  1.5677 -0.6095  0.4173
 6685SOL     OW31690   0.589   4.331   7.024 -0.2507 -0.8695 -0.5360
 6685SOL    HW131691   0.684   4.338   7.024 -0.2533 -0.8483 -1.1666
 6685SOL    HW231692   0.581   4.272   6.950  1.1868  0.3062 -1.6189
 6686SOL     OW31693   1.822   2.822  14.675  0.2022  0.2022 -0.6786
 6686SOL    HW131694   1.853   2.876  14.748 -2.3016  0.5260  0.1590
 6686SOL    HW231695   1.747   2.776  14.715  0.1837  0.0176 -0.9278
 6687SOL     OW31696   2.339   3.743   3.172 -0.1701  0.1935  0.3213
 6687SOL    HW131697   2.293   3.825   3.181  0.1579  0.2893  1.1150
 6687SOL    HW231698   2.264   3.684   3.164 -0.9517  1.3755 -1.0519
 6688SOL     OW31699   2.143   4.577   7.545  0.5586  0.1632 -0.6665
 6688SOL    HW131700   2.072   4.639   7.559  2.7398  2.2610  0.9874
 6688SOL    HW231701   2.108   4.509   7.487  2.2113  0.5540 -2.1056
 6689SOL     OW31702   3.843   3.225   5.480 -0.3040  0.5395  0.0211
 6689SOL    HW131703   3.938   3.216   5.487 -0.3648 -0.8527 -0.9844
 6689SOL    HW231704   3.834   3.276   5.400  0.0773  0.0002 -0.3689
 6690SOL     OW31705   2.839   2.413   1.582 -0.4007 -0.2219 -0.1883
 6690SOL    HW131706   2.913   2.365   1.545 -1.8249 -1.7453 -1.0641
 6690SOL    HW231707   2.764   2.389   1.527 -1.4137 -0.7897  1.4326
 6691SOL     OW31708   1.197   0.774   8.526 -0.1675 -0.5476  0.0516
 6691SOL    HW131709   1.147   0.773   8.444  2.3256  2.2350 -1.4853
 6691SOL    HW231710   1.149   0.848   8.562  0.8594  0.3419 -0.3966
 6692SOL     OW31711   2.414   2.048   1.813  0.4348 -0.0500  0.1896
 6692SOL    HW131712   2.389   2.133   1.777 -0.3300  0.0694  1.0088
 6692SOL    HW231713   2.392   2.055   1.906 -0.8578 -3.2973  0.1042
 6693SOL     OW31714   3.519   4.279   7.761 -0.6196 -0.2182  0.2007
 6693SOL    HW131715   3.559   4.313   7.842  0.3381  0.4104 -0.5417
 6693SOL    HW231716   3.569   4.199   7.743  0.6996  1.0739 -1.8524
 6694SOL     OW31717   4.148   1.269   3.081 -0.6735  0.4675 -0.2977
 6694SOL    HW131718   4.185   1.240   2.998 -0.0309  0.8434 -0.1462
 6694SOL    HW231719   4.066   1.309   3.051 -0.6518  1.6016  1.1253
 6695SOL     OW31720   1.728   2.255   0.525 -0.5162 -0.0686  0.3256
 6695SOL    HW131721   1.750   2.264   0.432  0.2127 -1.1976  0.3905
 6695SOL    HW231722   1.767   2.169   0.536  0.0610  0.2599  0.8417
 6696SOL     OW31723   1.612   1.880  11.768 -0.0949 -0.7183  0.3565
 6696SOL    HW131724   1.542   1.915  11.714 -0.4877 -1.4547  0.3864
 6696SOL    HW231725   1.608   1.789  11.739 -2.3145 -0.4995  0.0315
 6697SOL     OW31726   2.599   1.602   3.035  0.2468  0.4371 -0.6441
 6697SOL    HW131727   2.588   1.695   3.056  0.4841 -0.0443  1.6202
 6697SOL    HW231728   2.693   1.585   3.030  0.1198 -1.2150  2.9116
 6698SOL     OW31729   3.435   2.957   4.472 -0.4458 -0.4262 -0.7119
 6698SOL    HW131730   3.385   2.890   4.518  0.4303 -0.4405  0.2318
 6698SOL    HW231731   3.370   2.967   4.403  0.7416  1.4161 -1.5568
 6699SOL     OW31732   1.355   3.126   6.387 -0.2976  0.9109  0.2226
 6699SOL    HW131733   1.380   3.127   6.294 -1.8458 -0.0044 -0.1967
 6699SOL    HW231734   1.275   3.074   6.383 -0.5661  1.2202  1.5640
 6700SOL     OW31735   3.247   4.610   9.311  0.3015 -1.0483  0.2818
 6700SOL    HW131736   3.196   4.569   9.380 -0.4269  0.8921  0.8813
 6700SOL    HW231737   3.213   4.564   9.234  0.9438 -0.4167 -0.3813
 6701SOL     OW31738   1.663   3.528   0.287 -0.1034  0.5850 -0.0155
 6701SOL    HW131739   1.717   3.568   0.355 -0.7512 -0.1611  0.9425
 6701SOL    HW231740   1.614   3.468   0.343  1.0587 -1.3518 -1.0991
 6702SOL     OW31741   2.971   0.492  14.296  0.3703 -0.2247 -0.2983
 6702SOL    HW131742   3.042   0.438  14.331  1.2056  1.1121  0.0561
 6702SOL    HW231743   2.912   0.422  14.267 -1.2980  1.9627 -2.2429
 6703SOL     OW31744   3.144   2.790  13.548 -0.5592  0.5124  0.1028
 6703SOL    HW131745   3.231   2.825  13.526 -1.0892  1.2937 -0.7223
 6703SOL    HW231746   3.090   2.833  13.482  2.0886  0.0620 -2.3828
 6704SOL     OW31747   1.468   0.423   0.054 -0.0577  0.0006  0.5316
 6704SOL    HW131748   1.492   0.424  17.694 -1.6630  0.9620  0.1231
 6704SOL    HW231749   1.382   0.465   0.058  0.0391  0.2118  0.3655
 6705SOL     OW31750   1.870   2.654   1.882 -0.0979 -0.1046 -0.5284
 6705SOL    HW131751   1.878   2.707   1.962  3.1546 -1.5218  0.1218
 6705SOL    HW231752   1.942   2.591   1.884 -1.6225 -1.7803  2.2700
 6706SOL     OW31753   4.582   2.322  13.771 -0.0284  0.2363  0.1438
 6706SOL    HW131754   4.526   2.245  13.775  0.3483 -0.0668 -0.4333
 6706SOL    HW231755   4.643   2.291  13.838  0.3465  0.4979 -0.0766
 6707SOL     OW31756   4.544   1.374   8.960 -0.5218  0.2795 -0.0283
 6707SOL    HW131757   4.509   1.289   8.986 -1.7983 -0.0597 -2.8001
 6707SOL    HW231758   4.568   1.348   8.871  2.1610 -1.7355  1.2876
 6708SOL     OW31759   0.058   1.131   3.962  0.0168 -0.3765 -0.4898
 6708SOL    HW131760   0.035   1.103   4.050  1.0546  0.6021  0.1020
 6708SOL    HW231761   4.702   1.131   3.928  0.0680  0.0848 -0.6312
 6709SOL     OW31762   0.607   2.825   6.424 -0.4148  0.0765  0.3100
 6709SOL    HW131763   0.583   2.879   6.348  0.6467  0.2321  0.0824
 6709SOL    HW231764   0.698   2.853   6.437 -0.4145 -0.9883  2.5439
 6710SOL     OW31765   1.609   1.033   3.878  0.7257  0.8799 -0.1691
 6710SOL    HW131766   1.617   1.087   3.799  4.8284  0.5866  0.0657
 6710SOL    HW231767   1.561   0.956   3.847  1.6093  0.0109  0.6182
 6711SOL     OW31768   3.806   3.214  16.585 -0.1317 -0.0474  0.9832
 6711SOL    HW131769   3.849   3.287  16.541 -1.3827  1.1146  1.7140
 6711SOL    HW231770   3.731   3.208  16.526  2.1612 -0.8421 -1.8566
 6712SOL     OW31771   4.067   1.787   4.241  0.0272  0.6082 -0.7376
 6712SOL    HW131772   4.007   1.745   4.180  0.5546 -0.8161 -0.2790
 6712SOL    HW231773   4.002   1.848   4.277 -0.8571 -1.1593  0.7140
 6713SOL     OW31774   1.147   3.794   6.431  0.2507 -0.2159 -0.7044
 6713SOL    HW131775   1.099   3.715   6.455 -0.1962  0.1880 -0.2631
 6713SOL    HW231776   1.108   3.857   6.491  2.0483  0.7029 -0.5017
 6714SOL     OW31777   0.473   3.775  15.561  0.0586 -0.3450 -0.2640
 6714SOL    HW131778   0.448   3.692  15.602 -0.6557 -0.9327 -1.9047
 6714SOL    HW231779   0.422   3.769  15.480 -0.9387 -0.9950  0.4245
 6715SOL     OW31780   4.313   4.006   5.730 -0.2305 -0.0194  0.0660
 6715SOL    HW131781   4.358   4.000   5.815 -0.2961 -0.1516  0.0912
 6715SOL    HW231782   4.360   4.074   5.683 -1.3475  0.6417 -0.0963
 6716SOL     OW31783   0.143   1.701   9.882 -0.4578 -0.1693 -0.0813
 6716SOL    HW131784   0.063   1.648   9.876 -0.8933  0.3462  1.3844
 6716SOL    HW231785   0.205   1.629   9.891  0.1640  0.9300  4.0015
 6717SOL     OW31786   2.886   2.209  14.549  0.0483 -0.3367  0.3386
 6717SOL    HW131787   2.953   2.275  14.529  0.0078  0.3320  2.4856
 6717SOL    HW231788   2.889   2.163  14.465 -0.3614 -0.5754  0.4552
 6718SOL     OW31789   1.969   3.699   9.026 -0.1985  0.8227  0.2450
 6718SOL    HW131790   1.914   3.705   9.103 -0.2412 -0.6212  0.3183
 6718SOL    HW231791   1.907   3.705   8.953  2.4395  0.0151 -2.0731
 6719SOL     OW31792   1.434   1.810   3.123 -0.5057 -0.0985  0.3075
 6719SOL    HW131793   1.522   1.790   3.156 -0.8258 -0.5538  0.8925
 6719SOL    HW231794   1.387   1.809   3.206 -2.0367 -2.7902 -0.6121
 6720SOL     OW31795   0.658   4.079   9.611 -0.5131  0.6974  0.5135
 6720SOL    HW131796   0.650   4.174   9.605 -0.8175  0.5652 -1.1333
 6720SOL    HW231797   0.706   4.059   9.692 -1.3313 -0.4854  0.7018
 6721SOL     OW31798   4.292   3.857   3.274 -0.1505  0.0236  0.2937
 6721SOL    HW131799   4.291   3.953   3.282  0.3777  0.0381  0.2126
 6721SOL    HW231800   4.287   3.832   3.366 -0.8600  0.3777  0.3466
 6722SOL     OW31801   1.557   2.896   0.224  0.2303 -0.1698 -0.0749
 6722SOL    HW131802   1.472   2.938   0.211  1.2287  1.4724 -1.3117
 6722SOL    HW231803   1.624   2.961   0.246  1.2475 -1.3189  0.2616
 6723SOL     OW31804   2.651   2.042   8.202 -0.6008 -0.1595  0.0647
 6723SOL    HW131805   2.694   2.055   8.286  0.2365 -1.0363 -0.2253
 6723SOL    HW231806   2.557   2.055   8.210 -0.7629 -1.9533  1.1838
 6724SOL     OW31807   4.061   4.501   3.681 -0.5573 -0.3982 -0.2266
 6724SOL    HW131808   4.093   4.568   3.620 -0.8070  0.9414  1.1108
 6724SOL    HW231809   4.084   4.418   3.640 -1.2005 -0.6685 -0.0449
 6725SOL     OW31810   0.723   1.589   2.102 -0.0343  0.0209 -0.1444
 6725SOL    HW131811   0.754   1.642   2.029  0.5738  0.9130  0.7716
 6725SOL    HW231812   0.782   1.515   2.113 -1.9977 -1.8108 -1.8146
 6726SOL     OW31813   1.368   1.385   4.687 -0.2208  0.2382 -0.2830
 6726SOL    HW131814   1.305   1.448   4.652 -1.6177 -1.0865 -0.1699
 6726SOL    HW231815   1.443   1.411   4.634  1.4178 -0.8484  1.5010
 6727SOL     OW31816   0.436   2.037  12.972  0.0823 -0.1844 -0.6189
 6727SOL    HW131817   0.416   2.130  12.979  1.7414  0.1449 -0.3650
 6727SOL    HW231818   0.460   2.017  13.063  1.8935  2.4102 -0.5373
 6728SOL     OW31819   3.417   3.300   4.901 -0.2935 -0.4833  0.1022
 6728SOL    HW131820   3.340   3.263   4.857  0.4144 -1.3606 -0.4189
 6728SOL    HW231821   3.474   3.225   4.882  0.0425  0.0824 -1.1546
 6729SOL     OW31822   1.384   1.264  11.147 -0.9629  0.5825  0.5293
 6729SOL    HW131823   1.439   1.304  11.080  2.2263  0.4887  3.0475
 6729SOL    HW231824   1.312   1.325  11.156 -0.2316  1.7865 -1.9606
 6730SOL     OW31825   0.118   2.706   3.504 -0.4218  0.1661  0.0183
 6730SOL    HW131826   0.209   2.681   3.523 -0.7601  1.2249  2.9606
 6730SOL    HW231827   0.137   2.794   3.471  1.1100 -0.7405 -1.5467
 6731SOL     OW31828   1.298   0.655  10.418 -0.0786  0.6133  0.3389
 6731SOL    HW131829   1.348   0.736  10.405  0.2558  0.0367 -2.0221
 6731SOL    HW231830   1.209   0.690  10.423 -0.2529  0.3788 -0.9813
 6732SOL     OW31831   1.721   2.963  12.452  0.1883  0.3316  0.1321
 6732SOL    HW131832   1.712   3.002  12.539  1.7333  1.4661 -0.2366
 6732SOL    HW231833   1.665   3.027  12.408 -0.3543  0.1292  0.5307
 6733SOL     OW31834   4.450   1.931   7.687 -0.0925 -0.5801  0.1688
 6733SOL    HW131835   4.425   1.910   7.596  3.6324 -0.3057 -0.8988
 6733SOL    HW231836   4.540   1.900   7.690 -0.8664 -3.0918 -2.1688
 6734SOL     OW31837   1.635   1.186   0.197  0.0694 -0.2868  0.2129
 6734SOL    HW131838   1.542   1.177   0.220 -0.2849 -0.6144 -1.3277
 6734SOL    HW231839   1.676   1.101   0.186 -0.4070 -0.6185  1.0677
 6735SOL     OW31840   1.579   4.687   6.085 -0.1252  0.2015 -0.2285
 6735SOL    HW131841   1.525   4.694   6.006  0.8909  4.0230 -0.5943
 6735SOL    HW231842   1.644   4.624   6.054  1.4356  2.8050 -2.2470
 6736SOL     OW31843   4.668   2.513   8.555  0.1821 -0.3385  0.3402
 6736SOL    HW131844   4.709   2.428   8.542  0.4249  0.4196 -3.7597
 6736SOL    HW231845   4.574   2.495   8.555  0.0638  0.2925  0.3271
 6737SOL     OW31846   0.605   0.719   4.876  0.0007  0.2020  0.1006
 6737SOL    HW131847   0.672   0.715   4.945  1.1911 -1.6623 -1.1488
 6737SOL    HW231848   0.639   0.655   4.814 -1.4368 -0.7820  0.3373
 6738SOL     OW31849   3.180   0.654  15.949  0.4749 -0.3581 -0.0658
 6738SOL    HW131850   3.136   0.579  15.990 -1.9050  0.6796 -0.6915
 6738SOL    HW231851   3.207   0.603  15.873 -0.9933 -1.8280  0.3871
 6739SOL     OW31852   4.195   0.042  11.673 -0.1003 -0.6261 -0.4369
 6739SOL    HW131853   4.219   0.126  11.634 -0.4947 -0.7907 -1.0352
 6739SOL    HW231854   4.278   0.012  11.711  0.7327  1.5053 -0.5366
 6740SOL     OW31855   2.154   1.991  16.889 -0.3676 -0.4414 -0.1020
 6740SOL    HW131856   2.101   1.978  16.811 -0.8067  0.5099  0.0342
 6740SOL    HW231857   2.238   1.955  16.862 -0.1173 -0.7654  1.0777
 6741SOL     OW31858   4.422   0.031   5.186  0.5564  0.3247 -0.1393
 6741SOL    HW131859   4.471   0.106   5.156  0.7488 -0.2277 -1.1844
 6741SOL    HW231860   4.397   0.055   5.276  0.2352 -2.8443  0.6444
 6742SOL     OW31861   1.901   1.107   5.084 -0.0805 -0.8237  0.6121
 6742SOL    HW131862   1.904   1.147   5.171  1.1011  0.0006  0.1783
 6742SOL    HW231863   1.832   1.158   5.042 -1.2880 -1.1847  2.1040
 6743SOL     OW31864   4.638   3.280   5.065 -0.4540 -0.1222 -0.3827
 6743SOL    HW131865   4.644   3.281   4.969  0.4009 -0.2465 -0.3368
 6743SOL    HW231866   4.616   3.370   5.085  0.7056  0.0289  0.2375
 6744SOL     OW31867   4.463   1.890   2.303 -0.4935 -0.2425  0.0793
 6744SOL    HW131868   4.541   1.910   2.251 -0.3228 -1.2755 -0.0463
 6744SOL    HW231869   4.487   1.918   2.391  1.8646  1.6258 -1.1548
 6745SOL     OW31870   1.348   2.033   2.567 -0.6014 -0.0825  0.4570
 6745SOL    HW131871   1.267   2.059   2.524  2.1478  1.0350 -4.0567
 6745SOL    HW231872   1.403   2.107   2.540 -0.8374 -0.2442 -0.4640
 6746SOL     OW31873   1.624   0.602  13.484 -0.6405 -0.2883 -0.5149
 6746SOL    HW131874   1.628   0.615  13.389 -2.1528  2.1844 -0.2592
 6746SOL    HW231875   1.714   0.575  13.502 -0.3972  0.2796 -0.8571
 6747SOL     OW31876   4.030   2.418   3.913  0.4694 -0.4016 -0.2031
 6747SOL    HW131877   3.966   2.420   3.842  1.1030  0.7474 -0.7496
 6747SOL    HW231878   4.098   2.484   3.900  1.0037 -0.8252  0.4362
 6748SOL     OW31879   3.888   0.722   5.328 -0.6784  0.7740 -0.3958
 6748SOL    HW131880   3.828   0.649   5.320 -0.9313  0.8737  0.5965
 6748SOL    HW231881   3.848   0.772   5.400 -0.2482 -2.5325  2.1166
 6749SOL     OW31882   0.728   3.292   4.928 -0.1996 -0.4689  0.0944
 6749SOL    HW131883   0.816   3.312   4.896 -0.5313  0.1345 -0.4318
 6749SOL    HW231884   0.740   3.226   4.997 -2.2426  0.5128  1.4119
 6750SOL     OW31885   0.744   4.344  13.974  0.2477  0.4257 -0.1157
 6750SOL    HW131886   0.807   4.415  13.988  1.2861 -0.5342  0.1488
 6750SOL    HW231887   0.762   4.286  14.048  0.0298 -0.5322 -0.8204
 6751SOL     OW31888   3.622   3.255   6.931  0.2250  0.1697  0.4370
 6751SOL    HW131889   3.654   3.253   6.841  3.4428 -0.4214  1.5619
 6751SOL    HW231890   3.540   3.304   6.927  0.1111 -0.0520  0.0387
 6752SOL     OW31891   0.252   3.500  12.769 -0.0043  0.7301  0.5434
 6752SOL    HW131892   0.204   3.519  12.688 -0.1830  0.2243  0.5297
 6752SOL    HW231893   0.295   3.585  12.775 -1.5349  1.7079 -2.0711
 6753SOL     OW31894   2.406   3.335   7.852  0.3757 -0.1942  0.3391
 6753SOL    HW131895   2.438   3.281   7.925 -0.7735 -0.4421  0.6574
 6753SOL    HW231896   2.449   3.299   7.774 -0.8745  0.3785 -0.6102
 6754SOL     OW31897   3.657   4.091   8.123  0.6168  0.5393  0.1336
 6754SOL    HW131898   3.561   4.084   8.118  0.6963 -1.4015  1.0677
 6754SOL    HW231899   3.661   4.093   8.219  1.6730 -0.9693  0.1131
 6755SOL     OW31900   1.898   0.234  15.955  0.0196  0.5624  0.2925
 6755SOL    HW131901   1.990   0.220  15.979 -0.0301  0.0234  0.1717
 6755SOL    HW231902   1.865   0.259  16.041 -1.8372 -1.5532  0.1916
 6756SOL     OW31903   3.129   1.115  15.844  0.2312 -0.3725  0.4943
 6756SOL    HW131904   3.151   1.138  15.753  0.7470 -0.5102  0.5878
 6756SOL    HW231905   3.123   1.020  15.834  0.0657 -0.4583  1.3988
 6757SOL     OW31906   1.959   3.142  12.089  0.1591 -0.7103 -0.5353
 6757SOL    HW131907   1.867   3.140  12.062  0.0121  0.3430 -0.1172
 6757SOL    HW231908   1.968   3.226  12.135 -2.5455 -1.5218  1.4423
 6758SOL     OW31909   1.560   4.209   3.741 -0.6203 -0.1949  0.8228
 6758SOL    HW131910   1.506   4.288   3.736 -2.8283 -1.7820 -0.1865
 6758SOL    HW231911   1.644   4.248   3.765 -0.6893  1.6611 -1.9828
 6759SOL     OW31912   1.053   2.639  10.409  0.1268  0.2588 -0.0157
 6759SOL    HW131913   1.025   2.729  10.396 -0.2910  0.2438  0.7638
 6759SOL    HW231914   1.022   2.612  10.495 -0.1199 -1.5103 -0.6483
 6760SOL     OW31915   0.444   3.944  14.722 -0.2369  0.3626 -0.0127
 6760SOL    HW131916   0.516   3.888  14.694  0.0068 -0.7740  2.9376
 6760SOL    HW231917   0.468   4.036  14.737  0.2428  0.0816  0.9635
 6761SOL     OW31918   0.593   0.052  16.500 -0.3532 -0.0166  0.2961
 6761SOL    HW131919   0.636   0.136  16.515 -0.7779  0.6358 -2.1069
 6761SOL    HW231920   0.544   0.043  16.581 -0.4799  0.4190  0.2657
 6762SOL     OW31921   2.462   4.403   9.270  0.3500 -0.1851 -0.7653
 6762SOL    HW131922   2.491   4.327   9.219 -3.9077  0.4366 -4.1519
 6762SOL    HW231923   2.502   4.378   9.353  0.4089  0.1726 -0.6845
 6763SOL     OW31924   1.408   1.603   4.072 -0.3534  0.5343  0.1129
 6763SOL    HW131925   1.425   1.630   4.163  1.9468 -2.5837  0.5970
 6763SOL    HW231926   1.487   1.640   4.032  0.7799 -1.1147  0.8243
 6764SOL     OW31927   3.525   1.669   7.484  0.4900 -0.5513  0.7174
 6764SOL    HW131928   3.564   1.603   7.540 -1.6991 -0.5781  2.1902
 6764SOL    HW231929   3.560   1.745   7.531 -0.7741 -0.9307  2.2674
 6765SOL     OW31930   3.957   4.662  16.155 -0.2969  0.0343  0.8979
 6765SOL    HW131931   3.864   4.680  16.169 -0.1372  0.9036  0.9008
 6765SOL    HW231932   3.952   4.577  16.112  0.7070  0.3600  0.1390
 6766SOL     OW31933   0.232   0.475   7.384  0.3571  0.0066  0.3811
 6766SOL    HW131934   0.215   0.382   7.398 -1.4661  0.6293  2.2687
 6766SOL    HW231935   0.155   0.505   7.432  0.7179  0.9722  0.3561
 6767SOL     OW31936   2.752   0.490   5.327  0.1908  0.2072 -0.6291
 6767SOL    HW131937   2.768   0.582   5.305  0.2384  0.7629  1.6931
 6767SOL    HW231938   2.839   0.455   5.348  0.1677 -0.6108 -1.9337
 6768SOL     OW31939   3.592   4.137  10.550  0.4507  0.6564 -0.0750
 6768SOL    HW131940   3.583   4.045  10.576 -1.5769  0.6791 -0.6645
 6768SOL    HW231941   3.624   4.174  10.632  1.7401  0.2778 -0.4100
 6769SOL     OW31942   2.806   2.117   6.571 -0.5283  0.5075 -0.1388
 6769SOL    HW131943   2.724   2.077   6.599  0.2023 -0.9288 -0.0518
 6769SOL    HW231944   2.807   2.082   6.482  3.8767 -0.8061  0.4242
 6770SOL     OW31945   1.124   3.620   1.031 -0.2570 -0.2109 -0.3177
 6770SOL    HW131946   1.067   3.551   1.064  0.3578 -0.0444  1.1272
 6770SOL    HW231947   1.115   3.685   1.101 -0.7697 -1.4918  0.8106
 6771SOL     OW31948   0.081   0.078   2.376  0.2006 -0.2328  0.1222
 6771SOL    HW131949   0.067   0.172   2.381 -0.1235 -0.2985  0.4583
 6771SOL    HW231950   4.723   0.048   2.383  0.1100  0.1130  0.4230
 6772SOL     OW31951   0.493   2.932   6.648 -0.4275 -0.5847  0.3363
 6772SOL    HW131952   0.444   2.977   6.579 -0.7115 -2.3548 -0.6006
 6772SOL    HW231953   0.534   2.854   6.610  0.3330  0.0517 -0.1560
 6773SOL     OW31954   2.734   2.859   6.841 -1.0572 -0.2038 -0.6508
 6773SOL    HW131955   2.645   2.875   6.809 -1.3385 -0.8531 -0.1990
 6773SOL    HW231956   2.782   2.918   6.783  0.6220  0.9399  1.8814
 6774SOL     OW31957   3.197   3.218   3.761  0.1159 -0.2124  0.7710
 6774SOL    HW131958   3.165   3.140   3.808  2.1967 -0.9713  0.9456
 6774SOL    HW231959   3.130   3.243   3.697  0.3753  0.0148  0.5907
 6775SOL     OW31960   4.164   2.143  15.483 -0.0559 -0.2960  0.6916
 6775SOL    HW131961   4.196   2.099  15.404  0.7528 -1.6851  1.8058
 6775SOL    HW231962   4.164   2.232  15.446  0.8590 -0.5239  0.1345
 6776SOL     OW31963   3.090   1.211   8.464  0.1162  0.3276  0.4192
 6776SOL    HW131964   3.016   1.164   8.425 -0.4367  1.2701  0.3501
 6776SOL    HW231965   3.040   1.268   8.522 -0.4463 -0.6445  0.8956
 6777SOL     OW31966   0.759   0.570   6.034  0.1560 -0.4174 -0.0168
 6777SOL    HW131967   0.817   0.531   6.099  2.4980  0.4222 -1.6067
 6777SOL    HW231968   0.796   0.658   6.037  0.2397 -0.4441 -0.3038
 6778SOL     OW31969   1.600   0.140   5.235 -0.7319 -0.0112  0.0794
 6778SOL    HW131970   1.598   0.135   5.140 -0.1761  3.7527 -0.1203
 6778SOL    HW231971   1.565   0.054   5.259 -0.1162 -1.0463 -2.7927
 6779SOL     OW31972   3.325   1.420   6.996 -0.4096 -0.3630 -0.8947
 6779SOL    HW131973   3.337   1.487   7.063  1.1068 -1.2489 -0.2882
 6779SOL    HW231974   3.246   1.382   7.033 -0.2333  0.6224  0.4790
 6780SOL     OW31975   3.806   3.042   6.142 -0.2838 -0.5893 -0.4670
 6780SOL    HW131976   3.761   3.126   6.151 -0.1552 -0.2228 -3.0026
 6780SOL    HW231977   3.829   3.045   6.049 -0.1665  0.9804 -0.3766
 6781SOL     OW31978   0.687   1.926   6.048 -0.4910 -0.7979  0.5276
 6781SOL    HW131979   0.717   1.970   6.128 -2.1916  2.9670 -0.8793
 6781SOL    HW231980   0.591   1.924   6.051 -0.6574  1.5485 -3.1512
 6782SOL     OW31981   2.119   4.348  16.185 -0.3284 -0.5900 -0.0056
 6782SOL    HW131982   2.031   4.385  16.189 -0.0579  0.0839 -0.3257
 6782SOL    HW231983   2.131   4.314  16.274 -0.5554  2.0257  1.0063
 6783SOL     OW31984   4.277   2.456   7.402 -0.1863  0.3466 -0.6848
 6783SOL    HW131985   4.334   2.528   7.375 -1.5143  2.4654  2.1631
 6783SOL    HW231986   4.292   2.393   7.331 -0.1571 -2.8784  2.2011
 6784SOL     OW31987   3.496   0.957   2.022 -0.1712 -0.0142 -0.0734
 6784SOL    HW131988   3.452   0.899   1.960 -1.0058  0.6961 -0.1474
 6784SOL    HW231989   3.475   1.041   1.980  1.2851 -0.0487 -0.8742
 6785SOL     OW31990   3.256   2.363  16.316 -0.5084  0.0127  0.3902
 6785SOL    HW131991   3.196   2.340  16.386 -0.7040  0.5352  0.3992
 6785SOL    HW231992   3.283   2.279  16.279 -3.6829 -0.2597 -1.2733
 6786SOL     OW31993   2.174   0.414  17.531  0.5139 -0.3886 -0.4308
 6786SOL    HW131994   2.080   0.397  17.538  0.9964 -1.9496  2.1563
 6786SOL    HW231995   2.184   0.439  17.623 -0.3672 -1.1792 -0.1266
 6787SOL     OW31996   2.665   1.025   4.421 -0.4220  0.4790  0.8771
 6787SOL    HW131997   2.612   1.070   4.356 -2.2998 -1.4816  1.0665
 6787SOL    HW231998   2.678   0.934   4.392  2.0931  1.5271 -1.2135
 6788SOL     OW31999   3.855   3.812   7.951 -0.1884  0.0431 -0.4345
 6788SOL    HW132000   3.907   3.737   7.923 -1.5686 -1.4565  1.0568
 6788SOL    HW232001   3.841   3.788   8.043 -0.2647 -0.4551 -0.5785
 6789SOL     OW32002   1.786   2.071   8.443  0.0850  0.0839 -0.3167
 6789SOL    HW132003   1.760   2.143   8.386 -3.3037 -1.2615 -0.4851
 6789SOL    HW232004   1.753   2.103   8.527 -3.6030 -1.5812 -1.1503
 6790SOL     OW32005   3.759   1.549   6.234  0.3655 -0.2073  0.8650
 6790SOL    HW132006   3.839   1.598   6.255  0.8807 -0.6676  0.0104
 6790SOL    HW232007   3.730   1.610   6.166  0.8847  0.2121  1.0199
 6791SOL     OW32008   0.590   2.248   0.041  0.1247 -0.0265 -0.1268
 6791SOL    HW132009   0.529   2.314   0.074 -1.6347 -0.1590 -3.0724
 6791SOL    HW232010   0.604   2.187   0.113 -0.1946  0.3133  0.2200
 6792SOL     OW32011   3.518   1.171   7.971  0.2716  0.1173 -0.3046
 6792SOL    HW132012   3.565   1.131   7.898  0.7630 -2.4064  1.3864
 6792SOL    HW232013   3.429   1.191   7.944 -0.3983 -1.0400  1.0580
 6793SOL     OW32014   2.484   4.334  13.363  0.6535  0.7455  0.1639
 6793SOL    HW132015   2.523   4.421  13.375  0.5010  0.7459  0.6824
 6793SOL    HW232016   2.557   4.289  13.321  1.4816  0.9195  1.3952
 6794SOL     OW32017   3.514   2.522  12.877  0.2930  0.1103  0.0402
 6794SOL    HW132018   3.478   2.492  12.794  0.3297 -0.2381  0.1510
 6794SOL    HW232019   3.434   2.561  12.913  2.0648  1.8195  2.1168
 6795SOL     OW32020   3.443   0.379   7.400  0.1374  0.2143 -0.8998
 6795SOL    HW132021   3.463   0.319   7.328  0.4345  0.4775 -1.0314
 6795SOL    HW232022   3.433   0.462   7.355  0.4583  0.1917 -1.0132
 6796SOL     OW32023   4.190   3.834   8.640 -0.1855 -0.1046 -0.0077
 6796SOL    HW132024   4.174   3.740   8.631  0.8650 -0.2800 -0.0302
 6796SOL    HW232025   4.222   3.852   8.551 -0.1403  0.1042  0.0490
 6797SOL     OW32026   0.436   2.603   0.525 -0.3951 -0.6063  0.3224
 6797SOL    HW132027   0.343   2.615   0.509 -0.6922 -2.0324  0.9430
 6797SOL    HW232028   0.429   2.513   0.557 -1.6550 -1.2953 -1.8271
 6798SOL     OW32029   1.358   1.050  12.639  0.7827  0.1217 -0.3177
 6798SOL    HW132030   1.285   1.099  12.602  0.8759 -0.3031 -1.0582
 6798SOL    HW232031   1.388   1.012  12.557  1.3575 -0.1661  0.0279
 6799SOL     OW32032   2.648   3.762   5.473 -0.0541 -0.1882 -0.2237
 6799SOL    HW132033   2.600   3.728   5.548 -2.0067 -0.8153 -1.7650
 6799SOL    HW232034   2.684   3.680   5.438  0.0635  0.8107 -2.4442
 6800SOL     OW32035   0.628   3.192   4.146  0.0197 -0.1075  0.1864
 6800SOL    HW132036   0.624   3.282   4.178  1.5385 -0.2155  0.6722
 6800SOL    HW232037   0.642   3.148   4.230  1.5996  1.2477  0.6227
 6801SOL     OW32038   4.365   2.063   7.135  0.7108  0.6945 -0.1878
 6801SOL    HW132039   4.291   2.008   7.158 -0.1185  2.6215  1.8078
 6801SOL    HW232040   4.389   2.019   7.053 -3.5018 -1.7420 -0.0949
 6802SOL     OW32041   1.341   3.295  12.424 -0.3343  0.2944  0.1596
 6802SOL    HW132042   1.419   3.347  12.448  0.0119 -0.3525  0.4440
 6802SOL    HW232043   1.310   3.271  12.512  0.4971 -1.1739  0.0561
 6803SOL     OW32044   3.732   1.035   1.770 -0.5441  0.6150 -0.0983
 6803SOL    HW132045   3.663   1.075   1.822  0.3212  0.1542  1.4156
 6803SOL    HW232046   3.783   0.994   1.841 -0.9840  0.0167 -0.1294
 6804SOL     OW32047   0.226   3.714   9.050 -0.2055 -0.2524 -0.0420
 6804SOL    HW132048   0.215   3.690   9.142 -0.0699 -0.3375 -0.0473
 6804SOL    HW232049   0.139   3.710   9.012 -0.6277  0.3895  0.8660
 6805SOL     OW32050   2.874   0.778   4.040  0.1603 -0.1862  0.6080
 6805SOL    HW132051   2.840   0.798   3.952  0.3367 -1.5719  0.2206
 6805SOL    HW232052   2.901   0.689   4.018 -1.9117 -1.4550  3.3017
 6806SOL     OW32053   2.217   3.190   6.105  0.4218  0.1688 -0.2447
 6806SOL    HW132054   2.276   3.225   6.038 -2.4070  0.3699 -2.6283
 6806SOL    HW232055   2.255   3.104   6.122  1.4045  1.3826  3.6144
 6807SOL     OW32056   4.102   2.107  15.110  0.1160 -0.2985  0.9458
 6807SOL    HW132057   4.161   2.177  15.140 -0.0939 -0.0664  0.8102
 6807SOL    HW232058   4.021   2.158  15.117 -0.3133 -0.8555 -0.0391
 6808SOL     OW32059   0.119   1.948   9.029  0.1116 -0.1060  0.2563
 6808SOL    HW132060   0.039   1.999   9.017  0.4212  0.4643  0.6130
 6808SOL    HW232061   0.099   1.917   9.117  1.5591 -0.8597  0.3333
 6809SOL     OW32062   4.590   2.498   2.611  0.1020  0.0306 -0.3164
 6809SOL    HW132063   4.661   2.531   2.665  0.9125 -3.1723  0.5781
 6809SOL    HW232064   4.607   2.405   2.629 -0.5538  0.2513  1.3923
 6810SOL     OW32065   0.491   4.166   3.662 -0.0434 -0.0992  0.2800
 6810SOL    HW132066   0.496   4.261   3.646  1.0154  0.2172  2.4344
 6810SOL    HW232067   0.585   4.152   3.674  0.2717  0.1414 -1.8930
 6811SOL     OW32068   0.602   1.801   5.768  0.1889 -0.7315  0.0570
 6811SOL    HW132069   0.665   1.858   5.724  0.8924 -1.6243 -0.1092
 6811SOL    HW232070   0.634   1.800   5.858  0.1741 -0.0147  0.0663
 6812SOL     OW32071   3.104   0.757   9.034 -0.6031  0.0972  0.4054
 6812SOL    HW132072   3.123   0.845   9.002  0.4393 -0.7586 -1.3326
 6812SOL    HW232073   3.086   0.776   9.126 -2.5095 -0.3384  0.1317
 6813SOL     OW32074   1.294   0.784   8.915 -0.2247  0.3592 -0.2519
 6813SOL    HW132075   1.269   0.844   8.845 -2.8530  1.9555  2.0838
 6813SOL    HW232076   1.381   0.820   8.936  0.3093 -0.8555 -0.4023
 6814SOL     OW32077   3.790   1.593   2.136  0.0584  0.0366  0.7014
 6814SOL    HW132078   3.742   1.526   2.184 -0.7330  0.5147  0.5635
 6814SOL    HW232079   3.865   1.618   2.191 -0.3229  0.8289  0.8584
 6815SOL     OW32080   1.288   4.041  15.934 -0.5204  0.0767  0.1881
 6815SOL    HW132081   1.203   4.008  15.964  0.2211 -2.9394 -0.9301
 6815SOL    HW232082   1.256   4.102  15.867  0.8109  0.1639 -0.3673
 6816SOL     OW32083   3.060   0.151   2.937 -0.3723  0.4639 -0.4555
 6816SOL    HW132084   3.112   0.113   3.007 -0.5722  0.6853 -0.1857
 6816SOL    HW232085   2.997   0.082   2.916  0.5814 -0.5599  0.0466
 6817SOL     OW32086   2.833   1.055   1.957  0.0895  0.4477 -0.0266
 6817SOL    HW132087   2.792   1.113   1.893  0.5160  2.5920  1.6498
 6817SOL    HW232088   2.845   0.975   1.904 -1.2937  1.2265 -1.5378
 6818SOL     OW32089   3.685   3.781   8.384 -0.2163  0.6000  0.0595
 6818SOL    HW132090   3.651   3.869   8.371  0.4659  0.9552  0.6958
 6818SOL    HW232091   3.727   3.791   8.470 -2.1353 -2.3313  1.3168
 6819SOL     OW32092   0.527   2.933   4.067 -0.6176 -0.7670  0.7652
 6819SOL    HW132093   0.559   3.022   4.085  1.7607 -1.4916  0.1611
 6819SOL    HW232094   0.453   2.924   4.127 -1.5927  1.5545 -0.0659
 6820SOL     OW32095   1.532   1.622   1.387  0.1597  0.5275  0.9242
 6820SOL    HW132096   1.612   1.591   1.344 -0.2615 -1.6073  1.6881
 6820SOL    HW232097   1.492   1.669   1.313 -0.9348 -0.1217  1.1049
 6821SOL     OW32098   0.685   0.515   1.813 -0.1014 -0.1364 -0.2950
 6821SOL    HW132099   0.767   0.500   1.766 -0.3431  4.6091 -2.2807
 6821SOL    HW232100   0.673   0.605   1.783 -0.8444  0.3961  1.5801
 6822SOL     OW32101   0.659   0.650  15.058  0.0279  0.4745 -0.5299
 6822SOL    HW132102   0.693   0.587  15.120  0.1557 -0.8140 -1.8942
 6822SOL    HW232103   0.666   0.600  14.976 -1.5047 -0.3722 -0.1513
 6823SOL     OW32104   2.633   2.078   3.583 -0.5164  0.1127 -0.3165
 6823SOL    HW132105   2.579   2.142   3.538 -1.6533  2.0934  3.9174
 6823SOL    HW232106   2.695   2.137   3.626  1.1518 -0.9568 -1.2261
 6824SOL     OW32107   2.652   0.937   8.495  0.0244  0.4094 -0.0640
 6824SOL    HW132108   2.722   0.900   8.549 -0.1408 -1.1122 -0.8938
 6824SOL    HW232109   2.581   0.954   8.556  1.5081  1.2848  1.4144
 6825SOL     OW32110   3.622   2.963   0.497 -0.2619  0.2719 -0.0951
 6825SOL    HW132111   3.693   3.026   0.482  0.0371  0.1180  0.6595
 6825SOL    HW232112   3.595   2.955   0.406  0.0463  1.8770 -0.3352
 6826SOL     OW32113   2.918   1.910   3.960  0.0246 -0.0921 -0.0183
 6826SOL    HW132114   2.936   2.003   3.968  2.2986 -0.8140  3.3015
 6826SOL    HW232115   2.862   1.889   4.034 -0.5920  0.5152 -0.3238
 6827SOL     OW32116   1.601   4.716   6.996  0.3874 -0.5949  0.4193
 6827SOL    HW132117   1.569   4.663   6.923  2.0224  0.6589 -1.2320
 6827SOL    HW232118   1.692   4.688   7.010  1.2112  1.4004 -0.9367
 6828SOL     OW32119   3.974   0.068   9.311 -0.8677 -0.6815  0.2748
 6828SOL    HW132120   3.996   0.140   9.369  0.5833 -0.2577 -0.7821
 6828SOL    HW232121   3.900   0.027   9.355 -2.3227  0.1404 -1.3737
 6829SOL     OW32122   4.065   0.910  16.028 -0.2728 -0.3058 -0.4230
 6829SOL    HW132123   4.076   0.986  16.085 -0.1767 -0.8318  0.2489
 6829SOL    HW232124   4.058   0.836  16.088  0.1659  0.7181  0.8825
 6830SOL     OW32125   3.483   2.029   6.101  0.6156  0.2057  1.1319
 6830SOL    HW132126   3.399   2.044   6.145 -0.4981 -1.8327 -0.3253
 6830SOL    HW232127   3.505   2.116   6.068  1.5685 -0.4746 -0.0022
 6831SOL     OW32128   3.129   0.625   7.533 -0.5931  0.9848  0.0588
 6831SOL    HW132129   3.069   0.556   7.507 -0.4988  0.6762  0.6641
 6831SOL    HW232130   3.166   0.654   7.449 -2.2061  1.2857 -0.5346
 6832SOL     OW32131   2.483   0.084   9.122 -0.4598  0.3909  0.0661
 6832SOL    HW132132   2.456   0.129   9.203 -1.4140  0.6429 -0.3907
 6832SOL    HW232133   2.397   0.078   9.082 -0.5197 -0.3838  0.3109
 6833SOL     OW32134   0.214   4.412  14.597  0.1401  0.1105  0.2196
 6833SOL    HW132135   0.171   4.494  14.621 -1.4981 -1.0396  1.3114
 6833SOL    HW232136   0.300   4.448  14.576 -0.4241  1.9200  1.0114
 6834SOL     OW32137   1.035   3.571   8.977 -0.7999 -0.3173  0.4619
 6834SOL    HW132138   0.974   3.508   8.938  0.6254  0.5482 -3.1464
 6834SOL    HW232139   0.981   3.605   9.048  1.0248  2.1900  0.6220
 6835SOL     OW32140   3.829   3.651   8.212  0.9319  0.5361 -0.2316
 6835SOL    HW132141   3.766   3.699   8.265  1.5926  0.6270  0.4857
 6835SOL    HW232142   3.788   3.569   8.240  0.7208  0.4487 -0.8012
 6836SOL     OW32143   1.806   4.128   2.374  0.5416  0.1737  0.4637
 6836SOL    HW132144   1.789   4.214   2.335 -0.8310  0.3218  1.3720
 6836SOL    HW232145   1.859   4.095   2.301  0.9617  2.4038 -0.2664
 6837SOL     OW32146   2.516   3.296   8.195  0.0987  0.7170  0.0865
 6837SOL    HW132147   2.428   3.325   8.221 -0.9995 -1.0666 -1.6119
 6837SOL    HW232148   2.503   3.216   8.143  1.1398  0.6031  0.0046
 6838SOL     OW32149   3.717   3.348   8.453 -0.2475  0.0430  0.5459
 6838SOL    HW132150   3.694   3.353   8.361 -0.2853 -0.7008  0.5099
 6838SOL    HW232151   3.754   3.431   8.483 -1.1770 -0.6223  3.5257
 6839SOL     OW32152   1.148   1.698   9.060  0.6636  0.5673 -0.0775
 6839SOL    HW132153   1.127   1.660   9.145  0.4897 -3.0957 -1.7383
 6839SOL    HW232154   1.160   1.617   9.009 -0.4956  1.0570 -1.1152
 6840SOL     OW32155   3.288   0.456   3.015 -0.2691  0.2582 -0.0932
 6840SOL    HW132156   3.214   0.431   2.959 -0.1807  0.3997 -0.2726
 6840SOL    HW232157   3.316   0.525   2.955 -1.1154  1.7818  1.2636
 6841SOL     OW32158   0.412   3.553   5.551 -0.1027 -0.0469 -0.0562
 6841SOL    HW132159   0.388   3.488   5.617  0.5279  0.5307  0.7584
 6841SOL    HW232160   0.340   3.615   5.550  0.0480  0.1297 -0.0710
 6842SOL     OW32161   3.257   3.842   6.282 -0.0938 -0.3115 -0.4715
 6842SOL    HW132162   3.169   3.871   6.306 -1.0146 -2.4984 -1.1852
 6842SOL    HW232163   3.309   3.889   6.347  1.1823 -0.4935 -1.3644
 6843SOL     OW32164   2.063   1.127   7.687 -0.4814 -0.4752 -0.0128
 6843SOL    HW132165   2.031   1.216   7.673  0.4302 -0.3895 -1.6000
 6843SOL    HW232166   1.982   1.080   7.667  0.2484 -1.8991  0.3891
 6844SOL     OW32167   4.113   1.561   6.333  0.1388 -0.3022  0.9508
 6844SOL    HW132168   4.060   1.625   6.284  1.2585 -1.1601 -1.3470
 6844SOL    HW232169   4.086   1.593   6.419 -2.2074  0.0450  0.0914
 6845SOL     OW32170   1.575   3.936   2.802  0.6224 -0.4733  0.4801
 6845SOL    HW132171   1.636   4.010   2.794 -0.9241  0.9266  1.5990
 6845SOL    HW232172   1.490   3.977   2.819  0.0041 -2.1818  1.4363
 6846SOL     OW32173   2.544   2.476  16.042  0.2416 -0.0136  0.1478
 6846SOL    HW132174   2.596   2.541  15.995  0.0465 -1.0177 -1.4627
 6846SOL    HW232175   2.508   2.533  16.110 -0.6128  0.1494 -0.4456
 6847SOL     OW32176   4.042   0.984   3.882 -0.7410 -0.0175 -0.4820
 6847SOL    HW132177   3.958   0.944   3.907  0.1225 -0.2188  2.1040
 6847SOL    HW232178   4.019   1.026   3.799 -2.1282  0.3657  0.1018
 6848SOL     OW32179   3.377   2.080   7.303 -0.3232  0.5291 -0.1910
 6848SOL    HW132180   3.430   2.001   7.295 -0.9161  0.2271 -1.1685
 6848SOL    HW232181   3.308   2.042   7.357  0.2948  2.0461  1.6825
 6849SOL     OW32182   3.386   0.251  16.523  0.1096 -0.2492 -0.1398
 6849SOL    HW132183   3.393   0.323  16.586  1.1029  0.2268 -0.7947
 6849SOL    HW232184   3.407   0.177  16.580 -0.3666 -0.5704 -0.3820
 6850SOL     OW32185   4.461   1.771   3.257 -0.4639 -0.1860  0.3251
 6850SOL    HW132186   4.525   1.714   3.215  0.8285  2.0913 -0.7901
 6850SOL    HW232187   4.406   1.712   3.309 -0.2792 -0.6362  0.0068
 6851SOL     OW32188   1.539   0.333   3.639  0.0909 -1.0841 -0.3366
 6851SOL    HW132189   1.468   0.271   3.653  0.2186 -1.0835  0.3252
 6851SOL    HW232190   1.590   0.290   3.571  0.0227  2.3996 -2.5606
 6852SOL     OW32191   1.349   0.301   9.620 -0.6325  0.6017  0.0519
 6852SOL    HW132192   1.328   0.227   9.564  1.2075 -0.0993  0.2694
 6852SOL    HW232193   1.264   0.345   9.617 -0.9288 -0.0014 -0.2386
 6853SOL     OW32194   0.971   3.699   3.697 -0.3763  0.1853  0.7002
 6853SOL    HW132195   0.976   3.770   3.632 -0.0814  0.8310  1.4294
 6853SOL    HW232196   0.899   3.736   3.748 -1.0544 -0.2094  0.0212
 6854SOL     OW32197   3.003   1.173   6.129  0.1409  0.5629  0.5652
 6854SOL    HW132198   2.919   1.175   6.083  0.9354  3.1500 -0.7681
 6854SOL    HW232199   3.062   1.133   6.066  0.6565  1.5445  0.4286
 6855SOL     OW32200   0.905   1.618   1.908 -0.7280  0.0057 -0.1118
 6855SOL    HW132201   0.886   1.529   1.879  0.3958 -0.2066 -0.1823
 6855SOL    HW232202   0.982   1.597   1.960 -1.2244  0.1588  0.6898
 6856SOL     OW32203   4.193   3.485   6.119  0.2287 -0.1538  0.1850
 6856SOL    HW132204   4.140   3.485   6.039 -2.8925  2.8323  2.3022
 6856SOL    HW232205   4.267   3.425   6.103 -0.8510 -1.5556  0.4755
 6857SOL     OW32206   2.660   1.978   7.884 -0.0130  0.7430  0.0559
 6857SOL    HW132207   2.704   2.010   7.963  3.2637 -0.5460 -1.2397
 6857SOL    HW232208   2.588   2.038   7.867  1.3523  2.4155  0.1764
 6858SOL     OW32209   0.387   2.493   4.394  0.0645 -0.1869  0.4015
 6858SOL    HW132210   0.391   2.578   4.437  1.9472  0.9107 -1.9853
 6858SOL    HW232211   0.477   2.492   4.362 -0.0367 -0.9560  0.1344
 6859SOL     OW32212   3.353   3.568   6.210  0.0778 -0.1954  0.6560
 6859SOL    HW132213   3.318   3.651   6.241 -1.8074 -1.0535  0.8170
 6859SOL    HW232214   3.272   3.528   6.179  0.8699 -2.0097  0.9133
 6860SOL     OW32215   2.461   0.860   4.730  0.2174  0.5952 -0.0783
 6860SOL    HW132216   2.485   0.928   4.666  0.5316 -1.5165 -2.2231
 6860SOL    HW232217   2.474   0.777   4.684 -0.0793  1.3832 -1.6017
 6861SOL     OW32218   2.255   1.082   6.559  0.1127  0.6422  0.1238
 6861SOL    HW132219   2.261   1.138   6.482  0.5300 -0.1881 -0.4572
 6861SOL    HW232220   2.347   1.080   6.583 -0.5453 -0.5712  2.5045
 6862SOL     OW32221   2.533   4.261  11.719  0.5155 -0.3826 -0.3367
 6862SOL    HW132222   2.452   4.298  11.752  0.8561  0.6527 -0.6782
 6862SOL    HW232223   2.538   4.277  11.625 -0.4769  0.6042 -0.2165
 6863SOL     OW32224   1.882   4.097   1.372  0.6851  0.1261 -0.3911
 6863SOL    HW132225   1.837   4.069   1.452  2.1928 -0.0401  0.4003
 6863SOL    HW232226   1.809   4.139   1.328 -0.1363  0.2246  1.0723
 6864SOL     OW32227   2.343   4.475   2.007  0.0124 -0.2353 -0.5304
 6864SOL    HW132228   2.273   4.526   1.967  0.8565  1.0826 -0.3325
 6864SOL    HW232229   2.309   4.393   1.970  2.6244 -1.4747 -0.1791
 6865SOL     OW32230   1.404   1.470  12.044 -0.4830 -0.3872 -0.2716
 6865SOL    HW132231   1.358   1.553  12.042 -0.5642 -0.4228  0.1950
 6865SOL    HW232232   1.410   1.454  11.950  1.0276  1.4178 -0.4704
 6866SOL     OW32233   0.241   0.658  11.372 -0.5940 -0.2640 -0.2486
 6866SOL    HW132234   0.209   0.661  11.462 -1.0101 -1.7742 -0.3602
 6866SOL    HW232235   0.201   0.587  11.322  0.5711 -1.2907  0.2800
 6867SOL     OW32236   3.718   2.513  13.272 -0.3629 -0.8596 -0.5773
 6867SOL    HW132237   3.734   2.549  13.185  1.6158  1.7534  0.8378
 6867SOL    HW232238   3.802   2.488  13.311 -1.1353 -0.3673  1.4259
 6868SOL     OW32239   2.934   1.593   5.941 -0.1893 -0.1736  0.1013
 6868SOL    HW132240   2.983   1.659   5.990 -0.6884 -0.4618  0.9838
 6868SOL    HW232241   3.009   1.533   5.939 -0.9030 -1.0817  0.7533
 6869SOL     OW32242   2.985   2.231   2.813 -0.1237  0.2548 -0.0062
 6869SOL    HW132243   3.067   2.254   2.768 -0.8059 -1.2699 -2.0078
 6869SOL    HW232244   2.920   2.282   2.766 -0.0527 -0.1601 -0.5511
 6870SOL     OW32245   3.971   1.268  14.261  0.1829  0.3040  0.2272
 6870SOL    HW132246   3.959   1.180  14.225  1.3478  1.4346 -2.9316
 6870SOL    HW232247   3.905   1.271  14.330 -0.4605 -0.5430 -0.3392
 6871SOL     OW32248   3.825   1.262   1.648 -0.2071 -0.2368  0.2018
 6871SOL    HW132249   3.899   1.239   1.705  0.0475 -0.8097 -0.3551
 6871SOL    HW232250   3.765   1.189   1.662 -1.3576  0.6465 -0.1790
 6872SOL     OW32251   3.160   2.942   5.835  0.4021 -0.1387  0.3614
 6872SOL    HW132252   3.212   3.014   5.870 -0.7841  0.7975  0.2100
 6872SOL    HW232253   3.191   2.869   5.889  0.1542 -1.0433 -0.7221
 6873SOL     OW32254   3.152   1.157   5.130  0.0646  0.0544  0.7661
 6873SOL    HW132255   3.172   1.081   5.185 -3.4668 -0.2592  1.6149
 6873SOL    HW232256   3.058   1.150   5.115  0.2833 -0.1282 -0.5332
 6874SOL     OW32257   2.045   4.424   4.325  0.5978 -0.6584  0.0307
 6874SOL    HW132258   2.106   4.351   4.313  0.1420 -1.3591  2.1684
 6874SOL    HW232259   1.961   4.382   4.345 -0.0457 -0.0073 -1.2380
 6875SOL     OW32260   2.590   3.571   8.043  0.2050 -0.1507 -0.6818
 6875SOL    HW132261   2.602   3.581   7.949  2.5647 -0.2848 -0.3806
 6875SOL    HW232262   2.530   3.496   8.039 -0.2074 -0.0947  3.8383
 6876SOL     OW32263   3.129   3.887   5.825  0.7477 -0.6138 -0.2309
 6876SOL    HW132264   3.102   3.977   5.812  3.2367  0.4279  1.8493
 6876SOL    HW232265   3.057   3.856   5.880  0.2782  1.5969  0.3983
 6877SOL     OW32266   1.243   3.267   5.929  0.1206 -0.3529 -0.6283
 6877SOL    HW132267   1.275   3.357   5.938 -1.4921  0.0190  1.2866
 6877SOL    HW232268   1.168   3.256   5.987  1.0129  0.5265  0.7039
 6878SOL     OW32269   1.566   2.718   8.060  0.0403 -0.0625 -0.3177
 6878SOL    HW132270   1.591   2.807   8.034  2.2179  0.0623  2.0474
 6878SOL    HW232271   1.524   2.750   8.140  2.1913  1.5180  0.2090
 6879SOL     OW32272   1.192   0.250   1.990 -0.8400 -0.0236  0.3632
 6879SOL    HW132273   1.244   0.307   2.046 -2.9085  0.0541  2.2219
 6879SOL    HW232274   1.109   0.293   2.011 -1.1018 -0.0475 -0.6123
 6880SOL     OW32275   3.779   2.848  13.255  0.0209 -0.2953  0.8625
 6880SOL    HW132276   3.731   2.797  13.320 -2.4265  0.9039 -0.0018
 6880SOL    HW232277   3.765   2.787  13.182  0.0692  0.6961  0.0259
 6881SOL     OW32278   4.409   2.283   5.122 -0.2870 -0.3642 -0.4320
 6881SOL    HW132279   4.335   2.229   5.095 -1.0985 -0.5462  2.1378
 6881SOL    HW232280   4.471   2.245   5.060 -0.9488 -1.0195 -0.6925
 6882SOL     OW32281   1.469   0.459   3.215  0.0050  0.9906 -0.0670
 6882SOL    HW132282   1.409   0.476   3.288 -0.5645  1.6252 -0.6829
 6882SOL    HW232283   1.428   0.522   3.156  0.6301  1.8595  0.4209
 6883SOL     OW32284   0.154   4.621   5.187 -0.0528 -0.6718  0.3403
 6883SOL    HW132285   0.150   4.534   5.225  1.3314 -0.5512  0.7558
 6883SOL    HW232286   0.065   4.623   5.153  0.4652 -1.9992 -1.1042
 6884SOL     OW32287   2.241   4.606   6.328  0.1144 -0.4734  0.8259
 6884SOL    HW132288   2.197   4.658   6.262  0.1484 -1.9310 -0.3614
 6884SOL    HW232289   2.203   4.519   6.311  1.0336 -0.1929 -2.7609
 6885SOL     OW32290   4.407   2.843   7.769  0.1431 -0.2940  0.4037
 6885SOL    HW132291   4.502   2.855   7.768 -0.2579  2.6454 -2.9673
 6885SOL    HW232292   4.406   2.786   7.846 -0.4424 -0.0200  0.5979
 6886SOL     OW32293   1.558   0.388   1.742 -0.7494 -0.4307 -0.0022
 6886SOL    HW132294   1.510   0.469   1.758  1.3820  0.8111  0.0970
 6886SOL    HW232295   1.619   0.390   1.815 -0.2646  0.9055 -0.4535
 6887SOL     OW32296   3.724   1.288  16.360 -0.8926 -0.3136 -0.1539
 6887SOL    HW132297   3.670   1.304  16.282 -0.0589  0.6154 -0.5321
 6887SOL    HW232298   3.685   1.346  16.425 -0.0988 -1.3042  1.2105
 6888SOL     OW32299   2.952   3.177  12.856 -0.0635  0.3036 -0.1539
 6888SOL    HW132300   2.881   3.143  12.910  1.4554  0.3290  1.8642
 6888SOL    HW232301   2.933   3.146  12.768 -1.6057 -1.3249  0.7473
 6889SOL     OW32302   3.580   3.000   0.233  0.2830 -0.1044 -0.1026
 6889SOL    HW132303   3.605   2.973   0.145  0.4499  1.3061 -0.4729
 6889SOL    HW232304   3.571   3.094   0.218  1.4270 -0.1587 -1.1217
 6890SOL     OW32305   3.785   2.538  14.714 -0.5174  0.1273  0.2024
 6890SOL    HW132306   3.805   2.514  14.624  0.0798 -1.0695  0.6535
 6890SOL    HW232307   3.766   2.632  14.714  0.0026  0.2302 -0.4155
 6891SOL     OW32308   0.312   0.949   6.398  0.1172  0.0292  0.5362
 6891SOL    HW132309   0.292   1.015   6.464 -0.3888  1.9755 -1.5774
 6891SOL    HW232310   0.358   0.879   6.445  1.8029 -0.3036 -1.6045
 6892SOL     OW32311   4.598   3.728  14.012 -0.5934  0.1783  0.5952
 6892SOL    HW132312   4.564   3.781  14.084  1.3049 -1.5118  2.7335
 6892SOL    HW232313   4.660   3.782  13.964  0.2752 -1.4263 -0.0596
 6893SOL     OW32314   1.836   0.639   8.992  0.5324 -0.4110  0.2552
 6893SOL    HW132315   1.840   0.731   9.016  0.0462 -0.2169 -0.4019
 6893SOL    HW232316   1.829   0.603   9.081 -0.6558  0.1061  0.3735
 6894SOL     OW32317   3.723   2.899  16.411 -0.0624 -0.0921 -0.3451
 6894SOL    HW132318   3.655   2.859  16.466 -0.9069 -0.8820 -1.9889
 6894SOL    HW232319   3.683   2.984  16.393  1.8252  0.7764 -0.4331
 6895SOL     OW32320   0.959   1.609   9.284  0.3303  0.2374 -0.5386
 6895SOL    HW132321   1.000   1.646   9.362 -0.9495 -1.8075  1.1038
 6895SOL    HW232322   0.900   1.678   9.252 -0.1340  1.1987  2.4146
 6896SOL     OW32323   1.650   3.434   9.108 -0.0680  0.2084 -0.1271
 6896SOL    HW132324   1.668   3.414   9.016  1.7883 -1.0014  0.5006
 6896SOL    HW232325   1.649   3.530   9.107  1.2329  0.2224  0.0684
 6897SOL     OW32326   0.120   4.314   7.657  0.1900  0.1126 -0.0873
 6897SOL    HW132327   0.174   4.376   7.608  1.1112 -0.1909  0.5588
 6897SOL    HW232328   0.100   4.367   7.734  0.6410  0.8948 -0.5152
 6898SOL     OW32329   1.030   1.327   5.321  0.0238  0.5285 -0.4091
 6898SOL    HW132330   0.962   1.362   5.263  0.9990  0.7904 -1.3969
 6898SOL    HW232331   1.025   1.234   5.297 -0.8678  0.8872 -1.6336
 6899SOL     OW32332   3.523   2.439  14.475  0.1363 -0.5231  0.5045
 6899SOL    HW132333   3.524   2.358  14.527  3.8262 -0.7845  0.0080
 6899SOL    HW232334   3.617   2.457  14.482 -0.0554  0.3396  0.8724
 6900SOL     OW32335   0.096   3.170   6.601  0.1676  0.1519  0.1338
 6900SOL    HW132336   0.140   3.241   6.648  2.3392 -0.3501 -1.1197
 6900SOL    HW232337   0.060   3.125   6.677 -0.6203  0.1669 -0.2356
 6901SOL     OW32338   3.752   4.558   3.404  0.4725  0.1413  0.1219
 6901SOL    HW132339   3.813   4.631   3.412 -1.0732  1.4170  0.0507
 6901SOL    HW232340   3.803   4.500   3.347  0.3649  0.3601 -0.1952
 6902SOL     OW32341   0.885   2.012   6.813  0.0843 -0.2575 -0.4880
 6902SOL    HW132342   0.936   2.034   6.735  1.0221 -0.3635  0.0895
 6902SOL    HW232343   0.800   1.989   6.777 -0.0804 -1.1588  0.4692
 6903SOL     OW32344   4.116   2.894   3.526  0.3426  0.3103  0.3906
 6903SOL    HW132345   4.178   2.823   3.507 -0.6374 -0.6958  0.8834
 6903SOL    HW232346   4.130   2.957   3.456 -0.0465  0.5291  0.5098
 6904SOL     OW32347   1.906   3.102   3.917  0.0276  0.2738 -0.0431
 6904SOL    HW132348   1.844   3.102   3.990  0.7599  0.1283  0.5852
 6904SOL    HW232349   1.934   3.011   3.911  0.1243  0.1387  2.5232
 6905SOL     OW32350   4.259   4.330   1.900 -0.1150 -0.3226 -0.0352
 6905SOL    HW132351   4.327   4.368   1.956  0.8094 -0.2522 -1.1916
 6905SOL    HW232352   4.215   4.277   1.965 -0.9270  0.5031  0.0883
 6906SOL     OW32353   1.263   0.244   4.652  0.0425  0.2212 -0.1437
 6906SOL    HW132354   1.212   0.298   4.592  1.0640  0.2108 -1.0025
 6906SOL    HW232355   1.285   0.169   4.597 -1.0417 -0.4250  0.3035
 6907SOL     OW32356   3.699   1.557  17.192  0.3369 -0.2533  0.4775
 6907SOL    HW132357   3.767   1.514  17.141 -0.2804 -0.8808  0.1825
 6907SOL    HW232358   3.621   1.506  17.169 -0.0528  0.7564 -0.3981
 6908SOL     OW32359   0.321   0.826   2.312 -1.0249 -0.1941 -0.0369
 6908SOL    HW132360   0.410   0.854   2.292 -0.2133 -2.9564 -0.2398
 6908SOL    HW232361   0.335   0.738   2.346  0.7942 -0.2042 -0.8451
 6909SOL     OW32362   3.075   0.708   1.984 -0.1921 -0.3025 -0.8911
 6909SOL    HW132363   3.067   0.762   2.063  0.0255 -0.1212 -0.9926
 6909SOL    HW232364   3.078   0.621   2.025  1.0049  0.7329  1.2071
 6910SOL     OW32365   1.118   2.654  15.533 -0.8756 -0.1366 -0.3967
 6910SOL    HW132366   1.061   2.711  15.585  0.8456  0.7853  0.5024
 6910SOL    HW232367   1.205   2.687  15.556 -1.4365  0.2609  1.1451
 6911SOL     OW32368   2.607   0.106   8.880 -0.1963 -0.0476 -0.0966
 6911SOL    HW132369   2.621   0.015   8.905  0.7209 -0.0999 -0.7994
 6911SOL    HW232370   2.578   0.136   8.966  0.0223  2.2904 -0.8315
 6912SOL     OW32371   3.434   2.581   3.429 -0.5756  0.0409  0.7712
 6912SOL    HW132372   3.427   2.629   3.511  1.7731  0.3947  0.7655
 6912SOL    HW232373   3.520   2.604   3.395 -1.4055  2.8417  0.5915
 6913SOL     OW32374   3.409   4.165  10.339 -0.5997  0.2728  0.1470
 6913SOL    HW132375   3.462   4.157  10.419  1.5558  2.6483 -1.0268
 6913SOL    HW232376   3.322   4.189  10.369 -0.8698  1.1040 -1.2926
 6914SOL     OW32377   3.246   0.925   0.722  0.7783  0.6431  0.5269
 6914SOL    HW132378   3.285   0.876   0.650  0.8210  0.1127  0.9099
 6914SOL    HW232379   3.296   0.882   0.791 -1.2917  0.8464  2.1417
 6915SOL     OW32380   1.934   1.588   1.844  0.1595  0.4083 -0.5267
 6915SOL    HW132381   2.002   1.645   1.880 -1.7178  0.7391  2.5063
 6915SOL    HW232382   1.985   1.512   1.816 -1.3702 -1.1333  0.8267
 6916SOL     OW32383   0.719   2.577   8.658  0.2259 -0.1617 -0.0362
 6916SOL    HW132384   0.688   2.640   8.593 -4.5095 -2.0245  0.3684
 6916SOL    HW232385   0.647   2.513   8.665 -0.8339  1.2051  1.4668
 6917SOL     OW32386   0.121   2.465   3.313 -0.1121  0.3433  0.4097
 6917SOL    HW132387   0.126   2.416   3.394  1.6470 -1.4366 -0.7743
 6917SOL    HW232388   0.189   2.531   3.328  0.2501  0.0122  0.2352
 6918SOL     OW32389   0.696   0.034   8.232 -0.2409  0.5304 -0.3141
 6918SOL    HW132390   0.653   0.061   8.151  2.9487 -1.0176 -2.5084
 6918SOL    HW232391   0.632   0.059   8.299 -2.0649  0.5138 -2.0582
 6919SOL     OW32392   0.484   1.898   6.340 -0.2382 -0.6178 -0.0493
 6919SOL    HW132393   0.570   1.928   6.371  0.7936 -0.8651 -2.6477
 6919SOL    HW232394   0.509   1.808   6.323 -1.1241 -0.6831 -1.0095
 6920SOL     OW32395   0.120   0.310   5.257 -0.1236 -0.1878  0.6270
 6920SOL    HW132396   0.062   0.327   5.331 -1.5246  0.1377 -0.5573
 6920SOL    HW232397   0.171   0.240   5.298 -0.7308 -0.0346  1.6431
 6921SOL     OW32398   0.560   1.244  15.313  0.1926 -0.0192  1.0420
 6921SOL    HW132399   0.570   1.328  15.357 -4.4965  0.6439  0.8740
 6921SOL    HW232400   0.547   1.189  15.390 -0.7976 -0.3811  0.6170
 6922SOL     OW32401   3.913   4.263   6.514  0.3578  0.0309 -0.0036
 6922SOL    HW132402   3.863   4.286   6.436 -1.7568 -1.4851  0.8705
 6922SOL    HW232403   3.847   4.215   6.564  1.5479 -1.0880  0.4775
 6923SOL     OW32404   0.919   1.514  10.368 -0.0236  0.3994 -0.0441
 6923SOL    HW132405   0.849   1.461  10.330 -0.0742 -0.4856  1.2818
 6923SOL    HW232406   0.934   1.474  10.454  2.2530  1.3322 -0.0122
 6924SOL     OW32407   0.087   1.340   4.802 -0.5938 -0.1537  0.2415
 6924SOL    HW132408   0.054   1.257   4.836 -0.8473  0.4710  1.5168
 6924SOL    HW232409   0.182   1.334   4.812 -0.2887  1.8029 -1.4012
 6925SOL     OW32410   3.106   3.342   5.315  1.3526  0.3523 -0.5165
 6925SOL    HW132411   3.033   3.286   5.340  1.6758  0.3753  0.4603
 6925SOL    HW232412   3.051   3.420   5.315  2.4089  1.0951  1.2112
 6926SOL     OW32413   2.577   2.929  16.023  0.0206 -0.0252 -0.3411
 6926SOL    HW132414   2.524   2.918  15.944 -0.8552  1.7322 -0.0014
 6926SOL    HW232415   2.552   3.017  16.051 -1.1307  0.3109 -2.4311
 6927SOL     OW32416   2.566   4.654   3.698 -0.0216 -0.3005  0.4061
 6927SOL    HW132417   2.640   4.712   3.682  0.9692 -1.3543  1.1706
 6927SOL    HW232418   2.496   4.717   3.677 -1.0586 -1.5703  0.0567
 6928SOL     OW32419   3.677   2.750  17.242 -0.1941  0.3614 -0.3749
 6928SOL    HW132420   3.659   2.727  17.151 -0.0563  0.8948 -0.5412
 6928SOL    HW232421   3.714   2.670  17.279  1.8587  0.5467 -1.9587
 6929SOL     OW32422   0.575   3.492  12.647  0.1153  0.3882  0.8904
 6929SOL    HW132423   0.645   3.540  12.692  1.0162 -0.4228  0.3574
 6929SOL    HW232424   0.619   3.407  12.638 -1.2709  0.0643 -2.6247
 6930SOL     OW32425   0.141   4.062   2.772  0.2635 -0.2152  0.2254
 6930SOL    HW132426   0.195   4.127   2.727  2.3836 -1.6249  0.7449
 6930SOL    HW232427   0.150   3.986   2.714 -2.9649  1.1609 -2.0880
 6931SOL     OW32428   3.706   2.203   5.560  0.0810  0.0802 -0.0798
 6931SOL    HW132429   3.720   2.294   5.532 -0.5526  0.0895 -0.3602
 6931SOL    HW232430   3.659   2.164   5.486 -1.4362  2.8543 -0.6027
 6932SOL     OW32431   1.034   4.357  10.937  0.1209  0.3094  0.3984
 6932SOL    HW132432   1.003   4.446  10.921 -0.6432  0.2095  1.3676
 6932SOL    HW232433   1.115   4.341  10.888 -1.1191 -2.2714 -0.8591
 6933SOL     OW32434   0.356   1.059  11.841  0.3485  0.3529  0.3183
 6933SOL    HW132435   0.319   1.085  11.925  0.8177 -1.8012  1.2042
 6933SOL    HW232436   0.443   1.098  11.849 -0.4479  2.1284  0.0914
 6934SOL     OW32437   1.717   2.530  14.810 -0.4724  0.5718  0.4429
 6934SOL    HW132438   1.662   2.578  14.748 -0.1752  1.3776  0.8069
 6934SOL    HW232439   1.722   2.590  14.884 -1.2955  0.4888  0.5607
 6935SOL     OW32440   3.461   2.578  13.625 -0.0549 -0.2044 -0.0079
 6935SOL    HW132441   3.463   2.580  13.721 -0.3503 -0.6876  0.0104
 6935SOL    HW232442   3.554   2.589  13.603  0.0550  1.6406  1.4233
 6936SOL     OW32443   0.435   1.325  16.254  0.0377 -0.2315  0.3836
 6936SOL    HW132444   0.409   1.246  16.302 -0.2557  0.0589  0.7054
 6936SOL    HW232445   0.364   1.382  16.285 -0.7610 -1.6903  1.2278
 6937SOL     OW32446   0.047   4.187  13.493  0.4532  0.2965 -0.1478
 6937SOL    HW132447   0.000   4.121  13.443 -0.2079  1.3182 -0.8794
 6937SOL    HW232448   0.078   4.242  13.420 -1.9027 -0.6362 -1.8375
 6938SOL     OW32449   3.469   2.159   8.332  0.2546  0.3362 -0.3302
 6938SOL    HW132450   3.495   2.135   8.243  1.0703 -1.7012  0.4444
 6938SOL    HW232451   3.485   2.073   8.372 -0.6118  0.0623 -0.5550
 6939SOL     OW32452   1.472   1.801   8.124  0.2821  0.2921  0.1870
 6939SOL    HW132453   1.503   1.717   8.158  0.2619 -0.1917 -0.9787
 6939SOL    HW232454   1.466   1.851   8.205  0.6539  1.7137 -0.6622
 6940SOL     OW32455   3.408   4.581   2.186  0.0126  0.0117  0.3082
 6940SOL    HW132456   3.382   4.493   2.162  0.3421 -0.2753  0.9988
 6940SOL    HW232457   3.452   4.602   2.104  1.3856  1.1089  1.3237
 6941SOL     OW32458   1.392   3.093   6.123  0.1911 -0.4829 -0.2858
 6941SOL    HW132459   1.373   3.146   6.046  0.6803  0.2894  0.1224
 6941SOL    HW232460   1.338   3.016   6.111  0.0425 -0.2803 -0.9009
 6942SOL     OW32461   4.553   1.029  16.771 -0.1794 -0.3770  0.2176
 6942SOL    HW132462   4.607   0.985  16.837  0.4510  0.2789  0.1345
 6942SOL    HW232463   4.538   0.960  16.707  0.9996 -0.9637  0.5603
 6943SOL     OW32464   4.302   1.017  16.456 -0.3328 -0.3725 -0.2326
 6943SOL    HW132465   4.376   1.070  16.484 -0.4244 -0.3031 -0.1211
 6943SOL    HW232466   4.263   0.986  16.538 -1.2142 -0.5568 -0.7198
 6944SOL     OW32467   2.058   1.956  15.934  0.1641 -0.3830  0.1934
 6944SOL    HW132468   1.983   1.899  15.919 -1.4887  1.5973  0.9070
 6944SOL    HW232469   2.135   1.899  15.931 -0.0341 -0.6090 -0.6796
 6945SOL     OW32470   0.518   1.550   2.804 -0.8475  0.2661  0.3429
 6945SOL    HW132471   0.482   1.494   2.735  0.7889 -0.9941  0.5447
 6945SOL    HW232472   0.609   1.559   2.777 -0.6156 -3.4186 -0.0755
 6946SOL     OW32473   1.847   3.224   8.016  0.1088 -0.0336 -0.8721
 6946SOL    HW132474   1.856   3.134   7.985 -1.0495 -0.9028  1.3156
 6946SOL    HW232475   1.782   3.258   7.954  0.2707  0.8260 -0.5597
 6947SOL     OW32476   3.704   3.833   7.710  0.0187  0.2471 -0.0548
 6947SOL    HW132477   3.705   3.740   7.685 -1.1192  0.3038 -0.3215
 6947SOL    HW232478   3.759   3.839   7.788 -0.9152 -2.2847  0.8047
 6948SOL     OW32479   3.641   0.085   2.272 -0.3378  0.7687 -0.2835
 6948SOL    HW132480   3.716   0.086   2.332 -0.5997  0.4334  0.0468
 6948SOL    HW232481   3.684   0.063   2.189 -2.2941 -4.2276 -0.0148
 6949SOL     OW32482   2.816   2.940   5.952  0.3702 -0.0083 -0.5118
 6949SOL    HW132483   2.780   2.857   5.922  1.5799 -0.6850 -0.0692
 6949SOL    HW232484   2.897   2.910   5.992 -0.4241  0.4831  1.4865
 6950SOL     OW32485   3.481   2.675   7.849 -0.2210 -0.6710  0.7812
 6950SOL    HW132486   3.398   2.630   7.866 -0.1909 -0.6589  0.9631
 6950SOL    HW232487   3.535   2.630   7.914  1.5696  0.9032  0.4005
 6951SOL     OW32488   0.083   4.118   9.885  0.0618 -0.2564  0.1643
 6951SOL    HW132489   0.091   4.162   9.969  2.9427 -3.2646  1.4656
 6951SOL    HW232490   4.721   4.128   9.876  0.3628  0.7600 -1.7929
 6952SOL     OW32491   0.450   3.581   1.910 -0.5939  0.5304  0.7507
 6952SOL    HW132492   0.359   3.551   1.915 -0.3645 -0.1018  1.2416
 6952SOL    HW232493   0.496   3.521   1.970  1.6608  1.1872 -0.3227
 6953SOL     OW32494   0.309   0.603   4.971  0.3650  0.5453  0.1685
 6953SOL    HW132495   0.364   0.638   4.901  4.1451 -1.3329  2.2511
 6953SOL    HW232496   0.363   0.527   4.991  0.9538  0.8436 -0.2983
 6954SOL     OW32497   1.652   4.374  13.718  0.6490 -0.5019  0.2257
 6954SOL    HW132498   1.567   4.403  13.751  0.4857 -0.0472 -0.6149
 6954SOL    HW232499   1.704   4.368  13.798 -0.2106 -0.1746  0.8114
 6955SOL     OW32500   3.802   1.054   4.535  0.2465  0.0462 -0.3127
 6955SOL    HW132501   3.849   1.002   4.471  0.0938  2.2127 -2.1838
 6955SOL    HW232502   3.729   1.096   4.490  1.2806  2.1283 -0.0672
 6956SOL     OW32503   0.591   4.006   1.215  0.8997 -0.0891  0.8908
 6956SOL    HW132504   0.601   4.068   1.288  1.7388  1.6008 -0.6552
 6956SOL    HW232505   0.527   3.946   1.254  0.3896  0.9274  1.6440
 6957SOL     OW32506   2.578   0.159  14.753 -0.1498 -0.1079  0.1158
 6957SOL    HW132507   2.596   0.253  14.754 -1.0013  0.0691 -1.7589
 6957SOL    HW232508   2.484   0.165  14.766 -0.1704 -1.6383  0.6955
 6958SOL     OW32509   3.987   1.289   9.606 -0.0658 -0.3700  0.0921
 6958SOL    HW132510   4.023   1.315   9.691  1.4910  0.4180 -0.8196
 6958SOL    HW232511   3.990   1.375   9.565  0.4191 -0.9047 -0.9943
 6959SOL     OW32512   0.038   0.525   6.708  0.3522  0.9537 -0.2524
 6959SOL    HW132513   0.018   0.585   6.636  0.3772  1.1253 -0.1179
 6959SOL    HW232514   0.000   0.448   6.667  2.7889 -0.0686 -0.5571
 6960SOL     OW32515   1.412   3.662   2.885  0.3194 -0.7621  0.6318
 6960SOL    HW132516   1.444   3.607   2.957  1.2899 -1.2284 -0.1412
 6960SOL    HW232517   1.469   3.739   2.892  0.0315 -0.7384  2.5277
 6961SOL     OW32518   0.571   0.184  15.528 -0.0596 -0.4397 -0.0432
 6961SOL    HW132519   0.536   0.180  15.439  2.0105  0.9874 -0.8995
 6961SOL    HW232520   0.660   0.208  15.505 -0.3091  0.3505 -0.1760
 6962SOL     OW32521   2.522   4.163   9.179 -0.4052 -0.2917  0.0269
 6962SOL    HW132522   2.563   4.078   9.165  0.4173  0.0321  0.4443
 6962SOL    HW232523   2.436   4.132   9.150  0.0207  0.1712 -1.7358
 6963SOL     OW32524   2.581   2.301   4.031 -0.3370 -1.1315  0.5612
 6963SOL    HW132525   2.560   2.265   4.118  0.6662 -1.4403  0.6725
 6963SOL    HW232526   2.514   2.252   3.983  1.7989 -2.2596 -1.2355
 6964SOL     OW32527   4.588   0.629   5.163  0.1200  0.0387  0.1515
 6964SOL    HW132528   4.666   0.614   5.216  0.4038 -0.5932 -0.4435
 6964SOL    HW232529   4.527   0.618   5.236 -1.6557  1.6357 -1.0779
 6965SOL     OW32530   2.683   2.855  15.703  0.0928  0.2499  0.0280
 6965SOL    HW132531   2.687   2.769  15.660 -0.1081  1.1662 -1.8098
 6965SOL    HW232532   2.677   2.910  15.625 -1.5136 -0.2846 -0.2357
 6966SOL     OW32533   1.128   2.716   8.420  0.3421  0.5251  0.3115
 6966SOL    HW132534   1.063   2.709   8.490 -0.9296  1.8667 -0.7126
 6966SOL    HW232535   1.092   2.781   8.359 -2.5920 -0.1073  1.3675
 6967SOL     OW32536   2.044   4.285   5.847 -0.2194  0.1558 -0.1872
 6967SOL    HW132537   2.075   4.359   5.796 -1.8980  0.9400 -0.0467
 6967SOL    HW232538   2.121   4.248   5.892 -1.4207  0.1563  1.8566
 6968SOL     OW32539   3.797   4.220  15.352  0.6059  0.0659  0.4200
 6968SOL    HW132540   3.784   4.126  15.342 -1.8390  0.4482 -0.0334
 6968SOL    HW232541   3.711   4.240  15.315  0.9703 -0.4850 -0.7320
 6969SOL     OW32542   3.130   3.815   2.671  0.2948  0.2785 -0.1946
 6969SOL    HW132543   3.196   3.749   2.651  0.1738 -0.1858  0.9572
 6969SOL    HW232544   3.170   3.882   2.617  1.2092 -0.1697 -0.0714
 6970SOL     OW32545   3.406   0.079   9.234  0.2060  0.3842 -0.3254
 6970SOL    HW132546   3.348   0.007   9.261  0.4066 -0.2094 -1.4578
 6970SOL    HW232547   3.356   0.100   9.155 -2.9160  1.4939  1.9481
 6971SOL     OW32548   1.675   0.369   9.158 -0.0210 -0.0339  0.0889
 6971SOL    HW132549   1.665   0.287   9.109  1.3395 -0.7433  1.0105
 6971SOL    HW232550   1.769   0.379   9.148  0.1607  1.4552  3.5018
 6972SOL     OW32551   3.189   3.731  13.064  0.5916 -0.2459 -0.7458
 6972SOL    HW132552   3.136   3.772  12.995 -0.5814 -0.3201  0.1034
 6972SOL    HW232553   3.145   3.647  13.055 -0.2482  0.1527 -0.3641
 6973SOL     OW32554   3.694   2.477   2.236 -0.4570  0.1010 -0.1429
 6973SOL    HW132555   3.760   2.544   2.216 -0.5729  0.0461 -0.7032
 6973SOL    HW232556   3.686   2.428   2.154  0.2304  0.3765 -0.3812
 6974SOL     OW32557   4.479   3.671  17.530 -0.0665  0.1862  0.2786
 6974SOL    HW132558   4.479   3.750  17.477 -0.7788 -1.4102 -2.0782
 6974SOL    HW232559   4.434   3.616  17.467 -0.5884 -0.1140  0.9157
 6975SOL     OW32560   2.635   1.213   4.995  0.1123  0.4374  0.2071
 6975SOL    HW132561   2.596   1.173   4.917  1.4290 -1.1433  0.3549
 6975SOL    HW232562   2.580   1.290   5.014 -0.4927  0.2912 -0.9408
 6976SOL     OW32563   4.336   1.142   2.371  0.0446 -0.1017  0.4211
 6976SOL    HW132564   4.361   1.091   2.448 -2.1521 -2.6770 -0.5796
 6976SOL    HW232565   4.299   1.073   2.316  1.6198 -0.0111 -0.7505
 6977SOL     OW32566   4.196   2.378   7.032  0.2663  0.3483 -0.2758
 6977SOL    HW132567   4.114   2.353   6.991 -0.3519  2.1360 -0.1520
 6977SOL    HW232568   4.258   2.343   6.968  0.9578 -1.7492  1.5440
 6978SOL     OW32569   2.891   3.145   7.517 -0.3504  0.5470  0.2059
 6978SOL    HW132570   2.925   3.153   7.428  0.1160  0.2444  0.3592
 6978SOL    HW232571   2.958   3.197   7.561  0.3321  0.0672 -0.2715
 6979SOL     OW32572   1.916   1.015   5.426 -0.4302 -0.3667  0.4413
 6979SOL    HW132573   1.941   1.080   5.360 -0.4421 -0.7151  0.0965
 6979SOL    HW232574   1.965   1.044   5.504 -2.2530  0.3612  1.3297
 6980SOL     OW32575   2.941   0.622   9.855  0.5570 -0.2421  0.8567
 6980SOL    HW132576   2.885   0.592   9.927 -0.5149  2.0451  0.9871
 6980SOL    HW232577   3.007   0.678   9.895  0.3838 -0.5945  1.6392
 6981SOL     OW32578   2.808   1.523   2.513 -0.0235  0.1218 -0.0743
 6981SOL    HW132579   2.814   1.605   2.561  0.9603  0.4764 -0.8102
 6981SOL    HW232580   2.839   1.553   2.428  0.7545  1.5866  0.7217
 6982SOL     OW32581   2.386   4.129   4.169  0.3950 -0.5724  0.1198
 6982SOL    HW132582   2.463   4.127   4.227 -0.4126 -2.3167  1.1312
 6982SOL    HW232583   2.426   4.067   4.107 -0.6838  0.6319 -1.7608
 6983SOL     OW32584   0.699   3.773   3.417 -0.0923  0.1896 -0.3444
 6983SOL    HW132585   0.640   3.757   3.343  1.2366  1.1841 -1.5871
 6983SOL    HW232586   0.653   3.745   3.496  0.8780  1.9558  0.8357
 6984SOL     OW32587   3.786   0.052   4.339  0.0734 -0.2157  0.6198
 6984SOL    HW132588   3.824   0.128   4.295 -1.4041  1.1575  1.7091
 6984SOL    HW232589   3.696   0.080   4.355 -1.3069 -2.1388 -3.6557
 6985SOL     OW32590   0.303   4.653   4.711 -0.2280 -0.0431 -0.9086
 6985SOL    HW132591   0.267   4.639   4.798 -1.1425  2.6425 -0.8502
 6985SOL    HW232592   0.310   0.016   4.714  0.1881 -0.1338  1.2093
 6986SOL     OW32593   3.856   1.170  16.006 -0.1073 -0.0604 -0.6614
 6986SOL    HW132594   3.783   1.137  16.057  1.6331 -1.5087  0.8986
 6986SOL    HW232595   3.931   1.152  16.063 -1.4200  0.8876  1.3175
 6987SOL     OW32596   4.273   3.515   7.578 -0.3892 -0.5510 -0.0211
 6987SOL    HW132597   4.366   3.490   7.582 -0.2574 -0.3305 -1.6222
 6987SOL    HW232598   4.258   3.599   7.535 -2.2177 -0.7719  0.1768
 6988SOL     OW32599   0.902   3.149   4.055 -0.6575  0.1305  0.2288
 6988SOL    HW132600   0.870   3.126   3.967  0.7245  0.9754 -0.4983
 6988SOL    HW232601   0.812   3.165   4.086 -0.1366  0.3886  1.5920
 6989SOL     OW32602   3.497   4.568   6.269  0.0072 -0.8558 -0.1354
 6989SOL    HW132603   3.554   4.610   6.334 -0.5890  2.0327 -1.4713
 6989SOL    HW232604   3.480   4.641   6.209  1.5247 -0.5595 -0.1940
 6990SOL     OW32605   0.684   1.166   2.751  0.0764  0.5506  0.3531
 6990SOL    HW132606   0.594   1.193   2.768  0.1464  0.6629  0.5447
 6990SOL    HW232607   0.747   1.223   2.795  0.7196  0.7594 -0.8241
 6991SOL     OW32608   3.068   0.547   4.363 -0.4539 -0.1333 -0.3901
 6991SOL    HW132609   3.132   0.592   4.419 -0.7221 -0.5820  0.2732
 6991SOL    HW232610   3.086   0.594   4.281 -0.5252 -4.1758 -2.6924
 6992SOL     OW32611   4.377   0.097   0.810  0.5516 -0.0014 -0.2666
 6992SOL    HW132612   4.343   0.050   0.734 -0.0677 -1.5958  0.9921
 6992SOL    HW232613   4.432   0.165   0.771  2.7817 -1.4309  0.3661
 6993SOL     OW32614   3.941   2.480   5.159  0.2272  0.7079 -0.5706
 6993SOL    HW132615   4.003   2.504   5.228 -1.3032  0.8374  0.7505
 6993SOL    HW232616   3.880   2.421   5.204 -0.2193  1.6680  0.0773
 6994SOL     OW32617   3.770   4.186   7.460  0.3503  0.0108  1.0013
 6994SOL    HW132618   3.721   4.146   7.532  0.2620 -1.2612  0.2385
 6994SOL    HW232619   3.703   4.213   7.397  0.0023 -0.9541  0.9567
 6995SOL     OW32620   1.749   4.248  11.928 -0.1065  0.0007 -0.0286
 6995SOL    HW132621   1.782   4.175  11.875  1.8598  0.4281  0.5874
 6995SOL    HW232622   1.809   4.250  12.004 -0.0829  0.5219 -0.0670
 6996SOL     OW32623   4.478   1.201   6.446 -0.0696 -0.5748 -0.2755
 6996SOL    HW132624   4.409   1.248   6.493 -2.4080 -3.1409 -1.1329
 6996SOL    HW232625   4.548   1.201   6.511 -0.9492  1.5474  0.6692
 6997SOL     OW32626   0.734   3.412   7.096 -0.0772 -0.1322 -0.6317
 6997SOL    HW132627   0.749   3.329   7.050 -1.9198  0.4408 -2.2852
 6997SOL    HW232628   0.725   3.371   7.181 -1.2888  2.5256  0.5113
 6998SOL     OW32629   0.029   1.422   1.914 -0.2222  0.3221  0.2278
 6998SOL    HW132630   4.684   1.435   1.968 -1.9676 -1.5137 -1.8856
 6998SOL    HW232631   0.046   1.511   1.882  0.0371 -0.8025 -2.7249
 6999SOL     OW32632   1.083   0.381   5.657 -0.0319 -0.4661  0.5048
 6999SOL    HW132633   1.161   0.436   5.648 -0.6704 -0.1790 -2.9322
 6999SOL    HW232634   1.060   0.379   5.750 -0.8333  0.1203  0.3150
 7000SOL     OW32635   0.754   1.138  17.319  0.4325 -0.5024 -0.0174
 7000SOL    HW132636   0.708   1.209  17.363 -1.6941 -0.5029 -2.1999
 7000SOL    HW232637   0.817   1.107  17.384 -0.3205  1.2624  1.5206
 7001SOL     OW32638   1.880   4.235   9.070  0.3040 -0.1724  0.3462
 7001SOL    HW132639   1.913   4.301   9.131 -1.9663  0.3890  0.9576
 7001SOL    HW232640   1.906   4.283   8.991  2.2417  1.1275  1.7741
 7002SOL     OW32641   1.224   4.209   6.877 -0.1011  0.5704  0.0830
 7002SOL    HW132642   1.319   4.220   6.874  0.6027 -4.8205  1.7485
 7002SOL    HW232643   1.216   4.114   6.882  0.6272  0.4338 -1.4557
 7003SOL     OW32644   0.881   1.882   1.839 -0.1698  0.2270  0.3417
 7003SOL    HW132645   0.878   1.787   1.832  0.7109  0.2059  0.2814
 7003SOL    HW232646   0.798   1.895   1.886 -0.5628 -1.0740  0.0057
 7004SOL     OW32647   1.590   3.728   7.506  0.1622  0.1877  0.1558
 7004SOL    HW132648   1.589   3.645   7.553 -2.4460  0.1806  0.0971
 7004SOL    HW232649   1.652   3.707   7.436 -1.1543 -1.3760 -0.5526
 7005SOL     OW32650   3.431   2.482   3.775  0.6092 -0.1429 -0.0614
 7005SOL    HW132651   3.426   2.423   3.700  0.6004 -1.1388  0.7311
 7005SOL    HW232652   3.448   2.565   3.729  1.3009 -1.1216 -1.5702
 7006SOL     OW32653   3.848   3.709   1.308 -0.3799  0.3374 -0.1582
 7006SOL    HW132654   3.892   3.794   1.312  2.4473 -1.0891 -1.4424
 7006SOL    HW232655   3.927   3.656   1.318 -0.7036  0.1500  1.5467
 7007SOL     OW32656   4.465   3.152   5.528  0.2880  0.5829 -0.2859
 7007SOL    HW132657   4.538   3.120   5.580  1.7583 -0.5726 -3.0373
 7007SOL    HW232658   4.399   3.083   5.530  0.0867  0.7017 -2.8806
 7008SOL     OW32659   1.149   0.135  17.714  0.1172  0.4288  0.7824
 7008SOL    HW132660   1.225   0.157   0.035 -0.1039 -1.6853  1.9638
 7008SOL    HW232661   1.084   0.125   0.052 -0.1702 -0.5970  0.3685
 7009SOL     OW32662   0.743   1.965   5.610  0.7005  0.0869  0.3690
 7009SOL    HW132663   0.662   1.968   5.559  1.0463  1.8980 -0.0899
 7009SOL    HW232664   0.762   2.057   5.592  1.5666 -0.1109  0.2459
 7010SOL     OW32665   1.185   3.500  11.134  1.1875  0.3272 -0.3582
 7010SOL    HW132666   1.160   3.583  11.092  0.2798  0.9024  1.3454
 7010SOL    HW232667   1.110   3.451  11.102  0.8986  1.1371 -0.9185
 7011SOL     OW32668   0.750   2.876  14.084 -0.5624 -0.6462 -0.4946
 7011SOL    HW132669   0.754   2.781  14.089 -3.5798 -0.7009  0.8320
 7011SOL    HW232670   0.702   2.902  14.006 -0.6769 -1.4159 -0.6712
 7012SOL     OW32671   0.332   4.174   7.380  0.1598 -0.4862 -0.2697
 7012SOL    HW132672   0.271   4.107   7.348 -0.2482  0.7347 -2.0147
 7012SOL    HW232673   0.410   4.156   7.328  0.2850  2.0387 -0.9351
 7013SOL     OW32674   4.555   3.239   9.171  0.0528 -0.1208  0.4609
 7013SOL    HW132675   4.557   3.259   9.265  0.9984 -3.4320  1.1320
 7013SOL    HW232676   4.644   3.264   9.146  0.7712 -3.4472 -0.3054
 7014SOL     OW32677   0.228   3.032   5.373  0.6089 -0.7287  0.5037
 7014SOL    HW132678   0.145   3.061   5.335  1.9935  0.9188 -1.2139
 7014SOL    HW232679   0.230   3.103   5.437 -1.0873 -0.4813  0.2749
 7015SOL     OW32680   3.219   1.387   5.269  0.3680  0.1904  0.6210
 7015SOL    HW132681   3.164   1.325   5.221  1.1513  1.0552 -1.3911
 7015SOL    HW232682   3.246   1.324   5.336  1.3638 -0.0463  0.0015
 7016SOL     OW32683   1.444   3.210   0.301  0.0248 -0.1044  0.2500
 7016SOL    HW132684   1.533   3.231   0.331 -0.1953  2.9290 -1.2924
 7016SOL    HW232685   1.403   3.243   0.381 -0.3418  0.1824 -0.0575
 7017SOL     OW32686   2.263   0.342   6.772 -0.4614 -0.1834  0.0101
 7017SOL    HW132687   2.221   0.378   6.850 -1.8241  2.3192 -1.8481
 7017SOL    HW232688   2.299   0.267   6.819  1.8509  0.4695 -0.7062
 7018SOL     OW32689   4.074   1.132  16.208 -0.2574 -0.0093 -0.3215
 7018SOL    HW132690   4.023   1.113  16.287 -0.1018  0.8606 -0.0070
 7018SOL    HW232691   4.136   1.195  16.244  1.7285 -1.1648 -1.7952
 7019SOL     OW32692   0.938   3.650  11.272 -0.4604  0.0790  0.3232
 7019SOL    HW132693   0.898   3.648  11.185  1.3369 -0.7134 -0.4892
 7019SOL    HW232694   0.938   3.554  11.271 -0.5926  0.1179 -3.3958
 7020SOL     OW32695   0.999   1.072   5.245 -0.2711 -0.2107 -0.3590
 7020SOL    HW132696   0.973   1.090   5.154 -2.7840  0.6054  0.5179
 7020SOL    HW232697   1.042   0.988   5.230 -0.8354 -0.5589  0.0185
 7021SOL     OW32698   1.185   2.928   1.858 -0.6145  0.4411  0.4008
 7021SOL    HW132699   1.276   2.940   1.885 -1.0299 -0.0731  2.0062
 7021SOL    HW232700   1.197   2.898   1.768  0.5591 -2.6057  1.5869
 7022SOL     OW32701   1.808   4.201   0.245 -0.1025  0.3909 -0.5555
 7022SOL    HW132702   1.818   4.288   0.282 -0.9504 -0.3376  1.3545
 7022SOL    HW232703   1.879   4.186   0.182 -2.0314 -0.2767 -2.5707
 7023SOL     OW32704   0.784   3.774   2.254  0.3060 -0.8043 -0.9478
 7023SOL    HW132705   0.702   3.741   2.290 -0.2850 -0.6883 -2.1734
 7023SOL    HW232706   0.761   3.795   2.164  0.5931 -1.3768 -1.1570
 7024SOL     OW32707   4.650   2.528   8.202  0.0342 -0.3247  0.1797
 7024SOL    HW132708   0.009   2.553   8.197  0.0348 -0.3538  0.0521
 7024SOL    HW232709   4.636   2.545   8.295 -2.8145 -0.3445 -0.2258
 7025SOL     OW32710   0.165   2.582   5.105  0.6172  0.0426 -0.5238
 7025SOL    HW132711   0.091   2.520   5.103  0.4815  0.1929 -0.1353
 7025SOL    HW232712   0.155   2.625   5.190 -0.6426 -1.6772  0.2040
 7026SOL     OW32713   3.360   3.182   2.808  0.5731  0.0940  0.1405
 7026SOL    HW132714   3.424   3.160   2.876  0.0880 -0.5428  0.3983
 7026SOL    HW232715   3.394   3.269   2.787  2.1646 -0.2648  1.2020
 7027SOL     OW32716   0.950   1.403   4.830  0.7600  0.0692 -0.5457
 7027SOL    HW132717   0.912   1.400   4.742  1.3258 -0.3498 -0.7745
 7027SOL    HW232718   0.985   1.492   4.827  0.0011  0.4330  1.8884
 7028SOL     OW32719   3.015   1.686   0.275 -0.1536  0.3506  0.0072
 7028SOL    HW132720   2.949   1.662   0.209  2.1247 -2.1311 -1.3284
 7028SOL    HW232721   3.092   1.702   0.221 -0.5557  0.8943 -0.4159
 7029SOL     OW32722   2.198   3.819   4.157 -0.3219 -0.4386  0.1790
 7029SOL    HW132723   2.252   3.858   4.089 -2.7876 -1.3512 -2.2838
 7029SOL    HW232724   2.222   3.730   4.129  2.8230  0.6712 -0.5885
 7030SOL     OW32725   0.846   1.146   7.285 -0.0924  0.1109 -0.2717
 7030SOL    HW132726   0.915   1.100   7.237 -0.3065  0.6575 -1.1055
 7030SOL    HW232727   0.779   1.140   7.217  1.2383 -4.0851 -1.1828
 7031SOL     OW32728   3.326   1.637  15.263  0.3185 -0.3996 -0.1665
 7031SOL    HW132729   3.267   1.706  15.232 -1.3823 -1.4143  0.8534
 7031SOL    HW232730   3.412   1.677  15.246 -0.4579  2.1300  1.7157
 7032SOL     OW32731   0.256   3.640  13.289 -0.4342  0.2427 -1.0066
 7032SOL    HW132732   0.260   3.672  13.199  0.5470 -0.6934 -1.2921
 7032SOL    HW232733   0.277   3.714  13.347  0.2375 -0.5770 -0.1987
 7033SOL     OW32734   4.094   3.143   2.193  0.3560  0.5781 -0.7801
 7033SOL    HW132735   4.126   3.180   2.111  2.2923 -1.3870 -0.9018
 7033SOL    HW232736   4.098   3.220   2.249  0.1842  0.4202 -0.5531
 7034SOL     OW32737   3.914   0.943   9.213 -0.1515 -0.5347 -0.2607
 7034SOL    HW132738   3.851   0.911   9.278  0.0143 -1.1875 -0.4229
 7034SOL    HW232739   3.893   0.895   9.134 -1.5282  3.0380 -2.0819
 7035SOL     OW32740   2.905   4.245  14.997  0.0453  0.0841  0.3473
 7035SOL    HW132741   2.931   4.164  14.955  1.9852  1.4799 -1.1473
 7035SOL    HW232742   2.936   4.234  15.087  1.2480  0.5275 -0.0209
 7036SOL     OW32743   4.676   1.810  11.113 -0.6076  0.1338  0.3347
 7036SOL    HW132744   4.598   1.775  11.155 -0.9844 -0.8253 -1.1726
 7036SOL    HW232745   0.001   1.765  11.175 -0.9117  0.0123  0.5284
 7037SOL     OW32746   2.958   0.163  16.440  0.1484  0.3199 -0.0662
 7037SOL    HW132747   2.979   0.173  16.347  1.9333 -0.9639  0.2086
 7037SOL    HW232748   3.017   0.231  16.473 -0.1019  1.3946 -1.8502
 7038SOL     OW32749   2.673   2.373   2.367 -0.0476  1.3274  0.2765
 7038SOL    HW132750   2.688   2.309   2.436 -0.3465  1.1426  0.1694
 7038SOL    HW232751   2.655   2.316   2.292  1.4722 -0.4257  1.2213
 7039SOL     OW32752   3.289   3.145   5.460  0.0685  0.3683  0.3537
 7039SOL    HW132753   3.254   3.187   5.538  0.2722  0.2904  0.4874
 7039SOL    HW232754   3.280   3.220   5.402 -2.2124 -1.6570 -1.9501
 7040SOL     OW32755   4.598   1.232   1.167  0.1424 -0.5419  0.4141
 7040SOL    HW132756   4.612   1.275   1.251  1.4608 -0.8215  0.3373
 7040SOL    HW232757   4.683   1.195   1.147 -0.1378 -1.6719  1.3100
 7041SOL     OW32758   1.745   2.633   8.329 -0.6028  0.1105  0.2187
 7041SOL    HW132759   1.760   2.627   8.235  0.2117 -1.3437  0.4459
 7041SOL    HW232760   1.686   2.559   8.342 -0.7724 -0.4765 -3.9784
 7042SOL     OW32761   3.661   4.377   6.057 -0.3721  0.2594  0.3516
 7042SOL    HW132762   3.700   4.455   6.019  1.8084 -0.2502  1.5858
 7042SOL    HW232763   3.658   4.319   5.981 -3.3133  0.8415 -0.0063
 7043SOL     OW32764   2.523   4.150   7.728  0.3054  0.2920 -0.2668
 7043SOL    HW132765   2.484   4.237   7.734 -0.7376 -0.2562  1.1372
 7043SOL    HW232766   2.511   4.116   7.817  3.2851 -1.1931 -0.4509
 7044SOL     OW32767   2.911   4.507   8.508 -0.3157 -0.1186  0.1527
 7044SOL    HW132768   2.923   4.489   8.601  0.5317 -1.3396 -0.2080
 7044SOL    HW232769   2.825   4.470   8.486  0.3547 -1.2556 -0.5598
 7045SOL     OW32770   3.560   0.580   5.641 -0.0621 -0.0457  0.2942
 7045SOL    HW132771   3.651   0.571   5.669 -1.0361 -3.2459  2.4272
 7045SOL    HW232772   3.533   0.656   5.693  0.3431  0.5017 -0.2979
 7046SOL     OW32773   4.500   0.504   9.637  0.3585 -0.1839 -0.5141
 7046SOL    HW132774   4.565   0.454   9.587 -0.7418 -2.4647  0.3718
 7046SOL    HW232775   4.482   0.574   9.574 -0.2686  0.0655 -0.0580
 7047SOL     OW32776   3.037   3.762   3.242  0.0011 -0.3383  0.6678
 7047SOL    HW132777   3.127   3.729   3.242  0.1703  0.1360  0.2082
 7047SOL    HW232778   3.012   3.739   3.332 -1.7045 -1.3323 -0.0790
 7048SOL     OW32779   4.301   1.891   3.057 -0.4157 -0.7795  0.0191
 7048SOL    HW132780   4.360   1.873   3.130 -0.6814 -1.8437 -0.0353
 7048SOL    HW232781   4.319   1.984   3.041 -1.3094 -0.2053  2.4291
 7049SOL     OW32782   1.372   1.274   2.353 -0.3336  0.1521 -0.0190
 7049SOL    HW132783   1.284   1.274   2.316  0.5074  3.2188 -2.0241
 7049SOL    HW232784   1.359   1.321   2.435  2.5142  0.1574  0.4489
 7050SOL     OW32785   1.145   1.067   2.640  0.1051  0.4170  0.5802
 7050SOL    HW132786   1.103   1.151   2.660  0.5971  0.7573  0.1752
 7050SOL    HW232787   1.081   1.021   2.586 -0.9071 -0.5620  2.6327
 7051SOL     OW32788   1.298   1.844  15.139  0.2859  0.1886 -0.3520
 7051SOL    HW132789   1.379   1.794  15.136  1.9631  2.7790  1.7702
 7051SOL    HW232790   1.315   1.919  15.196 -0.9966  1.2526 -1.3578
 7052SOL     OW32791   3.009   1.661  17.136  0.2643 -0.0177  0.4926
 7052SOL    HW132792   3.061   1.619  17.205 -0.4250  0.6485  1.4187
 7052SOL    HW232793   3.020   1.624  17.048 -0.2828  1.3128 -0.1384
 7053SOL     OW32794   2.743   1.929   4.171 -0.4867  0.4696 -0.3780
 7053SOL    HW132795   2.696   2.000   4.214  2.0413  2.3784 -0.7681
 7053SOL    HW232796   2.803   1.909   4.242 -2.2572 -0.9846  0.7133
 7054SOL     OW32797   3.223   1.244  17.627  0.3748 -0.7084 -0.4365
 7054SOL    HW132798   3.165   1.173  17.654  0.5847 -1.1874 -1.2619
 7054SOL    HW232799   3.268   1.197  17.557 -2.2858 -2.7108 -0.7832
 7055SOL     OW32800   1.447   4.586  13.593  0.1599  0.1499 -0.5891
 7055SOL    HW132801   1.541   4.568  13.601 -0.3716 -3.0245 -1.1006
 7055SOL    HW232802   1.435   4.552  13.504 -1.3336 -0.4788 -0.1522
 7056SOL     OW32803   0.755   4.312   9.460  0.6303  0.3081  0.0534
 7056SOL    HW132804   0.704   4.256   9.401  0.7630  0.8586 -0.5746
 7056SOL    HW232805   0.696   4.386   9.478  1.3517  1.4536 -2.3649
 7057SOL     OW32806   3.229   1.137   1.516  0.2444  1.2389 -0.4126
 7057SOL    HW132807   3.216   1.224   1.552 -0.0216  0.1407  2.1095
 7057SOL    HW232808   3.203   1.161   1.427 -1.0549  2.2880  0.2529
 7058SOL     OW32809   3.155   3.143   2.380 -0.5595 -0.7053 -0.2674
 7058SOL    HW132810   3.177   3.084   2.308  0.1996 -0.1218 -0.5110
 7058SOL    HW232811   3.218   3.107   2.442 -1.5258 -0.9819  0.5510
 7059SOL     OW32812   0.400   4.407   0.563 -0.1234  0.3642 -0.0046
 7059SOL    HW132813   0.386   4.487   0.614 -0.0203  0.2005  0.2758
 7059SOL    HW232814   0.379   4.445   0.478  0.7507  0.5492 -0.1438
 7060SOL     OW32815   0.587   4.541   6.700  0.5907 -0.3162 -0.7586
 7060SOL    HW132816   0.634   4.622   6.678 -1.5944  0.5074 -2.4627
 7060SOL    HW232817   0.631   4.519   6.781 -1.0766 -1.6461 -0.2253
 7061SOL     OW32818   0.009   1.327  16.864 -0.1219  0.3345  0.4539
 7061SOL    HW132819   4.699   1.324  16.779  0.6088  3.7947 -0.0572
 7061SOL    HW232820   0.016   1.237  16.896  2.2024  0.2246 -0.3495
 7062SOL     OW32821   2.905   4.700   6.253  0.3238 -0.4086 -0.2781
 7062SOL    HW132822   2.889   0.057   6.225  0.4849  0.4980  2.6011
 7062SOL    HW232823   3.000   4.692   6.245  0.4611 -0.0537  0.9457
 7063SOL     OW32824   4.389   4.263   5.587 -0.2637  0.5168 -0.1968
 7063SOL    HW132825   4.332   4.313   5.645 -2.1569 -1.6481 -0.1955
 7063SOL    HW232826   4.464   4.258   5.646 -0.6298 -0.2167  0.2033
 7064SOL     OW32827   2.877   3.587  10.367  0.6674  0.1192 -0.4881
 7064SOL    HW132828   2.888   3.539  10.285 -0.7571 -2.1978  0.6827
 7064SOL    HW232829   2.825   3.522  10.413  0.3408 -0.8657 -2.2548
 7065SOL     OW32830   2.383   3.124  10.219 -0.3600  0.7810  0.4814
 7065SOL    HW132831   2.404   3.141  10.310 -0.0027  0.5543  0.4454
 7065SOL    HW232832   2.408   3.032  10.209 -1.9470  0.2767  1.2591
 7066SOL     OW32833   3.121   4.588   8.375 -0.3272  0.4646  0.1255
 7066SOL    HW132834   3.047   4.575   8.434 -1.1249 -0.2598 -1.0546
 7066SOL    HW232835   3.066   4.629   8.308  0.8320  0.9975 -0.5075
 7067SOL     OW32836   0.224   3.550  14.440 -0.1364  0.1576  0.6677
 7067SOL    HW132837   0.281   3.483  14.403 -0.6468 -0.3268  0.7614
 7067SOL    HW232838   0.273   3.630  14.423  0.7575 -0.4311  0.4310
 7068SOL     OW32839   0.308   0.651   6.066  0.0300  0.2189 -0.8787
 7068SOL    HW132840   0.331   0.620   5.979 -0.4710  1.2613 -1.3819
 7068SOL    HW232841   0.330   0.744   6.069 -0.8849  0.3390  2.8186
 7069SOL     OW32842   2.017   3.223   6.289  0.1324  0.2061  0.1421
 7069SOL    HW132843   2.101   3.189   6.257 -1.4280 -3.3043 -0.2018
 7069SOL    HW232844   1.965   3.143   6.291  1.0592 -0.3265  2.4562
 7070SOL     OW32845   2.155   0.143  16.029 -0.0390 -0.4492  0.0539
 7070SOL    HW132846   2.181   0.083  16.099  1.4155 -2.0371 -1.8474
 7070SOL    HW232847   2.236   0.144  15.979  0.1473  1.5752  0.3651
 7071SOL     OW32848   2.904   1.141   8.088 -0.0929  0.8887  0.1883
 7071SOL    HW132849   2.892   1.063   8.033 -0.3612  1.3518 -0.4066
 7071SOL    HW232850   2.877   1.114   8.176 -0.9076 -2.4379 -1.0725
 7072SOL     OW32851   0.187   4.662   9.769  0.4065  0.9454  0.0627
 7072SOL    HW132852   0.196   0.015   9.729  2.6578  0.4520 -0.5079
 7072SOL    HW232853   0.150   4.693   9.852  0.5410  2.1661 -0.3314
 7073SOL     OW32854   1.226   4.401   7.958 -0.1606 -0.3137 -0.6316
 7073SOL    HW132855   1.310   4.354   7.961 -0.3686 -0.7374 -1.7217
 7073SOL    HW232856   1.165   4.340   7.999  1.9608 -0.0812  2.9023
 7074SOL     OW32857   1.007   3.984   5.431 -0.5811 -0.1420  0.0467
 7074SOL    HW132858   0.984   4.049   5.497  0.7942  0.0430  0.3279
 7074SOL    HW232859   1.071   4.033   5.379 -0.0723  0.6597  1.4302
 7075SOL     OW32860   4.031   1.295   4.555  0.3231 -0.4574 -0.4612
 7075SOL    HW132861   3.983   1.213   4.545 -0.2273  0.2249 -3.4193
 7075SOL    HW232862   3.987   1.336   4.480 -0.2992 -1.7354 -0.7954
 7076SOL     OW32863   0.665   4.221   4.649  1.1038  0.6822 -0.9689
 7076SOL    HW132864   0.616   4.285   4.701  0.5529 -1.4370  1.1386
 7076SOL    HW232865   0.742   4.236   4.704  1.9526 -2.8117 -1.1789
 7077SOL     OW32866   3.200   3.005   7.671  0.0967 -0.3101 -0.3661
 7077SOL    HW132867   3.198   3.046   7.585  0.9634  0.7237  0.1018
 7077SOL    HW232868   3.289   2.971   7.677 -0.3371 -1.4793 -0.5207
 7078SOL     OW32869   2.983   1.353   2.634 -0.1674  0.1314  0.5389
 7078SOL    HW132870   2.917   1.397   2.581  2.0503  2.8897  0.0925
 7078SOL    HW232871   2.939   1.341   2.719  1.9074  1.1605  1.7338
 7079SOL     OW32872   1.585   3.311   8.584  0.2199 -0.3184  0.1545
 7079SOL    HW132873   1.562   3.398   8.618  1.5601 -0.2975  0.9808
 7079SOL    HW232874   1.499   3.287   8.549  0.0901  0.0604  0.2092
 7080SOL     OW32875   3.830   2.114   7.034  0.4376  0.1760 -0.0324
 7080SOL    HW132876   3.880   2.191   7.009 -0.1880  0.9783  1.2078
 7080SOL    HW232877   3.810   2.116   7.128  2.8763 -1.4339  0.5097
 7081SOL     OW32878   3.701   1.690   2.731 -0.5651  0.2781 -0.6514
 7081SOL    HW132879   3.773   1.723   2.678  0.1676  2.4305  1.7105
 7081SOL    HW232880   3.679   1.615   2.675 -0.3192  1.6648 -2.5787
 7082SOL     OW32881   2.053   3.571  12.550 -0.6309  0.1599  0.4933
 7082SOL    HW132882   2.084   3.660  12.536 -0.2192  0.2263  1.8003
 7082SOL    HW232883   1.984   3.578  12.483  1.1153  0.9368 -1.2065
 7083SOL     OW32884   0.448   2.255   5.532  0.2857  0.4526 -0.0780
 7083SOL    HW132885   0.386   2.320   5.500 -0.2762 -0.6723 -1.2398
 7083SOL    HW232886   0.404   2.170   5.524  0.2398  0.1815  2.8679
 7084SOL     OW32887   2.825   1.300   0.572 -0.1075  0.2287 -0.0794
 7084SOL    HW132888   2.920   1.309   0.564  0.1400 -0.7642  1.7313
 7084SOL    HW232889   2.810   1.210   0.601  0.3801 -0.1907 -1.1360
 7085SOL     OW32890   3.056   0.415   7.928  0.1828 -0.2566 -0.4821
 7085SOL    HW132891   3.073   0.498   7.884 -1.6531  0.6799  0.5673
 7085SOL    HW232892   2.979   0.437   7.980 -1.1106  0.0710 -2.5376
 7086SOL     OW32893   1.599   4.075  17.246 -0.3681  0.1498 -0.2116
 7086SOL    HW132894   1.598   3.980  17.238  1.2185  0.2203 -1.1731
 7086SOL    HW232895   1.538   4.100  17.177 -1.1407 -0.8581  0.1051
 7087SOL     OW32896   3.562   2.691   0.536  1.1406  0.0155  0.3239
 7087SOL    HW132897   3.616   2.765   0.509  0.9476  0.4354  1.1095
 7087SOL    HW232898   3.556   2.692   0.631 -1.5021 -2.6931  0.1813
 7088SOL     OW32899   2.903   0.934  16.542  0.4367  0.3189  0.5640
 7088SOL    HW132900   2.952   0.854  16.524 -1.6318 -0.1276 -3.2083
 7088SOL    HW232901   2.847   0.938  16.464 -1.3591 -2.6680  1.7123
 7089SOL     OW32902   3.829   2.644   7.236 -0.0390  0.7649  0.0813
 7089SOL    HW132903   3.865   2.560   7.266 -0.9470  0.2159 -0.3573
 7089SOL    HW232904   3.902   2.673   7.181 -0.7680  0.4280 -1.0682
 7090SOL     OW32905   3.238   4.179   4.864  0.1452  0.1550 -0.4847
 7090SOL    HW132906   3.315   4.135   4.828  2.1894  1.6926  2.0601
 7090SOL    HW232907   3.170   4.117   4.836  0.8779 -0.6873 -0.3894
 7091SOL     OW32908   3.625   0.416   4.392 -0.3264  0.2460 -0.1502
 7091SOL    HW132909   3.644   0.398   4.300 -1.4077  0.3865 -0.4015
 7091SOL    HW232910   3.659   0.339   4.436 -0.2787 -1.4198 -3.0783
 7092SOL     OW32911   0.395   4.152   9.464 -0.0869 -0.2535 -0.4735
 7092SOL    HW132912   0.338   4.163   9.540  2.7315 -1.5608  1.8386
 7092SOL    HW232913   0.441   4.072   9.490 -0.1145 -0.6292 -1.5599
 7093SOL     OW32914   1.127   1.725  15.524  0.7788 -0.1940  0.3110
 7093SOL    HW132915   1.091   1.813  15.531  1.5925 -0.0005  1.9037
 7093SOL    HW232916   1.222   1.733  15.531  0.6993 -0.5419  1.7733
 7094SOL     OW32917   3.837   2.384   0.901  0.1576 -0.3015  0.2715
 7094SOL    HW132918   3.761   2.377   0.959  0.6750 -2.4237  0.7033
 7094SOL    HW232919   3.910   2.355   0.956 -0.6508 -0.7371  1.1184
 7095SOL     OW32920   2.566   3.026   1.324 -0.2491 -0.6238  0.2295
 7095SOL    HW132921   2.642   3.059   1.277 -1.4966  2.9755  0.7711
 7095SOL    HW232922   2.506   3.100   1.329  1.6058  0.9410 -0.9949
 7096SOL     OW32923   2.252   0.937   9.963  0.4348  0.0462 -0.0225
 7096SOL    HW132924   2.311   0.947  10.038  0.5805  0.0726 -0.1403
 7096SOL    HW232925   2.268   1.021   9.920  0.8244  0.3391  0.6975
 7097SOL     OW32926   1.658   4.713   0.567  0.0639 -0.1202 -0.2677
 7097SOL    HW132927   1.674   4.695   0.474  2.0316  0.5749 -0.0730
 7097SOL    HW232928   1.584   4.654   0.581 -1.4064  1.7976  0.0562
 7098SOL     OW32929   0.682   0.203   6.153  0.2650 -0.4007 -0.4297
 7098SOL    HW132930   0.727   0.119   6.168  2.0601  0.7893  0.8249
 7098SOL    HW232931   0.749   0.270   6.165 -0.1805 -0.3902  1.9744
 7099SOL     OW32932   3.913   3.338   3.543  0.2173 -0.3740  0.6139
 7099SOL    HW132933   3.886   3.295   3.462 -0.2962 -2.6913  1.9918
 7099SOL    HW232934   3.930   3.257   3.593  1.2979  0.4061  1.5212
 7100SOL     OW32935   1.426   0.276   3.938  0.1676 -0.6322  0.6357
 7100SOL    HW132936   1.482   0.215   3.890 -0.2794 -1.5363  1.2641
 7100SOL    HW232937   1.485   0.294   4.011  1.7564 -0.2649 -0.7382
 7101SOL     OW32938   0.568   0.162   9.347  0.1477  0.1028 -0.0737
 7101SOL    HW132939   0.521   0.079   9.337  2.0058 -1.0527  0.6702
 7101SOL    HW232940   0.653   0.135   9.312  0.7844 -1.9077  2.9284
 7102SOL     OW32941   3.483   0.337   2.849  0.2378 -0.1127 -0.1305
 7102SOL    HW132942   3.409   0.307   2.901 -0.8938  1.7975 -0.6351
 7102SOL    HW232943   3.553   0.351   2.913  1.6205 -0.9136 -1.4735
 7103SOL     OW32944   1.224   1.662   1.824  0.2114  0.6616  0.0257
 7103SOL    HW132945   1.289   1.646   1.756 -1.0564 -0.4553 -0.9253
 7103SOL    HW232946   1.165   1.723   1.780 -2.2576 -1.0726  0.9131
 7104SOL     OW32947   0.466   1.937   9.835 -0.0951 -0.2175  0.4211
 7104SOL    HW132948   0.548   1.916   9.880 -1.2125  1.4085  3.2047
 7104SOL    HW232949   0.457   2.031   9.851  0.6462 -0.2430  0.9894
 7105SOL     OW32950   3.727   3.494   9.493 -0.0804  0.0585 -1.5019
 7105SOL    HW132951   3.806   3.446   9.467  0.6737  0.1969  0.5791
 7105SOL    HW232952   3.691   3.510   9.405  2.2727  0.8741 -2.3137
 7106SOL     OW32953   0.206   1.697   6.427 -0.0250  0.2938 -0.4928
 7106SOL    HW132954   0.121   1.707   6.385  0.4184  1.4748 -1.1053
 7106SOL    HW232955   0.243   1.640   6.360 -2.1334 -0.6370 -0.8760
 7107SOL     OW32956   0.014   0.904   2.742 -0.1545  0.0448 -0.4964
 7107SOL    HW132957   0.037   0.812   2.748 -1.1802 -0.2699 -1.6704
 7107SOL    HW232958   0.092   0.946   2.705  0.6259  0.0808  1.1891
 7108SOL     OW32959   1.881   3.137   5.578 -0.3769  0.5420 -0.3868
 7108SOL    HW132960   1.928   3.092   5.649  1.4576  1.1044 -1.2504
 7108SOL    HW232961   1.897   3.227   5.606  1.7242 -0.2567  0.9850
 7109SOL     OW32962   2.985   2.209  15.087  0.3569  0.0869 -0.1449
 7109SOL    HW132963   2.961   2.203  14.995 -3.0110  0.8138  0.6719
 7109SOL    HW232964   2.933   2.132  15.110 -0.9969  1.6314  1.9654
 7110SOL     OW32965   1.081   1.373   7.075  0.2694 -0.1345 -0.1836
 7110SOL    HW132966   1.135   1.297   7.096  0.2693 -0.6973 -2.1841
 7110SOL    HW232967   1.126   1.448   7.115  1.8591 -0.7498 -0.7970
 7111SOL     OW32968   3.053   4.718   7.408 -0.6101  0.4211  0.0223
 7111SOL    HW132969   2.962   0.008   7.426 -1.0366 -1.3418  0.0655
 7111SOL    HW232970   3.082   0.062   7.359  0.2340 -0.4668 -0.8846
 7112SOL     OW32971   3.723   4.613   7.047 -0.4716 -0.1068 -0.1507
 7112SOL    HW132972   3.733   4.518   7.045 -2.4032 -0.2772 -1.3295
 7112SOL    HW232973   3.646   4.619   7.103 -1.1964 -0.7859 -1.0674
 7113SOL     OW32974   2.826   4.133   6.254  0.4233  0.4771  0.1424
 7113SOL    HW132975   2.885   4.158   6.325  0.3902 -1.0684  0.7042
 7113SOL    HW232976   2.754   4.197   6.262  0.1131  0.3040 -1.1651
 7114SOL     OW32977   1.355   1.872   6.043 -0.0186 -0.3100  0.3565
 7114SOL    HW132978   1.292   1.913   5.983  0.7200  0.7792  0.3187
 7114SOL    HW232979   1.314   1.878   6.129  3.6419 -0.6618  2.1037
 7115SOL     OW32980   3.734   4.336  11.851 -0.4437 -0.2543  0.4937
 7115SOL    HW132981   3.729   4.279  11.927 -0.2911  0.6022  1.1370
 7115SOL    HW232982   3.794   4.401  11.888  1.1028 -1.0941 -0.5103
 7116SOL     OW32983   4.285   2.056  16.828 -0.0019  0.1438 -0.3170
 7116SOL    HW132984   4.278   2.024  16.917 -0.0586 -0.0292 -0.3836
 7116SOL    HW232985   4.245   1.990  16.772 -3.2493  1.6012  0.3385
 7117SOL     OW32986   2.993   2.517  11.941 -0.3675  0.4535  0.2156
 7117SOL    HW132987   2.986   2.499  11.847 -0.8108  0.1857  0.2956
 7117SOL    HW232988   3.076   2.563  11.941  0.0251 -0.2581  1.1080
 7118SOL     OW32989   1.263   2.227   5.928  0.2723 -0.5845  0.3565
 7118SOL    HW132990   1.170   2.244   5.937  0.6283  0.8818  1.1544
 7118SOL    HW232991   1.264   2.181   5.844  0.8736 -1.8459  1.0377
 7119SOL     OW32992   3.973   1.837   2.592 -0.1837  0.3050  0.3692
 7119SOL    HW132993   3.899   1.896   2.577 -0.7904 -0.7991 -1.0279
 7119SOL    HW232994   4.048   1.894   2.571 -1.2823  0.2351 -3.8168
 7120SOL     OW32995   2.794   3.016  13.583  0.2882  0.3460 -0.1389
 7120SOL    HW132996   2.870   2.988  13.533  1.6554 -1.5833  3.0017
 7120SOL    HW232997   2.821   3.001  13.674  0.9738 -1.4916 -0.6425
 7121SOL     OW32998   1.094   4.219  13.882  0.0063  0.5361  0.1908
 7121SOL    HW132999   1.046   4.210  13.964 -2.7352  0.8189 -1.3949
 7121SOL    HW233000   1.081   4.309  13.850  1.8297  1.6799  2.6618
 7122SOL     OW33001   1.781   2.387   5.243 -0.5981  0.1080  0.7101
 7122SOL    HW133002   1.723   2.336   5.300 -0.7939 -1.3870 -0.8257
 7122SOL    HW233003   1.866   2.345   5.257 -0.2796  0.2945 -0.6649
 7123SOL     OW33004   0.325   1.740  10.083 -0.1308  0.1002  1.0345
 7123SOL    HW133005   0.356   1.831  10.087  0.7155 -0.1511  0.2503
 7123SOL    HW233006   0.281   1.741   9.998 -1.5714  0.4611  1.7869
 7124SOL     OW33007   2.317   2.449   2.101 -0.3469 -0.8224  0.0062
 7124SOL    HW133008   2.393   2.483   2.053 -1.0345 -0.6463 -0.9513
 7124SOL    HW233009   2.342   2.472   2.190  2.3770  0.1259 -0.9733
 7125SOL     OW33010   2.335   1.853  17.334 -0.1615 -0.6009 -0.1109
 7125SOL    HW133011   2.367   1.816  17.252 -2.0745 -1.6955 -0.3581
 7125SOL    HW233012   2.421   1.880  17.368 -1.1360  1.1468  0.9358
 7126SOL     OW33013   2.041   3.832   1.863  0.3761 -0.2435 -0.7204
 7126SOL    HW133014   2.084   3.904   1.816  1.1105  1.5475  2.6710
 7126SOL    HW233015   2.086   3.760   1.820  1.0564 -0.6305  0.6279
 7127SOL     OW33016   4.707   0.343  16.334  0.3481  0.2806  0.0252
 7127SOL    HW133017   4.625   0.383  16.304 -0.2872  0.2026  1.6489
 7127SOL    HW233018   0.028   0.409  16.290 -2.0062  1.1300 -1.5835
 7128SOL     OW33019   1.018   1.099   4.255  0.4727 -0.5189 -0.5533
 7128SOL    HW133020   1.018   1.194   4.243  2.9535 -0.5256 -0.5120
 7128SOL    HW233021   0.975   1.106   4.340 -1.7315  1.6368 -1.8336
 7129SOL     OW33022   1.240   0.298   8.461 -0.4203 -0.1418  0.0608
 7129SOL    HW133023   1.185   0.360   8.509 -0.5935  0.7296 -1.2803
 7129SOL    HW233024   1.291   0.259   8.533  0.1554 -1.1316 -0.8773
 7130SOL     OW33025   3.719   1.028  14.374  0.2925  0.3453 -0.4983
 7130SOL    HW133026   3.743   1.114  14.409  1.1061 -0.7953  1.7301
 7130SOL    HW233027   3.630   1.047  14.346  0.5023  0.5322 -1.0540
 7131SOL     OW33028   3.311   3.625   6.917  0.5310  0.0219 -0.1761
 7131SOL    HW133029   3.259   3.667   6.986  1.7722 -1.1887  1.4924
 7131SOL    HW233030   3.297   3.672   6.835  0.5923  0.5621  0.1183
 7132SOL     OW33031   1.796   0.575  10.534  0.4703  0.2180 -0.1135
 7132SOL    HW133032   1.817   0.546  10.623 -0.8173 -1.8050 -0.4668
 7132SOL    HW233033   1.750   0.498  10.500  1.8550 -0.6767  0.0409
 7133SOL     OW33034   4.428   3.110   4.733  0.8080 -0.2056  0.5387
 7133SOL    HW133035   4.365   3.165   4.686 -0.8932 -1.2381  1.6075
 7133SOL    HW233036   4.415   3.156   4.816 -0.7517 -2.3931  1.5013
 7134SOL     OW33037   4.665   2.002   3.268 -0.5161 -0.1906 -0.3240
 7134SOL    HW133038   4.636   1.919   3.231 -2.5126  0.0029  0.7571
 7134SOL    HW233039   0.014   1.979   3.310 -0.1802  0.2759 -0.7303
 7135SOL     OW33040   1.811   4.212  12.378 -0.2691 -0.3077  0.5716
 7135SOL    HW133041   1.833   4.251  12.462 -2.6282 -0.6615  1.3463
 7135SOL    HW233042   1.716   4.212  12.380 -0.2950 -0.3244 -0.5175
 7136SOL     OW33043   4.585   0.093   5.994  0.1325 -0.3807  0.0628
 7136SOL    HW133044   4.607   0.176   6.035  1.7569  0.5550 -2.6779
 7136SOL    HW233045   4.667   0.071   5.950  0.5031  1.7715 -0.3083
 7137SOL     OW33046   2.622   4.311   8.950 -0.5351 -0.2352  0.4270
 7137SOL    HW133047   2.660   4.256   8.881 -0.1578  0.7325 -0.1428
 7137SOL    HW233048   2.612   4.243   9.016 -0.2184 -0.5993  0.1027
 7138SOL     OW33049   3.337   3.602   4.332  0.4975 -0.2759  0.0960
 7138SOL    HW133050   3.393   3.650   4.394 -1.2659 -1.4697  2.5882
 7138SOL    HW233051   3.261   3.659   4.339  1.5016  1.0967 -0.0002
 7139SOL     OW33052   0.603   3.040  10.693  0.4168 -0.4035  0.0542
 7139SOL    HW133053   0.634   2.950  10.701  0.6729 -0.4445 -1.4415
 7139SOL    HW233054   0.597   3.050  10.598  0.9631  0.1961  0.0892
 7140SOL     OW33055   1.950   0.197   6.044  0.0064  0.0342  0.1175
 7140SOL    HW133056   1.860   0.187   6.014 -1.0974  0.0691  3.4141
 7140SOL    HW233057   1.979   0.274   5.995 -1.8811  0.0091 -1.0153
 7141SOL     OW33058   0.976   2.646   4.261 -0.2238 -0.6506 -0.5449
 7141SOL    HW133059   0.923   2.606   4.192  1.0846 -1.6112 -0.9893
 7141SOL    HW233060   0.998   2.731   4.223 -3.2023  1.5728  2.5981
 7142SOL     OW33061   0.802   4.649   3.345 -0.2585  0.0736 -0.4683
 7142SOL    HW133062   0.740   4.646   3.273 -1.2062  0.9508  0.3012
 7142SOL    HW233063   0.766   4.725   3.392 -0.0586 -0.2508  0.2166
 7143SOL     OW33064   3.524   4.129   4.073 -0.6168 -0.1889 -0.3425
 7143SOL    HW133065   3.599   4.102   4.020 -0.6076 -0.1453 -0.3508
 7143SOL    HW233066   3.553   4.094   4.157 -0.8603  1.1221  0.2834
 7144SOL     OW33067   1.996   3.014   5.219  0.0413 -0.4705  0.1149
 7144SOL    HW133068   1.959   2.950   5.159 -2.3821  2.1741 -1.2147
 7144SOL    HW233069   1.937   3.089   5.210  0.1723 -0.0390  2.8986
 7145SOL     OW33070   0.400   1.718   1.947 -0.0039 -0.4085 -0.1050
 7145SOL    HW133071   0.483   1.756   1.979  0.7842 -2.3100  0.1403
 7145SOL    HW233072   0.393   1.753   1.859  0.9401 -0.6462 -0.2779
 7146SOL     OW33073   0.272   1.311   7.914  0.0564  0.4379  0.2218
 7146SOL    HW133074   0.234   1.225   7.897 -1.2133  1.3007 -1.2778
 7146SOL    HW233075   0.364   1.284   7.917  0.0571  0.0840 -2.6116
 7147SOL     OW33076   2.275   4.044   3.524 -0.0953  0.5174 -0.0191
 7147SOL    HW133077   2.326   3.967   3.499  0.6875  1.6679 -1.9622
 7147SOL    HW233078   2.195   3.997   3.549  0.5592 -0.6371 -0.0747
 7148SOL     OW33079   3.310   1.239   9.247 -0.6124 -0.4150  0.3776
 7148SOL    HW133080   3.300   1.326   9.287 -2.3126 -1.2945  1.8608
 7148SOL    HW233081   3.398   1.237   9.211 -1.2226  1.6514 -1.1900
 7149SOL     OW33082   4.400   2.299  16.511 -0.0529 -0.1616 -0.2044
 7149SOL    HW133083   4.324   2.329  16.460 -0.0870 -0.6047 -0.4130
 7149SOL    HW233084   4.423   2.380  16.556 -0.6188 -0.8998  1.3968
 7150SOL     OW33085   3.219   0.228  17.163  0.3826 -0.1109 -0.3365
 7150SOL    HW133086   3.130   0.258  17.179 -0.4763 -2.5955 -0.4074
 7150SOL    HW233087   3.267   0.307  17.188  0.0208 -1.3959  4.5453
 7151SOL     OW33088   4.070   3.526  17.622 -0.4271 -0.1338 -0.0837
 7151SOL    HW133089   4.058   3.616  17.592  0.0179  0.3522  1.1922
 7151SOL    HW233090   4.126   3.553  17.695 -1.2307  1.2690  0.0154
 7152SOL     OW33091   4.560   0.774   3.556  0.2055  0.0634 -0.0647
 7152SOL    HW133092   4.625   0.732   3.501  0.2420 -1.2991  1.0271
 7152SOL    HW233093   4.621   0.805   3.623  1.2377 -2.2006  0.0479
 7153SOL     OW33094   3.899   4.222   0.540  0.6948 -0.3485  0.3353
 7153SOL    HW133095   3.828   4.259   0.593  0.9954  1.9638 -0.8884
 7153SOL    HW233096   3.924   4.147   0.594 -4.1145 -1.8093  0.5647
 7154SOL     OW33097   3.291   3.104  16.722 -0.3454  0.0841 -0.2852
 7154SOL    HW133098   3.321   3.159  16.650  1.7011  0.5567  0.9334
 7154SOL    HW233099   3.198   3.097  16.699 -0.2382 -1.7500 -0.2347
 7155SOL     OW33100   0.315   2.572   9.111 -0.1523 -0.1852 -0.1384
 7155SOL    HW133101   0.312   2.481   9.141 -2.9556 -0.3629 -0.9000
 7155SOL    HW233102   0.252   2.613   9.170 -2.6282 -2.1437 -1.3845
 7156SOL     OW33103   4.023   1.117   7.314  0.1903  0.1714  0.4097
 7156SOL    HW133104   3.997   1.033   7.350  1.2921 -0.5049 -0.3988
 7156SOL    HW233105   3.951   1.172   7.345  0.6123  1.4061 -0.7537
 7157SOL     OW33106   1.655   4.069   9.122  0.6482  0.6087  0.2050
 7157SOL    HW133107   1.672   4.024   9.205  0.8015  1.0357  0.4094
 7157SOL    HW233108   1.738   4.111   9.098 -0.5445  2.1208 -1.3046
 7158SOL     OW33109   2.978   1.032   2.183  0.1777  0.7388 -0.1132
 7158SOL    HW133110   2.924   1.051   2.260 -1.7276 -1.6785 -0.8749
 7158SOL    HW233111   2.929   1.082   2.118  0.1122 -0.4626 -0.9740
 7159SOL     OW33112   4.658   0.823   0.653  0.1040  0.0489 -0.5811
 7159SOL    HW133113   4.713   0.745   0.661  0.3305  0.3133  0.4745
 7159SOL    HW233114   4.626   0.831   0.743  0.3926 -1.6010 -0.3344
 7160SOL     OW33115   4.640   2.850   5.496  0.2263 -0.5032  0.6144
 7160SOL    HW133116   4.624   2.769   5.544  3.1779 -0.2326  2.0698
 7160SOL    HW233117   4.603   2.824   5.411  1.5935  0.9447 -0.4281
 7161SOL     OW33118   2.980   2.004  12.969  0.2652 -0.0049  0.4758
 7161SOL    HW133119   2.907   2.060  12.944 -0.0735 -0.9093 -0.5857
 7161SOL    HW233120   3.045   2.073  12.956  0.6733 -0.3170  0.8455
 7162SOL     OW33121   1.098   0.671   4.414  0.5939  0.0755 -0.0243
 7162SOL    HW133122   1.158   0.740   4.384 -0.1146  0.1585 -1.2421
 7162SOL    HW233123   1.023   0.700   4.363  0.5570 -3.8025 -2.1573
 7163SOL     OW33124   4.021   4.364   7.179 -0.1715 -0.7007 -0.2494
 7163SOL    HW133125   3.981   4.413   7.107  0.4224  0.3338  0.1245
 7163SOL    HW233126   3.958   4.391   7.245  2.3501  1.7767  1.1621
 7164SOL     OW33127   4.680   2.630   5.689 -0.4163 -0.0338 -0.5075
 7164SOL    HW133128   4.632   2.594   5.615  1.3100 -2.1064 -0.6144
 7164SOL    HW233129   4.680   2.549   5.740 -0.4736  0.1998 -0.1380
 7165SOL     OW33130   3.410   3.733   5.950 -0.0366  0.4292 -0.3198
 7165SOL    HW133131   3.448   3.707   5.867 -0.0046 -0.9130  0.1059
 7165SOL    HW233132   3.324   3.746   5.909 -0.2895 -1.0952 -0.2941
 7166SOL     OW33133   2.657   4.348   6.203 -0.3670  0.2557  0.2075
 7166SOL    HW133134   2.684   4.432   6.241  0.1142  0.5095 -0.6932
 7166SOL    HW233135   2.564   4.350   6.228 -1.0104  3.0158 -2.2814
 7167SOL     OW33136   3.857   3.379  17.693 -0.0967 -0.0059  0.2338
 7167SOL    HW133137   3.944   3.407  17.664 -0.2745  1.1974  0.8499
 7167SOL    HW233138   3.807   3.461  17.700 -1.8236 -1.1106  0.8934
 7168SOL     OW33139   2.504   4.612   5.634 -0.6231 -0.1875 -0.3358
 7168SOL    HW133140   2.474   4.566   5.556 -1.3087  1.5734 -1.1027
 7168SOL    HW233141   2.425   4.663   5.652  0.2173  0.5617  1.2480
 7169SOL     OW33142   0.585   1.390   8.703  0.6658  0.4502  0.2302
 7169SOL    HW133143   0.585   1.328   8.777 -1.6473  0.6130  0.3687
 7169SOL    HW233144   0.557   1.457   8.765  0.2391 -0.5844  1.1729
 7170SOL     OW33145   0.444   4.172   6.465  0.2906  0.0551  0.0524
 7170SOL    HW133146   0.499   4.093   6.469  2.5641  1.5597 -1.3733
 7170SOL    HW233147   0.511   4.233   6.435  1.6456 -1.7047 -0.5674
 7171SOL     OW33148   2.624   4.126  16.984 -0.3555  0.5082 -0.3825
 7171SOL    HW133149   2.546   4.154  17.033 -0.3731 -1.7019  0.8235
 7171SOL    HW233150   2.692   4.182  17.022  0.2517 -1.4756  1.4504
 7172SOL     OW33151   1.452   0.761   8.613 -0.1689  0.1669  0.1473
 7172SOL    HW133152   1.370   0.750   8.565  1.2641  0.4315 -2.3249
 7172SOL    HW233153   1.443   0.693   8.680  1.1264 -0.4750 -0.3242
 7173SOL     OW33154   2.976   2.326   8.031 -0.1415  0.2483 -0.4704
 7173SOL    HW133155   2.887   2.298   8.012 -0.3857  1.0958 -0.5942
 7173SOL    HW233156   2.969   2.420   8.013  0.1457  0.2487 -0.5780
 7174SOL     OW33157   3.140   2.195  11.666  0.2227  0.1370  0.1876
 7174SOL    HW133158   3.219   2.143  11.678 -0.7119 -1.1885  0.6181
 7174SOL    HW233159   3.071   2.132  11.644 -0.4844  0.6117  1.0560
 7175SOL     OW33160   0.341   3.780  13.029 -0.5184 -0.3260  0.1653
 7175SOL    HW133161   0.436   3.779  13.017 -0.8459 -1.4453 -2.3681
 7175SOL    HW233162   0.338   3.857  13.086  1.7982  0.1103 -0.2798
 7176SOL     OW33163   0.505   1.655   4.523  0.1156 -0.4590 -0.2549
 7176SOL    HW133164   0.553   1.713   4.583 -1.1231  1.1478 -0.8170
 7176SOL    HW233165   0.504   1.713   4.447 -1.4798  0.7129  0.6479
 7177SOL     OW33166   3.176   2.814   8.436  0.6372  0.0193 -0.5288
 7177SOL    HW133167   3.262   2.808   8.395  0.3809 -0.5919 -0.9855
 7177SOL    HW233168   3.132   2.881   8.384  1.1982 -0.7077 -1.9410
 7178SOL     OW33169   2.074   1.287   6.988  0.0992 -0.5618 -0.1472
 7178SOL    HW133170   2.132   1.236   7.045 -1.8653 -1.0856  1.3902
 7178SOL    HW233171   2.053   1.234   6.912 -1.7342 -0.6360  0.4240
 7179SOL     OW33172   1.899   2.186   0.314  0.0387 -0.5862 -0.5228
 7179SOL    HW133173   1.977   2.239   0.333 -1.6158  1.6256  0.1550
 7179SOL    HW233174   1.887   2.216   0.224  0.9740  0.6957 -0.2215
 7180SOL     OW33175   1.196   2.139   6.304 -0.0434  0.6368 -0.3338
 7180SOL    HW133176   1.211   2.192   6.382  0.9930  0.5979 -0.5048
 7180SOL    HW233177   1.170   2.199   6.235 -0.3092 -0.1882 -0.9477
 7181SOL     OW33178   1.116   2.091   2.421  0.1567  0.3502  0.5695
 7181SOL    HW133179   1.159   2.092   2.336  1.3586  0.1252  1.1643
 7181SOL    HW233180   1.105   2.186   2.426  1.2171  0.5950 -1.6009
 7182SOL     OW33181   2.109   3.345   3.109  0.3195  0.6561 -0.7776
 7182SOL    HW133182   2.054   3.317   3.182  0.9912  0.6783 -0.2664
 7182SOL    HW233183   2.157   3.419   3.145  0.5551  0.0218  0.2116
 7183SOL     OW33184   0.781   1.366   3.758 -0.2575 -0.6341  0.3538
 7183SOL    HW133185   0.853   1.395   3.814 -0.2082 -0.5836  0.2655
 7183SOL    HW233186   0.804   1.424   3.685 -0.6392  0.0531  0.7850
 7184SOL     OW33187   1.070   3.941  16.906  0.1564 -0.1445  0.0280
 7184SOL    HW133188   1.153   3.938  16.952  0.3004 -0.1877 -0.2348
 7184SOL    HW233189   1.069   3.852  16.871  0.4474 -0.1055 -0.0772
 7185SOL     OW33190   1.879   2.046   7.518  0.2423  0.1813 -0.5135
 7185SOL    HW133191   1.798   2.092   7.495 -0.3367  0.2899  1.7799
 7185SOL    HW233192   1.877   1.960   7.477 -1.2582 -0.3769  0.7421
 7186SOL     OW33193   0.386   3.944   8.562 -0.3103  0.1149 -0.0251
 7186SOL    HW133194   0.336   3.991   8.629 -1.0730  0.5824 -0.9058
 7186SOL    HW233195   0.318   3.887   8.526 -0.9944  0.7138  0.3003
 7187SOL     OW33196   4.077   3.840   6.473 -0.6376  0.5690  0.4219
 7187SOL    HW133197   4.144   3.820   6.408 -2.4461 -3.1604 -0.2804
 7187SOL    HW233198   4.112   3.807   6.556  3.2158 -0.1973 -1.4926
 7188SOL     OW33199   3.463   1.176   0.033  0.1307 -0.0028  0.2022
 7188SOL    HW133200   3.381   1.180  17.717  0.8061 -4.7999 -1.3738
 7188SOL    HW233201   3.513   1.136  17.693 -1.6766  0.2244 -1.1962
 7189SOL     OW33202   2.414   2.939   7.460  0.6346  0.5963 -0.2281
 7189SOL    HW133203   2.497   2.977   7.430  0.4027  0.5062 -0.9935
 7189SOL    HW233204   2.413   2.953   7.554  0.2595  1.7743 -0.4073
 7190SOL     OW33205   3.991   0.890   6.171 -0.4057  0.4853  0.3871
 7190SOL    HW133206   4.041   0.817   6.206  2.5371  1.8473 -1.0158
 7190SOL    HW233207   4.050   0.966   6.175 -0.7233  0.7126  0.7875
 7191SOL     OW33208   3.720   0.834   9.366 -0.2635  0.1224  0.4908
 7191SOL    HW133209   3.707   0.892   9.441 -0.5250  1.6296 -0.7288
 7191SOL    HW233210   3.714   0.747   9.405  0.4586  1.3348  3.2887
 7192SOL     OW33211   1.451   3.307  13.126 -0.4296 -0.0555  0.2212
 7192SOL    HW133212   1.424   3.363  13.053  1.0937  1.2544  0.6490
 7192SOL    HW233213   1.541   3.285  13.100 -0.6152 -1.1939  0.5358
 7193SOL     OW33214   3.769   2.547  15.086 -0.0805  0.1590  0.1504
 7193SOL    HW133215   3.820   2.467  15.095  0.9720  1.0896  2.3536
 7193SOL    HW233216   3.686   2.524  15.128  0.0280  1.7534  1.2466
 7194SOL     OW33217   2.141   1.942   0.100  0.4847  0.4385 -0.3053
 7194SOL    HW133218   2.195   1.954   0.178  1.3516  3.1790 -1.3082
 7194SOL    HW233219   2.212   1.923   0.038  1.3187  2.2606  0.0940
 7195SOL     OW33220   2.111   2.538   4.262  0.4909  0.2488 -0.0354
 7195SOL    HW133221   2.074   2.597   4.328 -0.0159 -1.3352  1.0940
 7195SOL    HW233222   2.198   2.576   4.251  0.1872  0.4279 -1.7812
 7196SOL     OW33223   0.924   2.234   3.014 -0.3503  0.6652 -0.2824
 7196SOL    HW133224   0.899   2.241   3.106 -0.0154  1.1884 -0.2265
 7196SOL    HW233225   0.980   2.156   3.015  0.2574  1.1160  1.7752
 7197SOL     OW33226   2.612   1.430   2.335  0.2614 -0.3473  0.0439
 7197SOL    HW133227   2.686   1.448   2.277  0.2667 -1.0476 -0.1720
 7197SOL    HW233228   2.650   1.463   2.416 -0.6805 -0.1165  0.3954
 7198SOL     OW33229   0.295   1.752  12.508  0.1408 -0.6955  0.7463
 7198SOL    HW133230   0.319   1.812  12.579 -0.3355  0.2957  0.0611
 7198SOL    HW233231   0.219   1.795  12.470 -0.4258 -0.6326  1.9530
 7199SOL     OW33232   2.723   1.772   8.242  0.2714  0.3911 -0.1386
 7199SOL    HW133233   2.814   1.797   8.256  0.5181 -1.3297  1.3265
 7199SOL    HW233234   2.693   1.859   8.217  2.7585  1.6537  1.3212
 7200SOL     OW33235   3.082   0.142   2.295  0.3440  0.1961 -0.0516
 7200SOL    HW133236   3.113   0.053   2.309  2.3024  0.9181  0.1699
 7200SOL    HW233237   3.100   0.159   2.203 -0.2960 -2.2948 -0.6143
 7201SOL     OW33238   0.657   2.187   7.448  0.7456  0.4463  0.2358
 7201SOL    HW133239   0.640   2.136   7.369  1.1230  1.2305 -0.3525
 7201SOL    HW233240   0.647   2.118   7.513 -1.5647 -1.3856 -2.0530
 7202SOL     OW33241   2.757   1.206   5.989  0.5131  0.8544  0.4486
 7202SOL    HW133242   2.691   1.254   6.038 -1.8865  0.1443 -2.0875
 7202SOL    HW233243   2.733   1.231   5.900  1.3445  0.6723  0.1712
 7203SOL     OW33244   3.254   2.827  16.953  0.5081 -0.6318 -0.0409
 7203SOL    HW133245   3.343   2.844  16.922  0.9526 -0.5152  1.2794
 7203SOL    HW233246   3.281   2.868  17.035 -0.0347 -1.3684  0.5122
 7204SOL     OW33247   1.540   2.424   6.602  0.4367 -0.1410 -0.1682
 7204SOL    HW133248   1.524   2.356   6.537 -0.3860 -0.5619  0.4745
 7204SOL    HW233249   1.529   2.362   6.674 -0.2398  0.8756  0.6176
 7205SOL     OW33250   2.330   0.486   9.415  0.0662  0.0411 -0.1338
 7205SOL    HW133251   2.362   0.397   9.396  0.9690  0.0927  1.0926
 7205SOL    HW233252   2.407   0.530   9.451  2.1451 -3.7571  0.1383
 7206SOL     OW33253   4.210   0.307   7.943 -0.2098 -0.5814  0.6306
 7206SOL    HW133254   4.281   0.276   7.887 -0.5837 -2.6598  1.2950
 7206SOL    HW233255   4.130   0.283   7.896 -0.0924  0.3149 -0.0109
 7207SOL     OW33256   0.168   3.283   4.568  0.2679 -0.0812  0.2659
 7207SOL    HW133257   0.108   3.209   4.557 -0.6496  0.7419 -0.2674
 7207SOL    HW233258   0.115   3.336   4.508  0.6035  2.1741  1.9843
 7208SOL     OW33259   3.215   0.468   2.488  0.1182 -0.5064 -0.8172
 7208SOL    HW133260   3.142   0.406   2.492 -0.6467  0.4417  0.1845
 7208SOL    HW233261   3.287   0.407   2.503  0.4296  0.3878  1.3906
 7209SOL     OW33262   4.513   4.700   2.969 -0.0683  0.2865 -0.1227
 7209SOL    HW133263   4.531   4.673   2.879 -0.9512 -1.9021  0.3362
 7209SOL    HW233264   4.468   4.619   2.996 -2.3156  1.2244 -0.9974
 7210SOL     OW33265   2.601   1.984  11.699 -0.3167  0.0517  0.2240
 7210SOL    HW133266   2.636   2.049  11.760  1.5944  0.7495 -1.6106
 7210SOL    HW233267   2.620   1.901  11.741  1.4449 -0.4347 -1.5084
 7211SOL     OW33268   3.410   4.045   3.044 -0.3201 -0.3561 -0.0584
 7211SOL    HW133269   3.459   4.067   2.964  0.3561 -0.5892  0.2880
 7211SOL    HW233270   3.335   3.996   3.011  0.3814 -0.1000 -2.0441
 7212SOL     OW33271   1.716   0.804   8.593 -0.5765 -0.4490 -0.3362
 7212SOL    HW133272   1.697   0.770   8.506 -2.6622 -1.6433  0.5934
 7212SOL    HW233273   1.626   0.799   8.623 -0.7762  0.5737 -0.7538
 7213SOL     OW33274   0.272   2.038   7.279 -0.6202 -0.1670  0.0750
 7213SOL    HW133275   0.343   2.010   7.336 -0.1725  0.2621 -0.2721
 7213SOL    HW233276   0.194   2.035   7.334 -0.6774 -0.5948 -0.0282
 7214SOL     OW33277   0.332   2.497   2.457 -0.2427  0.4238 -0.1249
 7214SOL    HW133278   0.416   2.482   2.413  0.6544 -0.5382  1.9013
 7214SOL    HW233279   0.341   2.592   2.466 -2.3247  0.5246  0.8139
 7215SOL     OW33280   2.217   1.061   4.355 -0.2166  0.3670  0.7699
 7215SOL    HW133281   2.161   1.131   4.321 -1.1104 -0.5896  0.2688
 7215SOL    HW233282   2.297   1.091   4.312 -0.5206 -1.2805 -0.9090
 7216SOL     OW33283   4.113   1.050   7.911  0.0709 -1.1015  0.4454
 7216SOL    HW133284   4.033   1.101   7.920  0.9049  0.5741 -1.8458
 7216SOL    HW233285   4.178   1.088   7.970 -1.8419 -1.8642  3.0687
 7217SOL     OW33286   0.558   0.799   3.681  0.1785  0.8669  0.2879
 7217SOL    HW133287   0.462   0.807   3.681  0.1385  0.3784 -0.3487
 7217SOL    HW233288   0.592   0.858   3.748  1.5894  1.2006 -0.7388
 7218SOL     OW33289   3.566   3.219   6.212  0.3638  0.2532 -0.4814
 7218SOL    HW133290   3.500   3.254   6.271  0.4600  0.6982 -0.6348
 7218SOL    HW233291   3.525   3.134   6.194  0.7716 -0.0502  0.0045
 7219SOL     OW33292   4.546   0.683   6.142 -0.3257  0.3483  0.0330
 7219SOL    HW133293   4.475   0.741   6.114 -1.8453 -1.6062 -0.1125
 7219SOL    HW233294   4.620   0.711   6.088 -0.8388  0.2884 -0.6869
 7220SOL     OW33295   2.640   0.509   6.874  0.2504 -0.4750 -0.1219
 7220SOL    HW133296   2.701   0.469   6.811  2.3516 -1.3380  2.4474
 7220SOL    HW233297   2.655   0.445   6.943  0.2071  0.3304  0.6227
 7221SOL     OW33298   1.505   3.208  13.841 -0.0928 -0.0164  0.1911
 7221SOL    HW133299   1.543   3.227  13.927  2.4491 -3.2951 -0.2112
 7221SOL    HW233300   1.426   3.154  13.854 -1.2132  1.4294 -0.6389
 7222SOL     OW33301   1.976   1.846  17.062 -0.6161 -0.0442  0.1995
 7222SOL    HW133302   2.055   1.891  17.033 -0.5768  0.0996  0.5260
 7222SOL    HW233303   1.911   1.904  17.021 -1.6906 -2.2921 -1.2323
 7223SOL     OW33304   3.536   1.366  16.177  0.1757 -0.2353  0.1255
 7223SOL    HW133305   3.466   1.350  16.113 -0.2381  3.1823 -0.2634
 7223SOL    HW233306   3.506   1.449  16.214 -2.0516 -0.2802 -1.5351
 7224SOL     OW33307   3.719   1.335  12.571  0.6568 -0.3919  0.1294
 7224SOL    HW133308   3.667   1.415  12.565 -0.0960 -0.8633  0.4172
 7224SOL    HW233309   3.652   1.267  12.567  1.1684 -0.9245  0.5281
 7225SOL     OW33310   3.651   0.660   0.363 -0.0932  0.0868  0.0349
 7225SOL    HW133311   3.707   0.737   0.350  0.4697 -0.0923  1.3975
 7225SOL    HW233312   3.660   0.639   0.456 -0.3753  0.2285  0.0923
 7226SOL     OW33313   2.474   0.129   8.359 -0.2118  0.3200 -0.1733
 7226SOL    HW133314   2.539   0.061   8.343 -1.3203 -1.2757  2.1004
 7226SOL    HW233315   2.496   0.186   8.433  0.1718  0.5915 -0.5024
 7227SOL     OW33316   3.988   0.056   9.721 -0.0013  0.4062  0.3955
 7227SOL    HW133317   3.941   0.109   9.656  0.2413  0.5741  0.3557
 7227SOL    HW233318   3.973   0.090   9.809  0.1183  0.7220  0.2953
 7228SOL     OW33319   1.333   1.572   6.854  0.2742  0.0515 -0.0118
 7228SOL    HW133320   1.413   1.625   6.857 -0.1644  0.8430 -2.8367
 7228SOL    HW233321   1.370   1.487   6.829  2.4663  1.2232 -0.7610
 7229SOL     OW33322   1.440   1.627   6.015  0.0486 -0.5926 -0.2416
 7229SOL    HW133323   1.427   1.720   6.002  1.9994 -0.2406  0.3720
 7229SOL    HW233324   1.421   1.614   6.108 -1.5881  2.8219 -0.0976
 7230SOL     OW33325   4.237   2.700  15.693  0.4829 -1.0078  0.1671
 7230SOL    HW133326   4.263   2.784  15.654 -1.8573 -0.0994  0.5846
 7230SOL    HW233327   4.320   2.671  15.731  1.1543 -0.1176 -0.5817
 7231SOL     OW33328   4.469   0.977   8.797  0.4028 -0.0526  0.2132
 7231SOL    HW133329   4.418   0.989   8.877 -0.4554 -1.8407 -0.0433
 7231SOL    HW233330   4.471   1.061   8.752 -1.6670  0.5293  1.2226
 7232SOL     OW33331   1.147   2.834   5.055  0.4301 -0.8102  0.0274
 7232SOL    HW133332   1.129   2.771   5.124 -0.3344  1.9240  2.3573
 7232SOL    HW233333   1.145   2.913   5.110 -1.6894  1.1744 -2.8561
 7233SOL     OW33334   0.037   3.698   9.909 -0.4962  0.1806 -0.5275
 7233SOL    HW133335   0.057   3.675   9.818 -1.6924  0.3864 -0.8384
 7233SOL    HW233336   0.115   3.742   9.944  0.0220 -2.2112  1.3608
 7234SOL     OW33337   1.870   4.691   8.410 -0.0710  0.0736 -0.3745
 7234SOL    HW133338   1.796   4.700   8.469 -1.0086 -0.9756 -1.4091
 7234SOL    HW233339   1.936   4.709   8.477  0.6077 -1.9929 -0.4716
 7235SOL     OW33340   0.725   1.384   9.054 -0.0508  0.0670  0.8984
 7235SOL    HW133341   0.675   1.460   9.025 -1.8088 -0.3654  2.7599
 7235SOL    HW233342   0.687   1.320   8.994  2.6421  2.4849 -3.3365
 7236SOL     OW33343   0.350   1.814   3.142  0.4821 -0.0754  0.0273
 7236SOL    HW133344   0.335   1.734   3.091  2.5226  0.5042 -1.4966
 7236SOL    HW233345   0.440   1.839   3.117  0.4125 -1.1724 -1.3390
 7237SOL     OW33346   3.322   2.061   3.454 -0.2306  0.2566  0.0054
 7237SOL    HW133347   3.400   2.056   3.399 -0.4221  3.9445 -0.5649
 7237SOL    HW233348   3.253   2.049   3.388 -2.0020 -0.0755  1.9139
 7238SOL     OW33349   1.097   4.466  16.837 -0.2731  0.8335 -0.4017
 7238SOL    HW133350   1.043   4.546  16.838 -2.1639 -0.4353 -1.5146
 7238SOL    HW233351   1.184   4.504  16.831 -0.1974  0.6305 -0.5686
 7239SOL     OW33352   3.469   0.412   6.823 -0.0833  0.6015 -0.2782
 7239SOL    HW133353   3.498   0.383   6.736  0.3907 -0.7505  0.3441
 7239SOL    HW233354   3.434   0.333   6.864 -0.2321 -0.7925 -3.0278
 7240SOL     OW33355   4.149   1.495   2.001 -0.2033 -0.4982 -0.1099
 7240SOL    HW133356   4.136   1.590   2.001  0.3533 -0.4323  1.1063
 7240SOL    HW233357   4.198   1.478   2.081  0.4004  2.8929  0.2660
 7241SOL     OW33358   0.008   1.536   1.204 -0.9297 -0.4825  0.2911
 7241SOL    HW133359   4.694   1.498   1.129 -1.4076  1.4529 -0.4016
 7241SOL    HW233360   4.672   1.558   1.266  0.1917 -0.5962  1.5619
 7242SOL     OW33361   1.868   0.193   8.271 -0.0742  0.3550  0.3000
 7242SOL    HW133362   1.960   0.205   8.250  0.1658 -0.4110  0.9069
 7242SOL    HW233363   1.877   0.121   8.334  0.0199  1.0628  1.0882
 7243SOL     OW33364   2.715   3.886   6.155  0.8298  0.2527 -0.2201
 7243SOL    HW133365   2.667   3.863   6.235 -0.2775 -1.3224 -1.3391
 7243SOL    HW233366   2.759   3.969   6.175  1.0544  0.0730  0.0307
 7244SOL     OW33367   0.236   1.679   6.977  0.6349 -0.0960 -0.4329
 7244SOL    HW133368   0.269   1.764   7.004  1.7518 -0.1211 -1.7391
 7244SOL    HW233369   0.224   1.700   6.884 -2.9783 -0.8353 -0.1416
 7245SOL     OW33370   4.600   3.866   3.319 -0.0927 -0.2510 -0.0700
 7245SOL    HW133371   4.520   3.857   3.267 -0.0686  4.7110 -0.9108
 7245SOL    HW233372   4.660   3.875   3.245  0.3902  0.5164  0.4165
 7246SOL     OW33373   0.776   3.027   2.444 -0.0115 -0.0973  0.0192
 7246SOL    HW133374   0.771   3.072   2.359 -2.6858 -1.1423 -0.3669
 7246SOL    HW233375   0.815   2.949   2.404 -2.1483 -1.5384  0.7849
 7247SOL     OW33376   1.159   4.287   2.592  0.0885 -0.7638  0.2024
 7247SOL    HW133377   1.149   4.193   2.607  0.2307 -0.4317  2.3631
 7247SOL    HW233378   1.150   4.285   2.497 -2.6546 -1.1854  0.4637
 7248SOL     OW33379   1.597   2.360   1.375  0.1816  0.0422  0.1545
 7248SOL    HW133380   1.546   2.441   1.367 -0.3920 -0.2146  1.3016
 7248SOL    HW233381   1.574   2.336   1.465 -0.0681 -0.1867  0.0271
 7249SOL     OW33382   2.795   4.169   4.142  0.5762  0.1163  0.1369
 7249SOL    HW133383   2.889   4.189   4.141  0.6808 -0.3748  0.0666
 7249SOL    HW233384   2.783   4.114   4.220 -0.9750  0.4967  0.1523
 7250SOL     OW33385   0.783   2.855   7.153  0.8592 -0.4435  0.2051
 7250SOL    HW133386   0.873   2.859   7.185  1.3213 -1.7231 -0.9487
 7250SOL    HW233387   0.764   2.763   7.172 -1.9914 -0.4615 -2.5503
 7251SOL     OW33388   4.098   1.470  11.894  0.3604  0.4743 -0.7725
 7251SOL    HW133389   4.048   1.508  11.821  0.8761  0.4961 -1.1164
 7251SOL    HW233390   4.184   1.503  11.870 -0.3535  1.5171 -1.9284
 7252SOL     OW33391   3.276   2.995  15.477  0.2580  0.0847 -0.1587
 7252SOL    HW133392   3.225   2.971  15.400  0.9693 -2.9829  0.3198
 7252SOL    HW233393   3.352   3.033  15.433  2.4105 -2.7144  1.1190
 7253SOL     OW33394   2.039   1.160   6.747  0.3782 -0.4813  0.1283
 7253SOL    HW133395   1.952   1.133   6.720  0.5713 -1.6354  0.6491
 7253SOL    HW233396   2.097   1.113   6.687 -0.9660 -1.5264 -0.3258
 7254SOL     OW33397   0.238   4.322   7.032  0.7548 -0.4346  0.3257
 7254SOL    HW133398   0.209   4.327   7.123  2.4251 -0.9692  0.8918
 7254SOL    HW233399   0.319   4.373   7.031  0.9551 -0.7432  0.4039
 7255SOL     OW33400   0.807   4.290  12.970 -0.1881 -0.5288  0.1993
 7255SOL    HW133401   0.823   4.334  13.054  0.6544  1.7169 -1.1513
 7255SOL    HW233402   0.864   4.349  12.922 -2.5497 -0.5438 -2.5968
 7256SOL     OW33403   2.325   1.094   7.770  0.0380  0.8167  0.3465
 7256SOL    HW133404   2.346   1.182   7.740  1.8813  0.3966  0.3786
 7256SOL    HW233405   2.230   1.093   7.781  0.0716 -0.0658  0.5929
 7257SOL     OW33406   0.689   4.637   6.952 -0.1437 -0.3101  0.1534
 7257SOL    HW133407   0.694   4.695   6.876  1.8211  0.6652  1.0302
 7257SOL    HW233408   0.759   4.573   6.940  0.6188  0.4580  0.4350
 7258SOL     OW33409   1.794   0.631   5.678 -0.2890  0.2009  0.0821
 7258SOL    HW133410   1.705   0.615   5.647  1.5274 -2.7366 -3.6310
 7258SOL    HW233411   1.816   0.712   5.631 -0.2809  1.4884  2.2916
 7259SOL     OW33412   0.525   2.907   9.286  0.2803  0.0305  0.5291
 7259SOL    HW133413   0.582   2.956   9.346  0.6994  1.1879 -0.8225
 7259SOL    HW233414   0.442   2.900   9.332  1.2912  1.6901  2.6067
 7260SOL     OW33415   1.838   1.161  11.545  0.1592 -0.2910  0.6406
 7260SOL    HW133416   1.929   1.153  11.573  1.7136  0.6927 -4.0179
 7260SOL    HW233417   1.833   1.110  11.464  2.5600 -2.4143  1.8032
 7261SOL     OW33418   1.268   2.455   1.846 -0.4977 -0.0726  0.9309
 7261SOL    HW133419   1.305   2.380   1.893  2.0135  1.2857  1.1426
 7261SOL    HW233420   1.179   2.422   1.851 -1.5090  2.5831 -0.0535
 7262SOL     OW33421   2.491   3.940   2.142 -1.4540  0.2356 -0.3348
 7262SOL    HW133422   2.538   3.908   2.065  0.3094  2.3330 -0.1186
 7262SOL    HW233423   2.496   3.864   2.199 -2.5378  0.2006 -0.2828
 7263SOL     OW33424   1.844   0.875   8.150  0.5263  0.4929  0.2461
 7263SOL    HW133425   1.864   0.872   8.056  0.4491  0.8790  0.2167
 7263SOL    HW233426   1.792   0.795   8.154  0.7751  0.3763  1.0492
 7264SOL     OW33427   4.559   1.430   5.999  0.3272  0.3309  0.0923
 7264SOL    HW133428   4.491   1.472   6.053 -0.7118 -1.1968 -0.0239
 7264SOL    HW233429   4.601   1.373   6.063 -0.3658 -1.1230 -0.7399
 7265SOL     OW33430   4.261   2.204   1.895  0.1462  0.1520  0.2799
 7265SOL    HW133431   4.314   2.127   1.877 -3.0786 -1.4791 -2.3346
 7265SOL    HW233432   4.233   2.228   1.807  0.1689  0.6818  0.4164
 7266SOL     OW33433   1.938   4.711  10.614  0.0973  0.1282  0.0119
 7266SOL    HW133434   2.009   4.683  10.557 -0.9275 -1.3396 -0.5573
 7266SOL    HW233435   1.865   4.666  10.571 -0.8099  0.4322  1.2227
 7267SOL     OW33436   4.242   2.048  12.346 -0.6823  0.2370 -0.4473
 7267SOL    HW133437   4.159   2.003  12.361 -1.0070  1.1096  0.3880
 7267SOL    HW233438   4.278   1.981  12.288 -1.4915 -0.9462  0.4157
 7268SOL     OW33439   1.785   3.610   5.164  0.2142 -0.1470  0.4952
 7268SOL    HW133440   1.768   3.541   5.228  0.7623 -1.3290 -0.6339
 7268SOL    HW233441   1.723   3.590   5.094 -2.9857  1.0138  2.9805
 7269SOL     OW33442   4.376   0.523   6.281 -0.3931 -0.0176 -0.3707
 7269SOL    HW133443   4.446   0.569   6.234  0.1820 -0.5552 -0.0523
 7269SOL    HW233444   4.431   0.501   6.356 -0.4694 -0.9161 -0.5754
 7270SOL     OW33445   3.116   2.244  12.882 -0.2983  0.0554  0.2720
 7270SOL    HW133446   3.066   2.275  12.806 -1.2708 -0.6808  0.6100
 7270SOL    HW233447   3.088   2.305  12.951  3.2797  0.8329  1.0325
 7271SOL     OW33448   2.534   3.124  15.790  0.0729 -0.2172  0.1894
 7271SOL    HW133449   2.553   3.183  15.864  0.2865  1.7642 -1.4484
 7271SOL    HW233450   2.499   3.193  15.734  0.0070 -0.2214  0.2256
 7272SOL     OW33451   3.875   3.755  11.999 -0.1224  0.3642  0.3275
 7272SOL    HW133452   3.929   3.779  11.924  1.2754 -3.8736 -0.0116
 7272SOL    HW233453   3.934   3.718  12.064 -0.4585  2.3001  1.7355
 7273SOL     OW33454   3.209   3.374   4.298  0.5008  0.2700 -0.4360
 7273SOL    HW133455   3.253   3.459   4.297 -0.2822  0.6765 -0.1826
 7273SOL    HW233456   3.283   3.313   4.301 -1.4833 -2.0878  0.5748
 7274SOL     OW33457   3.333   2.722   7.243 -0.5261 -0.1025 -0.1282
 7274SOL    HW133458   3.330   2.693   7.334  1.4015 -0.6366 -0.2410
 7274SOL    HW233459   3.428   2.715   7.236 -0.5162 -0.0112 -0.0812
 7275SOL     OW33460   4.560   1.733   4.003  0.3197 -0.4941 -0.2461
 7275SOL    HW133461   4.522   1.704   3.921  0.5596  0.9340 -0.8718
 7275SOL    HW233462   4.482   1.776   4.038  0.9988 -0.1371  0.8461
 7276SOL     OW33463   3.887   1.343   0.680 -0.5555  0.1401  0.4634
 7276SOL    HW133464   3.895   1.255   0.718 -0.7277 -0.4728 -0.9069
 7276SOL    HW233465   3.859   1.320   0.591 -1.1033 -2.5341  1.3301
 7277SOL     OW33466   0.796   4.023   3.487  0.0659  0.6212 -0.2173
 7277SOL    HW133467   0.734   3.965   3.442 -0.9695  0.3107  1.6153
 7277SOL    HW233468   0.867   3.962   3.507 -2.9721 -2.9869 -0.3098
 7278SOL     OW33469   1.922   0.344   9.742 -0.4778 -0.3367 -0.5948
 7278SOL    HW133470   1.954   0.326   9.831 -1.7210 -3.4063 -0.7680
 7278SOL    HW233471   2.005   0.370   9.702 -0.9513 -1.3208 -2.2233
 7279SOL     OW33472   2.770   2.760   8.079  0.3493 -0.1857 -0.2004
 7279SOL    HW133473   2.760   2.789   8.170 -0.8483 -0.2929 -0.2905
 7279SOL    HW233474   2.827   2.833   8.055 -1.1570  0.9841 -0.2421
 7280SOL     OW33475   3.696   1.123   5.509 -0.0959 -0.1072  0.3072
 7280SOL    HW133476   3.746   1.094   5.433  1.7576 -0.5418  1.7031
 7280SOL    HW233477   3.711   1.217   5.503 -0.5597  0.1020  2.3549
 7281SOL     OW33478   3.840   1.832   8.376 -0.6254  0.4961  0.5046
 7281SOL    HW133479   3.885   1.808   8.457 -0.7129 -1.8722 -0.1728
 7281SOL    HW233480   3.750   1.826   8.407 -0.8367 -1.8163 -0.5563
 7282SOL     OW33481   2.622   3.640  16.357 -0.1756 -0.2491  0.5056
 7282SOL    HW133482   2.624   3.650  16.452  0.2164 -1.4262  0.6148
 7282SOL    HW233483   2.582   3.721  16.326 -1.7986 -0.4178  2.1416
 7283SOL     OW33484   0.210   3.562   3.200 -0.1753  0.0506 -0.0200
 7283SOL    HW133485   0.224   3.605   3.284  0.0577  0.2211 -0.1454
 7283SOL    HW233486   0.297   3.531   3.173 -0.7015 -1.2490 -0.2405
 7284SOL     OW33487   1.683   0.383   1.975  0.0075  0.0937 -0.4656
 7284SOL    HW133488   1.696   0.455   2.037 -0.1407 -0.9479  0.7585
 7284SOL    HW233489   1.765   0.363   1.930  0.1571 -0.1007 -0.0971
 7285SOL     OW33490   3.354   4.018   1.954 -0.0125  0.1219  0.1554
 7285SOL    HW133491   3.295   3.960   1.906  0.2029  1.6876 -1.9752
 7285SOL    HW233492   3.439   3.974   1.950 -0.2179 -0.3207  0.5473
 7286SOL     OW33493   0.314   2.355   4.053 -0.1430  0.1766  0.4478
 7286SOL    HW133494   0.367   2.313   3.986 -0.8038 -0.7710  0.5109
 7286SOL    HW233495   0.382   2.357   4.120  0.3047  1.4981 -0.0404
 7287SOL     OW33496   0.554   1.359   3.489 -0.2991 -0.7172 -0.0593
 7287SOL    HW133497   0.639   1.378   3.529  0.4956 -0.7415 -1.7634
 7287SOL    HW233498   0.539   1.437   3.436 -2.3495 -0.7667  0.4371
 7288SOL     OW33499   2.723   4.060   2.972 -0.3469 -0.3876 -0.9975
 7288SOL    HW133500   2.742   3.983   3.027  2.3493  1.2085  0.2967
 7288SOL    HW233501   2.783   4.044   2.899  1.0011  0.6211 -0.1168
 7289SOL     OW33502   2.505   1.255   4.466  0.4692  0.3493 -0.8522
 7289SOL    HW133503   2.470   1.242   4.378  0.3773  0.5484 -0.8431
 7289SOL    HW233504   2.596   1.234   4.442  0.4330  1.0250 -1.5737
 7290SOL     OW33505   2.239   2.800  15.297 -0.1065  0.1630  0.3298
 7290SOL    HW133506   2.250   2.713  15.335  1.3060 -0.9421 -2.6664
 7290SOL    HW233507   2.162   2.824  15.349  1.2455 -0.4649  2.6149
 7291SOL     OW33508   1.054   0.846  11.916 -1.0788 -0.6771  0.4928
 7291SOL    HW133509   0.974   0.898  11.917 -0.8424 -0.3202  0.8492
 7291SOL    HW233510   1.045   0.807  11.829 -1.6084 -1.2169  0.7880
 7292SOL     OW33511   3.956   1.454  12.595 -0.1335 -0.0021 -0.0059
 7292SOL    HW133512   3.872   1.407  12.600  0.4976 -1.2753 -1.2973
 7292SOL    HW233513   4.020   1.395  12.556  0.4700  1.3901 -1.1328
 7293SOL     OW33514   0.856   2.723   5.983 -0.4515 -0.1709  0.3879
 7293SOL    HW133515   0.772   2.760   6.010 -1.1188  0.1915 -2.2004
 7293SOL    HW233516   0.905   2.805   5.983  0.3836 -0.6744  0.7161
 7294SOL     OW33517   2.911   4.195   6.723 -0.0386 -0.0907  0.1226
 7294SOL    HW133518   2.893   4.125   6.786  1.0677 -0.2438  0.2747
 7294SOL    HW233519   2.917   4.267   6.786  1.7371  1.7468 -2.1647
 7295SOL     OW33520   3.951   3.396   2.810  0.5170 -0.2467  0.1218
 7295SOL    HW133521   3.967   3.427   2.899 -0.5576 -2.4300  1.0544
 7295SOL    HW233522   4.043   3.381   2.789  0.7759 -1.1184  1.8693
 7296SOL     OW33523   0.103   3.406   5.865 -0.0532  0.2833 -0.4387
 7296SOL    HW133524   0.044   3.477   5.840  1.3208  1.2090 -1.0561
 7296SOL    HW233525   0.042   3.358   5.922 -0.7670 -1.0798 -2.3667
 7297SOL     OW33526   4.186   3.677   2.850 -0.3659  0.0802 -0.2000
 7297SOL    HW133527   4.237   3.613   2.899 -0.3618  0.5894  0.4637
 7297SOL    HW233528   4.103   3.673   2.897  0.0208 -1.6040  0.3312
 7298SOL     OW33529   3.004   4.257   7.491 -0.0578  0.3133 -0.2292
 7298SOL    HW133530   3.086   4.298   7.466  0.1647 -1.5823 -2.5934
 7298SOL    HW233531   3.048   4.186   7.537 -1.5905  0.1543  0.9884
 7299SOL     OW33532   0.451   3.433   4.367 -0.1380 -0.3457 -0.3325
 7299SOL    HW133533   0.362   3.417   4.400 -0.4111 -0.8076 -1.2808
 7299SOL    HW233534   0.500   3.436   4.448 -0.1495 -2.0292 -0.2572
 7300SOL     OW33535   3.157   0.798   5.778 -0.3439  0.6499 -0.4323
 7300SOL    HW133536   3.141   0.870   5.838 -1.8553 -0.3300  0.3545
 7300SOL    HW233537   3.169   0.727   5.841 -1.2174  0.0328 -0.9510
 7301SOL     OW33538   1.417   1.397   3.884  0.2012 -0.1503  1.0475
 7301SOL    HW133539   1.386   1.452   3.956  2.5620 -2.5698  3.9329
 7301SOL    HW233540   1.403   1.449   3.805 -0.1055 -2.3084 -0.3333
 7302SOL     OW33541   1.800   0.298   0.859  0.0654  0.2541  0.5807
 7302SOL    HW133542   1.886   0.328   0.831 -0.6109  0.5131 -1.2779
 7302SOL    HW233543   1.751   0.358   0.802  1.5011  0.9331  0.0658
 7303SOL     OW33544   1.907   4.112   5.706  0.3255 -0.8001 -0.3951
 7303SOL    HW133545   1.938   4.180   5.766 -2.7273  0.3355 -0.0813
 7303SOL    HW233546   1.953   4.032   5.731  1.2794 -0.2804 -0.4984
 7304SOL     OW33547   3.389   1.811   9.276  0.2189 -0.3092 -0.2366
 7304SOL    HW133548   3.354   1.740   9.222 -2.3871  0.0352  0.9710
 7304SOL    HW233549   3.322   1.819   9.345 -0.3854 -1.1180 -0.7339
 7305SOL     OW33550   1.040   3.408   1.214 -0.1262 -1.1618 -0.3410
 7305SOL    HW133551   1.102   3.337   1.196 -0.0196 -0.6810 -1.8568
 7305SOL    HW233552   0.963   3.378   1.165 -0.7495 -0.6083  0.2870
 7306SOL     OW33553   1.021   3.302  14.901  0.1920 -0.1844 -0.4672
 7306SOL    HW133554   0.982   3.221  14.934 -1.0035 -0.0848 -1.5958
 7306SOL    HW233555   1.018   3.347  14.985  1.0320  0.0057 -0.5427
 7307SOL     OW33556   4.109   0.724   2.865 -0.4016 -0.0549  0.1331
 7307SOL    HW133557   4.102   0.685   2.953  2.2348 -1.4677 -0.2612
 7307SOL    HW233558   4.071   0.810   2.880  2.4277  0.8362  2.1787
 7308SOL     OW33559   3.568   1.070   6.367  0.5977 -0.6505  0.1166
 7308SOL    HW133560   3.577   1.164   6.385  2.5280 -0.3076 -2.6941
 7308SOL    HW233561   3.564   1.037   6.457 -0.9548 -1.5528 -0.2861
 7309SOL     OW33562   3.421   0.565   8.753 -0.1216 -0.5577 -0.0728
 7309SOL    HW133563   3.465   0.639   8.711 -1.3167  0.7098  0.9073
 7309SOL    HW233564   3.475   0.490   8.729  0.6916  0.1882 -0.5600
 7310SOL     OW33565   2.991   4.573   5.533  0.3149 -0.3524 -0.0042
 7310SOL    HW133566   3.034   4.519   5.600  0.6168  1.1988  1.0534
 7310SOL    HW233567   2.917   4.610   5.581 -1.7585 -3.1214 -1.0658
 7311SOL     OW33568   0.619   2.509  14.565 -0.4042  0.0788 -0.2246
 7311SOL    HW133569   0.526   2.516  14.590 -0.0892  0.1509  0.9541
 7311SOL    HW233570   0.628   2.552  14.480  0.1511  1.3877  0.4885
 7312SOL     OW33571   0.473   3.910  17.104 -0.2080  0.2026 -0.2328
 7312SOL    HW133572   0.462   3.968  17.180 -1.2443 -1.3336  0.7773
 7312SOL    HW233573   0.517   3.979  17.055  0.2096  0.5922  0.6904
 7313SOL     OW33574   2.318   3.151  11.443  0.8886 -0.4374 -0.2188
 7313SOL    HW133575   2.395   3.112  11.402 -0.1591 -0.0053 -2.6424
 7313SOL    HW233576   2.286   3.185  11.359  1.2116  1.2524  0.3296
 7314SOL     OW33577   3.942   0.401   8.416  0.0301 -0.1208 -0.0683
 7314SOL    HW133578   3.928   0.315   8.377 -0.2542  0.7554 -1.8913
 7314SOL    HW233579   3.867   0.456   8.395 -0.5678 -0.9908 -0.1728
 7315SOL     OW33580   0.328   0.058   1.842  0.0245  0.1528 -0.2263
 7315SOL    HW133581   0.304   4.715   1.895  1.3277 -0.1964 -0.1424
 7315SOL    HW233582   0.286   0.128   1.893  0.2128 -1.9281  2.7724
 7316SOL     OW33583   3.343   0.467  16.325  0.1627  0.0912 -0.0326
 7316SOL    HW133584   3.262   0.518  16.325 -1.0022 -1.7465 -0.3737
 7316SOL    HW233585   3.326   0.393  16.384 -0.2291 -0.9404 -1.4311
 7317SOL     OW33586   3.512   2.644  14.277 -0.0213  0.2408 -0.6392
 7317SOL    HW133587   3.504   2.588  14.354 -2.7741 -0.8391 -1.7104
 7317SOL    HW233588   3.550   2.588  14.210 -1.7839 -0.3968 -1.0976
 7318SOL     OW33589   2.406   2.119   3.918 -0.5078 -0.0902  0.3172
 7318SOL    HW133590   2.370   2.178   3.851  1.8273 -1.0944 -1.8160
 7318SOL    HW233591   2.335   2.054   3.916  0.5983 -1.3814  2.9897
 7319SOL     OW33592   3.577   1.039  11.221  0.2321  0.4507 -0.0403
 7319SOL    HW133593   3.594   1.057  11.314 -1.1108 -1.5311  0.5756
 7319SOL    HW233594   3.485   1.062  11.218  0.3765  1.0361  0.0767
 7320SOL     OW33595   0.571   3.731  11.912  0.2152 -0.2147  0.1113
 7320SOL    HW133596   0.657   3.767  11.934  0.1577 -0.4160  0.6657
 7320SOL    HW233597   0.558   3.645  11.953  0.9832 -0.2078  0.3682
 7321SOL     OW33598   4.134   1.500  16.830  0.6259  0.3429 -0.1288
 7321SOL    HW133599   4.171   1.513  16.917 -1.7847 -0.7616  1.0614
 7321SOL    HW233600   4.196   1.431  16.804 -0.9421 -1.7564  1.7753
 7322SOL     OW33601   4.501   1.741  16.377 -0.0676  0.4292 -0.4042
 7322SOL    HW133602   4.596   1.752  16.379 -0.0250  0.1457 -0.8317
 7322SOL    HW233603   4.475   1.810  16.315  0.6568 -0.2329 -1.4364
 7323SOL     OW33604   0.354   0.776   7.217  0.1800  0.2740 -0.0988
 7323SOL    HW133605   0.312   0.695   7.188 -0.1595  0.4694 -0.1525
 7323SOL    HW233606   0.323   0.829   7.144 -0.2733  0.0660 -0.0534
 7324SOL     OW33607   3.634   1.189  10.065 -0.0206  0.3627  0.2292
 7324SOL    HW133608   3.557   1.216  10.116  0.2107 -0.8677  1.2278
 7324SOL    HW233609   3.714   1.192  10.117  0.1954  1.2480 -0.1583
 7325SOL     OW33610   4.347   1.301   4.218  0.0939  0.7187 -0.0079
 7325SOL    HW133611   4.371   1.246   4.294 -2.0445  0.9627  0.8454
 7325SOL    HW233612   4.279   1.242   4.185 -0.0253  0.0867  1.3440
 7326SOL     OW33613   1.508   3.979   6.239  0.1610 -0.4441 -0.6469
 7326SOL    HW133614   1.593   3.958   6.277 -0.5161  0.1104  1.2002
 7326SOL    HW233615   1.533   4.053   6.183 -2.0722  0.0171 -1.0444
 7327SOL     OW33616   3.535   0.990   7.543 -0.9623 -0.7022  0.3351
 7327SOL    HW133617   3.585   1.004   7.623  1.7457  0.3480 -1.5289
 7327SOL    HW233618   3.477   1.063   7.565  1.9510  1.0198  2.2422
 7328SOL     OW33619   3.312   4.258   9.239  0.2373  0.6924 -0.5764
 7328SOL    HW133620   3.400   4.249   9.202  0.4051  1.2744 -0.3267
 7328SOL    HW233621   3.329   4.230   9.329  1.2642 -0.5567 -1.1568
 7329SOL     OW33622   4.730   3.128   5.271  0.8856  0.1733  0.1453
 7329SOL    HW133623   4.645   3.149   5.309  1.2491 -1.6606  1.9866
 7329SOL    HW233624   4.720   3.182   5.192 -1.0012  2.6381  2.0567
 7330SOL     OW33625   4.707   1.140   5.288  0.0937 -0.0403 -0.5463
 7330SOL    HW133626   4.629   1.160   5.236 -0.7605  0.2550  0.8507
 7330SOL    HW233627   4.704   1.045   5.294 -2.4609 -0.0172 -1.3378
 7331SOL     OW33628   3.532   4.252  15.258  0.3438 -0.2460 -0.8833
 7331SOL    HW133629   3.440   4.277  15.257  0.4866  0.3597  0.6696
 7331SOL    HW233630   3.525   4.170  15.210  2.7798 -0.2674 -1.2363
 7332SOL     OW33631   1.568   2.444  16.800 -0.3585 -0.1186  0.0427
 7332SOL    HW133632   1.499   2.509  16.788 -0.1549  0.2383  0.7934
 7332SOL    HW233633   1.546   2.423  16.891  1.1018 -1.8245 -0.0146
 7333SOL     OW33634   3.155   3.732  17.310 -0.6297 -0.2714 -0.0062
 7333SOL    HW133635   3.174   3.746  17.403  1.8684 -3.4103 -0.0499
 7333SOL    HW233636   3.237   3.752  17.266 -0.1214 -0.2457  0.9625
 7334SOL     OW33637   1.685   2.638  16.638  0.4562  0.0901 -0.3415
 7334SOL    HW133638   1.682   2.543  16.629  1.7132  0.0318 -0.1338
 7334SOL    HW233639   1.626   2.665  16.568  0.0567 -0.4524 -0.2113
 7335SOL     OW33640   4.281   3.163   5.868  0.3667 -0.1206 -0.2864
 7335SOL    HW133641   4.271   3.097   5.937  0.0182 -0.4784 -0.6809
 7335SOL    HW233642   4.331   3.230   5.916  0.5167 -0.6370  0.2946
 7336SOL     OW33643   0.546   1.004   2.224  0.1998  0.3731 -0.4293
 7336SOL    HW133644   0.485   1.072   2.196  1.2183  1.1916 -0.6442
 7336SOL    HW233645   0.550   0.948   2.146  0.9893  1.1248 -0.9269
 7337SOL     OW33646   2.323   1.719   7.973 -0.3641  0.2208  0.2266
 7337SOL    HW133647   2.327   1.625   7.989 -2.6754  0.3933  1.8155
 7337SOL    HW233648   2.418   1.724   7.964 -0.8397  1.7326 -3.9265
 7338SOL     OW33649   3.993   0.408   5.294  0.5323  0.5986  0.1480
 7338SOL    HW133650   4.086   0.385   5.295  0.6659  1.1945  0.7505
 7338SOL    HW233651   3.968   0.368   5.210  0.3423  0.3229  0.3392
 7339SOL     OW33652   0.224   3.635   1.321 -0.5305 -0.0154  0.1118
 7339SOL    HW133653   0.277   3.711   1.343  0.5307 -0.8663  0.4823
 7339SOL    HW233654   0.269   3.567   1.372 -1.0967  0.0917  0.7554
 7340SOL     OW33655   0.308   3.125   3.562 -0.7278 -0.3736  0.2025
 7340SOL    HW133656   0.281   3.155   3.649  2.5519 -0.1720  1.1235
 7340SOL    HW233657   0.382   3.070   3.587  0.9273  1.4979 -0.5662
 7341SOL     OW33658   1.035   1.319   2.702 -0.5810 -0.1687 -0.1772
 7341SOL    HW133659   0.960   1.306   2.760 -1.5221  3.0518 -0.6387
 7341SOL    HW233660   1.030   1.414   2.692  1.2308  0.0705  1.1043
 7342SOL     OW33661   1.574   2.198  10.014  0.2840  0.1895  0.0445
 7342SOL    HW133662   1.572   2.165   9.925  3.1253  0.8779 -0.2829
 7342SOL    HW233663   1.589   2.292  10.003 -0.9776  0.2231 -1.2963
 7343SOL     OW33664   4.303   0.971   5.561  0.4416 -0.4870  0.0821
 7343SOL    HW133665   4.211   0.992   5.543  1.1083  0.5103 -2.2260
 7343SOL    HW233666   4.334   1.062   5.567 -0.0473 -0.4386  1.9392
 7344SOL     OW33667   1.973   2.185   5.349  0.1282  0.6705 -0.6009
 7344SOL    HW133668   2.050   2.128   5.357 -1.2567 -1.4478 -2.2662
 7344SOL    HW233669   1.930   2.169   5.433 -1.9563  3.2963 -1.1730
 7345SOL     OW33670   1.869   2.040   5.106 -0.0120  0.4143 -0.2439
 7345SOL    HW133671   1.847   2.058   5.197 -2.0595 -0.2921 -0.5866
 7345SOL    HW233672   1.905   1.952   5.109 -0.0257  0.3955 -0.7076
 7346SOL     OW33673   0.532   3.615   6.468 -0.3209 -0.1969  0.1575
 7346SOL    HW133674   0.551   3.523   6.487 -1.3055 -0.6398 -1.0063
 7346SOL    HW233675   0.443   3.633   6.497 -1.2263 -1.0563 -2.1354
 7347SOL     OW33676   0.638   0.101   3.486  0.3758 -0.0590  0.0807
 7347SOL    HW133677   0.555   0.055   3.474  0.3427  0.2325 -0.7611
 7347SOL    HW233678   0.651   0.086   3.580  0.2675  2.1760  0.4474
 7348SOL     OW33679   4.723   2.899   7.051 -0.6961  0.6130  0.2048
 7348SOL    HW133680   0.042   2.911   7.131  0.1822  1.6651 -0.5319
 7348SOL    HW233681   4.677   2.816   7.063  1.9001 -0.9836 -0.7664
 7349SOL     OW33682   0.772   1.570  16.750 -0.0236  0.0715  0.2218
 7349SOL    HW133683   0.749   1.574  16.843 -1.0804 -0.1716 -0.0286
 7349SOL    HW233684   0.691   1.540  16.708 -1.6260  1.2540  2.4607
 7350SOL     OW33685   3.546   1.727   7.798 -0.2969  0.0994  0.1682
 7350SOL    HW133686   3.459   1.749   7.763  0.0720 -0.7427 -1.2566
 7350SOL    HW233687   3.600   1.806   7.796 -0.4488  0.2171  0.6139
 7351SOL     OW33688   2.198   3.636   7.120 -0.2162  0.3155  0.1450
 7351SOL    HW133689   2.187   3.558   7.175 -0.7042  0.7081  0.6003
 7351SOL    HW233690   2.202   3.597   7.033  0.2361  2.1628 -0.6616
 7352SOL     OW33691   4.622   4.318   9.013  0.0007 -0.1290  0.0856
 7352SOL    HW133692   4.537   4.293   9.048 -0.7578  1.3396 -0.6851
 7352SOL    HW233693   4.668   4.236   9.028  0.2340  0.1777  1.0144
 7353SOL     OW33694   0.902   2.671   2.463 -0.1463  0.2258 -0.4631
 7353SOL    HW133695   0.843   2.670   2.539  0.0673 -2.6516 -0.3365
 7353SOL    HW233696   0.986   2.699   2.499  0.0884 -1.5543  0.3663
 7354SOL     OW33697   0.410   0.226   8.308 -0.7770 -0.5288  0.0721
 7354SOL    HW133698   0.355   0.300   8.335 -0.4556  0.1521 -1.1250
 7354SOL    HW233699   0.427   0.189   8.394  0.3871 -0.4025 -0.1131
 7355SOL     OW33700   4.465   0.542   1.013  0.4104 -0.6317 -0.1807
 7355SOL    HW133701   4.441   0.551   0.921 -1.6462  0.4913  0.4605
 7355SOL    HW233702   4.440   0.629   1.044 -0.5549 -0.9983  0.0644
 7356SOL     OW33703   2.004   4.510   3.060 -0.2651 -0.2239 -0.6060
 7356SOL    HW133704   2.030   4.424   3.093  0.1824 -0.8706 -2.6334
 7356SOL    HW233705   2.067   4.521   2.989 -0.8436 -0.0566 -1.0870
 7357SOL     OW33706   0.917   0.600   3.069 -0.6253  0.3784 -0.6213
 7357SOL    HW133707   0.878   0.540   3.133  0.4227 -0.2586 -0.5887
 7357SOL    HW233708   0.991   0.630   3.122  1.3452 -2.4766 -1.7823
 7358SOL     OW33709   1.759   4.481   9.619  1.1837  0.5746 -0.1666
 7358SOL    HW133710   1.805   4.410   9.575  1.6378  0.4985  0.4353
 7358SOL    HW233711   1.730   4.535   9.546  0.3179 -0.4200 -0.5634
 7359SOL     OW33712   0.913   0.328   9.099 -0.5910  0.3225 -0.5027
 7359SOL    HW133713   0.834   0.347   9.150 -0.1801 -0.0962  0.2968
 7359SOL    HW233714   0.956   0.414   9.102  2.4108 -1.2238 -0.0343
 7360SOL     OW33715   1.945   0.538  15.561 -0.5897  1.1004 -0.3025
 7360SOL    HW133716   1.857   0.513  15.533  0.4730  1.1334 -3.7531
 7360SOL    HW233717   1.965   0.598  15.488 -0.2673 -1.1903 -2.0758
 7361SOL     OW33718   0.638   2.746   8.444  0.1493  0.8712 -0.0299
 7361SOL    HW133719   0.691   2.721   8.368 -1.7375  1.4882 -1.5539
 7361SOL    HW233720   0.553   2.764   8.404  0.2123  0.7208 -0.2347
 7362SOL     OW33721   2.107   0.034   9.230 -0.0187  0.0873  0.8179
 7362SOL    HW133722   2.181   4.711   9.251  1.6301  1.3757 -1.6342
 7362SOL    HW233723   2.144   0.092   9.163 -2.5426  1.5559  0.6788
 7363SOL     OW33724   0.004   0.118   9.250 -0.4131 -0.1457 -0.7097
 7363SOL    HW133725   0.041   0.207   9.247  0.1353 -0.4192 -1.8660
 7363SOL    HW233726   4.647   0.147   9.269  0.9003  3.7228 -0.3211
 7364SOL     OW33727   2.170   2.167   1.023  0.6165  0.1982  0.0395
 7364SOL    HW133728   2.155   2.097   1.086  1.8080 -1.8723 -1.9855
 7364SOL    HW233729   2.091   2.220   1.039  0.8020  0.6653 -0.6030
 7365SOL     OW33730   1.667   3.156   0.078 -0.3907 -0.3511 -0.0292
 7365SOL    HW133731   1.718   3.126   0.154 -2.2938 -1.2737  0.8705
 7365SOL    HW233732   1.725   3.122   0.010  0.4496  1.2446 -0.0983
 7366SOL     OW33733   4.495   1.283  16.688  0.0136 -0.0283  0.2384
 7366SOL    HW133734   4.400   1.290  16.700 -0.2220 -2.0255 -0.4770
 7366SOL    HW233735   4.515   1.196  16.723  0.2636  0.1910  0.6386
 7367SOL     OW33736   0.109   2.101   3.993 -0.2207  0.2424 -0.2184
 7367SOL    HW133737   0.129   2.039   4.063 -2.2053  1.6278  1.5839
 7367SOL    HW233738   0.122   2.055   3.911  0.1837  1.1182 -0.6532
 7368SOL     OW33739   1.506   2.579   5.053 -0.5909  0.0220 -0.4442
 7368SOL    HW133740   1.550   2.527   4.986  2.1025 -0.3289  1.6107
 7368SOL    HW233741   1.576   2.641   5.074 -0.8345  0.1603 -0.0352
 7369SOL     OW33742   2.984   4.468   8.042  0.0440  0.3376 -0.7516
 7369SOL    HW133743   3.008   4.476   7.949  0.4007 -0.1704 -0.7032
 7369SOL    HW233744   2.955   4.377   8.048 -1.0209  0.6255 -1.5952
 7370SOL     OW33745   2.512   1.780   8.855 -0.2293 -0.0631 -0.0061
 7370SOL    HW133746   2.582   1.812   8.911 -0.2870 -0.2578  0.1773
 7370SOL    HW233747   2.506   1.855   8.795 -0.5093 -0.0928 -0.0146
 7371SOL     OW33748   2.990   0.632   6.339 -0.1342  0.2576  0.1848
 7371SOL    HW133749   2.909   0.588   6.312  0.2270 -1.4593  1.9496
 7371SOL    HW233750   2.961   0.672   6.420  0.1443 -1.0104  0.9049
 7372SOL     OW33751   0.144   2.531   6.076  0.0029  0.0114  0.5369
 7372SOL    HW133752   0.123   2.441   6.101  0.8053  0.0791  1.4669
 7372SOL    HW233753   0.070   2.590   6.090  0.1863  0.4080 -0.1316
 7373SOL     OW33754   3.165   0.935   8.736 -0.2038 -0.2660  0.1277
 7373SOL    HW133755   3.166   0.852   8.689 -1.1956  0.0043 -0.3694
 7373SOL    HW233756   3.072   0.941   8.759  0.0166 -0.8381  1.1731
 7374SOL     OW33757   3.594   2.321  13.040  0.2402 -0.3192  0.0701
 7374SOL    HW133758   3.607   2.400  12.987  0.5178 -1.3110 -1.3377
 7374SOL    HW233759   3.501   2.329  13.063 -0.0499  1.5158 -1.7421
 7375SOL     OW33760   0.157   3.828  15.707 -0.1877 -0.4717  0.2239
 7375SOL    HW133761   0.081   3.828  15.649  0.4945  0.2558 -0.6696
 7375SOL    HW233762   0.187   3.918  15.716 -3.0597  0.5107 -0.0360
 7376SOL     OW33763   3.539   4.041   2.422  0.3258 -0.1822  0.2902
 7376SOL    HW133764   3.533   3.957   2.379  0.6985 -0.9478  1.7221
 7376SOL    HW233765   3.476   4.092   2.371  0.3180  1.0188  1.4768
 7377SOL     OW33766   1.851   1.990   6.018  0.1777 -0.1089  0.4804
 7377SOL    HW133767   1.935   1.994   6.065  0.7040  1.7109 -0.6098
 7377SOL    HW233768   1.830   1.898   6.031 -1.1580 -0.1141 -1.7531
 7378SOL     OW33769   3.820   3.310   2.591  0.2428 -0.3432 -0.4407
 7378SOL    HW133770   3.886   3.356   2.539 -0.2346  0.3224 -0.4684
 7378SOL    HW233771   3.856   3.318   2.679 -0.4511  1.8451 -0.3472
 7379SOL     OW33772   1.515   3.494   2.294  0.5686 -0.2802  0.0655
 7379SOL    HW133773   1.608   3.483   2.277  0.2604  0.1696 -1.9072
 7379SOL    HW233774   1.502   3.589   2.292 -0.8430 -0.4777 -0.0651
 7380SOL     OW33775   2.629   0.597   4.530  0.0557 -0.0181 -0.7991
 7380SOL    HW133776   2.658   0.529   4.470 -2.0970 -0.0391 -1.7925
 7380SOL    HW233777   2.700   0.662   4.526  1.3447 -1.3304  0.4731
 7381SOL     OW33778   3.513   0.150   7.206  0.4377 -0.0366  0.3395
 7381SOL    HW133779   3.520   0.088   7.279 -0.1238 -0.2899  0.1735
 7381SOL    HW233780   3.607   0.167   7.195  0.3611 -0.4585 -0.8919
 7382SOL     OW33781   2.458   2.617   6.541 -0.3492  0.1980 -0.5955
 7382SOL    HW133782   2.400   2.578   6.476  0.0568 -0.6940 -0.4246
 7382SOL    HW233783   2.470   2.534   6.587 -2.7205  1.0022  1.4958
 7383SOL     OW33784   1.887   1.307   6.534  0.0959  0.3582 -0.5565
 7383SOL    HW133785   1.901   1.259   6.453  1.4067 -0.4599  0.1597
 7383SOL    HW233786   1.792   1.303   6.545  0.0286  1.5736 -0.7169
 7384SOL     OW33787   4.054   3.175   6.654 -0.5912  0.3946 -0.0957
 7384SOL    HW133788   4.053   3.154   6.747 -1.4565 -0.5069 -0.3151
 7384SOL    HW233789   4.078   3.267   6.645  0.7680 -0.0803 -1.2354
 7385SOL     OW33790   1.551   4.247  10.038 -0.5398  0.3863  0.2117
 7385SOL    HW133791   1.487   4.197   9.987 -0.3616 -1.2679  1.6196
 7385SOL    HW233792   1.568   4.317   9.975 -1.7938 -0.5463 -1.1943
 7386SOL     OW33793   2.483   0.730  17.263  0.2841  0.1338 -0.0058
 7386SOL    HW133794   2.450   0.807  17.309  4.0257  2.5391 -1.2854
 7386SOL    HW233795   2.404   0.683  17.239  1.3764 -1.5808 -0.2293
 7387SOL     OW33796   3.695   2.974   7.930  0.5618 -0.7744 -0.0251
 7387SOL    HW133797   3.748   2.895   7.920  2.4021  0.2937  1.1724
 7387SOL    HW233798   3.666   2.976   8.022  1.2231  0.8466  0.1577
 7388SOL     OW33799   2.267   1.775   6.281  0.0120  0.3841 -0.0025
 7388SOL    HW133800   2.355   1.801   6.309 -1.0526  1.7476  2.1089
 7388SOL    HW233801   2.245   1.706   6.344  1.8275 -0.2865 -0.1001
 7389SOL     OW33802   1.093   1.182  13.883 -0.1628  0.7051  0.2879
 7389SOL    HW133803   1.049   1.165  13.799 -1.7244  0.3551  1.1890
 7389SOL    HW233804   1.156   1.249  13.857  0.5826 -0.2263 -0.3455
 7390SOL     OW33805   0.785   3.411   1.886  0.1072  0.0050  0.4242
 7390SOL    HW133806   0.840   3.415   1.965  0.0725 -1.5836  0.5362
 7390SOL    HW233807   0.738   3.494   1.889  0.7332  0.3653  0.1413
 7391SOL     OW33808   2.625   4.213   7.360 -0.5390  0.5135 -0.1046
 7391SOL    HW133809   2.708   4.235   7.317  0.1677 -1.5982  0.2108
 7391SOL    HW233810   2.665   4.157   7.425  0.9478  0.6497 -0.9018
 7392SOL     OW33811   1.170   0.604  11.943  0.4834 -0.2258 -0.1131
 7392SOL    HW133812   1.142   0.695  11.930 -0.0957 -0.3114  0.5159
 7392SOL    HW233813   1.159   0.563  11.858 -0.0959 -1.2179  0.4415
 7393SOL     OW33814   1.027   3.094   7.239  0.0716 -0.0490 -0.7502
 7393SOL    HW133815   0.993   3.006   7.256 -1.0812  0.3527 -1.0016
 7393SOL    HW233816   0.984   3.138   7.312 -2.4684 -1.2998 -1.4864
 7394SOL     OW33817   3.663   0.209   0.469 -0.1873  0.3049  1.2658
 7394SOL    HW133818   3.630   0.135   0.418 -1.2385  0.6364  1.4627
 7394SOL    HW233819   3.634   0.176   0.555 -1.3021  0.1015  0.8115
 7395SOL     OW33820   1.083   3.448   7.000  0.2850 -0.1474 -0.0397
 7395SOL    HW133821   1.051   3.366   6.962 -2.1674  1.4870 -1.5303
 7395SOL    HW233822   1.002   3.491   7.025  0.8134 -0.1178  1.6309
 7396SOL     OW33823   4.083   4.252   9.172 -0.5653  0.3315  0.1591
 7396SOL    HW133824   4.070   4.342   9.202  2.4822  0.5435  0.8788
 7396SOL    HW233825   4.174   4.239   9.200 -0.5263 -0.2327 -0.2260
 7397SOL     OW33826   1.815   3.874   4.311  0.1101  0.2873 -0.2028
 7397SOL    HW133827   1.849   3.959   4.340 -0.3563 -0.4242  2.4059
 7397SOL    HW233828   1.882   3.812   4.341 -0.7019  0.1651  1.3614
 7398SOL     OW33829   0.974   1.242   1.295 -0.4862 -0.0926 -0.3061
 7398SOL    HW133830   0.940   1.159   1.261 -0.7516  0.9286 -2.5128
 7398SOL    HW233831   0.903   1.299   1.268 -0.7513  0.0042  0.6024
 7399SOL     OW33832   3.304   3.382  10.649  0.2037  0.2536  0.2815
 7399SOL    HW133833   3.228   3.373  10.591  0.7604 -2.9799  0.0597
 7399SOL    HW233834   3.289   3.305  10.704  2.4387  0.4088  1.1006
 7400SOL     OW33835   3.059   0.429   5.713 -0.2605 -0.1553 -0.0353
 7400SOL    HW133836   3.115   0.457   5.785  1.0643  0.2894 -1.2479
 7400SOL    HW233837   3.104   0.356   5.671  0.6987  1.2581 -1.4512
 7401SOL     OW33838   1.858   0.132  16.852  0.2955  0.0841 -0.2256
 7401SOL    HW133839   1.820   0.186  16.922 -0.6214  1.0932 -1.4937
 7401SOL    HW233840   1.839   0.044  16.884  0.8976  0.2882  0.6964
 7402SOL     OW33841   4.626   2.529  11.396  0.2399 -0.3468  0.2097
 7402SOL    HW133842   4.652   2.438  11.385 -1.3888 -0.7218 -0.6661
 7402SOL    HW233843   4.707   2.579  11.401 -0.1648  0.4296 -0.9458
 7403SOL     OW33844   4.206   0.919   0.975 -0.0028  0.0563 -0.4841
 7403SOL    HW133845   4.283   0.964   1.010 -0.1732 -0.8788  1.0786
 7403SOL    HW233846   4.230   0.886   0.888  1.0280 -0.0900 -0.1391
 7404SOL     OW33847   2.351   2.981  14.666  0.2047 -0.3372  0.0647
 7404SOL    HW133848   2.382   3.046  14.603 -2.7831  1.6478  0.6290
 7404SOL    HW233849   2.347   3.035  14.745  0.7413 -1.4974  0.8828
 7405SOL     OW33850   0.997   4.335   9.563 -0.5608  0.1667 -0.2974
 7405SOL    HW133851   0.954   4.350   9.648 -1.5110 -1.2114 -0.5345
 7405SOL    HW233852   0.921   4.310   9.510  1.0063 -1.3047 -1.8237
 7406SOL     OW33853   4.194   4.152  15.571 -0.5046 -0.9410  0.0737
 7406SOL    HW133854   4.238   4.070  15.593 -0.9834 -0.5615  2.4200
 7406SOL    HW233855   4.102   4.130  15.582 -0.2019 -0.9136  2.6355
 7407SOL     OW33856   2.975   4.382  16.390 -0.3484  0.1131 -0.4484
 7407SOL    HW133857   2.950   4.373  16.482  0.0391 -0.5495 -0.4066
 7407SOL    HW233858   2.944   4.469  16.366 -1.2898  0.1308  0.8193
 7408SOL     OW33859   3.966   3.050   6.428 -0.2948 -0.4833 -0.0241
 7408SOL    HW133860   3.901   3.119   6.419 -1.3048 -1.9726 -4.1984
 7408SOL    HW233861   3.991   3.062   6.520 -0.2522  0.6847 -0.1902
 7409SOL     OW33862   0.937   1.806   6.078  0.0306 -0.4432 -0.4435
 7409SOL    HW133863   0.844   1.818   6.062  0.4641  2.0753 -1.0823
 7409SOL    HW233864   0.962   1.848   5.996  1.6509  0.2698  0.4019
 7410SOL     OW33865   0.318   0.260   7.011  0.4902  0.0561 -0.5440
 7410SOL    HW133866   0.231   0.298   6.999  0.7331  0.3657 -1.2959
 7410SOL    HW233867   0.300   0.174   7.050 -2.6944  1.2373  0.5930
 7411SOL     OW33868   1.781   0.998   0.489  0.0039  0.0179  0.1518
 7411SOL    HW133869   1.794   1.082   0.534  0.4648 -0.4980  0.9810
 7411SOL    HW233870   1.847   0.986   0.420 -0.6846 -1.4092 -0.2543
 7412SOL     OW33871   1.311   1.872   7.082 -0.2001  0.1405  0.0421
 7412SOL    HW133872   1.221   1.894   7.058 -0.3703  0.0411  0.5922
 7412SOL    HW233873   1.300   1.785   7.121  0.4719 -1.1408 -2.6140
 7413SOL     OW33874   3.900   0.691  15.808  0.2455  0.1359  0.1656
 7413SOL    HW133875   3.890   0.675  15.902 -1.2524  0.0111 -0.0120
 7413SOL    HW233876   3.918   0.784  15.825 -1.7057  0.2153  1.8412
 7414SOL     OW33877   0.706   1.265   4.912  0.1518 -0.3020 -0.3134
 7414SOL    HW133878   0.787   1.316   4.901  0.1469 -0.4503 -1.0439
 7414SOL    HW233879   0.673   1.295   4.997  0.4152  0.9902 -0.6755
 7415SOL     OW33880   2.777   3.430   7.214 -0.0819  0.2249  0.0443
 7415SOL    HW133881   2.773   3.478   7.297  0.4001 -0.7090  0.6072
 7415SOL    HW233882   2.862   3.465   7.187 -1.6958  3.5116 -0.8060
 7416SOL     OW33883   3.665   2.559   2.477  0.5304  0.0585 -0.4485
 7416SOL    HW133884   3.663   2.651   2.452  3.3804 -0.0795 -1.0792
 7416SOL    HW233885   3.660   2.521   2.390 -1.4003  0.2853 -0.4485
 7417SOL     OW33886   3.378   2.411  14.893  0.3865 -0.1854 -0.0244
 7417SOL    HW133887   3.314   2.352  14.852  2.3934 -1.2203 -1.6655
 7417SOL    HW233888   3.352   2.496  14.858  0.7042  0.5098  1.4701
 7418SOL     OW33889   3.518   4.078  17.363 -0.5479 -0.3496  0.0438
 7418SOL    HW133890   3.571   4.091  17.284  0.1451 -1.5723  0.2981
 7418SOL    HW233891   3.485   4.167  17.375  1.0500  0.0782  1.3595
 7419SOL     OW33892   0.991   0.632   2.011  0.1403 -0.4027  0.0829
 7419SOL    HW133893   0.971   0.543   2.039 -0.2195  0.1845  1.6693
 7419SOL    HW233894   1.025   0.602   1.927  0.7817 -0.7022  0.4449
 7420SOL     OW33895   3.978   4.042   9.332  0.3611 -0.0755  0.7447
 7420SOL    HW133896   3.933   4.111   9.381  3.6086  2.5972 -0.0094
 7420SOL    HW233897   3.990   4.084   9.247 -3.2640 -0.8524 -0.1276
 7421SOL     OW33898   2.399   3.516   2.015 -0.2989  0.4058 -0.0171
 7421SOL    HW133899   2.490   3.525   1.987 -0.0655  0.4571  0.7848
 7421SOL    HW233900   2.403   3.441   2.075 -2.0565  0.4087  0.1082
 7422SOL     OW33901   0.351   0.030   6.224 -0.0877 -0.2523  0.4437
 7422SOL    HW133902   0.351   0.102   6.287  0.6583 -0.3917  0.5938
 7422SOL    HW233903   0.422   4.709   6.258  0.7867 -0.1455 -1.2072
 7423SOL     OW33904   3.933   1.413   2.726  0.2857  0.2289  0.3706
 7423SOL    HW133905   3.976   1.497   2.714  1.7214 -0.6302 -0.5833
 7423SOL    HW233906   3.959   1.373   2.643 -3.9344  0.1586 -0.8982
 7424SOL     OW33907   3.506   1.811   3.517 -0.3158  0.4134 -0.1106
 7424SOL    HW133908   3.437   1.786   3.578  0.8005  0.5711  1.2196
 7424SOL    HW233909   3.522   1.892   3.565 -3.6177  2.1641 -2.0086
 7425SOL     OW33910   2.262   0.039   3.363 -0.3240  0.0443  0.7505
 7425SOL    HW133911   2.351   0.027   3.397 -0.1829  0.3075  0.4682
 7425SOL    HW233912   2.207   4.719   3.421 -1.2545  1.5556  1.2582
 7426SOL     OW33913   1.124   3.977   5.069 -0.9432 -0.2369 -0.4525
 7426SOL    HW133914   1.079   3.898   5.097 -3.6503  1.3546 -0.3261
 7426SOL    HW233915   1.187   4.004   5.136  1.4208 -1.3714 -2.2271
 7427SOL     OW33916   4.501   1.037   2.800  0.6092 -0.2336 -0.1221
 7427SOL    HW133917   4.580   0.984   2.787 -0.1620 -1.2286 -0.7116
 7427SOL    HW233918   4.519   1.116   2.749  1.0359 -1.9756 -2.6715
 7428SOL     OW33919   2.963   4.553   2.123  0.6819  0.2073  0.2053
 7428SOL    HW133920   3.015   4.582   2.048  1.4958 -3.1763 -0.5452
 7428SOL    HW233921   3.005   4.596   2.198  2.6848  1.0503 -1.3986
 7429SOL     OW33922   2.700   1.569  17.459  0.4037 -0.2515  0.5017
 7429SOL    HW133923   2.744   1.646  17.495 -0.2933  0.4414 -0.1258
 7429SOL    HW233924   2.765   1.507  17.426 -1.9863 -1.8479 -1.1778
 7430SOL     OW33925   4.075   0.726   8.245  0.4464 -0.0661 -1.0411
 7430SOL    HW133926   3.981   0.719   8.229 -0.1386 -0.6232  2.5398
 7430SOL    HW233927   4.099   0.635   8.261  1.6858  0.2074 -1.3634
 7431SOL     OW33928   1.885   3.090   2.034 -0.1941 -0.1900  0.0769
 7431SOL    HW133929   1.832   3.151   1.983 -0.6992  1.0856  2.1364
 7431SOL    HW233930   1.857   3.114   2.122 -0.9514  0.4949 -0.3580
 7432SOL     OW33931   4.604   1.273   8.709  0.0404  0.5617  0.7046
 7432SOL    HW133932   4.659   1.206   8.669 -1.7268 -0.0046 -0.7859
 7432SOL    HW233933   4.569   1.320   8.633  0.7108 -0.1869 -0.0609
 7433SOL     OW33934   2.430   4.413   2.443 -0.2696 -0.2517  0.2458
 7433SOL    HW133935   2.384   4.380   2.520 -2.4538  0.2372 -0.8456
 7433SOL    HW233936   2.399   4.355   2.374 -2.1878  0.3317  0.6385
 7434SOL     OW33937   2.300   1.037   5.400 -0.0258 -0.3610 -0.2557
 7434SOL    HW133938   2.284   1.012   5.309 -2.7167  1.6396 -0.3715
 7434SOL    HW233939   2.337   1.125   5.396 -1.0884  0.1133  0.2119
 7435SOL     OW33940   2.029   3.835  13.133 -0.2974 -0.2337  0.0429
 7435SOL    HW133941   2.005   3.748  13.163  1.5153 -0.7999 -0.1463
 7435SOL    HW233942   2.105   3.861  13.185 -1.7486 -0.0628  2.0579
 7436SOL     OW33943   2.009   4.461   5.591  0.1367 -0.5458  0.3729
 7436SOL    HW133944   2.081   4.399   5.583 -2.0303 -3.3195  2.1880
 7436SOL    HW233945   1.953   4.440   5.515 -0.6049  0.6668  0.5858
 7437SOL     OW33946   0.463   3.594   9.444  0.5414 -0.7237 -0.1188
 7437SOL    HW133947   0.421   3.680   9.450  1.5275 -0.1652 -1.1180
 7437SOL    HW233948   0.556   3.613   9.428  0.1797  1.7696  0.6831
 7438SOL     OW33949   1.036   4.572   9.212 -0.2666 -0.3583 -0.2346
 7438SOL    HW133950   0.977   4.634   9.255 -0.4183 -0.7508  0.1193
 7438SOL    HW233951   1.025   4.601   9.121 -0.4428 -0.6975 -0.3208
 7439SOL     OW33952   3.675   0.621   6.782  0.5321  0.0404 -0.2560
 7439SOL    HW133953   3.742   0.578   6.834 -0.7615 -1.3566  0.2764
 7439SOL    HW233954   3.599   0.566   6.803  0.7931  0.0837  0.7851
 7440SOL     OW33955   3.711   0.580   0.609 -0.1457 -0.4216 -0.0275
 7440SOL    HW133956   3.645   0.521   0.644 -1.5922  1.2408  0.0228
 7440SOL    HW233957   3.743   0.617   0.692  1.0363 -0.9770 -0.2388
 7441SOL     OW33958   0.528   2.319   7.156  0.7372  0.5812  0.0840
 7441SOL    HW133959   0.553   2.249   7.095  2.8141  0.5202  1.0201
 7441SOL    HW233960   0.459   2.278   7.207  1.3236 -0.2501  0.2023
 7442SOL     OW33961   3.465   1.375   1.239  0.0299  0.1861 -0.1576
 7442SOL    HW133962   3.444   1.324   1.318  1.4269 -0.9357 -0.5134
 7442SOL    HW233963   3.521   1.315   1.191 -0.3118 -0.6796  0.5276
 7443SOL     OW33964   2.065   1.460  12.261  0.0017  0.3258 -0.4517
 7443SOL    HW133965   2.106   1.535  12.218  1.0936  1.2460  2.2078
 7443SOL    HW233966   1.976   1.484  12.233 -1.1829 -2.6638  0.6665
 7444SOL     OW33967   3.480   3.113   3.264  0.3551 -0.2654  0.1098
 7444SOL    HW133968   3.392   3.118   3.302  0.7113  0.7871  0.8055
 7444SOL    HW233969   3.536   3.148   3.334 -1.4391  0.9587  0.9504
 7445SOL     OW33970   3.906   2.417   8.485 -0.2102 -0.7096 -0.1910
 7445SOL    HW133971   3.841   2.401   8.554 -0.7142  0.5333 -0.3696
 7445SOL    HW233972   3.966   2.466   8.541 -1.5727 -2.3752  2.7432
 7446SOL     OW33973   2.697   1.132   2.818 -0.1177 -0.1818  0.6980
 7446SOL    HW133974   2.625   1.091   2.866 -0.6653 -1.7158 -1.4016
 7446SOL    HW233975   2.658   1.142   2.731 -1.0306 -0.5426  1.0606
 7447SOL     OW33976   0.811   2.440   5.088 -0.2714 -0.4836 -0.7290
 7447SOL    HW133977   0.867   2.444   5.165 -0.2630  2.3613 -0.9046
 7447SOL    HW233978   0.767   2.355   5.098  0.8034 -1.2589 -2.5595
 7448SOL     OW33979   2.826   1.576  14.523 -0.5433 -0.2054  0.2031
 7448SOL    HW133980   2.767   1.597  14.452 -0.8156 -2.9363 -0.3866
 7448SOL    HW233981   2.904   1.540  14.479 -0.0701  0.9157  0.1240
 7449SOL     OW33982   0.358   3.356   6.768 -0.6939 -0.2923 -0.2170
 7449SOL    HW133983   0.264   3.361   6.784 -0.6622  0.2999 -0.2364
 7449SOL    HW233984   0.397   3.354   6.855 -0.5210  0.3479 -0.2805
 7450SOL     OW33985   1.095   3.124   1.492  0.0678  0.8946  0.3926
 7450SOL    HW133986   1.024   3.061   1.487  1.8240 -1.1763  1.3114
 7450SOL    HW233987   1.166   3.062   1.511 -0.1973  0.2973 -0.5473
 7451SOL     OW33988   4.161   1.799  13.112 -0.8322  0.6528 -0.3283
 7451SOL    HW133989   4.079   1.846  13.093  0.0819  3.0786  1.7783
 7451SOL    HW233990   4.143   1.713  13.075 -2.6633  0.3084  1.3584
 7452SOL     OW33991   4.715   2.627   4.522  0.1771  0.2340 -0.6561
 7452SOL    HW133992   0.019   2.547   4.486 -1.3777 -1.8921  2.4524
 7452SOL    HW233993   4.681   2.599   4.607 -1.3024  4.6202  0.1886
 7453SOL     OW33994   0.595   2.586   6.818  0.5656  0.1097 -0.1193
 7453SOL    HW133995   0.592   2.641   6.740 -1.4929 -0.1537 -0.2224
 7453SOL    HW233996   0.616   2.503   6.775  3.6036 -0.0529  1.6126
 7454SOL     OW33997   1.346   3.501   5.982  0.2724 -0.9308 -0.4199
 7454SOL    HW133998   1.362   3.595   5.970 -0.7535 -0.6703  0.2524
 7454SOL    HW233999   1.430   3.461   6.004  1.0983  0.9473 -0.1646
 7455SOL     OW34000   2.248   3.528   6.278 -0.0014  0.7390 -0.5134
 7455SOL    HW134001   2.280   3.439   6.294  0.1926  1.3790  2.6939
 7455SOL    HW234002   2.156   3.530   6.253 -0.2956 -1.2735  0.4295
 7456SOL     OW34003   1.013   3.362   2.448 -0.0747  0.2608 -0.3158
 7456SOL    HW134004   1.021   3.290   2.386 -2.5071 -1.2464  1.1039
 7456SOL    HW234005   1.100   3.401   2.440  0.1488  0.1981  1.7524
 7457SOL     OW34006   4.442   1.375   7.238  0.2280  0.3155 -0.4932
 7457SOL    HW134007   4.389   1.296   7.222  1.1589  0.0202 -2.1260
 7457SOL    HW234008   4.524   1.360   7.192 -0.1038 -0.6989 -0.7605
 7458SOL     OW34009   2.621   0.220   8.120 -0.6001 -0.2368 -0.0206
 7458SOL    HW134010   2.576   0.258   8.044  0.9136 -0.2022 -0.8972
 7458SOL    HW234011   2.544   0.190   8.168 -0.8215 -2.5888 -1.8799
 7459SOL     OW34012   0.701   3.712   5.873  0.0379 -0.6705  0.5442
 7459SOL    HW134013   0.638   3.658   5.921 -1.5454 -0.0115 -0.7694
 7459SOL    HW234014   0.764   3.744   5.937  1.1289 -0.1622 -0.7755
 7460SOL     OW34015   4.142   0.346  12.082 -0.6648 -0.0504 -0.3141
 7460SOL    HW134016   4.098   0.261  12.091 -1.4353  0.0058 -3.2911
 7460SOL    HW234017   4.075   0.395  12.130 -1.9409 -0.4685 -1.6509
 7461SOL     OW34018   0.659   0.122   8.650 -1.1599 -0.0025  0.3367
 7461SOL    HW134019   0.568   0.114   8.622 -0.2235  0.1968 -2.7467
 7461SOL    HW234020   0.673   0.214   8.675 -3.1729  0.8028 -1.4670
 7462SOL     OW34021   0.652   1.338  12.459 -0.4909  0.6551 -0.0641
 7462SOL    HW134022   0.746   1.354  12.454  0.0715 -1.7177  2.7282
 7462SOL    HW234023   0.646   1.246  12.485 -1.4969  0.4711 -0.9650
 7463SOL     OW34024   4.197   4.505  13.355  0.2536 -0.5538 -0.7746
 7463SOL    HW134025   4.105   4.512  13.380  1.3645  3.0906  2.2600
 7463SOL    HW234026   4.218   4.598  13.361 -1.3422 -0.2842  0.9339
 7464SOL     OW34027   2.130   4.435   2.538  0.1756 -0.3455 -0.3691
 7464SOL    HW134028   2.121   4.531   2.541  2.5255 -0.1096 -0.9445
 7464SOL    HW234029   2.126   4.422   2.443 -0.2346  0.4864 -0.4642
 7465SOL     OW34030   2.277   3.712  16.424 -0.1490 -0.0214 -0.2323
 7465SOL    HW134031   2.342   3.764  16.376  1.8415 -0.1554  2.3404
 7465SOL    HW234032   2.196   3.764  16.419  1.4345  2.3927 -0.6540
 7466SOL     OW34033   3.782   2.749   6.619 -0.4423  0.1154  0.3189
 7466SOL    HW134034   3.738   2.696   6.686 -0.3413  2.0915  1.9153
 7466SOL    HW234035   3.873   2.735   6.644 -0.0444 -1.0554 -1.7485
 7467SOL     OW34036   1.967   1.038  15.405 -0.3621 -0.2427 -0.3796
 7467SOL    HW134037   2.042   1.081  15.446  0.2916 -0.3802 -1.4236
 7467SOL    HW234038   1.914   1.014  15.480 -0.1152 -0.7601 -0.3702
 7468SOL     OW34039   4.433   4.107   3.610 -0.2657 -0.1469 -0.0076
 7468SOL    HW134040   4.507   4.049   3.629 -0.9937 -0.4888  1.7902
 7468SOL    HW234041   4.459   4.144   3.526 -1.2326 -2.3636 -1.2823
 7469SOL     OW34042   0.969   3.205   4.794 -0.0548 -0.0366 -0.6186
 7469SOL    HW134043   0.986   3.172   4.883  0.8727  1.4167 -0.2498
 7469SOL    HW234044   0.916   3.136   4.756 -0.3703  0.0566 -0.3455
 7470SOL     OW34045   0.100   1.969   8.430 -0.3266 -0.0449  0.0108
 7470SOL    HW134046   0.194   1.950   8.436 -0.2662  0.5606  0.9600
 7470SOL    HW234047   0.082   1.918   8.351  2.1657  2.0801 -1.9510
 7471SOL     OW34048   3.461   4.251   6.370  0.1260  0.6641 -0.1285
 7471SOL    HW134049   3.529   4.201   6.326 -0.8375 -1.3994  0.7673
 7471SOL    HW234050   3.437   4.311   6.299 -1.4705  0.6068  0.3508
 7472SOL     OW34051   2.324   4.124   6.703  0.0039 -0.4318 -0.3789
 7472SOL    HW134052   2.286   4.211   6.698  2.8598  0.8769  0.5071
 7472SOL    HW234053   2.416   4.133   6.676  0.3242  2.6391  1.7461
 7473SOL     OW34054   1.874   2.014   6.617 -0.1323  0.4644  0.4223
 7473SOL    HW134055   1.848   1.991   6.528 -0.7816 -0.9056  0.9570
 7473SOL    HW234056   1.966   1.989   6.611 -0.0393  1.6191 -2.6964
 7474SOL     OW34057   2.292   1.471   0.599 -0.2791 -0.1709 -0.3127
 7474SOL    HW134058   2.213   1.441   0.553  0.1907 -0.1053 -1.1556
 7474SOL    HW234059   2.360   1.427   0.549 -1.5787 -1.8598 -0.6281
 7475SOL     OW34060   3.059   4.410  10.199  0.3194 -0.1384  0.4244
 7475SOL    HW134061   3.106   4.357  10.263 -1.3732 -1.5402  0.4929
 7475SOL    HW234062   2.970   4.385  10.220 -0.1100 -0.3496 -1.6117
 7476SOL     OW34063   4.325   4.540   5.408 -0.0295 -0.3454 -0.2925
 7476SOL    HW134064   4.340   4.585   5.491  0.2112 -1.4555  0.2724
 7476SOL    HW234065   4.400   4.481   5.406  0.0243 -0.3091  0.6969
 7477SOL     OW34066   1.264   4.409   3.878  0.3452  0.2134  0.3646
 7477SOL    HW134067   1.192   4.423   3.939  0.0931 -0.2026  0.1628
 7477SOL    HW234068   1.268   4.313   3.873 -1.0607  0.1207  0.8859
 7478SOL     OW34069   3.800   0.108   3.627  0.0393 -0.1508  0.1984
 7478SOL    HW134070   3.832   0.100   3.717  3.3977  1.1078 -0.8726
 7478SOL    HW234071   3.859   0.177   3.597 -0.6562 -0.1251 -1.1432
 7479SOL     OW34072   0.941   3.715  17.165 -0.1144 -0.0050  0.4367
 7479SOL    HW134073   0.972   3.733  17.254 -0.3927  0.4691  0.4354
 7479SOL    HW234074   0.850   3.743  17.172 -0.6293 -1.7680  0.8727
 7480SOL     OW34075   0.480   4.411   5.063 -0.1615  0.5021  0.1914
 7480SOL    HW134076   0.491   4.445   5.152 -0.8932 -0.7904  0.7657
 7480SOL    HW234077   0.534   4.464   5.004  0.0435  0.0606 -0.0118
 7481SOL     OW34078   4.582   2.075  16.524 -0.5963  0.0780  0.5526
 7481SOL    HW134079   4.642   2.098  16.454 -3.4817  1.2135 -1.5408
 7481SOL    HW234080   4.515   2.143  16.516 -0.6900 -0.0191  0.5202
 7482SOL     OW34081   3.235   0.866   4.894  0.6663 -0.1304  0.2281
 7482SOL    HW134082   3.146   0.862   4.928  0.1171 -1.9388 -1.4609
 7482SOL    HW234083   3.269   0.783   4.928  1.9558  0.9444  1.5565
 7483SOL     OW34084   3.483   2.725   2.085  0.0308 -0.2452  0.2420
 7483SOL    HW134085   3.515   2.685   2.004  2.1021 -1.3958  1.6234
 7483SOL    HW234086   3.557   2.696   2.138 -0.2807 -1.1159  0.1897
 7484SOL     OW34087   3.087   2.232   9.809  0.0598 -0.2018  0.2173
 7484SOL    HW134088   3.050   2.316   9.781  1.9497  0.6111  0.1477
 7484SOL    HW234089   3.011   2.188   9.847 -0.3283  1.0698  0.9520
 7485SOL     OW34090   0.214   3.593  17.027  0.3812  0.5971 -1.3812
 7485SOL    HW134091   0.242   3.624  17.113 -4.2612 -1.3912  0.8269
 7485SOL    HW234092   0.164   3.667  16.991  0.5719  2.0168  1.2487
 7486SOL     OW34093   0.595   0.222   3.236  0.2082 -0.2218 -0.4493
 7486SOL    HW134094   0.620   0.193   3.324 -0.5560 -1.4981 -0.6503
 7486SOL    HW234095   0.500   0.210   3.236  0.5102 -2.6290 -1.3569
 7487SOL     OW34096   0.654   1.801   5.205  0.3414  0.3590 -0.7447
 7487SOL    HW134097   0.620   1.722   5.246 -2.0498  1.6260 -0.2482
 7487SOL    HW234098   0.687   1.857   5.276 -0.0244  0.5488 -0.7215
 7488SOL     OW34099   3.890   4.469  12.035 -0.2188  0.1389  0.5672
 7488SOL    HW134100   3.965   4.520  12.005 -0.5406 -0.5958 -1.4830
 7488SOL    HW234101   3.951   4.409  12.078  1.4934  1.6011  0.2009
 7489SOL     OW34102   2.957   4.396   9.712 -0.2562 -0.3624 -0.3637
 7489SOL    HW134103   2.875   4.347   9.700 -1.9943  2.2392  0.7990
 7489SOL    HW234104   2.928   4.487   9.704  0.5288 -0.0825  0.0079
 7490SOL     OW34105   0.654   3.503   4.175 -0.0218  0.0893  0.2361
 7490SOL    HW134106   0.706   3.506   4.255  1.9468  1.5276 -1.0863
 7490SOL    HW234107   0.567   3.485   4.208  0.1393  1.0777  1.1920
 7491SOL     OW34108   3.273   0.647   2.282 -0.3597 -0.5280  0.3924
 7491SOL    HW134109   3.194   0.700   2.281 -1.0493 -1.5795 -0.5654
 7491SOL    HW234110   3.253   0.584   2.352 -1.3715 -1.4027 -0.6833
 7492SOL     OW34111   0.913   0.227   8.825  0.2256  0.0837  0.0568
 7492SOL    HW134112   0.930   0.259   8.913 -2.1000 -0.2891  0.6575
 7492SOL    HW234113   1.001   0.211   8.793  0.0080 -2.1782  0.5941
 7493SOL     OW34114   2.293   2.100   4.494  0.2428 -0.0247  0.5250
 7493SOL    HW134115   2.316   2.021   4.444  0.9031  0.3016  0.3000
 7493SOL    HW234116   2.207   2.121   4.459  1.3192  0.7269 -1.6966
 7494SOL     OW34117   2.760   1.277   4.326  0.0333  0.6904  0.2893
 7494SOL    HW134118   2.814   1.201   4.346  0.1876  0.7703  0.1727
 7494SOL    HW234119   2.826   1.341   4.352  0.5914  1.2242 -2.4144
 7495SOL     OW34120   4.464   2.329   0.465 -0.2938  0.4553  0.0109
 7495SOL    HW134121   4.519   2.404   0.443  1.4822 -1.7205 -2.9961
 7495SOL    HW234122   4.379   2.354   0.430 -0.2225  2.6472  1.4202
 7496SOL     OW34123   0.481   3.347   6.528  0.2619 -0.2743  0.8027
 7496SOL    HW134124   0.419   3.351   6.601  0.9001 -0.0425  1.3249
 7496SOL    HW234125   0.559   3.319   6.576 -1.6700 -1.5331  3.2443
 7497SOL     OW34126   4.616   4.465   4.679  0.2492 -0.5492  0.2522
 7497SOL    HW134127   4.593   4.557   4.684  0.5342 -0.4747  0.2116
 7497SOL    HW234128   4.646   4.447   4.768  0.9888 -1.3103 -0.1539
 7498SOL     OW34129   1.625   0.964   6.966  0.5137 -0.1639 -0.3281
 7498SOL    HW134130   1.626   0.884   6.913  0.4505  0.2015 -0.8798
 7498SOL    HW234131   1.591   0.934   7.049  0.1310 -1.6028 -1.0094
 7499SOL     OW34132   0.939   2.436   7.103 -0.2039  0.0589  0.1648
 7499SOL    HW134133   0.956   2.458   7.012  2.2109 -0.5591  0.4594
 7499SOL    HW234134   0.857   2.484   7.111 -0.7886 -0.9782  0.2968
 7500SOL     OW34135   1.468   3.333   6.985  0.8732 -0.3684  0.2706
 7500SOL    HW134136   1.431   3.373   6.907  2.3036  0.3943 -0.0130
 7500SOL    HW234137   1.403   3.263   6.996 -1.0162  1.3826  0.1677
 7501SOL     OW34138   1.357   4.540  16.817 -0.1139  0.0694 -0.0028
 7501SOL    HW134139   1.363   4.585  16.902 -0.9228 -0.1225  0.1506
 7501SOL    HW234140   1.432   4.584  16.775 -0.1194  1.6347  1.6018
 7502SOL     OW34141   2.675   2.221   5.930  0.3371  0.3322  0.0669
 7502SOL    HW134142   2.596   2.275   5.927  1.5234  2.3748  3.9777
 7502SOL    HW234143   2.708   2.234   5.841 -1.1878 -1.0553 -0.6981
 7503SOL     OW34144   4.720   1.085   7.481 -0.1742 -0.4306 -0.0745
 7503SOL    HW134145   0.055   1.125   7.534 -1.6846  1.8606  0.1430
 7503SOL    HW234146   4.654   1.154   7.492  0.7525  0.0778  2.2482
 7504SOL     OW34147   2.745   1.658   6.155  0.0203 -0.2142 -0.0183
 7504SOL    HW134148   2.691   1.601   6.101 -0.1118  1.3442 -1.5341
 7504SOL    HW234149   2.762   1.726   6.089 -4.5112 -0.1492 -1.0808
 7505SOL     OW34150   2.489   0.950  14.088 -0.2072  0.2890 -0.0918
 7505SOL    HW134151   2.412   0.998  14.119 -1.0797 -2.2801  1.7022
 7505SOL    HW234152   2.498   0.884  14.157  1.1468  1.1593  0.5606
 7506SOL     OW34153   1.596   0.480   4.040 -0.0365  0.1293  0.4538
 7506SOL    HW134154   1.672   0.422   4.040  0.0770  0.2753  0.5928
 7506SOL    HW234155   1.581   0.499   4.132 -1.8067  1.9413 -0.1964
 7507SOL     OW34156   2.344   0.396  11.268 -0.6180  0.3791  0.0008
 7507SOL    HW134157   2.357   0.362  11.356  0.3278  0.8102  0.0238
 7507SOL    HW234158   2.349   0.490  11.284 -1.7058  0.1152  1.9390
 7508SOL     OW34159   3.835   3.770   2.212 -0.1842  0.3224 -0.0240
 7508SOL    HW134160   3.848   3.807   2.125  0.4205  1.7500  0.6756
 7508SOL    HW234161   3.824   3.845   2.270 -0.3721 -0.6713  1.2226
 7509SOL     OW34162   0.354   4.449   7.433 -0.0305 -0.2181  0.4085
 7509SOL    HW134163   0.449   4.452   7.429 -0.0481  1.9036  1.9912
 7509SOL    HW234164   0.336   4.361   7.401  2.6865 -0.2426 -1.0312
 7510SOL     OW34165   2.632   0.804   4.265  0.5783 -0.4383 -0.8072
 7510SOL    HW134166   2.538   0.808   4.283  0.5908 -2.1675 -0.3124
 7510SOL    HW234167   2.637   0.726   4.208  1.3138 -0.2545 -0.9942
 7511SOL     OW34168   3.661   0.388  17.668  0.1533  0.2143 -0.0800
 7511SOL    HW134169   3.619   0.399  17.582 -1.6322 -2.0940  0.4814
 7511SOL    HW234170   3.751   0.413  17.648  0.4119 -2.4794 -2.2534
 7512SOL     OW34171   0.027   0.021   4.046 -0.0332 -0.3190 -0.4599
 7512SOL    HW134172   0.078   0.013   4.126  0.0056  0.9566 -0.3677
 7512SOL    HW234173   4.712   4.671   4.038 -1.5300  0.4350  0.7764
 7513SOL     OW34174   0.642   0.097   7.289  0.4347  0.3299  0.1793
 7513SOL    HW134175   0.701   0.034   7.248 -0.7346 -0.8538  0.3388
 7513SOL    HW234176   0.671   0.101   7.380  0.6780  0.9478  0.0784
 7514SOL     OW34177   0.606   4.522   9.562 -0.3303 -0.5028  0.1308
 7514SOL    HW134178   0.524   4.504   9.609 -0.2510 -1.3966 -0.0696
 7514SOL    HW234179   0.658   4.558   9.634  2.6271 -3.2866 -0.6096
 7515SOL     OW34180   4.048   1.394   5.212 -0.0949  0.2834  0.3504
 7515SOL    HW134181   3.969   1.432   5.174 -1.2420 -1.5120  0.9351
 7515SOL    HW234182   4.117   1.454   5.182 -1.0464  2.1855  1.9684
 7516SOL     OW34183   1.403   4.005  11.852 -0.4963  0.2453 -0.2701
 7516SOL    HW134184   1.376   3.993  11.943 -0.9274 -0.8867 -0.5513
 7516SOL    HW234185   1.480   3.949  11.845 -0.0058  0.7153  1.3324
 7517SOL     OW34186   1.278   0.686  14.955 -0.1095  0.2704  0.2437
 7517SOL    HW134187   1.244   0.600  14.931  1.2007  0.3823 -2.0043
 7517SOL    HW234188   1.201   0.731  14.988  0.3410  1.5748 -0.4984
 7518SOL     OW34189   3.751   4.588   9.839  0.1999 -0.2742 -0.1489
 7518SOL    HW134190   3.844   4.573   9.858  0.0547 -2.5955 -1.3351
 7518SOL    HW234191   3.757   4.654   9.771  2.2148 -0.2773  0.0258
 7519SOL     OW34192   1.914   0.630   2.505  0.2008  0.1497  0.8714
 7519SOL    HW134193   1.836   0.681   2.482  1.0371  1.1902  0.3495
 7519SOL    HW234194   1.894   0.631   2.599  1.4017  1.1925  1.1231
 7520SOL     OW34195   3.542   4.715  12.217  0.0591  0.0658  0.9741
 7520SOL    HW134196   3.455   4.699  12.179  0.5222  0.0287 -0.0890
 7520SOL    HW234197   3.573   4.625  12.209  1.1873  0.5618 -0.3437
 7521SOL     OW34198   3.391   0.914  15.941 -0.3941 -0.5197  0.5448
 7521SOL    HW134199   3.326   0.911  16.011 -2.0267 -1.6146 -1.0378
 7521SOL    HW234200   3.378   0.833  15.893  1.9841  0.0699 -1.1320
 7522SOL     OW34201   3.707   1.384   3.993  0.1510 -0.2320  0.0739
 7522SOL    HW134202   3.690   1.451   3.926  2.0655 -0.6978 -0.8680
 7522SOL    HW234203   3.791   1.352   3.960  0.5523  1.3936 -0.4973
 7523SOL     OW34204   4.113   0.509   9.481 -0.4435 -0.6792  0.4470
 7523SOL    HW134205   4.085   0.596   9.511  1.2955  0.6348 -1.7074
 7523SOL    HW234206   4.207   0.520   9.495 -0.3857 -0.4417 -0.1151
 7524SOL     OW34207   4.474   2.788   7.319 -0.0212 -0.3348  0.0952
 7524SOL    HW134208   4.469   2.748   7.232 -0.9208  0.2508 -0.1300
 7524SOL    HW234209   4.539   2.742   7.371  0.6494 -1.9577 -2.2097
 7525SOL     OW34210   2.991   1.235   0.269  0.3017 -0.1025 -0.5061
 7525SOL    HW134211   3.031   1.200   0.349 -1.0433 -2.7655 -1.0044
 7525SOL    HW234212   3.032   1.320   0.255  1.8503 -1.0394 -1.6937
 7526SOL     OW34213   2.350   2.135  10.030 -0.0890 -0.4170 -0.2231
 7526SOL    HW134214   2.341   2.054   9.980  0.9071 -0.3892 -0.4469
 7526SOL    HW234215   2.339   2.199   9.959  2.9992  3.6888  2.9740
 7527SOL     OW34216   4.699   3.437  10.968 -0.0011  0.3134 -0.0969
 7527SOL    HW134217   4.660   3.487  11.040 -1.8379 -1.2042 -0.0170
 7527SOL    HW234218   0.055   3.433  11.002  0.0070  0.2158 -0.1272
 7528SOL     OW34219   4.675   2.927   3.216  0.1283 -0.2882 -0.1645
 7528SOL    HW134220   0.006   2.941   3.285  0.3746  0.3607 -0.5270
 7528SOL    HW234221   4.605   2.993   3.224  1.1209  0.9069 -1.2959
 7529SOL     OW34222   3.241   3.367   2.212  0.3250 -0.2699  0.3430
 7529SOL    HW134223   3.165   3.352   2.156  1.3825  0.2078 -1.2295
 7529SOL    HW234224   3.275   3.278   2.217 -0.8436 -0.5854  3.0999
 7530SOL     OW34225   0.470   3.250  17.697  0.1763  0.2276 -0.1004
 7530SOL    HW134226   0.471   3.203  17.614  1.8323 -0.3644  0.2482
 7530SOL    HW234227   0.524   3.194   0.022 -1.3940  0.3618  1.5098
 7531SOL     OW34228   2.402   0.049   6.509 -0.2011 -0.1114  0.1859
 7531SOL    HW134229   2.475   0.044   6.447 -1.2855  1.9763 -1.2840
 7531SOL    HW234230   2.344   4.716   6.470 -0.6662  1.2428 -1.4475
 7532SOL     OW34231   3.140   1.962   6.701 -0.2181 -0.1303 -0.3556
 7532SOL    HW134232   3.074   1.912   6.748  1.2582 -0.4328  1.3954
 7532SOL    HW234233   3.091   2.039   6.671  0.3848 -0.0338 -1.0859
 7533SOL     OW34234   2.933   3.415   4.226 -0.0310 -0.0701 -0.3332
 7533SOL    HW134235   2.951   3.500   4.186 -0.3436 -0.7062 -1.7905
 7533SOL    HW234236   3.021   3.379   4.237  0.3700  0.8071 -0.6808
 7534SOL     OW34237   3.908   1.185   8.708 -0.7511 -0.0725 -0.3291
 7534SOL    HW134238   3.891   1.245   8.635  0.6116  0.3743 -0.2928
 7534SOL    HW234239   3.996   1.161   8.678 -1.8219 -0.5071 -3.0949
 7535SOL     OW34240   0.171   1.249   7.621 -0.2260 -0.5137 -0.5666
 7535SOL    HW134241   0.227   1.182   7.660  2.2750  1.8078 -0.1868
 7535SOL    HW234242   0.233   1.299   7.569  0.9582 -2.9276 -1.4815
 7536SOL     OW34243   1.589   1.627   2.580 -0.2113  0.4067 -0.2552
 7536SOL    HW134244   1.614   1.712   2.617 -3.3541  0.9323  0.6580
 7536SOL    HW234245   1.539   1.582   2.649 -1.2839  0.5286 -0.9569
 7537SOL     OW34246   3.854   0.071   2.471  0.3003  0.1574  0.4461
 7537SOL    HW134247   3.885   0.042   2.557  1.2134 -1.1957 -0.3279
 7537SOL    HW234248   3.924   0.019   2.430 -0.6750 -0.1750 -0.7935
 7538SOL     OW34249   4.308   3.818  13.929 -0.3985 -0.1983  0.1957
 7538SOL    HW134250   4.404   3.824  13.925 -0.4759  1.7705  1.5808
 7538SOL    HW234251   4.286   3.899  13.884 -0.7295 -0.2494  0.2656
 7539SOL     OW34252   2.841   0.149   9.671 -0.3663  0.5888  0.4478
 7539SOL    HW134253   2.816   0.232   9.712  2.4497  0.9209  1.4480
 7539SOL    HW234254   2.853   0.174   9.579 -0.6553 -0.0218  0.2442
 7540SOL     OW34255   0.478   2.709  14.001  0.1258 -0.6378 -0.2081
 7540SOL    HW134256   0.392   2.748  14.016 -0.5811 -2.1373 -0.3732
 7540SOL    HW234257   0.526   2.792  14.006  0.3637 -0.7693 -0.2993
 7541SOL     OW34258   0.166   2.868  12.987 -0.1217  0.2639 -0.3839
 7541SOL    HW134259   0.235   2.863  12.920  1.8667  1.1829  1.6040
 7541SOL    HW234260   0.181   2.952  13.031 -0.5581 -1.2490  2.6178
 7542SOL     OW34261   0.606   0.917  15.927 -0.2710  0.3256  0.3521
 7542SOL    HW134262   0.691   0.877  15.944  0.7888  2.8349  0.9593
 7542SOL    HW234263   0.620   1.009  15.949 -0.6768 -0.0142  2.0205
 7543SOL     OW34264   0.646   2.973  14.308  0.7462 -0.3957 -0.1273
 7543SOL    HW134265   0.676   2.905  14.368 -0.1308 -2.3774 -1.9262
 7543SOL    HW234266   0.677   2.935  14.225 -0.6899 -0.5378 -0.5951
 7544SOL     OW34267   3.271   0.814  15.557  0.0772 -0.8527  0.1909
 7544SOL    HW134268   3.204   0.849  15.616 -0.5465  0.5450 -1.3642
 7544SOL    HW234269   3.316   0.759  15.621 -1.2384 -0.4909  1.4325
 7545SOL     OW34270   3.871   3.434   2.003 -0.2618 -0.1893  0.2320
 7545SOL    HW134271   3.852   3.434   1.910  1.3445  0.8791 -0.0909
 7545SOL    HW234272   3.799   3.390   2.048 -1.4815  0.6305 -0.9268
 7546SOL     OW34273   3.214   3.343   5.664  0.1221 -0.2383 -0.3875
 7546SOL    HW134274   3.219   3.290   5.744 -0.2198 -0.9822 -0.8661
 7546SOL    HW234275   3.120   3.356   5.671  0.2422  0.3718  0.1899
 7547SOL     OW34276   4.440   2.318   4.480  0.1966 -0.1217 -0.1294
 7547SOL    HW134277   4.518   2.291   4.431  0.1155 -2.4287  1.0266
 7547SOL    HW234278   4.460   2.290   4.569 -0.3354  0.5624  0.1989
 7548SOL     OW34279   2.705   0.618   7.947 -0.2005  0.2820 -0.3109
 7548SOL    HW134280   2.617   0.592   7.975 -0.8862  3.0800  0.1519
 7548SOL    HW234281   2.759   0.544   7.975 -1.5730 -0.6753 -0.2040
 7549SOL     OW34282   0.664   1.627   2.367  0.1369 -0.4356 -0.1008
 7549SOL    HW134283   0.686   1.660   2.280  0.3084  0.9379  0.4609
 7549SOL    HW234284   0.730   1.557   2.368  2.5330  1.7933 -0.2373
 7550SOL     OW34285   3.930   2.461   1.686  0.4034  0.3118 -0.2440
 7550SOL    HW134286   3.954   2.478   1.777 -0.2908  0.8819 -0.1647
 7550SOL    HW234287   4.000   2.498   1.633 -0.6922  2.4123 -0.2502
 7551SOL     OW34288   2.637   0.456   6.020 -0.1438  0.3480 -0.0505
 7551SOL    HW134289   2.548   0.428   5.996  0.0372 -1.4158  1.4228
 7551SOL    HW234290   2.682   0.458   5.935  0.9691 -1.8279  0.4916
 7552SOL     OW34291   4.114   2.303   9.163 -0.1313 -0.0630  0.4762
 7552SOL    HW134292   4.121   2.212   9.133 -1.1415 -0.1075  0.3789
 7552SOL    HW234293   4.156   2.295   9.248  1.2521  0.2713 -0.1802
 7553SOL     OW34294   0.107   4.730   5.856  0.1781  0.0296  0.6686
 7553SOL    HW134295   0.152   0.049   5.790  0.6385 -1.0111  0.1663
 7553SOL    HW234296   0.185   4.700   5.902  2.6076  1.1788 -2.6493
 7554SOL     OW34297   3.418   0.588  12.909 -0.0105 -0.5241  0.1639
 7554SOL    HW134298   3.389   0.612  12.821 -3.0061 -0.7850  1.0793
 7554SOL    HW234299   3.330   0.573  12.943 -0.0983  0.3385  0.3187
 7555SOL     OW34300   2.054   2.810   2.689  0.2813 -0.3494  0.2980
 7555SOL    HW134301   2.096   2.862   2.620 -0.9054 -2.0324 -1.7098
 7555SOL    HW234302   1.966   2.843   2.672  1.1254  1.5515 -0.3852
 7556SOL     OW34303   4.520   3.918   2.920  0.4578 -0.4717  0.3363
 7556SOL    HW134304   4.565   3.965   2.850 -0.9546  2.4325  1.3917
 7556SOL    HW234305   4.518   3.834   2.873 -0.2058 -0.4037  0.2473
 7557SOL     OW34306   1.754   3.062   2.363 -0.1983 -0.3712  0.2377
 7557SOL    HW134307   1.831   3.119   2.363 -0.3428 -0.1871 -1.3968
 7557SOL    HW234308   1.791   2.977   2.337 -0.2098  0.1937 -1.6363
 7558SOL     OW34309   1.214   3.807   3.814 -0.0149  0.2816 -0.0145
 7558SOL    HW134310   1.171   3.733   3.773 -3.8637  1.9954  0.9409
 7558SOL    HW234311   1.139   3.867   3.819 -0.1175 -0.0028  1.7916
 7559SOL     OW34312   4.490   3.943   6.981  0.8254 -0.4035 -0.4216
 7559SOL    HW134313   4.402   3.966   6.950  0.0069 -1.1615  1.3511
 7559SOL    HW234314   4.472   3.859   7.024  0.5302  0.5258  1.2733
 7560SOL     OW34315   3.678   0.314  13.853  0.4092  0.4506 -0.2803
 7560SOL    HW134316   3.629   0.395  13.836  0.2457  0.5351  0.6363
 7560SOL    HW234317   3.742   0.307  13.781 -0.7106 -1.2003 -1.1073
 7561SOL     OW34318   4.088   0.755   9.617  0.2417  0.4019 -0.2387
 7561SOL    HW134319   4.180   0.758   9.644  0.4558 -2.0007 -0.7127
 7561SOL    HW234320   4.071   0.849   9.629  1.7214  0.4923  1.1687
 7562SOL     OW34321   4.568   2.829  14.968 -0.7871  0.0475  0.9708
 7562SOL    HW134322   4.637   2.841  14.902  0.1372 -0.0466  1.9171
 7562SOL    HW234323   4.505   2.883  14.920 -1.9980 -1.8028  0.4958
 7563SOL     OW34324   4.043   1.477  12.175  0.0917  0.1648  0.0168
 7563SOL    HW134325   4.134   1.471  12.203  0.4466  0.6483 -1.0100
 7563SOL    HW234326   4.049   1.463  12.080  2.5826 -3.1626  0.6755
 7564SOL     OW34327   3.513   2.431  15.132 -0.2079 -0.2400 -0.0516
 7564SOL    HW134328   3.481   2.403  15.045 -1.4409  2.0990 -0.3602
 7564SOL    HW234329   3.471   2.516  15.140 -3.2428 -1.9323  2.0352
 7565SOL     OW34330   4.043   1.296  12.870 -0.0894  0.1781  0.8240
 7565SOL    HW134331   4.119   1.286  12.928 -0.9606  0.0663  1.9461
 7565SOL    HW234332   4.068   1.362  12.805 -0.0276 -1.3785 -0.7316
 7566SOL     OW34333   1.604   2.994   2.860  0.1616 -0.1661  0.0281
 7566SOL    HW134334   1.607   2.997   2.956 -2.3533  2.2984  0.0181
 7566SOL    HW234335   1.613   3.087   2.839  0.7613 -0.0784  0.6362
 7567SOL     OW34336   0.250   1.662  14.823  0.6355  0.1688  0.4667
 7567SOL    HW134337   0.261   1.757  14.836  0.7981  0.5779 -2.6738
 7567SOL    HW234338   0.156   1.645  14.822  0.7224 -0.3828  1.2389
 7568SOL     OW34339   2.538   2.269   6.869  0.3660 -0.5054  0.3835
 7568SOL    HW134340   2.526   2.227   6.954 -2.8155  1.5032  0.9438
 7568SOL    HW234341   2.611   2.326   6.894  1.5890 -1.4809 -0.9319
 7569SOL     OW34342   2.731   1.824   3.262 -0.3555  0.0025  0.2191
 7569SOL    HW134343   2.755   1.812   3.354 -0.6239 -1.0910  0.1485
 7569SOL    HW234344   2.816   1.827   3.219  0.0640 -1.0774  0.9885
 7570SOL     OW34345   3.999   1.117   2.345 -0.3250 -0.3908  0.2661
 7570SOL    HW134346   4.005   1.065   2.265 -4.1667 -1.7059  0.8205
 7570SOL    HW234347   4.023   1.058   2.417  0.4166  0.3511  0.6279
 7571SOL     OW34348   1.728   1.604   1.653 -0.6814  0.5211 -0.1087
 7571SOL    HW134349   1.702   1.516   1.679  1.2592  0.4618  1.5722
 7571SOL    HW234350   1.808   1.624   1.701  0.6796 -1.4047 -1.5862
 7572SOL     OW34351   1.235   1.445  12.341  0.2065 -0.3013  0.1972
 7572SOL    HW134352   1.331   1.450  12.338  0.1936 -0.7592 -0.9067
 7572SOL    HW234353   1.207   1.491  12.420 -0.3629  0.4159 -0.4215
 7573SOL     OW34354   0.171   3.735  11.743 -0.1309  0.3587 -0.0214
 7573SOL    HW134355   0.245   3.792  11.723 -0.1182  0.3575  0.0224
 7573SOL    HW234356   0.210   3.647  11.744 -2.8616 -0.8711 -0.8956
 7574SOL     OW34357   1.116   3.788   6.821  0.4167 -0.3738 -0.4287
 7574SOL    HW134358   1.167   3.844   6.879  0.9495 -0.8127 -0.4761
 7574SOL    HW234359   1.129   3.712   6.878 -0.2542  0.9905  1.5478
 7575SOL     OW34360   2.303   4.648   8.245  0.1505  0.3758  0.2458
 7575SOL    HW134361   2.254   4.700   8.181 -1.4134  0.9836  1.9350
 7575SOL    HW234362   2.355   4.723   8.275  0.1963  1.8574 -3.4821
 7576SOL     OW34363   2.516   2.448   5.565 -0.2477  0.0277 -0.0666
 7576SOL    HW134364   2.560   2.401   5.637  1.1826  0.8157 -0.4398
 7576SOL    HW234365   2.469   2.382   5.514 -1.9045  2.1869 -1.2955
 7577SOL     OW34366   1.829   1.210   3.815  0.0241  0.5915  0.4988
 7577SOL    HW134367   1.903   1.212   3.755 -0.7829 -1.1735 -0.5510
 7577SOL    HW234368   1.796   1.124   3.789  0.5785  0.7377 -0.6712
 7578SOL     OW34369   3.952   0.261  15.444 -0.6155 -0.3817 -0.2944
 7578SOL    HW134370   4.021   0.198  15.463 -2.0807 -1.5802  1.0123
 7578SOL    HW234371   3.917   0.226  15.362  0.5884 -1.7757 -0.2117
 7579SOL     OW34372   1.012   1.549  16.124 -0.1167 -0.1964 -0.6804
 7579SOL    HW134373   0.989   1.517  16.037  0.5999 -0.0582 -0.9260
 7579SOL    HW234374   0.925   1.556  16.162 -0.4447 -1.4107 -1.2181
 7580SOL     OW34375   0.480   2.251  13.233  0.1424 -0.3425  0.1094
 7580SOL    HW134376   0.399   2.275  13.278  0.6395 -1.9819  1.9009
 7580SOL    HW234377   0.497   2.330  13.183 -1.1245  0.3710  0.8077
 7581SOL     OW34378   1.054   1.159   5.592 -0.4400  0.2138 -0.0655
 7581SOL    HW134379   1.080   1.069   5.615 -0.9034 -0.1161 -0.8553
 7581SOL    HW234380   1.046   1.146   5.498  1.0461  1.4626 -0.3757
 7582SOL     OW34381   0.756   3.378   6.334 -0.3369  0.2190  0.0283
 7582SOL    HW134382   0.832   3.437   6.342  0.1781 -0.4086 -0.2910
 7582SOL    HW234383   0.768   3.335   6.419  0.8847  1.1161  0.3146
 7583SOL     OW34384   3.857   4.448   2.534 -0.1516 -0.2553  0.4497
 7583SOL    HW134385   3.782   4.459   2.475  1.3482  2.7173 -0.8592
 7583SOL    HW234386   3.860   4.530   2.583  0.1284 -0.5483  0.9210
 7584SOL     OW34387   2.233   2.556   6.384 -0.3306 -0.3791  0.2555
 7584SOL    HW134388   2.178   2.508   6.446 -0.8013  1.1396  1.0109
 7584SOL    HW234389   2.174   2.617   6.340  0.2539 -0.0209 -0.0234
 7585SOL     OW34390   0.531   3.654   8.823  0.3397  0.2808  0.3301
 7585SOL    HW134391   0.453   3.603   8.844  2.0451 -2.1096  0.8861
 7585SOL    HW234392   0.566   3.616   8.742 -0.1914 -0.2131  0.3327
 7586SOL     OW34393   3.128   4.047   9.398  0.4650  0.3569  0.3519
 7586SOL    HW134394   3.220   4.023   9.387  0.5836 -0.1092  2.3051
 7586SOL    HW234395   3.110   4.026   9.490  0.5335  1.0878  0.5268
 7587SOL     OW34396   0.757   2.973   5.609  0.0690 -0.1111  0.0833
 7587SOL    HW134397   0.814   2.960   5.685 -0.0467 -0.6321  0.0851
 7587SOL    HW234398   0.677   2.960   5.660  0.7662 -0.0074  1.2060
 7588SOL     OW34399   4.247   1.617   7.216  0.6282 -0.5522  0.3415
 7588SOL    HW134400   4.335   1.651   7.236  1.0362 -1.3514 -0.0902
 7588SOL    HW234401   4.252   1.582   7.127 -0.0769 -0.4659  0.2682
 7589SOL     OW34402   3.679   0.460   7.124  0.3374  0.3913 -0.7664
 7589SOL    HW134403   3.745   0.480   7.057  1.1190  2.0317  0.4735
 7589SOL    HW234404   3.684   0.365   7.130  1.4704  0.4688 -0.4578
 7590SOL     OW34405   3.783   3.494  11.914  0.0463  0.0504  0.7366
 7590SOL    HW134406   3.719   3.542  11.860  2.6613  2.1447 -0.5084
 7590SOL    HW234407   3.837   3.565  11.949  1.6162 -0.0360 -1.5161
 7591SOL     OW34408   2.746   3.160   1.160 -0.0233 -0.2831  0.0722
 7591SOL    HW134409   2.834   3.131   1.135 -0.1412  0.5307 -1.3091
 7591SOL    HW234410   2.772   3.216   1.233  1.1331  0.3007 -0.7814
 7592SOL     OW34411   1.273   1.105   9.971  0.0727 -0.5690 -0.4180
 7592SOL    HW134412   1.214   1.178   9.991 -1.4326 -1.6952 -0.7892
 7592SOL    HW234413   1.206   1.037   9.969 -1.2895  0.7448  0.5889
 7593SOL     OW34414   0.341   1.134   6.977 -0.1249 -0.2057 -0.3755
 7593SOL    HW134415   0.342   1.137   7.072 -0.4911  1.4076 -0.4283
 7593SOL    HW234416   0.318   1.041   6.968  1.7570 -0.5663 -1.5906
 7594SOL     OW34417   4.470   0.412   5.633  0.4580  0.1722 -0.1289
 7594SOL    HW134418   4.428   0.466   5.567  2.3168  2.7840  0.8403
 7594SOL    HW234419   4.421   0.454   5.703  1.0476  0.6582 -0.0080
 7595SOL     OW34420   2.385   2.408  10.204  0.0462 -0.0560  0.8090
 7595SOL    HW134421   2.429   2.332  10.166  2.1848  1.6585 -0.0964
 7595SOL    HW234422   2.450   2.422  10.272 -0.6387 -1.6094  1.7731
 7596SOL     OW34423   1.803   2.772   4.244 -0.0124 -0.1183  0.4674
 7596SOL    HW134424   1.885   2.750   4.288  1.0637  1.1167 -0.9341
 7596SOL    HW234425   1.816   2.737   4.156  0.2664  2.6273 -0.5805
 7597SOL     OW34426   2.962   0.237  15.072 -0.6031  0.4739  0.0514
 7597SOL    HW134427   2.867   0.232  15.067 -0.6990  1.7146  0.6062
 7597SOL    HW234428   2.998   0.234  14.984  0.1295  1.4885  0.3156
 7598SOL     OW34429   0.747   4.719  14.712 -0.0102  0.3167  0.2669
 7598SOL    HW134430   0.664   4.685  14.744 -1.2940  1.6005 -1.6827
 7598SOL    HW234431   0.719   0.061  14.660 -0.1345  0.8804  1.1542
 7599SOL     OW34432   4.004   3.205  17.515 -0.0932 -0.0377 -0.2510
 7599SOL    HW134433   3.928   3.262  17.523  0.9174  1.3300 -0.3147
 7599SOL    HW234434   3.988   3.140  17.584 -1.1307 -0.5254 -0.9540
 7600SOL     OW34435   3.483   2.866   3.110  0.2983  0.3167 -0.2471
 7600SOL    HW134436   3.479   2.961   3.107 -3.2774  0.2000  1.5484
 7600SOL    HW234437   3.575   2.847   3.127  0.9444  1.6521 -2.2636
 7601SOL     OW34438   4.001   1.728  13.328 -0.0691 -0.2019 -0.2521
 7601SOL    HW134439   4.073   1.769  13.281 -0.5716  0.1712 -0.6916
 7601SOL    HW234440   4.041   1.649  13.366  0.6920  0.8230  1.0786
 7602SOL     OW34441   4.547   1.282   6.821  0.2280  0.3107  0.3555
 7602SOL    HW134442   4.499   1.227   6.882  1.5771 -0.9419  0.2992
 7602SOL    HW234443   4.628   1.300   6.869  1.9688  1.4958 -3.0215
 7603SOL     OW34444   0.030   3.777   2.253 -0.3728  0.1609 -0.8205
 7603SOL    HW134445   4.683   3.818   2.223 -1.2055 -0.2419  0.8429
 7603SOL    HW234446   0.063   3.836   2.321  1.0517 -2.6040  0.9167
 7604SOL     OW34447   0.214   2.826   4.482 -0.1572 -0.1992  0.0501
 7604SOL    HW134448   0.172   2.909   4.503 -1.2526 -0.5492 -0.7980
 7604SOL    HW234449   0.147   2.761   4.500  2.2842 -2.2557  1.7251
 7605SOL     OW34450   0.187   3.136   4.975 -0.2741 -0.0216  0.0094
 7605SOL    HW134451   0.137   3.057   4.995 -4.0935  2.2304 -0.6823
 7605SOL    HW234452   0.205   3.125   4.882  0.7723  0.5304  0.1445
 7606SOL     OW34453   0.840   1.662  13.904  0.1956  0.4037  0.1747
 7606SOL    HW134454   0.917   1.707  13.938 -0.2465 -0.4379  2.2698
 7606SOL    HW234455   0.815   1.604  13.976  1.7870  0.2871  0.6223
 7607SOL     OW34456   2.770   0.355  14.507  0.3575 -0.4022  0.9002
 7607SOL    HW134457   2.762   0.328  14.416  2.9793  1.4203  0.1146
 7607SOL    HW234458   2.793   0.448  14.511  0.5654 -0.4377  0.4575
 7608SOL     OW34459   1.035   0.332   2.798 -0.2437  0.7097 -0.3924
 7608SOL    HW134460   0.982   0.255   2.778  0.0007  0.1219  1.2095
 7608SOL    HW234461   1.028   0.374   2.712  0.9201  0.7569 -0.4681
 7609SOL     OW34462   1.210   3.596   1.605 -0.8992  0.1865 -0.6703
 7609SOL    HW134463   1.235   3.532   1.538 -0.7951  0.0470 -0.4962
 7609SOL    HW234464   1.117   3.612   1.590 -0.6971  0.3650 -1.7613
 7610SOL     OW34465   0.558   1.566   5.333  0.0839 -0.4280 -0.6914
 7610SOL    HW134466   0.607   1.517   5.399 -0.3840  0.3497  0.2270
 7610SOL    HW234467   0.469   1.535   5.349  0.4394  0.0003  2.0868
 7611SOL     OW34468   0.027   1.665  12.628 -0.0893  0.6905 -0.3175
 7611SOL    HW134469   0.113   1.665  12.585  0.2974 -0.0498  0.4460
 7611SOL    HW234470   0.013   1.577  12.664  0.4847  0.8342  0.2561
 7612SOL     OW34471   2.845   3.371  16.442 -0.2573 -0.3986 -0.5255
 7612SOL    HW134472   2.826   3.290  16.489  1.6664  0.1764  1.2203
 7612SOL    HW234473   2.852   3.430  16.517  1.9344 -0.7512 -0.4633
 7613SOL     OW34474   0.929   0.234   8.280 -0.3330 -0.1375 -0.1182
 7613SOL    HW134475   0.858   0.171   8.292  0.3941 -0.6882  1.3275
 7613SOL    HW234476   0.928   0.265   8.371  0.4536  1.8450 -0.7812
 7614SOL     OW34477   4.234   4.017   7.290 -0.0428  0.0292  0.4835
 7614SOL    HW134478   4.313   3.964   7.278  1.1068  1.6572  0.8553
 7614SOL    HW234479   4.220   3.989   7.381  0.4492  1.8976  1.1186
 7615SOL     OW34480   0.774   1.063   5.910  0.6830  0.3571  0.2572
 7615SOL    HW134481   0.768   1.137   5.850 -0.7847  0.3704  0.4259
 7615SOL    HW234482   0.867   1.070   5.934 -0.0797  2.6956  2.5401
 7616SOL     OW34483   1.168   1.177   3.343  0.2764  0.0650  0.0444
 7616SOL    HW134484   1.088   1.131   3.318  0.9464 -0.1206 -1.7052
 7616SOL    HW234485   1.232   1.139   3.284 -0.2079  0.7873 -0.9390
 7617SOL     OW34486   2.630   3.994   2.625 -0.1247  0.0587 -0.1648
 7617SOL    HW134487   2.713   3.956   2.654 -1.9248 -0.9756  3.7550
 7617SOL    HW234488   2.576   3.914   2.620 -0.3424  0.0376  2.5055
 7618SOL     OW34489   0.461   0.037  11.406 -0.2756 -0.1042  0.0712
 7618SOL    HW134490   0.437   4.694  11.460 -3.0563  1.5044  1.1227
 7618SOL    HW234491   0.476   0.095  11.480 -3.3079  2.7090 -1.5155
 7619SOL     OW34492   2.193   1.948   4.226  0.2206  0.8151  0.1812
 7619SOL    HW134493   2.197   1.983   4.137  1.3411  0.6779  0.1808
 7619SOL    HW234494   2.161   2.024   4.275 -1.9309 -0.1474  0.2923
 7620SOL     OW34495   1.362   3.364   8.192  0.6358  0.6327 -0.4878
 7620SOL    HW134496   1.295   3.309   8.234  0.7421 -0.0553 -1.2047
 7620SOL    HW234497   1.437   3.305   8.182  1.4802  1.7567 -0.7474
 7621SOL     OW34498   3.652   0.717   4.417  0.2243 -0.0767  0.1954
 7621SOL    HW134499   3.620   0.758   4.497 -1.7926 -1.3183  0.0350
 7621SOL    HW234500   3.638   0.625   4.441 -2.4905 -0.0470 -1.3033
 7622SOL     OW34501   0.426   0.363   8.736 -0.3141  0.9655  0.7015
 7622SOL    HW134502   0.374   0.373   8.816 -0.0929 -1.9728  1.1942
 7622SOL    HW234503   0.518   0.348   8.756  0.1472 -0.5717 -2.5426
 7623SOL     OW34504   2.742   0.584   8.633 -0.0675 -0.2609 -0.1066
 7623SOL    HW134505   2.708   0.531   8.705 -0.2895  0.9270  0.6584
 7623SOL    HW234506   2.742   0.522   8.560  0.6754 -2.0780  1.4501
 7624SOL     OW34507   1.213   0.886   2.863 -0.5820  0.2213 -0.1245
 7624SOL    HW134508   1.183   0.949   2.797  0.9060  1.1030  0.0446
 7624SOL    HW234509   1.154   0.812   2.848 -0.3114  0.1829 -0.9700
 7625SOL     OW34510   2.463   2.609  15.747 -0.8146 -0.0960  0.2955
 7625SOL    HW134511   2.458   2.692  15.699 -1.2218 -0.5886 -0.5080
 7625SOL    HW234512   2.549   2.571  15.730 -0.1664  1.4061  0.2462
 7626SOL     OW34513   4.251   2.194   9.657 -0.0669  0.3339  0.1122
 7626SOL    HW134514   4.161   2.227   9.664  0.2422  0.9434  1.1370
 7626SOL    HW234515   4.259   2.155   9.744  2.2649  2.3177  0.8068
 7627SOL     OW34516   3.705   4.709  11.394  0.2801 -0.2000  0.2968
 7627SOL    HW134517   3.717   4.658  11.475 -1.4131 -2.5249 -0.9417
 7627SOL    HW234518   3.774   4.674  11.338  1.2419  1.8804  0.1822
 7628SOL     OW34519   2.186   0.248   0.529 -0.3773  0.1973 -0.4286
 7628SOL    HW134520   2.270   0.278   0.494 -1.1776  0.1743 -2.3593
 7628SOL    HW234521   2.207   0.163   0.567 -1.9409  0.1259  0.2586
 7629SOL     OW34522   2.179   2.996  11.806  0.3065 -0.1005 -0.3443
 7629SOL    HW134523   2.183   2.905  11.835 -0.8185  0.2345  0.8740
 7629SOL    HW234524   2.088   2.993  11.779  0.1751  1.1420 -0.0469
 7630SOL     OW34525   1.577   2.396   2.209 -0.2659 -0.3550  0.1761
 7630SOL    HW134526   1.568   2.489   2.228  0.9242 -0.1951 -0.0505
 7630SOL    HW234527   1.662   2.377   2.249 -0.0595 -2.9671 -1.5070
 7631SOL     OW34528   2.112   3.864   2.463 -0.1687 -0.0990 -0.7390
 7631SOL    HW134529   2.017   3.867   2.460 -0.2221  0.7430  1.6400
 7631SOL    HW234530   2.149   3.817   2.389 -0.1411 -2.8881  1.0418
 7632SOL     OW34531   1.128   3.549   5.573  0.1245  0.5619  0.1925
 7632SOL    HW134532   1.054   3.603   5.600  0.8520  1.2495  0.8316
 7632SOL    HW234533   1.194   3.564   5.641 -0.9170  1.5674  0.9878
 7633SOL     OW34534   1.877   4.657  10.237 -0.0388  0.5665  0.7846
 7633SOL    HW134535   1.828   4.619  10.310 -0.3925 -1.6892 -0.6329
 7633SOL    HW234536   1.952   4.597  10.228 -1.9971 -1.9573  1.4902
 7634SOL     OW34537   0.360   1.844  12.150  0.4775 -0.7524  0.1145
 7634SOL    HW134538   0.428   1.825  12.215 -0.0488 -0.3265  0.7883
 7634SOL    HW234539   0.293   1.896  12.194  0.9080 -0.2838  0.2180
 7635SOL     OW34540   2.544   3.923  15.973  0.1334  0.1982  0.6279
 7635SOL    HW134541   2.530   3.840  15.926  2.9384  0.5386 -0.8224
 7635SOL    HW234542   2.503   3.983  15.911 -0.1770  0.0390  0.6787
 7636SOL     OW34543   3.166   2.722   3.757  0.7034  0.5936  0.4652
 7636SOL    HW134544   3.144   2.791   3.695  2.6026  1.7485  1.0463
 7636SOL    HW234545   3.258   2.718   3.730  0.6091  0.3765  0.1800
 7637SOL     OW34546   1.570   3.152   5.822  0.2886 -0.2520 -0.4312
 7637SOL    HW134547   1.659   3.132   5.851  0.4108  2.5002  1.0569
 7637SOL    HW234548   1.567   3.247   5.814 -2.3130 -0.3519 -0.6244
 7638SOL     OW34549   0.454   1.235   3.911  0.2920 -0.2252 -0.4045
 7638SOL    HW134550   0.498   1.209   3.831 -0.0189  1.5919 -1.1630
 7638SOL    HW234551   0.530   1.258   3.965  0.0487 -0.5122  0.0584
 7639SOL     OW34552   3.252   1.427  13.962  0.0891 -0.0233  0.1661
 7639SOL    HW134553   3.190   1.375  13.912 -1.8569  0.6550  1.8546
 7639SOL    HW234554   3.203   1.509  13.972  2.9565  1.7126 -0.0681
 7640SOL     OW34555   1.401   3.696  16.898 -0.0450 -0.0466  0.4474
 7640SOL    HW134556   1.376   3.767  16.957 -2.6154  0.5119 -1.2907
 7640SOL    HW234557   1.330   3.631  16.908 -0.5395  0.2992 -0.7920
 7641SOL     OW34558   3.511   2.296   6.104 -0.4042  0.7046  0.1328
 7641SOL    HW134559   3.498   2.325   6.194 -0.1414 -1.8297  0.9938
 7641SOL    HW234560   3.473   2.371   6.059 -1.1636 -1.0039 -2.0988
 7642SOL     OW34561   0.542   0.822  15.211  0.2141 -0.2067 -0.2134
 7642SOL    HW134562   0.593   0.773  15.147 -0.0220 -0.4333 -0.2275
 7642SOL    HW234563   0.473   0.762  15.240 -0.2420 -0.1503 -1.1765
 7643SOL     OW34564   0.401   0.076   3.767 -0.1968  0.1349  0.4314
 7643SOL    HW134565   0.337   0.004   3.767 -0.8965  0.7524 -0.2974
 7643SOL    HW234566   0.380   0.129   3.843 -0.9173  0.4327  0.0258
 7644SOL     OW34567   2.437   0.568   8.136 -0.4562  0.2884  0.2950
 7644SOL    HW134568   2.427   0.557   8.230 -0.9026 -0.7251  0.1237
 7644SOL    HW234569   2.348   0.574   8.103 -0.4101  1.8655  0.4473
 7645SOL     OW34570   2.418   0.209   4.311 -0.1329 -0.0851 -0.3390
 7645SOL    HW134571   2.353   0.217   4.381  0.4945  1.6802  0.0463
 7645SOL    HW234572   2.358   0.207   4.236  0.1309 -0.8682 -0.5303
 7646SOL     OW34573   2.604   3.986   4.037 -0.3549 -0.3424 -0.1969
 7646SOL    HW134574   2.635   3.952   3.953  1.5403 -1.4905  0.9538
 7646SOL    HW234575   2.650   4.069   4.054  2.1193 -1.5856 -0.7028
 7647SOL     OW34576   0.240   0.453   4.052 -0.0922  0.0761  0.3336
 7647SOL    HW134577   0.232   0.475   4.145 -1.6670 -0.6203  0.3570
 7647SOL    HW234578   0.265   0.534   4.007  0.3773  0.5384  1.4294
 7648SOL     OW34579   3.407   0.617  10.865 -0.3038 -0.1192 -0.4293
 7648SOL    HW134580   3.424   0.702  10.905 -0.3781 -0.4487  0.2960
 7648SOL    HW234581   3.318   0.607  10.898 -0.5779 -0.2254 -1.1956
 7649SOL     OW34582   3.354   0.290   7.653  0.6428 -0.6193 -0.1037
 7649SOL    HW134583   3.376   0.330   7.569 -0.0431 -0.9045 -0.4126
 7649SOL    HW234584   3.424   0.333   7.702  1.0998 -1.6246  0.1315
 7650SOL     OW34585   2.920   3.857   9.292 -0.3189  0.0654  0.4448
 7650SOL    HW134586   2.960   3.848   9.205  1.9785 -1.0576  1.6210
 7650SOL    HW234587   2.968   3.926   9.338 -0.4181 -0.5541  1.4667
 7651SOL     OW34588   3.892   4.576   6.293  0.0287 -0.0259 -0.3093
 7651SOL    HW134589   3.873   4.483   6.310 -0.8355  0.0770 -0.6882
 7651SOL    HW234590   3.901   4.569   6.198  0.8055 -2.6209 -0.0392
 7652SOL     OW34591   3.632   0.406  16.775 -0.2530 -0.6270 -0.2081
 7652SOL    HW134592   3.616   0.312  16.773  0.0825 -0.7059  0.7048
 7652SOL    HW234593   3.615   0.421  16.868 -0.0507  1.1867 -0.4506
 7653SOL     OW34594   0.009   3.713   0.178  0.4423  0.3288  0.0609
 7653SOL    HW134595   0.100   3.725   0.208  1.0273 -0.4477 -1.4172
 7653SOL    HW234596   4.730   3.800   0.140 -0.4358 -0.3579 -1.2059
 7654SOL     OW34597   0.956   3.555   3.053  0.2144 -0.3547  0.1493
 7654SOL    HW134598   0.947   3.552   3.149  0.8269 -0.2570  0.2102
 7654SOL    HW234599   0.906   3.477   3.029  0.9514 -0.9870  0.6506
 7655SOL     OW34600   1.112   3.043   8.487 -0.6640  0.0754  0.2171
 7655SOL    HW134601   1.094   2.976   8.553 -0.4656 -0.2091 -0.0140
 7655SOL    HW234602   1.025   3.049   8.447  0.0408  1.3668 -1.1028
 7656SOL     OW34603   3.586   3.607   5.277 -0.0707  0.0914  0.0511
 7656SOL    HW134604   3.565   3.669   5.347  0.4748  1.1642 -0.7218
 7656SOL    HW234605   3.499   3.570   5.267  0.2951 -0.8105  0.1820
 7657SOL     OW34606   3.711   4.142   5.433  0.0230  0.1069 -0.5961
 7657SOL    HW134607   3.620   4.168   5.445  0.3206  0.5834  0.6686
 7657SOL    HW234608   3.741   4.188   5.354  1.5367  1.2843  0.6622
 7658SOL     OW34609   1.582   2.609   2.680  0.3436 -0.4417 -0.0009
 7658SOL    HW134610   1.657   2.662   2.655  0.9985 -0.8219  1.1880
 7658SOL    HW234611   1.575   2.570   2.592 -2.4998  0.3891 -0.1474
 7659SOL     OW34612   3.967   1.059   0.070  0.3107 -0.1290 -0.0577
 7659SOL    HW134613   3.928   1.143   0.093 -1.6502 -0.5430 -1.9131
 7659SOL    HW234614   3.891   1.006   0.094 -0.3849  1.4676  1.2812
 7660SOL     OW34615   0.289   1.186   0.224 -0.3582  0.3500  0.0187
 7660SOL    HW134616   0.320   1.151   0.141 -0.4832 -2.3452  1.1201
 7660SOL    HW234617   0.201   1.148   0.232  0.5676 -1.2162  2.7628
 7661SOL     OW34618   3.189   4.372  14.332  0.1179 -0.3380 -0.0400
 7661SOL    HW134619   3.243   4.387  14.254  0.0802  1.9044  0.3559
 7661SOL    HW234620   3.256   4.396  14.396  0.0491  2.0209 -0.8429
 7662SOL     OW34621   2.569   3.307   2.910 -0.2188  0.3492 -0.3058
 7662SOL    HW134622   2.656   3.343   2.927 -0.4277  0.9229 -0.4355
 7662SOL    HW234623   2.521   3.388   2.890 -0.6257  0.2269  0.1771
 7663SOL     OW34624   3.715   2.955   7.549  0.6436 -0.3368  0.0978
 7663SOL    HW134625   3.755   2.868   7.559 -0.4962 -0.8033  0.6358
 7663SOL    HW234626   3.712   2.960   7.453 -0.6418  1.5280  0.2416
 7664SOL     OW34627   2.490   0.246   2.912 -0.5317  0.0880  0.3804
 7664SOL    HW134628   2.429   0.268   2.842  0.4227  1.5073 -0.0260
 7664SOL    HW234629   2.556   0.316   2.905  0.1748 -0.8732 -2.3264
 7665SOL     OW34630   3.882   0.202  13.340 -0.0277 -0.0098 -0.0086
 7665SOL    HW134631   3.919   0.162  13.261  0.2336  1.5624 -0.6842
 7665SOL    HW234632   3.818   0.138  13.370 -0.3688  0.2675 -0.1365
 7666SOL     OW34633   0.512   0.007  15.016 -0.1316  0.1996  0.5676
 7666SOL    HW134634   0.533   4.651  14.990 -0.0112  1.1582 -2.6727
 7666SOL    HW234635   0.426   0.012  14.974  0.1187 -0.9009 -0.0642
 7667SOL     OW34636   4.692   4.607   4.321  0.1556  0.2320 -0.3093
 7667SOL    HW134637   4.633   4.633   4.250 -0.7499  2.4880  1.2581
 7667SOL    HW234638   4.630   4.606   4.394  1.2131  1.8177  0.6021
 7668SOL     OW34639   0.584   1.614   7.592  0.2875 -0.6669  0.6066
 7668SOL    HW134640   0.646   1.627   7.664  0.3415 -1.7921  0.7608
 7668SOL    HW234641   0.612   1.537   7.542  0.5810 -0.1916  0.0284
 7669SOL     OW34642   0.888   0.178   0.641 -0.2580  0.5218 -0.6622
 7669SOL    HW134643   0.869   0.265   0.675 -1.1067 -0.1890  0.6842
 7669SOL    HW234644   0.825   0.127   0.691 -1.3262 -2.1692 -4.7600
 7670SOL     OW34645   1.329   1.605  11.230  0.7509 -0.3505 -0.0221
 7670SOL    HW134646   1.247   1.557  11.217  0.5092  0.5192 -1.7156
 7670SOL    HW234647   1.336   1.588  11.324 -0.3937 -2.6051 -0.3250
 7671SOL     OW34648   4.214   1.897  12.817 -0.2857 -0.1697 -0.0612
 7671SOL    HW134649   4.172   1.829  12.764  2.3985 -0.0496 -2.3267
 7671SOL    HW234650   4.307   1.875  12.815 -0.7953 -2.1625 -1.9829
 7672SOL     OW34651   3.561   0.709   0.095  0.1214 -0.1002 -0.9096
 7672SOL    HW134652   3.521   0.624   0.079  0.8522 -0.8773  1.4422
 7672SOL    HW234653   3.562   0.700   0.190 -0.9776 -0.0043 -0.8920
 7673SOL     OW34654   2.721   3.969   4.350 -0.2460  0.0734 -0.6755
 7673SOL    HW134655   2.754   4.004   4.432  1.3911  0.5988 -1.5651
 7673SOL    HW234656   2.643   4.025   4.345  0.3245  0.7176 -2.3947
 7674SOL     OW34657   2.153   4.141  11.317  0.0291  0.5292 -0.4239
 7674SOL    HW134658   2.129   4.220  11.268 -0.3009  0.6962  0.0109
 7674SOL    HW234659   2.247   4.148  11.300 -0.0060  2.1721  0.1101
 7675SOL     OW34660   4.048   1.511   4.873 -0.9949  0.0860 -0.0305
 7675SOL    HW134661   4.139   1.520   4.902 -0.5863  0.1345 -1.3007
 7675SOL    HW234662   4.039   1.416   4.863 -0.6660 -0.0746  1.2278
 7676SOL     OW34663   3.119   2.344   8.618  0.5390  0.1128 -0.5134
 7676SOL    HW134664   3.120   2.423   8.672  0.5982  0.7592 -1.4597
 7676SOL    HW234665   3.209   2.324   8.593  0.9786  0.2463  0.9478
 7677SOL     OW34666   3.239   4.702   3.447 -0.2371  0.4884 -0.7208
 7677SOL    HW134667   3.303   4.709   3.518  1.8689  0.2999 -2.6169
 7677SOL    HW234668   3.282   4.639   3.391  0.9806  1.9229 -1.3939
 7678SOL     OW34669   1.906   0.067  11.314 -0.1079  0.1784  0.2213
 7678SOL    HW134670   1.939   0.145  11.270 -0.0511 -0.6581 -1.2488
 7678SOL    HW234671   1.871   0.101  11.396 -0.6100 -1.4988  0.7154
 7679SOL     OW34672   1.588   3.421   5.765 -0.0185  0.1011  0.3848
 7679SOL    HW134673   1.520   3.485   5.743 -0.2409 -0.4834 -0.6132
 7679SOL    HW234674   1.661   3.456   5.713 -1.3447  1.3168 -0.6373
 7680SOL     OW34675   3.186   1.378  14.242  0.1483 -0.1449  0.0283
 7680SOL    HW134676   3.245   1.367  14.168  1.2225  0.6130  0.7653
 7680SOL    HW234677   3.146   1.291  14.243  3.1395 -1.5439 -0.4586
 7681SOL     OW34678   2.255   3.644  13.418  0.4031 -0.1675 -0.2112
 7681SOL    HW134679   2.283   3.553  13.419  1.3577  0.1351  1.1153
 7681SOL    HW234680   2.176   3.632  13.366 -0.6599  2.4116  0.7811
 7682SOL     OW34681   4.362   3.730   4.695  1.0051  0.3341  0.5227
 7682SOL    HW134682   4.361   3.716   4.790 -0.2080 -0.0675  0.4544
 7682SOL    HW234683   4.387   3.822   4.705 -2.2585  1.3853 -0.9702
 7683SOL     OW34684   1.596   0.096  14.790 -0.4320  0.3537 -0.0007
 7683SOL    HW134685   1.681   0.130  14.761  1.0832 -1.1298  2.7276
 7683SOL    HW234686   1.615   0.007  14.818 -0.6641  0.0708 -0.7376
 7684SOL     OW34687   2.506   3.746   2.310 -0.2847 -0.6321  0.2742
 7684SOL    HW134688   2.488   3.740   2.403  1.8517  0.2020  0.7430
 7684SOL    HW234689   2.600   3.768   2.313 -0.4067 -0.1843  0.7460
 7685SOL     OW34690   0.152   1.999  17.300  0.1698 -0.7761  0.0752
 7685SOL    HW134691   0.179   2.028  17.387  2.0887  2.7369 -1.6867
 7685SOL    HW234692   0.221   1.935  17.284  0.0969 -1.2045  1.4223
 7686SOL     OW34693   3.908   2.702  11.638 -0.2866  0.0600 -0.2435
 7686SOL    HW134694   3.858   2.667  11.712  1.3855  2.1524  1.8407
 7686SOL    HW234695   3.850   2.773  11.610 -0.2154 -0.5140 -1.8695
 7687SOL     OW34696   4.055   4.252   8.143  0.6537  0.2448 -0.4039
 7687SOL    HW134697   4.004   4.212   8.072  0.1863  0.9775 -0.4836
 7687SOL    HW234698   4.089   4.174   8.188  2.3606  0.3261 -1.5962
 7688SOL     OW34699   4.147   1.502   7.618 -0.0922  0.0189  0.1523
 7688SOL    HW134700   4.111   1.569   7.676 -0.1382 -0.7921  1.0643
 7688SOL    HW234701   4.156   1.430   7.681 -0.4681  2.9458  3.5328
 7689SOL     OW34702   3.849   3.255   3.289 -0.4291  0.3545  0.1142
 7689SOL    HW134703   3.813   3.168   3.309 -0.4838  0.4752  0.5374
 7689SOL    HW234704   3.929   3.245   3.238 -0.0033 -0.1083  0.8985
 7690SOL     OW34705   0.902   3.211   9.520 -0.2994  0.0247  0.0994
 7690SOL    HW134706   0.977   3.152   9.524 -0.7642 -0.4377  2.0269
 7690SOL    HW234707   0.937   3.299   9.530  1.7155 -0.5928 -1.5601
 7691SOL     OW34708   1.231   3.053   8.974 -0.0592 -0.0359 -0.3557
 7691SOL    HW134709   1.279   2.970   8.964 -0.2507 -0.4313  2.0244
 7691SOL    HW234710   1.305   3.114   8.973  0.6452 -0.8660  0.6217
 7692SOL     OW34711   4.121   3.844   3.810 -0.2114 -0.8203 -0.1067
 7692SOL    HW134712   4.085   3.796   3.885  0.8971 -0.8093  0.4341
 7692SOL    HW234713   4.040   3.851   3.760 -0.3350 -0.5033  0.1301
 7693SOL     OW34714   4.548   1.565  16.739 -0.2275 -0.6725  0.5843
 7693SOL    HW134715   4.534   1.470  16.732 -0.8393 -0.5677  0.3562
 7693SOL    HW234716   4.458   1.598  16.739 -0.3807 -1.0834  0.4541
 7694SOL     OW34717   1.027   1.611   2.638  0.5860 -0.0084 -0.2580
 7694SOL    HW134718   1.117   1.623   2.668 -0.3218  0.2756  2.3318
 7694SOL    HW234719   1.006   1.703   2.622  1.0868  0.1897  0.2251
 7695SOL     OW34720   1.338   3.413   6.364 -0.4168  0.1606 -0.6093
 7695SOL    HW134721   1.419   3.443   6.406 -0.2167 -0.3679 -0.6173
 7695SOL    HW234722   1.346   3.320   6.342  0.1751 -0.4978  2.2931
 7696SOL     OW34723   3.566   4.376   1.049  0.3902 -0.1154 -0.3123
 7696SOL    HW134724   3.604   4.308   0.993  1.2707  1.5287 -1.6834
 7696SOL    HW234725   3.602   4.355   1.136 -1.0082 -2.7025 -0.3483
 7697SOL     OW34726   4.723   2.730  14.309  0.6878 -0.2666  0.4457
 7697SOL    HW134727   0.035   2.652  14.278  0.6683  0.3183 -1.0751
 7697SOL    HW234728   4.638   2.711  14.269  0.2462 -2.0671  2.2308
 7698SOL     OW34729   4.226   3.578  10.456 -0.2631  0.1061 -0.0832
 7698SOL    HW134730   4.139   3.602  10.425 -0.0852 -0.2027 -0.8227
 7698SOL    HW234731   4.246   3.512  10.390 -1.9651  2.2740 -2.7537
 7699SOL     OW34732   3.140   0.148  15.905 -0.0400  0.4124  0.1839
 7699SOL    HW134733   3.116   0.240  15.899  0.5076  0.5259 -0.2458
 7699SOL    HW234734   3.210   0.142  15.970 -1.0249 -2.2207  1.0050
 7700SOL     OW34735   0.665   1.004  16.415 -0.7473 -0.2843 -0.3558
 7700SOL    HW134736   0.598   1.046  16.360  0.4607  0.4428 -1.2738
 7700SOL    HW234737   0.656   0.910  16.399 -0.0758 -0.5804  1.0556
 7701SOL     OW34738   0.835   2.435   8.361  0.4276  0.2858 -0.2775
 7701SOL    HW134739   0.788   2.488   8.426  1.4103 -0.1394  0.7809
 7701SOL    HW234740   0.807   2.480   8.281 -0.0234 -0.5930 -0.6081
 7702SOL     OW34741   1.941   0.437   5.549  0.3297 -0.5183 -0.0428
 7702SOL    HW134742   1.920   0.505   5.613  0.6544 -1.2824  0.8791
 7702SOL    HW234743   1.985   0.488   5.481 -0.1981 -0.4330 -0.3199
 7703SOL     OW34744   2.444   1.202   4.731  0.0998 -0.1512  0.6609
 7703SOL    HW134745   2.450   1.241   4.644  0.0909 -0.2715  0.6052
 7703SOL    HW234746   2.349   1.195   4.737  0.0905  0.2464  0.9378
 7704SOL     OW34747   0.342   3.829   4.516 -0.1551  0.0064  0.0826
 7704SOL    HW134748   0.317   3.740   4.541  0.3827  0.5015  2.3403
 7704SOL    HW234749   0.267   3.886   4.533 -0.7646 -0.7716 -0.0077
 7705SOL     OW34750   3.361   2.264   3.165 -0.4990  0.1880  0.1392
 7705SOL    HW134751   3.443   2.218   3.145 -0.5450  1.3256 -2.7355
 7705SOL    HW234752   3.305   2.219   3.102  0.5869  0.5144 -1.0807
 7706SOL     OW34753   0.393   3.847   2.497  0.0811  0.0776 -0.0614
 7706SOL    HW134754   0.305   3.854   2.533 -0.3388 -2.8019 -0.5184
 7706SOL    HW234755   0.451   3.862   2.572  0.0707  1.2618 -0.2841
 7707SOL     OW34756   0.920   4.015   8.814 -0.1318 -0.3616  0.4092
 7707SOL    HW134757   0.958   4.101   8.797  0.2641 -0.4932  0.6254
 7707SOL    HW234758   0.969   3.973   8.886 -0.4994  0.6795  1.2619
 7708SOL     OW34759   3.438   0.731   6.027  0.4111 -0.1727 -0.3279
 7708SOL    HW134760   3.465   0.650   6.070 -0.9741  0.7736  2.3212
 7708SOL    HW234761   3.401   0.784   6.097  0.7893  0.9432 -0.9653
 7709SOL     OW34762   2.158   2.075   7.464 -0.0007  0.5495  0.7142
 7709SOL    HW134763   2.074   2.077   7.509 -0.1242  0.1912  0.5009
 7709SOL    HW234764   2.140   2.005   7.401  3.1257 -0.3454  0.8256
 7710SOL     OW34765   0.155   2.669   6.564 -0.0688  0.2011  0.0983
 7710SOL    HW134766   0.148   2.575   6.547 -0.3049  0.5170 -1.4751
 7710SOL    HW234767   0.242   2.678   6.526  0.1740  1.1973  0.8893
 7711SOL     OW34768   0.486   2.739   4.541 -0.0019  0.2945  0.0778
 7711SOL    HW134769   0.439   2.820   4.519 -0.1781  0.1027 -0.2432
 7711SOL    HW234770   0.433   2.729   4.619  0.3394  0.3450  0.3143
 7712SOL     OW34771   1.156   1.918   5.482 -0.0595 -0.2458 -0.1154
 7712SOL    HW134772   1.072   1.889   5.519  0.0512 -0.1493  0.2144
 7712SOL    HW234773   1.119   1.969   5.410 -1.4726  0.7049  1.2795
 7713SOL     OW34774   2.701   3.542   4.604 -0.5115  0.0951  0.1030
 7713SOL    HW134775   2.749   3.463   4.579 -0.4056 -0.2385  1.4012
 7713SOL    HW234776   2.750   3.617   4.569  0.7050 -0.6472  0.1882
 7714SOL     OW34777   4.466   4.206  16.106 -0.5395  0.1586  0.2711
 7714SOL    HW134778   4.542   4.260  16.128  0.5001  0.0915 -3.1260
 7714SOL    HW234779   4.457   4.151  16.184 -0.7088 -0.9286 -0.5085
 7715SOL     OW34780   0.118   0.872  10.635 -0.3596 -0.0187 -0.1561
 7715SOL    HW134781   0.212   0.871  10.616  0.0730 -3.1935  2.1256
 7715SOL    HW234782   0.083   0.900  10.550  1.7434 -1.0786 -1.3802
 7716SOL     OW34783   1.274   3.785   8.389  0.4231  0.0607 -0.3867
 7716SOL    HW134784   1.252   3.821   8.303 -2.2793  0.7333  0.5755
 7716SOL    HW234785   1.227   3.849   8.442 -2.7524  0.2035 -3.3038
 7717SOL     OW34786   1.548   4.362  15.710 -0.2958  0.3303 -0.2237
 7717SOL    HW134787   1.587   4.328  15.790  0.2205  0.2319 -0.5187
 7717SOL    HW234788   1.569   4.288  15.653  1.9676 -0.6078  1.8566
 7718SOL     OW34789   1.999   4.605   2.265 -0.4109 -0.0471 -0.0538
 7718SOL    HW134790   1.964   4.641   2.183 -2.6210  1.1438  1.4220
 7718SOL    HW234791   2.000   4.690   2.309 -1.0593 -0.2528  0.3556
 7719SOL     OW34792   0.209   1.516   8.079 -0.3413 -0.8452  0.2767
 7719SOL    HW134793   0.231   1.462   8.004 -1.5186 -0.9341 -0.0022
 7719SOL    HW234794   0.279   1.484   8.136  1.6312  1.0795 -1.0634
 7720SOL     OW34795   3.795   2.255   2.007  0.5465 -0.6782  0.1687
 7720SOL    HW134796   3.794   2.170   2.051  0.7522  0.3006  2.0813
 7720SOL    HW234797   3.701   2.270   2.006  0.1427 -3.2271 -0.5986
 7721SOL     OW34798   1.995   2.797   8.385 -0.0975  0.7932 -0.3043
 7721SOL    HW134799   1.987   2.754   8.300 -1.9941 -2.0364  1.3124
 7721SOL    HW234800   2.090   2.806   8.397  0.1246 -0.9678 -0.8760
 7722SOL     OW34801   3.241   4.723   6.186  0.2226  0.8025 -0.0783
 7722SOL    HW134802   3.224   4.698   6.095  0.1872 -1.4382  0.5332
 7722SOL    HW234803   3.305   0.060   6.173 -0.8254  1.4203 -1.9588
 7723SOL     OW34804   3.049   3.527  16.773 -0.4365  0.4107 -0.7888
 7723SOL    HW134805   3.130   3.541  16.725 -0.1802 -0.4684 -0.6139
 7723SOL    HW234806   3.048   3.434  16.795  2.5319  0.3819 -0.7094
 7724SOL     OW34807   2.484   4.061   3.696  0.0198 -0.1064 -0.1164
 7724SOL    HW134808   2.399   4.076   3.653 -0.2603  1.7962  1.0797
 7724SOL    HW234809   2.487   3.970   3.726  2.3601 -0.6399 -1.9715
 7725SOL     OW34810   4.435   0.779   7.824 -0.1693  0.0326 -1.1861
 7725SOL    HW134811   4.386   0.733   7.893  0.6710 -1.2853 -1.4674
 7725SOL    HW234812   4.371   0.796   7.755 -1.4405 -0.8301 -0.2128
 7726SOL     OW34813   4.034   0.824   5.749  0.5474  0.4486  0.1740
 7726SOL    HW134814   4.062   0.868   5.669 -0.2480 -0.2135 -0.4629
 7726SOL    HW234815   4.024   0.899   5.808  1.2412  1.3653 -0.8825
 7727SOL     OW34816   2.900   0.278   2.052  0.3032 -0.1002 -0.0268
 7727SOL    HW134817   2.896   0.198   2.000  0.1822  2.3660 -3.7707
 7727SOL    HW234818   2.995   0.281   2.063  0.4903 -2.4181 -1.0341
 7728SOL     OW34819   1.811   1.496  10.088  0.5879 -0.4501 -0.5609
 7728SOL    HW134820   1.832   1.406  10.065  0.1513 -0.2027 -1.9258
 7728SOL    HW234821   1.729   1.481  10.135  0.8477  0.2168  0.1050
 7729SOL     OW34822   1.771   0.283   4.059 -0.2554 -0.0811  0.5117
 7729SOL    HW134823   1.831   0.231   4.004  1.7173  0.3290  2.3007
 7729SOL    HW234824   1.813   0.277   4.145 -0.1234  1.4968  0.5472
 7730SOL     OW34825   0.834   1.695   8.946  0.4386  0.1633  0.1516
 7730SOL    HW134826   0.738   1.695   8.944  0.4172  0.5476  1.1119
 7730SOL    HW234827   0.843   1.727   9.036 -0.2479 -1.5016  0.8073
 7731SOL     OW34828   4.626   0.893  15.048  0.2696 -0.0753  0.0852
 7731SOL    HW134829   4.601   0.920  15.136  1.9407 -0.2950  0.6267
 7731SOL    HW234830   4.708   0.941  15.046  1.6763 -2.5475 -1.5375
 7732SOL     OW34831   0.701   2.288   3.550  0.0606  0.3042  0.1608
 7732SOL    HW134832   0.754   2.363   3.576 -1.7907  1.7020 -0.1899
 7732SOL    HW234833   0.627   2.332   3.510  0.9752  0.7888 -0.9947
 7733SOL     OW34834   0.731   2.303   5.907  0.3798 -0.2547 -0.0973
 7733SOL    HW134835   0.711   2.395   5.891  0.0336 -0.6138 -1.7136
 7733SOL    HW234836   0.660   2.250   5.871 -1.8612  1.5300  1.7298
 7734SOL     OW34837   3.821   0.118   7.559  0.5107  0.4828 -0.3671
 7734SOL    HW134838   3.802   0.089   7.648  0.4295 -0.7266 -0.7686
 7734SOL    HW234839   3.736   0.100   7.519  0.4930  0.3330 -0.2606
 7735SOL     OW34840   2.649   3.828   6.711  0.2011 -0.2219  0.2450
 7735SOL    HW134841   2.648   3.747   6.762 -1.5263 -1.0931 -1.1454
 7735SOL    HW234842   2.563   3.864   6.733  0.6943  1.3490 -0.4072
 7736SOL     OW34843   4.057   0.652   2.580 -0.5731 -0.8444  0.1184
 7736SOL    HW134844   4.047   0.671   2.674  1.2384  0.0437  0.1388
 7736SOL    HW234845   3.980   0.684   2.532 -1.5053 -0.2169  2.0095
 7737SOL     OW34846   0.433   4.388  14.935 -0.1692 -0.0851 -0.2734
 7737SOL    HW134847   0.525   4.415  14.935  0.0163 -0.7264 -1.1461
 7737SOL    HW234848   0.412   4.402  15.028 -0.4394 -2.0207 -0.0562
 7738SOL     OW34849   1.720   2.210   3.398  0.2921  0.3412 -0.0158
 7738SOL    HW134850   1.772   2.223   3.318 -1.2411 -0.8354 -1.2119
 7738SOL    HW234851   1.678   2.295   3.412  1.3192  0.9341 -0.4907
 7739SOL     OW34852   3.645   1.428   7.591  0.1307 -0.8105  0.5572
 7739SOL    HW134853   3.693   1.481   7.655  1.5331  0.8751 -1.8984
 7739SOL    HW234854   3.712   1.378   7.544  1.5466 -0.2291  1.9510
 7740SOL     OW34855   1.982   3.483  14.134 -0.1108 -0.3999  0.1311
 7740SOL    HW134856   2.000   3.397  14.173 -1.3401  0.1753  1.9529
 7740SOL    HW234857   1.987   3.458  14.042 -0.4786 -0.5235  0.1426
 7741SOL     OW34858   1.037   3.171   2.238 -0.2804 -0.0311 -0.2365
 7741SOL    HW134859   1.022   3.080   2.264  2.9180 -0.4504  0.2060
 7741SOL    HW234860   1.002   3.167   2.149  3.4089  2.4392 -1.8220
 7742SOL     OW34861   4.405   4.211   4.010 -0.0774  0.5654 -0.7630
 7742SOL    HW134862   4.388   4.164   4.092 -0.4288  3.5911  0.9003
 7742SOL    HW234863   4.330   4.172   3.965 -0.0674 -0.6178  0.2288
 7743SOL     OW34864   3.685   0.885  14.749  0.3064  0.5512  1.0596
 7743SOL    HW134865   3.619   0.953  14.737  1.7143  2.0492  1.7739
 7743SOL    HW234866   3.638   0.816  14.797 -2.0702  0.9882 -0.6519
 7744SOL     OW34867   4.293   3.594   2.495 -0.4705  0.1992 -0.1961
 7744SOL    HW134868   4.315   3.664   2.434 -1.1730  0.5438 -0.0550
 7744SOL    HW234869   4.358   3.527   2.475  1.4299  1.9062  0.3433
 7745SOL     OW34870   0.657   1.214   6.875 -0.1526  0.0724  0.2473
 7745SOL    HW134871   0.700   1.141   6.920  0.3082  0.6534  0.7458
 7745SOL    HW234872   0.721   1.284   6.886  0.0565  0.2460 -2.1845
 7746SOL     OW34873   3.999   3.552   5.588  0.2028 -0.4463  0.6675
 7746SOL    HW134874   3.973   3.603   5.512 -0.3123  0.9732  1.7932
 7746SOL    HW234875   4.094   3.554   5.578  0.1110  1.0900  0.0861
 7747SOL     OW34876   0.049   4.608   8.203 -0.2205  0.5385  0.0610
 7747SOL    HW134877   0.093   4.524   8.219 -0.7020  0.1946 -0.4336
 7747SOL    HW234878   0.120   4.668   8.181  0.2307  0.2355  0.7032
 7748SOL     OW34879   2.638   0.750   7.391  0.2050 -0.4712  0.0899
 7748SOL    HW134880   2.705   0.818   7.387  2.2664 -2.4215  1.0939
 7748SOL    HW234881   2.598   0.752   7.304 -0.4192 -0.8510  0.3726
 7749SOL     OW34882   0.487   3.774   7.156  0.0326  0.7814 -0.1486
 7749SOL    HW134883   0.490   3.834   7.230 -1.4143 -1.0702  1.4197
 7749SOL    HW234884   0.433   3.701   7.187  0.4493  0.8609  0.7580
 7750SOL     OW34885   4.253   3.197   3.075 -0.5601  0.4983 -0.6143
 7750SOL    HW134886   4.270   3.209   2.981  0.5826  0.5470 -0.3925
 7750SOL    HW234887   4.159   3.181   3.064 -0.6593  1.5080 -1.2173
 7751SOL     OW34888   4.073   1.986   5.618 -0.7646 -0.0227 -0.3987
 7751SOL    HW134889   3.998   1.936   5.585  0.3837 -2.1549  0.2678
 7751SOL    HW234890   4.040   2.074   5.636  1.2485  0.9301 -1.3901
 7752SOL     OW34891   3.040   4.193   3.530 -0.1416  0.5163  0.2886
 7752SOL    HW134892   3.091   4.274   3.523  0.1946  0.3437  0.7158
 7752SOL    HW234893   2.973   4.213   3.465 -0.3482  1.7385  0.8763
 7753SOL     OW34894   0.410   4.345   9.268  0.3269  0.1100  0.5010
 7753SOL    HW134895   0.382   4.298   9.347  0.9039 -0.4371  0.3806
 7753SOL    HW234896   0.494   4.307   9.242 -0.9050 -2.1595 -0.2019
 7754SOL     OW34897   4.011   4.675  10.113  1.2759  0.4788  0.4809
 7754SOL    HW134898   4.007   4.584  10.082  0.9734  0.0813  1.6744
 7754SOL    HW234899   3.951   4.723  10.055  0.2012 -3.4708 -1.6659
 7755SOL     OW34900   1.084   4.416   4.629 -0.0909  0.6815  0.2230
 7755SOL    HW134901   1.113   4.388   4.543  3.1352  1.2181  1.1548
 7755SOL    HW234902   1.138   4.363   4.688 -0.5300  1.7494  1.5986
 7756SOL     OW34903   2.914   0.200   5.015  0.2967  0.1729  0.0304
 7756SOL    HW134904   2.818   0.195   5.014  0.2202  1.7430 -0.8115
 7756SOL    HW234905   2.931   0.193   4.921 -0.2550 -1.3214  0.0391
 7757SOL     OW34906   4.119   0.547   1.102  0.3640 -0.0509  0.3571
 7757SOL    HW134907   4.154   0.521   1.017  0.0772  1.0012 -0.0918
 7757SOL    HW234908   4.135   0.464   1.147 -0.4640 -1.0952 -1.2796
 7758SOL     OW34909   2.395   4.173  14.877  0.2434  0.3961 -0.4680
 7758SOL    HW134910   2.423   4.227  14.803  0.7261 -0.8443 -1.1811
 7758SOL    HW234911   2.389   4.091  14.829  0.3543  0.0214  0.1646
 7759SOL     OW34912   3.255   1.442   1.632  0.3672  0.2545  0.4966
 7759SOL    HW134913   3.314   1.467   1.704  1.1059 -0.0508  0.0039
 7759SOL    HW234914   3.322   1.437   1.564 -0.5205  1.2214 -0.4343
 7760SOL     OW34915   0.976   2.066   5.025  0.4361  0.3605 -0.6569
 7760SOL    HW134916   0.972   2.148   4.975 -2.2001  0.6986  0.0958
 7760SOL    HW234917   1.065   2.041   5.001 -0.4383 -0.2395 -3.2213
 7761SOL     OW34918   1.284   0.360   6.568 -0.2739 -0.4094  0.0196
 7761SOL    HW134919   1.242   0.430   6.618 -1.8259 -0.5310 -1.1203
 7761SOL    HW234920   1.320   0.315   6.645  1.9695  0.5386 -0.4982
 7762SOL     OW34921   2.424   2.498   7.230  0.0083 -0.8023 -0.0890
 7762SOL    HW134922   2.517   2.522   7.235 -0.3358  1.2682 -3.5066
 7762SOL    HW234923   2.387   2.533   7.311  0.7990  0.8085 -0.4239
 7763SOL     OW34924   4.063   0.455   9.053 -0.0365 -0.0890 -0.5664
 7763SOL    HW134925   4.068   0.389   9.123  2.6030 -0.6967 -1.3247
 7763SOL    HW234926   4.010   0.524   9.092 -0.0417 -1.1516  1.3317
 7764SOL     OW34927   0.657   2.576  14.847 -0.0120  0.4368  0.3852
 7764SOL    HW134928   0.637   2.554  14.938 -1.3191  2.5734  0.6270
 7764SOL    HW234929   0.687   2.489  14.822 -2.4173  0.1370 -1.4799
 7765SOL     OW34930   1.209   2.921   3.007  0.3938  0.1330 -0.3419
 7765SOL    HW134931   1.195   2.854   3.074  0.6988  0.0065 -0.4094
 7765SOL    HW234932   1.280   2.876   2.961 -0.8381 -3.5669  1.4039
 7766SOL     OW34933   2.292   4.083   9.063 -0.1599  0.0773  0.6359
 7766SOL    HW134934   2.255   4.088   8.975  1.6338  1.2523 -0.0582
 7766SOL    HW234935   2.251   4.001   9.090 -1.9917  1.0583  0.8239
 7767SOL     OW34936   2.725   2.163   8.438 -0.0281  0.0200  0.2096
 7767SOL    HW134937   2.773   2.245   8.435 -2.1084  1.1735 -1.1802
 7767SOL    HW234938   2.636   2.194   8.457  0.0007 -1.1143  2.2419
 7768SOL     OW34939   4.432   0.995  12.352  0.8276 -0.2682  0.0554
 7768SOL    HW134940   4.349   0.950  12.368  0.1381  0.4501 -1.4729
 7768SOL    HW234941   4.451   1.013  12.444  0.2108 -0.1527  0.1589
 7769SOL     OW34942   1.444   4.146  11.455  0.2543  0.5529 -0.1078
 7769SOL    HW134943   1.482   4.231  11.434  1.8757 -0.2828 -0.5049
 7769SOL    HW234944   1.352   4.167  11.474 -0.1627 -1.3378 -0.0541
 7770SOL     OW34945   3.664   1.064   7.771 -0.2656  0.2423  0.6881
 7770SOL    HW134946   3.736   1.117   7.735  0.2724 -2.7289 -2.6847
 7770SOL    HW234947   3.712   0.989   7.806  0.6305  0.4621 -0.0538
 7771SOL     OW34948   3.852   4.397  16.318 -0.0845  0.3548 -0.1521
 7771SOL    HW134949   3.809   4.444  16.247  2.1644  1.1119 -1.0360
 7771SOL    HW234950   3.934   4.367  16.278  1.3051  2.3392  1.2448
 7772SOL     OW34951   4.575   4.064  10.154  1.0594 -0.7461 -0.9964
 7772SOL    HW134952   4.538   4.014  10.227  2.8281  0.0463  0.4289
 7772SOL    HW234953   4.622   4.133  10.200 -0.5773 -1.0663  1.1189
 7773SOL     OW34954   2.079   2.471  12.332  0.6669  0.3275  0.1574
 7773SOL    HW134955   2.037   2.524  12.399  2.2559  0.6292  0.9186
 7773SOL    HW234956   2.164   2.465  12.376  0.6558 -1.6927 -0.0631
 7774SOL     OW34957   3.951   0.903   1.875  0.1467 -0.0450 -0.4927
 7774SOL    HW134958   4.044   0.922   1.879  0.1483 -0.3362  0.8345
 7774SOL    HW234959   3.966   0.826   1.820  0.9738  0.0672 -0.4126
 7775SOL     OW34960   4.426   0.520   2.648  0.0042  0.1011 -0.3791
 7775SOL    HW134961   4.510   0.501   2.690 -0.8512 -0.9041  0.8437
 7775SOL    HW234962   4.393   0.593   2.700 -2.0938  0.4875 -2.2064
 7776SOL     OW34963   2.086   2.464   9.443  0.7691  0.0295  0.0033
 7776SOL    HW134964   2.153   2.533   9.439  3.9587 -3.2303 -2.2286
 7776SOL    HW234965   2.007   2.518   9.451 -0.2112 -1.7799  2.3769
 7777SOL     OW34966   1.669   3.850   5.623  0.5558  0.6336 -0.1625
 7777SOL    HW134967   1.612   3.925   5.639 -0.3446 -0.5994  2.4350
 7777SOL    HW234968   1.709   3.832   5.708  0.6520 -0.2397 -0.3915
 7778SOL     OW34969   0.889   3.338   7.699  0.3473  0.5735 -0.5853
 7778SOL    HW134970   0.828   3.380   7.638 -0.0087  1.7532  0.5784
 7778SOL    HW234971   0.844   3.360   7.780  1.1761 -0.4226  0.1345
 7779SOL     OW34972   3.563   1.980   8.943  0.7189  0.2349  0.6087
 7779SOL    HW134973   3.559   1.977   8.847  0.3045  1.4524  0.5839
 7779SOL    HW234974   3.473   1.955   8.965 -0.0239  1.7460 -0.6896
 7780SOL     OW34975   3.975   1.057   5.899 -0.2712  0.7949 -0.1810
 7780SOL    HW134976   4.056   1.071   5.949 -0.0445  1.8157 -0.8165
 7780SOL    HW234977   3.984   1.123   5.830  1.6918 -0.1177 -0.7956
 7781SOL     OW34978   4.177   4.561  15.341  0.0682 -0.0634 -0.5652
 7781SOL    HW134979   4.219   4.546  15.257 -1.6426 -0.0732 -1.4375
 7781SOL    HW234980   4.143   4.472  15.348 -1.4733  0.7576  2.2976
 7782SOL     OW34981   3.088   1.422   4.701 -0.0947  0.5587 -0.4411
 7782SOL    HW134982   3.071   1.343   4.753 -2.3057 -1.1920 -3.7577
 7782SOL    HW234983   3.100   1.476   4.778  0.1098 -1.6460  1.0802
 7783SOL     OW34984   3.150   0.734  12.395  0.3089  0.0967 -0.0609
 7783SOL    HW134985   3.113   0.799  12.454 -0.1387 -1.3758  1.2818
 7783SOL    HW234986   3.068   0.694  12.366 -0.2662  0.9447  0.4158
 7784SOL     OW34987   4.418   4.368   6.934 -0.5761  0.1080  0.2176
 7784SOL    HW134988   4.369   4.333   7.008  1.6837 -1.7179  0.8892
 7784SOL    HW234989   4.396   4.460   6.924  0.4783  0.4197  0.7895
 7785SOL     OW34990   4.437   2.059   6.534  0.7167 -0.4812 -0.7120
 7785SOL    HW134991   4.531   2.050   6.517  0.4872 -2.3887 -0.9952
 7785SOL    HW234992   4.424   1.973   6.575 -0.2720  0.0261  0.0167
 7786SOL     OW34993   4.416   3.696  11.882  0.2227 -0.4270 -0.1783
 7786SOL    HW134994   4.503   3.708  11.843  0.3841 -0.1222  0.2754
 7786SOL    HW234995   4.423   3.741  11.966  0.0215 -1.1640  0.2355
 7787SOL     OW34996   0.777   3.584   2.740 -0.6891 -0.0848  0.1243
 7787SOL    HW134997   0.682   3.589   2.733 -0.5299  1.9739 -0.5757
 7787SOL    HW234998   0.800   3.583   2.647 -2.2036 -0.7201 -0.2414
 7788SOL     OW34999   3.133   0.162   5.810  0.2948 -0.1878 -0.4577
 7788SOL    HW135000   3.141   0.076   5.852 -0.8844  0.3644  0.9215
 7788SOL    HW235001   3.178   0.143   5.728 -1.7143  1.1581 -1.8372
 7789SOL     OW35002   2.428   0.789   0.313 -0.3599 -0.4056  0.6264
 7789SOL    HW135003   2.453   0.841   0.390  1.4913  1.1427 -1.0182
 7789SOL    HW235004   2.372   0.854   0.271 -0.3002  0.3863  1.7638
 7790SOL     OW35005   3.139   0.169   9.330 -0.2141 -0.8728  0.0204
 7790SOL    HW135006   3.167   0.178   9.422 -0.3446  1.1590 -0.1288
 7790SOL    HW235007   3.160   0.078   9.309 -2.2492 -0.5868 -3.0832
 7791SOL     OW35008   1.196   1.430  14.424  0.2447 -0.5509 -0.1052
 7791SOL    HW135009   1.171   1.511  14.379  2.3144  0.4478  0.5400
 7791SOL    HW235010   1.151   1.368  14.367  1.6218 -0.6311 -1.1269
 7792SOL     OW35011   1.591   1.421  13.875 -0.2985  0.1909  0.2966
 7792SOL    HW135012   1.679   1.382  13.878  1.2793  3.7365  0.5005
 7792SOL    HW235013   1.554   1.369  13.946  2.7535  0.7982  2.3367
 7793SOL     OW35014   2.405   0.197  12.000 -0.3005  0.5314 -0.0557
 7793SOL    HW135015   2.369   0.129  12.057  0.7459  2.3330  2.7356
 7793SOL    HW235016   2.340   0.193  11.930  0.7974 -0.6396 -0.9872
 7794SOL     OW35017   3.279   1.212   5.482  0.2526 -0.1600 -0.0940
 7794SOL    HW135018   3.209   1.193   5.544  2.0092  0.4608  2.0781
 7794SOL    HW235019   3.342   1.141   5.496  2.2154  1.6039  0.0849
 7795SOL     OW35020   0.435   1.849   8.450 -0.0763  0.2322  0.5455
 7795SOL    HW135021   0.530   1.844   8.461 -0.6254 -2.1973  4.0910
 7795SOL    HW235022   0.407   1.758   8.439 -1.0588  0.5643  0.3492
 7796SOL     OW35023   2.728   2.717   6.556 -0.0120  0.2229 -0.7683
 7796SOL    HW135024   2.637   2.688   6.548  0.7386 -2.1130 -0.6510
 7796SOL    HW235025   2.780   2.649   6.513 -0.7001 -0.1962 -0.9404
 7797SOL     OW35026   3.143   4.071   9.666  0.2005 -0.2115 -0.3625
 7797SOL    HW135027   3.161   4.027   9.750  0.5988 -0.7590 -0.7298
 7797SOL    HW235028   3.182   4.157   9.677 -1.2187  0.8074 -3.4139
 7798SOL     OW35029   0.465   1.435   4.198 -0.1066 -0.5543 -0.6428
 7798SOL    HW135030   0.473   1.492   4.275  3.2553 -0.4802 -1.0699
 7798SOL    HW235031   0.378   1.398   4.214 -1.1144  2.3419  0.5677
 7799SOL     OW35032   0.728   4.421   2.657 -0.8814  0.0038  0.1143
 7799SOL    HW135033   0.720   4.326   2.648  0.4182 -0.1031  0.1278
 7799SOL    HW235034   0.815   4.439   2.622 -1.4810 -0.7707 -1.8086
 7800SOL     OW35035   2.784   2.289  10.888  0.0786 -0.4115  0.2503
 7800SOL    HW135036   2.694   2.266  10.867 -0.5802  1.2026  1.2851
 7800SOL    HW235037   2.827   2.278  10.803  0.1003 -0.4920  0.2717
 7801SOL     OW35038   2.331   3.861  15.638 -0.3059 -0.0238  0.7315
 7801SOL    HW135039   2.313   3.919  15.712  0.7168  1.2418 -0.0161
 7801SOL    HW235040   2.425   3.868  15.657  0.0107 -0.0473 -0.8134
 7802SOL     OW35041   0.873   0.470  13.192  0.1889  0.2771  0.3549
 7802SOL    HW135042   0.961   0.508  13.197  0.7428 -1.3993  3.0996
 7802SOL    HW235043   0.867   0.443  13.100  0.9841  2.2202 -0.2691
 7803SOL     OW35044   4.108   0.279   7.221  0.2490 -0.2263  0.1367
 7803SOL    HW135045   4.130   0.190   7.197 -0.4343 -0.1329 -0.8270
 7803SOL    HW235046   4.039   0.264   7.287 -0.9406  0.0236 -1.0518
 7804SOL     OW35047   0.028   2.853   7.518  0.1895  0.3807  0.2032
 7804SOL    HW135048   0.020   2.758   7.529 -1.0497  0.7609  2.4363
 7804SOL    HW235049   0.024   2.898   7.602  0.9063  0.0218  0.4310
 7805SOL     OW35050   3.627   3.980  14.113  0.6144 -0.1744 -0.4820
 7805SOL    HW135051   3.690   3.962  14.044  1.5579 -0.0632  0.3466
 7805SOL    HW235052   3.630   4.076  14.112  0.2479 -0.1435  0.5992
 7806SOL     OW35053   2.858   4.026   9.563 -0.4820  0.1912  0.5433
 7806SOL    HW135054   2.841   3.934   9.581  0.9774 -0.2421 -0.3742
 7806SOL    HW235055   2.911   4.055   9.637 -0.7402 -0.4904  0.9916
 7807SOL     OW35056   0.342   1.802  17.312 -0.2184 -0.1475 -0.1259
 7807SOL    HW135057   0.394   1.808  17.391 -3.6955 -0.6802  2.1909
 7807SOL    HW235058   0.271   1.743  17.336 -1.2435  1.3568  0.5307
 7808SOL     OW35059   2.620   1.904   3.923 -0.7732 -0.4357  0.2481
 7808SOL    HW135060   2.588   1.994   3.913  3.3236  0.9454 -0.3185
 7808SOL    HW235061   2.643   1.912   4.016  1.1050 -2.8375 -0.0063
 7809SOL     OW35062   1.698   2.526   3.067 -0.4237 -0.1199  0.4690
 7809SOL    HW135063   1.605   2.528   3.043 -0.5557  4.0768  1.4418
 7809SOL    HW235064   1.723   2.616   3.050  1.3042 -0.5545  0.7134
 7810SOL     OW35065   4.299   3.559  17.358  0.5434  0.0869 -0.1414
 7810SOL    HW135066   4.277   3.584  17.269  1.3700  0.5795 -0.2085
 7810SOL    HW235067   4.263   3.470  17.363  1.0702 -0.2017 -1.2708
 7811SOL     OW35068   0.733   0.253  13.501 -0.0870 -0.1307  0.2914
 7811SOL    HW135069   0.733   0.287  13.411 -1.1231 -0.2388  0.2463
 7811SOL    HW235070   0.661   0.296  13.548  1.4642 -0.0118  2.5317
 7812SOL     OW35071   1.388   2.640  13.704  0.5122 -0.0484  0.4468
 7812SOL    HW135072   1.466   2.617  13.652  0.9337 -1.3403  1.6509
 7812SOL    HW235073   1.325   2.612  13.638 -0.7915  0.6923  1.3896
 7813SOL     OW35074   4.002   0.781  10.114  0.2546 -0.5451 -0.3294
 7813SOL    HW135075   3.924   0.772  10.059  0.2356  0.2349 -0.4250
 7813SOL    HW235076   4.028   0.864  10.074  3.3429 -1.3853 -0.0585
 7814SOL     OW35077   3.839   4.302   4.977  0.1503 -0.0367 -0.2396
 7814SOL    HW135078   3.804   4.300   4.888 -2.2091  1.3653  0.6588
 7814SOL    HW235079   3.766   4.346   5.019  0.0355 -0.5766  0.1385
 7815SOL     OW35080   1.960   3.050   9.204  0.1987 -0.0027  0.3486
 7815SOL    HW135081   1.899   2.981   9.178 -1.2891  0.2417  3.2444
 7815SOL    HW235082   1.963   3.046   9.299 -1.1278 -0.6348  0.3637
 7816SOL     OW35083   3.188   0.501  17.556  0.1191  0.1328  0.4267
 7816SOL    HW135084   3.239   0.561  17.502 -1.1204  0.8317  0.0202
 7816SOL    HW235085   3.111   0.494  17.499  0.4738 -1.8018  0.1863
 7817SOL     OW35086   3.560   3.393   3.755  0.3863  0.1224  0.0307
 7817SOL    HW135087   3.542   3.347   3.837  1.7728 -0.2926  0.0951
 7817SOL    HW235088   3.653   3.402   3.774  0.5424 -1.2052 -0.1001
 7818SOL     OW35089   2.582   0.534   9.951 -0.4681  0.0437 -0.2794
 7818SOL    HW135090   2.552   0.623   9.934 -1.0442  0.4008  2.6797
 7818SOL    HW235091   2.640   0.550  10.026 -2.2526 -0.3320  1.1866
 7819SOL     OW35092   2.160   1.622   7.592  0.1471 -0.0867  0.7059
 7819SOL    HW135093   2.214   1.692   7.555 -0.2584 -1.0720 -1.7639
 7819SOL    HW235094   2.179   1.624   7.686 -0.1462 -0.7467  0.7772
 7820SOL     OW35095   4.342   1.257   5.289  0.3333  0.0740  0.0550
 7820SOL    HW135096   4.376   1.215   5.210 -0.4918 -2.0092  0.7966
 7820SOL    HW235097   4.414   1.293   5.341  0.0182 -0.5493  0.9210
 7821SOL     OW35098   3.001   3.192   7.280 -0.0615 -0.1330  0.1081
 7821SOL    HW135099   2.955   3.149   7.208 -1.0002  0.6914  0.2083
 7821SOL    HW235100   3.040   3.265   7.233 -1.0433  0.5680  0.3656
 7822SOL     OW35101   4.437   2.486   8.914 -0.2388  0.1185 -0.0970
 7822SOL    HW135102   4.425   2.485   9.009 -0.2995  0.3312 -0.1024
 7822SOL    HW235103   4.524   2.452   8.893  1.0576  3.9991 -0.9767
 7823SOL     OW35104   0.989   2.058   5.301  0.0304 -0.0258  0.3986
 7823SOL    HW135105   0.910   2.106   5.324  1.6167  2.1007  1.4636
 7823SOL    HW235106   0.985   2.058   5.205  0.8761  2.4079  0.3670
 7824SOL     OW35107   0.324   0.611   6.869 -0.4236 -0.2878  0.2384
 7824SOL    HW135108   0.236   0.579   6.852 -0.3832 -0.1319 -0.2584
 7824SOL    HW235109   0.358   0.560   6.943  1.1124 -0.2408 -0.4142
 7825SOL     OW35110   2.449   3.615   6.747 -0.1582  0.3310  0.3891
 7825SOL    HW135111   2.418   3.704   6.735  0.4291  0.6290  1.0927
 7825SOL    HW235112   2.470   3.599   6.655  2.1493 -0.8071  1.1211
 7826SOL     OW35113   1.675   3.024   9.799 -0.0548 -0.2180 -0.0949
 7826SOL    HW135114   1.707   3.104   9.839  2.0511 -0.2938 -1.5811
 7826SOL    HW235115   1.608   3.049   9.735 -0.6252  0.4576  0.7653
 7827SOL     OW35116   4.600   2.670   6.469 -0.0104  0.0372  0.0488
 7827SOL    HW135117   4.554   2.598   6.513  1.3096 -1.5390 -1.1538
 7827SOL    HW235118   4.692   2.653   6.490 -0.0948 -0.0840  0.3342
 7828SOL     OW35119   4.200   3.062   7.773  0.3396 -0.5538 -0.1408
 7828SOL    HW135120   4.266   2.998   7.746 -0.6818 -0.6653 -2.4077
 7828SOL    HW235121   4.260   3.110   7.830  1.0931 -2.3961  0.5917
 7829SOL     OW35122   4.401   1.385   3.915  0.3440  0.2909 -0.5617
 7829SOL    HW135123   4.394   1.390   4.010  0.0064  0.9997 -0.6262
 7829SOL    HW235124   4.426   1.475   3.895  1.4190 -0.0945 -0.9879
 7830SOL     OW35125   2.040   0.825   2.294 -0.0255 -0.5653  0.0404
 7830SOL    HW135126   2.135   0.817   2.286  0.0903  0.2132  0.6073
 7830SOL    HW235127   2.021   0.744   2.342  2.7984 -0.4496  1.3259
 7831SOL     OW35128   1.299   1.325   8.709  0.0116  0.1182 -0.2305
 7831SOL    HW135129   1.315   1.276   8.628 -1.6156 -3.6082  1.6698
 7831SOL    HW235130   1.374   1.382   8.719 -1.4553  1.7887  1.3216
 7832SOL     OW35131   0.048   2.267  12.925  0.4220  0.0032 -0.3632
 7832SOL    HW135132   4.719   2.201  12.896 -1.4425  2.6109 -2.2166
 7832SOL    HW235133   0.103   2.275  12.847  0.6890 -2.1200 -0.3936
 7833SOL     OW35134   2.158   0.076   0.902 -0.2457 -0.2098  0.1382
 7833SOL    HW135135   2.234   0.045   0.950  1.0635  3.0327  0.1782
 7833SOL    HW235136   2.186   0.161   0.868  1.3399 -0.7241  0.1424
 7834SOL     OW35137   2.934   1.654   0.555 -0.2031 -0.3428  0.4886
 7834SOL    HW135138   2.881   1.719   0.600 -1.0587  0.0169 -1.0720
 7834SOL    HW235139   2.909   1.664   0.463  0.2339  0.7056  0.4870
 7835SOL     OW35140   3.204   2.069   7.061 -0.2770 -0.7206 -0.4466
 7835SOL    HW135141   3.179   1.986   7.101 -1.0829 -0.3300 -0.1319
 7835SOL    HW235142   3.225   2.111   7.144 -0.2123 -1.1839 -0.2298
 7836SOL     OW35143   1.717   3.346   7.102 -0.3998 -0.2049 -0.2099
 7836SOL    HW135144   1.741   3.430   7.062  2.6195 -2.2677 -2.6818
 7836SOL    HW235145   1.647   3.324   7.040  0.2545 -0.4960 -0.8421
 7837SOL     OW35146   4.324   3.728   2.048  0.2344 -0.3053 -0.0877
 7837SOL    HW135147   4.391   3.683   1.997  2.1686  0.6244  1.6334
 7837SOL    HW235148   4.251   3.674   2.017  0.5056  0.8773 -2.7701
 7838SOL     OW35149   3.390   0.001   4.832 -0.2009  1.0897  0.2150
 7838SOL    HW135150   3.474   4.723   4.787 -0.0935 -0.1330  0.7085
 7838SOL    HW235151   3.382   4.658   4.890 -1.1519  0.7516 -0.3505
 7839SOL     OW35152   2.226   0.487  15.263 -0.2015 -0.1221  0.3028
 7839SOL    HW135153   2.223   0.498  15.358 -2.0776  0.6559  0.1660
 7839SOL    HW235154   2.211   0.392  15.259  3.1468 -0.6864  1.2250
 7840SOL     OW35155   0.849   1.769   7.387  0.0381 -0.2569 -0.1895
 7840SOL    HW135156   0.850   1.859   7.353  0.9972 -0.4688 -0.7045
 7840SOL    HW235157   0.759   1.763   7.419  0.4300  1.5398  1.3290
 7841SOL     OW35158   3.710   0.566   2.686 -0.5083 -0.2708  0.1059
 7841SOL    HW135159   3.731   0.615   2.766 -0.6823 -1.1941  0.7132
 7841SOL    HW235160   3.735   0.475   2.702 -1.3427 -0.4143  0.5626
 7842SOL     OW35161   1.736   4.110   6.083 -0.2521  0.0479 -0.3084
 7842SOL    HW135162   1.688   4.128   6.002  1.1867  1.3727 -0.8657
 7842SOL    HW235163   1.815   4.069   6.047 -0.1683  0.0356 -0.1075
 7843SOL     OW35164   3.364   2.413  12.669 -0.0207  0.3457 -0.2552
 7843SOL    HW135165   3.387   2.320  12.674 -0.0496  0.3504 -0.0204
 7843SOL    HW235166   3.270   2.405  12.683  0.0406  0.5138  0.2538
 7844SOL     OW35167   2.556   0.762  15.877  0.2206 -0.0567  0.0862
 7844SOL    HW135168   2.548   0.795  15.787 -0.3729  0.2158  0.2424
 7844SOL    HW235169   2.469   0.728  15.896 -0.2548  1.6981  1.0304
 7845SOL     OW35170   3.944   3.327   9.405  0.0468  0.0368 -0.2007
 7845SOL    HW135171   4.034   3.353   9.423 -0.2087 -0.2527  1.5015
 7845SOL    HW235172   3.970   3.282   9.325  1.8032 -1.3563  1.1606
 7846SOL     OW35173   3.283   0.736  14.721  0.4408  0.1331  0.2806
 7846SOL    HW135174   3.272   0.693  14.637  2.7586 -0.5192  0.3195
 7846SOL    HW235175   3.193   0.738  14.755  0.2680 -0.5420 -0.1459
 7847SOL     OW35176   3.696   1.569  13.010 -0.4632 -0.2704 -0.2158
 7847SOL    HW135177   3.736   1.637  13.064  0.5078 -1.1618  0.1942
 7847SOL    HW235178   3.635   1.531  13.074  0.2183  0.2186  0.7273
 7848SOL     OW35179   3.758   1.094   4.797 -0.2376  0.0674  0.1254
 7848SOL    HW135180   3.772   1.066   4.706  0.4968 -0.4088  0.3785
 7848SOL    HW235181   3.786   1.013   4.840  1.2906  1.3722  1.5940
 7849SOL     OW35182   0.484   3.846  12.562 -0.7081 -0.2145 -0.5238
 7849SOL    HW135183   0.516   3.758  12.542 -2.1829 -0.9145  0.1831
 7849SOL    HW235184   0.417   3.839  12.630  0.8305 -0.5007  0.9623
 7850SOL     OW35185   4.638   2.527   5.104  0.3939 -0.2488 -0.0941
 7850SOL    HW135186   4.602   2.524   5.015 -1.2466 -1.9796  0.6229
 7850SOL    HW235187   4.592   2.606   5.135  3.6904  2.3036 -1.8194
 7851SOL     OW35188   1.121   2.511  10.656  0.3073 -0.8857 -0.3201
 7851SOL    HW135189   1.111   2.445  10.588 -1.1851  0.6324 -1.5776
 7851SOL    HW235190   1.141   2.448  10.725 -0.3622 -2.2064 -1.3412
 7852SOL     OW35191   1.771   1.684   6.320  0.3699  0.0989 -0.5833
 7852SOL    HW135192   1.677   1.703   6.322  0.2402 -0.1722 -3.7082
 7852SOL    HW235193   1.761   1.598   6.278 -2.0905  1.4054 -2.6769
 7853SOL     OW35194   4.575   3.325   6.942  0.3193  0.3781  0.7916
 7853SOL    HW135195   4.503   3.287   6.993 -1.2827  1.2083 -0.8466
 7853SOL    HW235196   4.541   3.410   6.914  1.6407  1.1564  1.5078
 7854SOL     OW35197   4.434   1.879  13.126  0.3219 -0.0858 -0.4734
 7854SOL    HW135198   4.353   1.830  13.116  0.1111  0.3112 -0.6890
 7854SOL    HW235199   4.430   1.902  13.219  1.1745  2.2601 -1.0244
 7855SOL     OW35200   1.111   2.637   1.184  0.0765 -0.0947  0.2044
 7855SOL    HW135201   1.063   2.600   1.110  0.0954 -0.7519  0.5176
 7855SOL    HW235202   1.047   2.680   1.240 -0.7251  0.2825 -0.9886
 7856SOL     OW35203   1.519   0.067   2.580 -0.4976 -0.2704 -0.0913
 7856SOL    HW135204   1.556   4.724   2.535 -0.9499 -0.2976 -0.4111
 7856SOL    HW235205   1.601   0.102   2.616 -0.2112  0.0825 -1.0772
 7857SOL     OW35206   1.331   1.760   7.893 -1.2168 -0.0712  0.1016
 7857SOL    HW135207   1.315   1.807   7.975 -0.9081 -0.2855  0.2864
 7857SOL    HW235208   1.359   1.833   7.838 -2.9501  1.0545  0.6909
 7858SOL     OW35209   3.373   0.464   5.016 -0.3274 -0.0232 -0.1152
 7858SOL    HW135210   3.281   0.440   5.006 -0.9504  1.9224  0.9311
 7858SOL    HW235211   3.371   0.494   5.106  0.3279  0.2190 -0.1832
 7859SOL     OW35212   3.033   1.608   2.840 -0.3796  0.3198 -0.1930
 7859SOL    HW135213   2.954   1.642   2.799 -1.1173  0.1527  1.0769
 7859SOL    HW235214   3.002   1.518   2.850 -2.0477  1.2180  2.5519
 7860SOL     OW35215   1.789   1.583   9.313 -0.1776 -0.1673 -0.1555
 7860SOL    HW135216   1.805   1.525   9.238  1.1842 -0.7311  0.5604
 7860SOL    HW235217   1.771   1.661   9.261 -0.3517 -0.4255 -0.4845
 7861SOL     OW35218   3.753   0.606   6.274  0.0707  0.3630 -0.1961
 7861SOL    HW135219   3.711   0.671   6.330 -1.6278  0.2565 -1.3699
 7861SOL    HW235220   3.813   0.563   6.335 -1.5045 -1.2411  0.2151
 7862SOL     OW35221   2.659   0.624  16.110 -0.1317 -0.5072 -0.0856
 7862SOL    HW135222   2.616   0.649  16.029 -1.6088 -1.8785  0.2759
 7862SOL    HW235223   2.588   0.643  16.172 -0.0178  0.3126 -0.2130
 7863SOL     OW35224   0.922   3.169  13.365 -0.5523  0.4714  0.6769
 7863SOL    HW135225   0.857   3.167  13.436  0.0181  2.0992  1.2494
 7863SOL    HW235226   0.925   3.262  13.342  1.5410  0.8143  2.3313
 7864SOL     OW35227   0.681   2.199   5.155 -0.2078  0.4808  0.4991
 7864SOL    HW135228   0.699   2.186   5.248 -0.9338 -1.1062  0.4311
 7864SOL    HW235229   0.589   2.174   5.142  0.2846 -0.8267 -0.5674
 7865SOL     OW35230   3.795   0.424  17.167 -0.9055 -0.0829  0.2626
 7865SOL    HW135231   3.831   0.360  17.106  2.2662  1.2332  0.7638
 7865SOL    HW235232   3.878   0.460  17.199 -1.2160 -1.3814  2.5240
 7866SOL     OW35233   2.088   1.586   2.173  0.6615 -0.1463  0.7453
 7866SOL    HW135234   2.003   1.632   2.178  1.0059  0.5191  0.4844
 7866SOL    HW235235   2.140   1.620   2.246  2.6671 -1.4071 -0.1226
 7867SOL     OW35236   3.159   3.220   4.794  0.1528 -0.7242 -0.9899
 7867SOL    HW135237   3.133   3.278   4.722 -1.4524  0.5095  0.5620
 7867SOL    HW235238   3.116   3.139   4.765 -0.0047 -0.8989 -0.2654
 7868SOL     OW35239   1.326   2.844   2.331 -0.0654  0.3314 -0.1887
 7868SOL    HW135240   1.291   2.785   2.264 -0.5527  1.2452 -0.7338
 7868SOL    HW235241   1.329   2.929   2.288 -0.6577  0.1102 -0.6623
 7869SOL     OW35242   1.484   3.378   3.741  0.2045 -0.1573 -0.5739
 7869SOL    HW135243   1.571   3.382   3.700  0.7352 -2.1432  0.3905
 7869SOL    HW235244   1.494   3.411   3.830 -1.7749 -0.3667 -0.2828
 7870SOL     OW35245   1.844   1.949   6.363  0.5102  0.4452 -0.1839
 7870SOL    HW135246   1.863   1.858   6.339  1.3874  1.3111 -2.7698
 7870SOL    HW235247   1.759   1.951   6.319  1.2719 -0.5129 -1.7128
 7871SOL     OW35248   1.795   2.817   7.756  0.4284 -0.2943 -0.4842
 7871SOL    HW135249   1.847   2.826   7.677  2.5328  0.8987  1.0335
 7871SOL    HW235250   1.701   2.811   7.735  0.3186  2.0588 -0.6408
 7872SOL     OW35251   3.862   2.883   7.001 -0.1079 -0.0995  0.4068
 7872SOL    HW135252   3.767   2.883   6.984 -0.1570 -1.0479  0.6482
 7872SOL    HW235253   3.891   2.805   6.953  2.7568  1.6350 -0.6207
 7873SOL     OW35254   2.933   3.710   6.960 -0.5375 -0.3635  0.0103
 7873SOL    HW135255   2.925   3.642   6.893  1.7162  0.4326 -1.0776
 7873SOL    HW235256   2.840   3.717   6.981 -0.6707 -1.4288 -0.2304
 7874SOL     OW35257   4.526   1.298   7.490  0.3715  0.0785 -0.8170
 7874SOL    HW135258   4.492   1.324   7.404  0.1985  1.0335 -0.4542
 7874SOL    HW235259   4.531   1.380   7.539 -1.4026 -0.8296  0.8511
 7875SOL     OW35260   0.362   4.732   3.473 -0.2541  0.1892  0.6788
 7875SOL    HW135261   0.287   0.006   3.415  0.0492  0.0557  0.2677
 7875SOL    HW235262   0.319   4.726   3.558 -1.1503  1.8879  0.3271
 7876SOL     OW35263   1.447   2.849  11.173 -0.1041  0.3457 -0.2644
 7876SOL    HW135264   1.406   2.930  11.204  0.6565  1.5669 -2.4761
 7876SOL    HW235265   1.424   2.778  11.233 -0.7961  2.0511  1.5005
 7877SOL     OW35266   2.018   2.725   4.441  0.3321 -0.3139  0.0656
 7877SOL    HW135267   1.985   2.685   4.522  2.4766  0.1235  1.1469
 7877SOL    HW235268   2.100   2.766   4.468 -1.3543  1.5437  2.3067
 7878SOL     OW35269   0.754   1.518   3.108  0.1113 -0.3568 -0.4638
 7878SOL    HW135270   0.685   1.457   3.081  0.5558 -0.7609 -0.6841
 7878SOL    HW235271   0.784   1.477   3.189 -1.0163 -1.3549 -0.5538
 7879SOL     OW35272   1.870   1.416  11.269  0.1749 -1.4566 -0.0428
 7879SOL    HW135273   1.821   1.344  11.230 -1.7013 -0.0972 -0.1557
 7879SOL    HW235274   1.809   1.490  11.275 -0.9494 -2.4019  0.1797
 7880SOL     OW35275   4.289   3.594   7.928  0.3035  0.6244 -0.6021
 7880SOL    HW135276   4.271   3.622   8.018 -0.6493  0.3819 -0.7263
 7880SOL    HW235277   4.234   3.663   7.892  0.2926  0.2300 -1.3533
 7881SOL     OW35278   0.583   4.637  15.367  0.4260 -0.1837  0.4019
 7881SOL    HW135279   0.547   4.714  15.323  3.3373  1.6552  1.2651
 7881SOL    HW235280   0.525   4.628  15.443 -1.7359  0.5210 -1.1530
 7882SOL     OW35281   1.497   1.409   7.404 -0.1553  0.1610 -0.1426
 7882SOL    HW135282   1.415   1.441   7.441 -1.1825 -4.3594  1.4099
 7882SOL    HW235283   1.525   1.367   7.485  1.5729 -0.8544 -1.2635
 7883SOL     OW35284   3.435   0.216   2.153 -0.2704  0.1345  0.3746
 7883SOL    HW135285   3.500   0.165   2.201 -2.1176 -0.8613  1.8468
 7883SOL    HW235286   3.454   0.296   2.200  5.1311  0.3020 -2.0608
 7884SOL     OW35287   1.722   3.973   0.367 -0.3137  0.6916  0.4792
 7884SOL    HW135288   1.752   3.937   0.284  1.7908  0.5946  1.2872
 7884SOL    HW235289   1.740   4.066   0.361 -0.1407  0.6127 -0.2119
 7885SOL     OW35290   0.621   0.470   5.821  0.7585 -0.2803 -0.5287
 7885SOL    HW135291   0.645   0.517   5.902 -3.5875 -3.7321  2.7873
 7885SOL    HW235292   0.694   0.493   5.763  2.1066  1.0929  1.6851
 7886SOL     OW35293   3.355   0.120   4.024 -0.2548 -0.0872  0.1390
 7886SOL    HW135294   3.418   0.051   4.002 -1.7133 -1.8849  1.5908
 7886SOL    HW235295   3.285   0.055   4.030  1.5208 -2.0098  0.1505
 7887SOL     OW35296   3.501   1.469   2.836  0.2490 -0.1009  0.8038
 7887SOL    HW135297   3.553   1.389   2.842 -0.7622 -0.6835  1.6208
 7887SOL    HW235298   3.538   1.502   2.754  0.3756 -1.4277  0.3332
 7888SOL     OW35299   2.291   0.128   5.406 -0.0759 -0.2355  0.4158
 7888SOL    HW135300   2.267   0.139   5.314  1.3437 -0.5375  0.0117
 7888SOL    HW235301   2.224   0.195   5.423 -1.6898 -1.7121 -0.1284
 7889SOL     OW35302   1.088   2.062   6.635  0.3599  0.2880  0.6334
 7889SOL    HW135303   1.153   2.098   6.695  2.5465 -1.9851 -0.3547
 7889SOL    HW235304   1.048   2.142   6.602  1.4687 -0.1042 -1.6881
 7890SOL     OW35305   2.662   1.634   7.481 -0.2506  0.0481 -0.0414
 7890SOL    HW135306   2.722   1.562   7.498  1.3538  1.3073 -0.3825
 7890SOL    HW235307   2.657   1.629   7.386 -0.0920 -1.1187  0.0117
 7891SOL     OW35308   3.783   3.453   8.734  0.0011  0.4017 -0.4017
 7891SOL    HW135309   3.725   3.465   8.809 -0.5377 -3.3712 -0.2052
 7891SOL    HW235310   3.757   3.367   8.701  0.6964  0.2592 -0.5725
 7892SOL     OW35311   0.780   4.148   3.720  0.6461  0.1103  0.0627
 7892SOL    HW135312   0.759   4.086   3.790 -0.4764  0.4364  0.0126
 7892SOL    HW235313   0.757   4.100   3.640 -2.0877 -2.2513  2.2326
 7893SOL     OW35314   4.156   1.677  12.651 -0.4384  0.7686 -0.0801
 7893SOL    HW135315   4.068   1.639  12.649 -0.0542 -0.1815  1.4736
 7893SOL    HW235316   4.214   1.610  12.615  0.1116  1.7270 -0.9666
 7894SOL     OW35317   1.180   4.407  15.358 -0.1176 -0.0738  0.3697
 7894SOL    HW135318   1.202   4.492  15.319 -2.3943  0.7562  0.8927
 7894SOL    HW235319   1.254   4.401  15.419 -0.7251  2.0107  1.3184
 7895SOL     OW35320   3.328   4.575  14.518 -0.0330  0.0656 -0.0008
 7895SOL    HW135321   3.240   4.611  14.508 -0.6036 -0.8390  1.9388
 7895SOL    HW235322   3.360   4.628  14.590 -1.3706  1.5362 -0.4825
 7896SOL     OW35323   2.331   4.125  10.724  0.4699 -0.2081 -0.8455
 7896SOL    HW135324   2.401   4.114  10.788  0.0246 -1.6344 -0.6058
 7896SOL    HW235325   2.356   4.211  10.688  0.2317 -0.9004 -2.6549
 7897SOL     OW35326   0.778   1.351   4.333 -0.9597 -0.0277 -0.0451
 7897SOL    HW135327   0.756   1.444   4.326  0.0128  0.1738 -0.4109
 7897SOL    HW235328   0.865   1.356   4.294  0.1071 -2.3093  2.0534
 7898SOL     OW35329   0.554   3.215   9.357  0.1808  0.2922 -0.4655
 7898SOL    HW135330   0.599   3.161   9.422 -0.1460  1.9501  1.1814
 7898SOL    HW235331   0.629   3.267   9.327  1.0467  0.0969  1.2962
 7899SOL     OW35332   3.318   3.112   1.862  0.0939 -0.2329 -0.2156
 7899SOL    HW135333   3.308   3.017   1.858 -0.9264 -0.1539  0.6750
 7899SOL    HW235334   3.350   3.144   1.777  0.8679  0.4782  0.3322
 7900SOL     OW35335   0.066   1.924   6.765  0.3874  0.2899 -0.5934
 7900SOL    HW135336   0.096   1.833   6.770  1.6179  0.8060  1.2438
 7900SOL    HW235337   0.101   1.963   6.845  0.2780  1.0292 -0.9040
 7901SOL     OW35338   0.338   3.653   5.265  0.6029  0.2046 -0.5992
 7901SOL    HW135339   0.247   3.631   5.281  1.7492 -1.7135  3.3813
 7901SOL    HW235340   0.387   3.573   5.284  0.1534  0.4669  1.7469
 7902SOL     OW35341   1.181   4.278   2.242 -0.6428  0.1895  0.2772
 7902SOL    HW135342   1.180   4.182   2.243 -0.4269  0.1887  0.4002
 7902SOL    HW235343   1.272   4.307   2.246 -0.4117 -0.5306  0.2498
 7903SOL     OW35344   0.373   0.310   5.474  0.1815 -0.9110 -0.5263
 7903SOL    HW135345   0.412   0.280   5.556  0.2122  0.0187 -0.1985
 7903SOL    HW235346   0.410   0.248   5.411  0.0622 -0.1706 -1.3211
 7904SOL     OW35347   3.299   2.847   1.801  0.8077  0.6484 -0.1692
 7904SOL    HW135348   3.289   2.830   1.708 -0.7372 -0.5471  0.2238
 7904SOL    HW235349   3.372   2.787   1.820  0.3532  0.4125  0.8519
 7905SOL     OW35350   2.181   3.644   5.692 -0.5166 -0.2965 -0.2639
 7905SOL    HW135351   2.270   3.678   5.703 -1.2491  1.5162  0.1206
 7905SOL    HW235352   2.197   3.550   5.698 -0.2053 -0.1864  0.6152
 7906SOL     OW35353   4.005   1.119   4.306 -0.2529  0.0319  0.4764
 7906SOL    HW135354   3.972   1.029   4.305 -1.6562  0.6112 -2.7404
 7906SOL    HW235355   4.093   1.102   4.272 -0.6918  1.3805 -1.3010
 7907SOL     OW35356   0.391   1.044  15.234  0.2980  0.2412 -0.2023
 7907SOL    HW135357   0.455   0.981  15.202  0.4790  0.3406 -0.0350
 7907SOL    HW235358   0.444   1.120  15.208  1.8471 -0.9516 -0.4711
 7908SOL     OW35359   1.213   0.063   1.802  0.8376 -0.0521  0.0027
 7908SOL    HW135360   1.185   0.128   1.866  3.1792 -0.0794  1.0565
 7908SOL    HW235361   1.300   0.096   1.779  1.0314 -0.3917  0.2613
 7909SOL     OW35362   0.242   3.633   3.484  0.6096 -0.0871  0.1523
 7909SOL    HW135363   0.148   3.619   3.495  0.1107 -0.0478 -4.1159
 7909SOL    HW235364   0.263   3.639   3.578 -0.3148 -0.9842  0.4166
 7910SOL     OW35365   1.449   1.619   3.711  0.2935 -0.0863 -0.4327
 7910SOL    HW135366   1.514   1.631   3.780 -0.1952 -0.6726  0.1295
 7910SOL    HW235367   1.401   1.702   3.707  1.1191  0.4431  0.6829
 7911SOL     OW35368   2.561   4.409   3.540 -0.2660  0.5277  0.4037
 7911SOL    HW135369   2.475   4.378   3.567 -0.6539  1.0608 -0.2479
 7911SOL    HW235370   2.579   4.474   3.607 -2.5777  1.6165 -0.0431
 7912SOL     OW35371   4.202   3.599  10.991 -0.3235  0.0092  0.2466
 7912SOL    HW135372   4.254   3.611  10.912 -0.5632 -1.1162 -0.0818
 7912SOL    HW235373   4.272   3.587  11.055  0.3487 -1.3547 -0.7422
 7913SOL     OW35374   0.279   2.841   1.973 -0.3279 -0.1437 -0.6768
 7913SOL    HW135375   0.236   2.926   1.960 -0.5848  0.4100  3.8421
 7913SOL    HW235376   0.237   2.811   2.053  0.1575  0.2406 -0.2798
 7914SOL     OW35377   0.137   4.417   9.533  0.1193 -0.2209 -0.1673
 7914SOL    HW135378   0.099   4.504   9.523 -1.1327 -0.6241  1.1147
 7914SOL    HW235379   0.091   4.370   9.464  0.8997  1.6327 -1.9439
 7915SOL     OW35380   1.585   3.857   7.183  0.3169 -0.3913  0.9407
 7915SOL    HW135381   1.622   3.774   7.212 -0.9539 -0.2509  3.0112
 7915SOL    HW235382   1.506   3.864   7.237  0.3146 -0.5617  0.9576
 7916SOL     OW35383   1.248   2.895   4.012 -0.1875 -0.4557  0.5325
 7916SOL    HW135384   1.340   2.869   4.017  0.6423  2.2091 -0.7873
 7916SOL    HW235385   1.248   2.908   3.917  1.6083 -0.8158  0.4830
 7917SOL     OW35386   0.027   0.836   9.850 -0.0032 -0.4692  0.3113
 7917SOL    HW135387   0.015   0.742   9.866  0.1397 -0.6153 -0.4322
 7917SOL    HW235388   4.712   0.858   9.770  0.2422 -0.0527  0.2798
 7918SOL     OW35389   4.040   1.156   0.357 -0.3651  0.5939 -0.0456
 7918SOL    HW135390   4.063   1.063   0.349  0.9009  1.0033 -1.2035
 7918SOL    HW235391   4.126   1.198   0.358  1.3736 -2.9843 -0.4819
 7919SOL     OW35392   0.351   2.578   7.302  0.1449 -0.0122  0.9171
 7919SOL    HW135393   0.394   2.612   7.223  0.8242 -1.9616  0.4487
 7919SOL    HW235394   0.432   2.556   7.348  0.7526 -1.3785 -0.7828
 7920SOL     OW35395   3.277   4.254   2.675 -0.1381 -0.9588  0.2415
 7920SOL    HW135396   3.245   4.181   2.622 -0.3108  2.4605 -4.3958
 7920SOL    HW235397   3.371   4.255   2.658 -0.3988  1.9420 -1.0709
 7921SOL     OW35398   1.595   2.679  11.533  0.0996  0.8334 -0.0905
 7921SOL    HW135399   1.667   2.635  11.490 -1.2725 -1.1670 -0.3724
 7921SOL    HW235400   1.612   2.671  11.627  2.7071  1.7508 -0.4888
 7922SOL     OW35401   1.364   0.527   3.820  0.3063 -0.2650 -0.3389
 7922SOL    HW135402   1.439   0.583   3.838  1.1823 -1.2029 -1.0515
 7922SOL    HW235403   1.382   0.443   3.863 -1.6224  0.1410  1.2722
 7923SOL     OW35404   0.896   4.600   7.465 -0.2587 -0.6715 -0.0053
 7923SOL    HW135405   0.898   4.561   7.553 -0.4320 -0.9594 -0.1284
 7923SOL    HW235406   0.940   4.533   7.413  1.6470  1.0938 -0.6671
 7924SOL     OW35407   4.265   3.574   3.158  0.3687  0.1294  0.5823
 7924SOL    HW135408   4.336   3.546   3.100 -0.9233  2.9586 -2.3428
 7924SOL    HW235409   4.290   3.666   3.171 -1.9124  0.9127 -0.4924
 7925SOL     OW35410   4.481   2.956   4.501  0.0823  0.5409 -0.0271
 7925SOL    HW135411   4.474   2.984   4.592 -1.6231 -0.8651  0.2657
 7925SOL    HW235412   4.393   2.938   4.468 -0.6629  2.4685  0.8931
 7926SOL     OW35413   3.289   1.211   0.725  0.1770  0.8137  0.2856
 7926SOL    HW135414   3.276   1.116   0.716 -1.8250  1.0105  1.1655
 7926SOL    HW235415   3.370   1.217   0.673  1.0244  0.0785  1.5300
 7927SOL     OW35416   3.290   2.386   7.428 -0.5117 -0.2802  0.1598
 7927SOL    HW135417   3.272   2.481   7.424  0.6551 -0.1373 -1.3095
 7927SOL    HW235418   3.384   2.388   7.413 -0.6742 -1.7679 -1.0252
 7928SOL     OW35419   0.846   0.847   3.128  0.2256 -0.3869 -0.2714
 7928SOL    HW135420   0.853   0.759   3.091  3.3277 -0.0661 -0.4630
 7928SOL    HW235421   0.838   0.905   3.051 -4.2987 -1.2240 -0.4587
 7929SOL     OW35422   3.660   4.461  11.613  0.1047  0.8768 -0.1047
 7929SOL    HW135423   3.673   4.408  11.692  1.4955 -2.5048 -2.6003
 7929SOL    HW235424   3.734   4.521  11.611  2.7277 -2.3381  0.5401
 7930SOL     OW35425   1.321   0.146   2.883  0.5527 -0.1116 -0.2611
 7930SOL    HW135426   1.262   0.163   2.956 -0.7710  0.5966 -1.4808
 7930SOL    HW235427   1.342   0.224   2.832 -0.6911 -1.1423 -2.3838
 7931SOL     OW35428   1.533   1.847   6.932 -0.1074 -0.1855 -0.3427
 7931SOL    HW135429   1.523   1.881   6.843  0.2740  1.2748  0.1782
 7931SOL    HW235430   1.455   1.886   6.970  1.4724  1.3412  1.3501
 7932SOL     OW35431   1.402   4.718   8.168  0.3284  0.5948  0.2987
 7932SOL    HW135432   1.422   0.063   8.220  0.5727 -0.6907  2.1509
 7932SOL    HW235433   1.391   4.642   8.225 -0.6760  1.1493  0.8470
 7933SOL     OW35434   2.350   1.694   8.620  0.1882  0.0546 -0.4304
 7933SOL    HW135435   2.396   1.725   8.698 -0.1683 -1.3791  0.3464
 7933SOL    HW235436   2.419   1.724   8.561  0.5806  1.4399  0.7161
 7934SOL     OW35437   2.450   0.993   7.426 -0.2739  0.3144 -0.5789
 7934SOL    HW135438   2.498   1.073   7.449 -0.5581 -0.0979  1.4596
 7934SOL    HW235439   2.460   0.986   7.331  0.1949  1.4524 -0.6177
 7935SOL     OW35440   1.281   2.739   1.002  0.7089 -0.1088  0.1407
 7935SOL    HW135441   1.210   2.711   1.059  1.4937  0.7020  1.5164
 7935SOL    HW235442   1.252   2.688   0.926  0.0013  1.8631 -0.8974
 7936SOL     OW35443   2.269   2.102   4.782 -0.1465  0.0563  0.5395
 7936SOL    HW135444   2.174   2.112   4.789 -0.2275  0.7444 -1.5332
 7936SOL    HW235445   2.274   2.074   4.690  1.0514  2.0571 -0.0106
 7937SOL     OW35446   3.559   1.915   5.812  0.2677  0.5567 -0.4364
 7937SOL    HW135447   3.527   1.942   5.898 -1.8729 -0.2413 -0.9821
 7937SOL    HW235448   3.486   1.933   5.752  0.6151  0.4825 -0.8788
 7938SOL     OW35449   4.139   4.117   6.509  0.3187 -0.1042  0.4803
 7938SOL    HW135450   4.067   4.176   6.533 -0.6106 -0.8493 -0.4935
 7938SOL    HW235451   4.090   4.039   6.484  1.9630 -0.2618 -2.1470
 7939SOL     OW35452   3.209   2.090  11.975  0.0155 -0.3757  0.8364
 7939SOL    HW135453   3.287   2.060  12.021  2.5990  2.0670 -2.0313
 7939SOL    HW235454   3.248   2.095  11.888 -0.9045  0.6765  0.4901
 7940SOL     OW35455   1.138   1.812  15.870  0.3237 -0.0868  0.0150
 7940SOL    HW135456   1.230   1.823  15.891  0.0459  1.4311  0.4113
 7940SOL    HW235457   1.098   1.889  15.910  2.1882  1.2533 -0.7026
 7941SOL     OW35458   0.505   1.611   6.299  0.5607 -0.4926 -0.2443
 7941SOL    HW135459   0.563   1.546   6.259  4.4388  1.1107  2.7595
 7941SOL    HW235460   0.417   1.579   6.279 -0.0728  1.0363  0.0982
 7942SOL     OW35461   0.920   0.209   4.108 -0.0141 -0.8592 -0.0417
 7942SOL    HW135462   0.893   0.239   4.021 -1.1858 -2.7114 -0.3174
 7942SOL    HW235463   1.012   0.191   4.086  0.8293  2.7776  0.3955
 7943SOL     OW35464   0.572   3.661   1.388 -0.7053 -0.3971  0.1764
 7943SOL    HW135465   0.546   3.739   1.438 -0.6521  1.0979 -2.1021
 7943SOL    HW235466   0.643   3.629   1.444  0.0108 -1.9919 -1.6562
 7944SOL     OW35467   2.306   0.413   2.748  0.1418 -0.0421 -0.1501
 7944SOL    HW135468   2.301   0.432   2.654  1.7689 -0.0134 -0.2173
 7944SOL    HW235469   2.235   0.475   2.767 -2.1133 -3.3990  2.3122
 7945SOL     OW35470   0.248   1.347   1.402  0.0061  0.3183  0.2395
 7945SOL    HW135471   0.217   1.380   1.487  1.9639  1.0465  0.6819
 7945SOL    HW235472   0.163   1.353   1.359  1.5945 -1.4951 -3.1091
 7946SOL     OW35473   0.727   1.581  12.269 -0.1630  0.1603 -0.1197
 7946SOL    HW135474   0.818   1.604  12.250 -0.6096  0.5972 -1.7355
 7946SOL    HW235475   0.737   1.542  12.356 -1.3359 -1.0008 -0.4960
 7947SOL     OW35476   2.336   0.663  11.382  0.0930  0.1747 -0.3724
 7947SOL    HW135477   2.271   0.730  11.405  0.0877  0.3571 -0.9133
 7947SOL    HW235478   2.409   0.716  11.351 -0.5708 -0.4801 -3.0539
 7948SOL     OW35479   1.794   2.530  15.278  0.1045  0.0676 -0.2366
 7948SOL    HW135480   1.858   2.574  15.333 -2.1187  2.3270  0.5607
 7948SOL    HW235481   1.838   2.526  15.193  2.4990 -1.0002  1.0631
 7949SOL     OW35482   2.523   2.264  10.798  0.1822  0.3564  0.3082
 7949SOL    HW135483   2.448   2.289  10.744 -0.6223  0.2894  1.3976
 7949SOL    HW235484   2.542   2.173  10.772  0.0596  0.2733  0.5077
 7950SOL     OW35485   4.679   3.800   7.969 -0.0533 -0.1826  0.0620
 7950SOL    HW135486   4.659   3.875   8.023  1.8772 -0.1744  0.7625
 7950SOL    HW235487   4.625   3.824   7.893 -0.6047 -0.5507  0.3330
 7951SOL     OW35488   3.387   2.063  11.728 -0.6261  0.1222  0.7092
 7951SOL    HW135489   3.453   2.003  11.692 -1.2917 -0.2003  0.0336
 7951SOL    HW235490   3.449   2.135  11.736 -1.2245  0.7301 -0.1315
 7952SOL     OW35491   3.334   0.923   6.190  0.2398  0.4430  0.0644
 7952SOL    HW135492   3.266   0.886   6.246 -1.1479  2.2076 -0.4860
 7952SOL    HW235493   3.360   0.993   6.250 -0.4261  0.7091  0.0341
 7953SOL     OW35494   1.221   3.340   0.048  0.0408 -0.3419  0.2443
 7953SOL    HW135495   1.271   3.414   0.084 -2.3498  2.3458 -1.9305
 7953SOL    HW235496   1.278   3.320  17.706  2.0219 -0.1404  1.7185
 7954SOL     OW35497   1.412   1.302   7.908 -0.0828 -0.4414  0.2388
 7954SOL    HW135498   1.467   1.373   7.875 -1.0714 -0.1249 -0.7059
 7954SOL    HW235499   1.336   1.303   7.850  1.2245  0.9383 -1.4408
 7955SOL     OW35500   1.038   0.982   7.183  0.0628 -1.1222 -0.2429
 7955SOL    HW135501   1.062   0.921   7.253  2.6943  0.5119  0.2941
 7955SOL    HW235502   1.114   0.982   7.124 -0.6452  1.6484 -1.1521
 7956SOL     OW35503   0.892   1.462   6.284 -0.1558  0.3690  0.1198
 7956SOL    HW135504   0.822   1.405   6.316 -1.2220  0.6093 -1.7848
 7956SOL    HW235505   0.964   1.430   6.338 -0.0711  3.6450  1.9287
 7957SOL     OW35506   2.972   2.249   6.726  0.5243  0.2283  0.4666
 7957SOL    HW135507   2.926   2.265   6.808  3.3233 -1.5134  2.3863
 7957SOL    HW235508   2.904   2.205   6.674 -0.3087  0.3283  1.4617
 7958SOL     OW35509   3.280   2.584  14.561 -0.1699 -0.2224  0.6649
 7958SOL    HW135510   3.360   2.541  14.533 -0.9870 -0.0966 -1.8888
 7958SOL    HW235511   3.241   2.611  14.478  1.7151 -1.5187 -0.6147
 7959SOL     OW35512   4.153   1.893   5.237 -0.2302  0.4057 -0.3301
 7959SOL    HW135513   4.238   1.873   5.198 -1.3049 -0.9886 -1.9541
 7959SOL    HW235514   4.107   1.953   5.178  0.2301  2.6571  1.6060
 7960SOL     OW35515   0.395   1.710   9.702 -0.5956  0.3127  0.1683
 7960SOL    HW135516   0.395   1.771   9.776 -0.0640  0.0933  0.3578
 7960SOL    HW235517   0.454   1.757   9.643  2.5927 -2.2765  1.2184
 7961SOL     OW35518   3.267   3.767  13.621  0.4813  0.1709  0.1947
 7961SOL    HW135519   3.246   3.821  13.545 -0.7680 -0.6104 -0.0195
 7961SOL    HW235520   3.253   3.677  13.593 -1.4708  0.3711  0.5391
 7962SOL     OW35521   3.509   0.756  11.125 -0.1519  0.6453  0.4528
 7962SOL    HW135522   3.594   0.712  11.131 -0.0347  0.8783  0.5162
 7962SOL    HW235523   3.508   0.812  11.204  0.7543  2.2316 -0.6467
 7963SOL     OW35524   4.634   2.122   6.946  0.6329  0.1015 -0.2124
 7963SOL    HW135525   4.548   2.146   6.912  0.0345 -1.7266  0.0088
 7963SOL    HW235526   4.688   2.159   6.876  2.4827  2.2256  2.3202
 7964SOL     OW35527   2.058   2.791   7.544  0.4700  0.5065  0.0638
 7964SOL    HW135528   2.049   2.850   7.469  0.8605 -1.6201 -1.6604
 7964SOL    HW235529   2.040   2.703   7.512 -1.0419  0.4178  1.1716
 7965SOL     OW35530   0.127   1.929   6.154  0.0985  0.0226  0.3106
 7965SOL    HW135531   0.080   1.856   6.114  0.5363  0.7933 -1.5977
 7965SOL    HW235532   0.067   1.944   6.227  0.3098 -1.0138  0.7011
 7966SOL     OW35533   3.848   3.244   7.091  0.4363 -0.6322 -0.3659
 7966SOL    HW135534   3.778   3.258   7.027  1.4851 -1.9277 -1.7804
 7966SOL    HW235535   3.827   3.312   7.155  1.2127  0.8208 -1.6533
 7967SOL     OW35536   4.439   0.001  11.822  0.8074 -0.3860  0.5384
 7967SOL    HW135537   4.429   0.076  11.880  2.1254  0.1922  0.0138
 7967SOL    HW235538   4.517   4.682  11.840  0.2135 -1.8344 -0.9824
 7968SOL     OW35539   4.732   0.078  10.268 -0.5880  1.3007  0.4017
 7968SOL    HW135540   4.643   0.090  10.302  0.1788  0.3182  2.7986
 7968SOL    HW235541   0.021   4.731  10.315 -0.6248  1.9478  1.5281
 7969SOL     OW35542   0.319   0.229   4.899  0.2621 -0.5105  0.4584
 7969SOL    HW135543   0.350   0.201   4.985 -1.1476  0.4578  1.2859
 7969SOL    HW235544   0.400   0.245   4.849 -2.5558 -1.1715 -4.3174
 7970SOL     OW35545   0.828   4.438   1.821  0.1316  0.5550 -0.8234
 7970SOL    HW135546   0.797   4.438   1.730 -2.9201  0.1924  0.2064
 7970SOL    HW235547   0.906   4.492   1.810 -0.2312  0.9099 -1.7025
 7971SOL     OW35548   0.780   2.247   7.810  0.5937  0.3248 -0.5397
 7971SOL    HW135549   0.818   2.226   7.725 -0.8622 -1.1883 -0.8163
 7971SOL    HW235550   0.858   2.285   7.850  0.6608 -2.7506  2.2800
 7972SOL     OW35551   3.585   0.435   3.736  0.3252  0.4986  0.5263
 7972SOL    HW135552   3.611   0.527   3.746  0.3702  0.5390  0.0367
 7972SOL    HW235553   3.641   0.396   3.804 -1.4402 -1.0905  1.0606
 7973SOL     OW35554   1.134   1.751  13.574 -0.2606 -0.2220  0.0272
 7973SOL    HW135555   1.200   1.764  13.506 -0.3162  0.0712  0.0325
 7973SOL    HW235556   1.059   1.752  13.516  1.2140 -0.3386 -1.8843
 7974SOL     OW35557   0.210   2.211  17.140  0.2118 -0.0165 -0.5159
 7974SOL    HW135558   0.161   2.179  17.217 -0.4570 -0.1654 -0.9996
 7974SOL    HW235559   0.291   2.235  17.184  0.0081 -0.2210 -0.0266
 7975SOL     OW35560   2.944   4.050   9.976  0.4508  0.1833  0.0110
 7975SOL    HW135561   2.942   4.017  10.065  0.4702  0.3499  0.0729
 7975SOL    HW235562   2.894   4.131   9.989  2.0012  1.1262  0.1237
 7976SOL     OW35563   1.018   0.629   5.167 -0.1583  0.2157  0.2968
 7976SOL    HW135564   0.999   0.544   5.207 -0.1976 -0.1976 -0.6050
 7976SOL    HW235565   1.011   0.602   5.075  0.1572  1.0001  0.0483
 7977SOL     OW35566   3.748   0.515  16.020  0.3204  0.7181  0.0519
 7977SOL    HW135567   3.800   0.434  16.019 -2.3462 -1.0259  3.4623
 7977SOL    HW235568   3.726   0.530  16.112 -2.0303  2.3291 -0.8051
 7978SOL     OW35569   2.929   1.106  15.060  0.3944 -0.3439 -0.4404
 7978SOL    HW135570   2.991   1.166  15.102 -1.4137  2.0233 -1.1049
 7978SOL    HW235571   2.988   1.057  15.004 -0.0434 -1.3955  0.0146
 7979SOL     OW35572   2.964   4.097   6.004  0.3582  0.2517  0.0275
 7979SOL    HW135573   3.024   4.172   5.999 -0.1636  0.5688 -1.6024
 7979SOL    HW235574   2.916   4.121   6.083 -1.8239 -1.4203 -0.8062
 7980SOL     OW35575   4.612   3.524   2.680  0.4005  0.3718  0.3917
 7980SOL    HW135576   4.666   3.451   2.711  0.4150 -0.3702 -1.3377
 7980SOL    HW235577   4.603   3.575   2.760 -1.8972 -0.3647  0.5987
 7981SOL     OW35578   3.199   0.459   8.432  0.4278  0.0624 -0.1408
 7981SOL    HW135579   3.239   0.503   8.357  0.3756 -1.7593 -1.2399
 7981SOL    HW235580   3.112   0.439   8.396 -1.8576  2.5881  4.0639
 7982SOL     OW35581   1.385   4.417   7.713  0.8318 -0.6851  0.1301
 7982SOL    HW135582   1.418   4.499   7.676 -1.4794 -0.2421 -1.0021
 7982SOL    HW235583   1.322   4.446   7.780  0.7456 -1.3678  0.3359
 7983SOL     OW35584   1.073   3.322   8.002 -0.4790 -0.4199  0.2019
 7983SOL    HW135585   1.062   3.305   8.096  0.5532 -1.5635  0.1172
 7983SOL    HW235586   1.008   3.259   7.968  0.5727  0.9825 -4.3347
 7984SOL     OW35587   0.108   1.547  11.156  0.1664 -0.5275  0.7155
 7984SOL    HW135588   0.184   1.605  11.149  0.9041 -1.4209  1.2926
 7984SOL    HW235589   0.080   1.573  11.244  1.3168 -3.4492  1.9360
 7985SOL     OW35590   1.736   0.570  13.193 -0.5985  0.3684 -0.4059
 7985SOL    HW135591   1.690   0.548  13.112 -1.8669  0.9861  0.1641
 7985SOL    HW235592   1.791   0.493  13.211 -1.3552 -0.0894 -0.0580
 7986SOL     OW35593   1.788   0.636   9.570 -0.4409  0.2688  0.5669
 7986SOL    HW135594   1.712   0.578   9.573 -0.0268 -0.2541  0.8374
 7986SOL    HW235595   1.860   0.583   9.604  0.7329 -1.2501 -4.2646
 7987SOL     OW35596   3.594   1.077   6.103 -0.8852 -0.3963  0.0615
 7987SOL    HW135597   3.580   1.070   6.197  0.1865 -1.8187  0.1264
 7987SOL    HW235598   3.661   1.010   6.086  1.1714  0.8943  3.0952
 7988SOL     OW35599   2.515   3.959   5.932  0.0092  0.0456 -0.0219
 7988SOL    HW135600   2.539   4.045   5.898 -0.2137  0.0539 -0.1614
 7988SOL    HW235601   2.577   3.939   6.001  0.6277  0.2110 -0.5315
 7989SOL     OW35602   1.685   3.456   9.395 -0.4005  0.2525 -0.2116
 7989SOL    HW135603   1.639   3.384   9.438  1.6242 -0.5601  0.5788
 7989SOL    HW235604   1.641   3.446   9.310  2.0633  0.3216 -1.4909
 7990SOL     OW35605   4.411   1.595   7.589 -0.4370  0.2283  0.0837
 7990SOL    HW135606   4.319   1.582   7.564 -0.9255  0.0769  1.9009
 7990SOL    HW235607   4.422   1.684   7.558 -1.0677 -0.4266 -2.0475
 7991SOL     OW35608   0.624   3.177   8.193  0.4061 -0.1192  0.0170
 7991SOL    HW135609   0.674   3.149   8.117 -1.1454  2.2562 -1.8695
 7991SOL    HW235610   0.543   3.126   8.182  0.1847  0.0731  0.7278
 7992SOL     OW35611   2.139   3.796   3.685  0.1200 -0.4968  0.0418
 7992SOL    HW135612   2.210   3.731   3.676  2.3183  2.0096 -0.6822
 7992SOL    HW235613   2.066   3.745   3.650 -2.3612  3.0437  0.1666
 7993SOL     OW35614   0.831   0.248   6.571 -0.0147 -0.2548  0.5153
 7993SOL    HW135615   0.856   0.318   6.511 -0.4814  0.5798  1.2924
 7993SOL    HW235616   0.897   0.181   6.556 -1.3264 -1.3343 -0.3236
 7994SOL     OW35617   1.677   4.335   6.719 -0.0555  0.1773  0.4798
 7994SOL    HW135618   1.682   4.354   6.625  1.2142 -2.3706  0.0333
 7994SOL    HW235619   1.770   4.331   6.742 -0.3829  1.8464  2.1517
 7995SOL     OW35620   3.681   2.065   8.549 -0.6673  0.7111  0.5619
 7995SOL    HW135621   3.674   2.044   8.456 -1.3089 -0.2888  0.8395
 7995SOL    HW235622   3.608   2.025   8.596 -0.1276 -1.2012 -0.2362
 7996SOL     OW35623   2.607   0.303   7.060  0.3823  0.2015  0.2861
 7996SOL    HW135624   2.669   0.244   7.101 -1.9111  0.2228  3.7665
 7996SOL    HW235625   2.575   0.353   7.135  0.5093  0.5819  0.0912
 7997SOL     OW35626   0.406   3.419   7.712 -0.3994  0.0279 -0.4034
 7997SOL    HW135627   0.314   3.395   7.708 -0.7226  0.7985  2.3051
 7997SOL    HW235628   0.428   3.437   7.621 -1.2924 -0.6332 -0.7459
 7998SOL     OW35629   2.197   0.667   8.072 -0.4404 -0.4937  0.1547
 7998SOL    HW135630   2.103   0.658   8.088 -0.1559 -1.6841  1.1433
 7998SOL    HW235631   2.206   0.759   8.047  2.3005 -0.8407 -0.0516
 7999SOL     OW35632   0.122   2.120  13.208 -0.4044 -0.6000  0.1589
 7999SOL    HW135633   0.114   2.161  13.122  1.8791 -1.3860 -0.4450
 7999SOL    HW235634   0.128   2.030  13.176 -0.9674 -1.3332  2.1182
 8000SOL     OW35635   3.735   1.088  15.447 -0.4731 -0.1095 -0.2468
 8000SOL    HW135636   3.719   0.994  15.452  1.7758 -0.3464  2.4439
 8000SOL    HW235637   3.757   1.119  15.534 -0.9947 -2.1260  0.6093
 8001SOL     OW35638   4.461   1.895   4.623  0.2275 -0.4357  0.0236
 8001SOL    HW135639   4.549   1.896   4.584  0.0300 -1.5788 -0.4430
 8001SOL    HW235640   4.433   1.804   4.632 -0.7794  0.0100  1.3503
 8002SOL     OW35641   2.288   1.088  12.572  0.1085  0.0862  0.1953
 8002SOL    HW135642   2.216   1.118  12.517  0.6439 -1.4649 -1.3154
 8002SOL    HW235643   2.245   1.102  12.656 -2.0145  2.0992 -1.2340
 8003SOL     OW35644   4.310   2.780  10.619 -0.0121 -0.0910  0.4374
 8003SOL    HW135645   4.352   2.694  10.618 -0.3037 -0.2294  0.2902
 8003SOL    HW235646   4.260   2.765  10.699 -1.0960 -1.2861 -0.4750
 8004SOL     OW35647   4.287   4.083   0.454  0.4346  0.0095 -0.5511
 8004SOL    HW135648   4.328   4.034   0.383 -1.3067  0.9570 -2.2462
 8004SOL    HW235649   4.208   4.034   0.476  0.9584  0.2832  1.8934
 8005SOL     OW35650   3.213   2.638  14.316  0.3127 -0.2180 -0.4459
 8005SOL    HW135651   3.185   2.709  14.259  0.4889 -0.3394 -0.6833
 8005SOL    HW235652   3.282   2.605  14.259 -0.8806 -2.9034 -0.3767
 8006SOL     OW35653   2.521   3.367   0.825 -0.2132 -0.7915  0.3159
 8006SOL    HW135654   2.556   3.282   0.851 -0.1128 -1.0654 -0.6971
 8006SOL    HW235655   2.436   3.348   0.864 -1.5146 -0.5742 -2.4138
 8007SOL     OW35656   3.939   2.462   0.001  0.4126 -0.0851 -0.1366
 8007SOL    HW135657   3.881   2.520   0.051  0.6357 -0.2605  0.3290
 8007SOL    HW235658   4.030   2.475   0.028 -0.0058  2.4192  0.0718
 8008SOL     OW35659   0.552   3.483   5.062 -0.4822 -0.0534  0.2219
 8008SOL    HW135660   0.611   3.408   5.070 -0.8231 -0.3549 -0.0965
 8008SOL    HW235661   0.484   3.461   5.125 -1.3168  2.1404  0.0939
 8009SOL     OW35662   3.809   4.436   4.085  0.3518  0.0275  0.2976
 8009SOL    HW135663   3.721   4.446   4.120  1.0473 -0.0314  2.0352
 8009SOL    HW235664   3.791   4.450   3.992  1.5715  0.2413  0.1043
 8010SOL     OW35665   0.086   2.669   8.745  0.2036  0.1956  0.0313
 8010SOL    HW135666   0.045   2.598   8.697  0.6662 -0.3927  0.5058
 8010SOL    HW235667   0.181   2.662   8.738 -0.3115 -3.6062 -2.7956
 8011SOL     OW35668   4.728   3.323   3.932 -0.1590  0.1142  0.7777
 8011SOL    HW135669   4.685   3.406   3.950  0.4412  0.9987 -1.7798
 8011SOL    HW235670   0.074   3.321   3.985  0.3283 -1.1280  0.0174
 8012SOL     OW35671   1.259   1.676  11.973  0.0090  0.1698 -0.2455
 8012SOL    HW135672   1.219   1.666  11.887 -0.5670 -2.5230  0.3362
 8012SOL    HW235673   1.234   1.762  12.006  1.0588  0.4768 -0.2280
 8013SOL     OW35674   1.424   3.835   5.456  0.2271 -0.1154  0.4284
 8013SOL    HW135675   1.402   3.830   5.363  3.2008  0.9811 -0.3565
 8013SOL    HW235676   1.520   3.836   5.454  0.1560  3.7799 -0.4994
 8014SOL     OW35677   2.057   1.606   7.257 -0.2595  0.3717 -0.3639
 8014SOL    HW135678   1.991   1.551   7.214 -1.7083  1.1128  0.9374
 8014SOL    HW235679   2.133   1.551   7.239  1.1308  1.9306  0.7297
 8015SOL     OW35680   1.443   0.551   7.030 -0.2834 -0.7239  0.2974
 8015SOL    HW135681   1.448   0.471   6.978 -1.5677 -1.4382  1.2516
 8015SOL    HW235682   1.472   0.519   7.116  1.3560 -0.2745 -0.1012
 8016SOL     OW35683   1.553   2.485   8.560 -0.3515  0.2197  0.0758
 8016SOL    HW135684   1.548   2.415   8.495  1.0157  0.4357 -0.2667
 8016SOL    HW235685   1.480   2.535   8.522  0.1460 -0.6098 -1.9913
 8017SOL     OW35686   1.535   0.448   7.258  0.4138 -0.2728 -0.2227
 8017SOL    HW135687   1.552   0.357   7.234  0.1362 -0.2083 -0.6848
 8017SOL    HW235688   1.612   0.469   7.310 -0.2220  1.4820  0.0031
 8018SOL     OW35689   0.250   1.662   4.153  0.1857 -0.3027 -0.2316
 8018SOL    HW135690   0.311   1.734   4.164 -1.5674  1.0241  0.8769
 8018SOL    HW235691   0.172   1.715   4.133  0.0641 -0.1317  0.7073
 8019SOL     OW35692   3.611   0.889   9.134  0.3876  0.0872  0.6724
 8019SOL    HW135693   3.555   0.813   9.120  1.7925 -0.7976 -0.2308
 8019SOL    HW235694   3.634   0.880   9.227 -1.6851  1.4637  1.2980
 8020SOL     OW35695   3.103   0.519  13.967  0.1322 -0.0493  0.1059
 8020SOL    HW135696   3.158   0.596  13.951  1.4642 -1.0702 -0.1449
 8020SOL    HW235697   3.139   0.456  13.905 -1.0859 -1.1233  0.4979
 8021SOL     OW35698   3.518   3.154   4.658 -0.6365  0.5044  0.0062
 8021SOL    HW135699   3.491   3.078   4.606  0.2741  0.0025  0.2607
 8021SOL    HW235700   3.526   3.111   4.743 -0.2984 -0.2435 -0.4060
 8022SOL     OW35701   0.502   3.277   2.966  0.4527  0.0014  0.3566
 8022SOL    HW135702   0.471   3.362   2.998 -1.7975 -0.5705 -0.3033
 8022SOL    HW235703   0.593   3.275   2.995  0.9853  0.4139 -1.3109
 8023SOL     OW35704   1.569   0.850   2.848 -0.1509  0.3077  0.0043
 8023SOL    HW135705   1.550   0.924   2.904  0.3879 -0.3574  1.0688
 8023SOL    HW235706   1.582   0.896   2.765  0.7478  0.5842  0.3043
 8024SOL     OW35707   1.744   3.042   0.681  0.3869 -0.1406  0.1023
 8024SOL    HW135708   1.742   2.948   0.695 -3.0164 -0.1298 -0.3265
 8024SOL    HW235709   1.751   3.048   0.585 -2.1709 -1.4961 -0.1799
 8025SOL     OW35710   3.276   3.804   6.725 -0.6145 -0.2192  0.5952
 8025SOL    HW135711   3.361   3.812   6.682 -1.2498  1.1958 -0.3827
 8025SOL    HW235712   3.263   3.881   6.780  0.3686 -0.0750  0.6219
 8026SOL     OW35713   3.852   3.705   9.602 -0.7293 -0.0886  0.1334
 8026SOL    HW135714   3.862   3.762   9.526  0.1687 -0.3742  0.0342
 8026SOL    HW235715   3.810   3.629   9.562 -1.1645 -0.0518  0.5167
 8027SOL     OW35716   1.619   1.987   2.636 -0.1571 -0.2150 -0.0320
 8027SOL    HW135717   1.607   1.940   2.719 -1.4517 -0.0071 -0.1006
 8027SOL    HW235718   1.528   1.998   2.608 -0.1428 -2.6304 -1.0283
 8028SOL     OW35719   3.417   3.829  14.041 -0.4422  0.9411 -0.4835
 8028SOL    HW135720   3.376   3.831  14.127  0.6043  0.4183  0.0223
 8028SOL    HW235721   3.495   3.880  14.063  0.6443 -1.3180  0.8529
 8029SOL     OW35722   1.928   0.642   6.950 -0.6330 -0.1496  0.0683
 8029SOL    HW135723   1.834   0.648   6.938 -0.2199  0.5715 -2.9858
 8029SOL    HW235724   1.935   0.546   6.955 -1.9244 -0.1732  1.3299
 8030SOL     OW35725   3.042   1.725   0.954  0.3129 -0.5348 -0.1432
 8030SOL    HW135726   3.013   1.811   0.923  1.3698 -1.0265 -2.5364
 8030SOL    HW235727   2.982   1.719   1.028  1.3361 -0.1320  0.7184
 8031SOL     OW35728   2.445   3.563   6.475  0.1218 -0.1276  0.2345
 8031SOL    HW135729   2.456   3.468   6.473  0.9048 -0.0267 -0.0359
 8031SOL    HW235730   2.366   3.567   6.421  0.7981  0.6361 -0.7014
 8032SOL     OW35731   1.630   1.631   3.918  0.3162  0.7845 -0.2944
 8032SOL    HW135732   1.706   1.587   3.881 -0.7657 -2.8668  1.8812
 8032SOL    HW235733   1.671   1.717   3.932  1.9715 -0.3129  1.6307
 8033SOL     OW35734   0.472   4.722   7.611 -0.5286  0.3930  0.3585
 8033SOL    HW135735   0.380   4.704   7.628 -0.4307 -1.4946 -1.0805
 8033SOL    HW235736   0.500   4.643   7.563  1.6926  1.5734 -0.2859
 8034SOL     OW35737   3.346   1.680   7.136 -0.0256 -0.1618  0.0334
 8034SOL    HW135738   3.396   1.686   7.217  0.2606 -0.8692 -0.0923
 8034SOL    HW235739   3.281   1.751   7.137  2.0566  1.7174  1.0254
 8035SOL     OW35740   1.350   4.368   3.145 -0.1119  0.8610 -0.5530
 8035SOL    HW135741   1.438   4.388   3.176 -0.9498  1.7893  1.2222
 8035SOL    HW235742   1.339   4.440   3.082  1.3256  0.6797 -1.0033
 8036SOL     OW35743   3.890   3.059   5.869  0.0683  0.5028 -0.3920
 8036SOL    HW135744   3.964   3.119   5.863 -0.5294  1.3924  0.9528
 8036SOL    HW235745   3.818   3.122   5.868  0.7099  1.2430  0.0651
 8037SOL     OW35746   2.969   0.145   3.781 -0.1440 -0.0554  0.0850
 8037SOL    HW135747   3.014   0.207   3.838 -4.2787  2.1638  0.9249
 8037SOL    HW235748   2.994   0.059   3.816 -2.2507 -0.4254  0.6876
 8038SOL     OW35749   3.644   1.366  14.791 -0.9957 -0.6901 -0.2406
 8038SOL    HW135750   3.576   1.390  14.854 -1.0558  0.3069 -0.6841
 8038SOL    HW235751   3.696   1.446  14.785 -2.7806  0.4980  0.1889
 8039SOL     OW35752   3.092   1.134   5.743 -0.0280 -0.1016  0.0030
 8039SOL    HW135753   3.027   1.068   5.718  0.8000 -0.8464 -0.1865
 8039SOL    HW235754   3.134   1.100   5.821  0.3714  1.3573  0.4178
 8040SOL     OW35755   2.838   2.686   1.637  0.0232  0.4997 -0.3928
 8040SOL    HW135756   2.849   2.596   1.605 -0.3410  0.1743  0.3964
 8040SOL    HW235757   2.792   2.722   1.561 -0.3603  2.3302  0.7104
 8041SOL     OW35758   2.641   2.167  16.911  0.1158 -0.2149 -0.6949
 8041SOL    HW135759   2.688   2.231  16.856 -1.3371  1.7819  0.3959
 8041SOL    HW235760   2.708   2.099  16.912 -0.2332 -0.5611 -1.0439
 8042SOL     OW35761   3.796   0.869   7.915  0.0441  0.0540 -0.1254
 8042SOL    HW135762   3.753   0.879   8.000 -0.2572  1.1779 -0.4105
 8042SOL    HW235763   3.871   0.820   7.947  0.8319  0.7015 -0.9842
 8043SOL     OW35764   0.456   1.007  13.977 -0.1748 -0.5269 -0.1677
 8043SOL    HW135765   0.470   1.094  14.013  0.0809 -0.4179 -0.5396
 8043SOL    HW235766   0.547   0.990  13.954 -0.1016 -0.7221  0.2595
 8044SOL     OW35767   0.072   3.533   5.288 -0.1301 -0.6319  0.2004
 8044SOL    HW135768   0.106   3.486   5.212  1.8945 -0.6720  1.1280
 8044SOL    HW235769   0.055   3.454   5.339 -0.9563 -0.8798 -0.4739
 8045SOL     OW35770   1.394   2.819   7.183 -0.5126 -0.1917 -0.4103
 8045SOL    HW135771   1.421   2.852   7.269  0.3598  1.4318 -1.3071
 8045SOL    HW235772   1.395   2.902   7.135  1.2410  0.8436  1.4436
 8046SOL     OW35773   0.808   2.290   9.368 -0.6117  0.5536  0.2389
 8046SOL    HW135774   0.756   2.354   9.416  1.3480  0.2857  2.7285
 8046SOL    HW235775   0.813   2.322   9.278  0.9011 -1.4044 -0.3741
 8047SOL     OW35776   0.356   4.099   2.304  0.0168  0.1630 -0.1130
 8047SOL    HW135777   0.402   4.044   2.367  0.5649  0.4502 -0.2645
 8047SOL    HW235778   0.424   4.109   2.237 -0.3728 -3.2056 -1.0662
 8048SOL     OW35779   0.288   1.950   2.358  0.3241 -0.0114  0.2285
 8048SOL    HW135780   0.319   1.863   2.384 -0.2486 -0.5923 -1.0072
 8048SOL    HW235781   0.221   1.927   2.293  0.9692 -0.3707 -0.3027
 8049SOL     OW35782   1.624   1.549   0.144  0.0178  0.3079 -0.0312
 8049SOL    HW135783   1.646   1.558   0.237 -1.5918 -0.2297  0.3962
 8049SOL    HW235784   1.595   1.639   0.128 -0.9879  0.3805  2.2580
 8050SOL     OW35785   3.759   3.006   7.240  0.4857  0.3523 -0.3262
 8050SOL    HW135786   3.761   3.078   7.178  0.2947  0.1168 -0.6061
 8050SOL    HW235787   3.840   2.964   7.211  0.5359 -1.3591  2.2960
 8051SOL     OW35788   1.289   0.563   5.614  0.2150  0.2748  0.4107
 8051SOL    HW135789   1.326   0.620   5.546 -1.0608 -0.9275 -1.2791
 8051SOL    HW235790   1.325   0.589   5.699  1.3528  0.7208 -0.2069
 8052SOL     OW35791   0.273   0.884   8.638 -0.1676  0.6602 -0.3694
 8052SOL    HW135792   0.304   0.801   8.673 -3.0693 -0.6895 -0.9705
 8052SOL    HW235793   0.353   0.936   8.630 -0.9494  1.7837 -0.9049
 8053SOL     OW35794   1.328   0.272   6.292 -0.8313  0.1783  0.2399
 8053SOL    HW135795   1.362   0.186   6.313 -0.2021  0.3057 -0.2503
 8053SOL    HW235796   1.309   0.317   6.374  0.7338  0.9904  0.1656
 8054SOL     OW35797   3.163   0.967   9.645  0.2079 -0.2045 -0.6296
 8054SOL    HW135798   3.210   0.971   9.561 -0.1629  2.5618 -0.7019
 8054SOL    HW235799   3.234   0.996   9.701  2.3362 -3.4452 -1.6032
 8055SOL     OW35800   4.224   3.819   7.582 -0.1019 -0.6855  0.5889
 8055SOL    HW135801   4.220   3.861   7.668 -2.2093  0.5031 -0.0770
 8055SOL    HW235802   4.132   3.814   7.557  0.5966 -1.2127 -1.9124
 8056SOL     OW35803   3.577   4.048  13.372  0.3371  0.3478 -0.7493
 8056SOL    HW135804   3.615   4.136  13.371 -0.9992  0.8932 -3.0678
 8056SOL    HW235805   3.654   3.992  13.359 -0.5900 -1.1275  0.2049
 8057SOL     OW35806   2.917   4.239  14.042  0.2645  0.3294 -0.0830
 8057SOL    HW135807   2.938   4.198  14.126 -1.3758  1.6945  0.9972
 8057SOL    HW235808   2.982   4.309  14.049  0.7232 -0.3600  2.8184
 8058SOL     OW35809   2.430   3.855   6.415 -0.0573 -0.3337  0.0176
 8058SOL    HW135810   2.488   3.794   6.461  0.9997 -0.0607 -0.9605
 8058SOL    HW235811   2.466   3.942   6.430  0.4781 -0.4342 -0.6606
 8059SOL     OW35812   1.243   3.499   0.803  0.3417 -0.0861  0.1116
 8059SOL    HW135813   1.198   3.503   0.719 -0.9125  1.2817  0.8559
 8059SOL    HW235814   1.194   3.571   0.842  0.2979 -0.8398  1.4378
 8060SOL     OW35815   2.304   4.514   4.595  0.1722 -0.0020 -0.1558
 8060SOL    HW135816   2.362   4.589   4.611 -0.7219  0.6933 -0.1788
 8060SOL    HW235817   2.229   4.540   4.541  1.0337  1.6112 -0.5711
 8061SOL     OW35818   2.014   1.399   8.327 -0.6059  0.8301 -0.1055
 8061SOL    HW135819   2.034   1.483   8.368 -2.4589  1.3590 -0.3050
 8061SOL    HW235820   1.942   1.364   8.380 -0.8050  1.0723 -0.2213
 8062SOL     OW35821   4.187   2.393   8.830  0.0527  0.4399 -0.0544
 8062SOL    HW135822   4.269   2.430   8.861 -0.3650 -0.3498  2.0212
 8062SOL    HW235823   4.131   2.433   8.897 -1.0789  1.4099 -1.5535
 8063SOL     OW35824   2.961   0.908   4.924  0.3367 -0.7364 -0.3354
 8063SOL    HW135825   2.902   0.837   4.899  1.3389 -1.4052 -0.8145
 8063SOL    HW235826   2.899   0.950   4.984  1.5438  1.1611 -0.4280
 8064SOL     OW35827   2.048   0.229   8.955 -0.1209  0.4114  0.3110
 8064SOL    HW135828   1.998   0.269   8.884  0.4667  1.3309  0.4165
 8064SOL    HW235829   2.010   0.271   9.033 -0.9306  1.5543 -0.6963
 8065SOL     OW35830   3.079   4.461   3.465 -0.0930 -0.3854  0.5689
 8065SOL    HW135831   3.092   4.547   3.506  0.6101 -0.3973  0.3651
 8065SOL    HW235832   3.078   4.480   3.371 -0.5970 -0.1241  0.6276
 8066SOL     OW35833   2.295   3.038   4.957  0.0429 -0.7032  0.0170
 8066SOL    HW135834   2.372   3.010   4.908  1.1593 -2.4080  2.7662
 8066SOL    HW235835   2.245   2.957   4.964 -0.7141 -0.3859 -1.4948
 8067SOL     OW35836   3.259   2.745   1.282 -0.0953  0.3078 -0.5253
 8067SOL    HW135837   3.258   2.696   1.200  1.3564  0.8288 -0.8591
 8067SOL    HW235838   3.229   2.825   1.239  2.6653  0.5899 -1.9090
 8068SOL     OW35839   3.477   0.813   6.587 -0.0296  0.2981 -0.1875
 8068SOL    HW135840   3.405   0.772   6.541 -0.2835  1.3869 -0.7691
 8068SOL    HW235841   3.527   0.732   6.592 -0.5110  0.0534  0.5324
 8069SOL     OW35842   4.366   2.565  16.018  0.0978  0.1132  0.8704
 8069SOL    HW135843   4.308   2.641  16.028 -0.4995 -0.0526 -1.4210
 8069SOL    HW235844   4.315   2.503  15.966 -0.7268  2.6667 -1.3858
 8070SOL     OW35845   2.460   2.054   8.771 -0.1541 -0.3828 -0.1184
 8070SOL    HW135846   2.498   2.103   8.844  0.7055 -1.7584  0.3619
 8070SOL    HW235847   2.380   2.097   8.741  0.1998  1.8015  2.0450
 8071SOL     OW35848   3.325   1.552   4.235 -0.4001  0.7001 -0.0601
 8071SOL    HW135849   3.390   1.606   4.280 -0.7210  1.1250 -0.1022
 8071SOL    HW235850   3.256   1.529   4.298 -0.6649  0.3818 -0.4651
 8072SOL     OW35851   4.622   4.165   2.776 -0.2352 -0.0993 -0.0886
 8072SOL    HW135852   4.638   4.258   2.759  0.6467  0.2109  2.5008
 8072SOL    HW235853   4.711   4.131   2.784  0.3120  1.1321 -0.8498
 8073SOL     OW35854   4.470   2.532  11.627  0.5137  0.3562  0.7800
 8073SOL    HW135855   4.499   2.539  11.536 -1.1024  0.4813  0.2816
 8073SOL    HW235856   4.510   2.446  11.642  1.2883  0.7149  0.7729
 8074SOL     OW35857   3.757   2.462   5.464  0.0289  0.1552 -0.6661
 8074SOL    HW135858   3.842   2.505   5.460 -0.1024  0.6252  1.3179
 8074SOL    HW235859   3.710   2.534   5.423  0.8452  1.4277  0.6390
 8075SOL     OW35860   0.638   0.196  10.746  0.1779  0.0114 -0.0345
 8075SOL    HW135861   0.732   0.180  10.732  0.0127 -1.3954  0.4222
 8075SOL    HW235862   0.635   0.291  10.755 -0.6176 -0.0090 -0.0976
 8076SOL     OW35863   2.223   4.196   5.074 -0.1298 -0.1254 -0.2684
 8076SOL    HW135864   2.150   4.135   5.060 -0.0293 -0.2583 -0.2187
 8076SOL    HW235865   2.288   4.128   5.094 -0.3082  0.1531  1.2733
 8077SOL     OW35866   0.087   2.979   6.806 -0.3818  0.2668 -0.2372
 8077SOL    HW135867   0.182   2.988   6.813 -0.5193  0.2185  1.7479
 8077SOL    HW235868   0.060   2.936   6.887  0.3773 -0.2323 -0.2508
 8078SOL     OW35869   3.977   4.345  15.770 -0.0477  0.2193  0.3793
 8078SOL    HW135870   3.965   4.388  15.686  0.0613  2.4562  1.4981
 8078SOL    HW235871   4.067   4.368  15.793 -0.6177  1.9413  0.8952
 8079SOL     OW35872   3.132   3.854   8.796 -0.6471 -0.3547 -0.3891
 8079SOL    HW135873   3.050   3.805   8.799 -1.6863  1.2862 -2.0695
 8079SOL    HW235874   3.156   3.841   8.704 -0.1054 -0.3856 -0.2455
 8080SOL     OW35875   1.787   3.810   7.789 -0.6096 -0.1812 -0.1193
 8080SOL    HW135876   1.744   3.870   7.727  1.6651  0.5739 -0.9706
 8080SOL    HW235877   1.710   3.757   7.811 -1.1838  0.8719  0.4384
 8081SOL     OW35878   1.442   3.026   4.732 -0.5776  0.7253  0.0910
 8081SOL    HW135879   1.351   3.026   4.702  0.1008  0.9295 -1.9570
 8081SOL    HW235880   1.447   2.944   4.781 -1.5564  1.1800  0.9372
 8082SOL     OW35881   4.315   1.545  14.428  0.1555 -0.0069  0.7102
 8082SOL    HW135882   4.403   1.548  14.392  0.6674  0.7262  2.0311
 8082SOL    HW235883   4.264   1.589  14.359  2.0183 -2.5660 -2.2730
 8083SOL     OW35884   3.169   3.344   1.938  0.1493 -0.0873  0.2749
 8083SOL    HW135885   3.255   3.385   1.948  0.2255 -0.2181  0.1469
 8083SOL    HW235886   3.193   3.287   1.865  2.1531  0.8334  0.2066
 8084SOL     OW35887   4.673   1.322   1.425 -0.3992  0.1395 -0.0494
 8084SOL    HW135888   4.596   1.275   1.457  0.1626 -1.3021 -0.8302
 8084SOL    HW235889   4.722   1.327   1.508  0.1000 -0.0459 -0.3316
 8085SOL     OW35890   0.072   4.650   3.068 -0.1120 -0.0668 -0.0026
 8085SOL    HW135891   0.009   4.669   2.998  0.1889  0.3207 -0.1682
 8085SOL    HW235892   0.040   4.712   3.133  0.8793  0.2673  0.1550
 8086SOL     OW35893   1.433   1.151  10.213  0.3560  0.3510 -0.5369
 8086SOL    HW135894   1.371   1.106  10.270  1.0854 -0.5739 -0.4809
 8086SOL    HW235895   1.393   1.129  10.129  1.1143 -0.1386 -0.7636
 8087SOL     OW35896   0.421   1.195  14.301 -0.2105 -0.2440  0.0557
 8087SOL    HW135897   0.441   1.122  14.360  1.2158  0.8989  0.9761
 8087SOL    HW235898   0.442   1.266  14.362  0.9236  1.5641 -2.4346
 8088SOL     OW35899   4.045   0.434   6.095 -0.7741 -0.4440 -0.6036
 8088SOL    HW135900   4.033   0.487   6.016  0.1552 -1.2806 -1.3050
 8088SOL    HW235901   4.086   0.495   6.156 -1.9308  0.7111 -0.9678
 8089SOL     OW35902   1.951   1.107   2.920  0.3078  0.2260  0.2210
 8089SOL    HW135903   2.017   1.078   2.857 -0.9967  0.4098 -1.2243
 8089SOL    HW235904   1.915   1.020   2.936  0.9782 -0.2616 -0.9177
 8090SOL     OW35905   2.202   2.791   2.973 -0.0345 -0.5616 -0.5254
 8090SOL    HW135906   2.202   2.886   2.967 -0.7860 -0.6231 -1.4564
 8090SOL    HW235907   2.111   2.777   2.949 -0.0339 -1.3667 -0.0472
 8091SOL     OW35908   2.849   3.170   3.921 -0.3992  0.0904 -0.9616
 8091SOL    HW135909   2.854   3.130   4.008  2.9139 -0.3010 -1.3426
 8091SOL    HW235910   2.923   3.131   3.876 -0.0379 -1.0831  0.6268
 8092SOL     OW35911   1.047   2.795   3.795  0.2978 -0.1106  0.0672
 8092SOL    HW135912   1.000   2.840   3.725  0.3161 -2.4206 -1.4033
 8092SOL    HW235913   1.135   2.807   3.762  0.4844 -0.3301  0.4847
 8093SOL     OW35914   2.989   3.504   8.745 -0.3908 -0.5207 -0.5142
 8093SOL    HW135915   2.952   3.588   8.773  0.0453 -0.4647 -0.1043
 8093SOL    HW235916   2.964   3.498   8.653 -2.4162  1.1827 -0.0679
 8094SOL     OW35917   3.731   0.670   3.724  0.1112  0.1631  0.0573
 8094SOL    HW135918   3.792   0.660   3.797 -2.8900  0.6834  2.6861
 8094SOL    HW235919   3.749   0.763   3.709  1.6612 -0.2667 -0.7707
 8095SOL     OW35920   4.347   1.593   5.627  0.8846 -0.2822  0.6119
 8095SOL    HW135921   4.286   1.635   5.567  0.1726 -1.5048  0.4713
 8095SOL    HW235922   4.295   1.569   5.704 -0.1182  0.5374  0.1874
 8096SOL     OW35923   3.273   0.453   9.580  0.5829 -0.3507  0.5703
 8096SOL    HW135924   3.270   0.548   9.587  0.3519 -0.5148  2.7063
 8096SOL    HW235925   3.329   0.443   9.504  1.0973  3.1876  0.4971
 8097SOL     OW35926   3.678   1.570   3.788  0.1809 -0.2484 -0.3398
 8097SOL    HW135927   3.652   1.542   3.700  0.4182 -0.2761 -0.4016
 8097SOL    HW235928   3.756   1.622   3.768  0.0977  0.2221  0.5857
 8098SOL     OW35929   3.539   4.242   2.625 -0.5753 -0.4720  0.2933
 8098SOL    HW135930   3.563   4.311   2.563 -1.3585  0.0539  0.5798
 8098SOL    HW235931   3.532   4.172   2.560  0.0963 -1.6118  1.4392
 8099SOL     OW35932   4.144   1.685   9.831 -0.0875  0.1735 -0.3137
 8099SOL    HW135933   4.109   1.769   9.859 -1.1619 -1.1158  2.2162
 8099SOL    HW235934   4.063   1.644   9.799  0.6794 -1.5622 -0.0150
 8100SOL     OW35935   2.736   3.970  16.188  0.0150 -0.5307 -0.3457
 8100SOL    HW135936   2.679   3.975  16.111 -1.5653 -0.0693  0.8715
 8100SOL    HW235937   2.753   4.064  16.201  2.1855 -0.9036 -0.4775
 8101SOL     OW35938   2.819   3.126  16.861 -1.0000 -0.4272 -0.0123
 8101SOL    HW135939   2.884   3.194  16.876 -0.4978 -0.4959 -1.7948
 8101SOL    HW235940   2.854   3.049  16.906 -2.2046 -0.0466  1.5840
 8102SOL     OW35941   3.873   3.756   8.817 -0.3171  0.3609 -0.6680
 8102SOL    HW135942   3.820   3.835   8.829 -1.2048 -0.0661 -1.8540
 8102SOL    HW235943   3.832   3.710   8.744 -0.7334  1.1878 -0.9625
 8103SOL     OW35944   4.240   2.151   4.316 -0.5439  0.1076 -0.7024
 8103SOL    HW135945   4.211   2.187   4.233  1.1446  0.2325 -1.2440
 8103SOL    HW235946   4.254   2.232   4.364  0.6736  0.4588 -1.6495
 8104SOL     OW35947   1.154   2.167  14.487  0.0374 -0.2807 -0.3213
 8104SOL    HW135948   1.222   2.161  14.554  0.0247 -1.0438 -0.3856
 8104SOL    HW235949   1.208   2.138  14.412  1.3171 -1.5540  1.0948
 8105SOL     OW35950   3.796   0.520   7.806  0.4470 -0.4438  0.9650
 8105SOL    HW135951   3.724   0.581   7.793  1.4813  0.7128  0.6493
 8105SOL    HW235952   3.854   0.574   7.753  1.0084 -1.7145  0.2776
 8106SOL     OW35953   0.778   3.538   1.527 -0.1897 -0.2692  0.2261
 8106SOL    HW135954   0.853   3.496   1.485 -0.1912  0.3968 -0.4522
 8106SOL    HW235955   0.797   3.511   1.617 -2.0932  1.5085  1.1477
 8107SOL     OW35956   2.497   2.212   7.138 -0.1190  0.7172  0.3361
 8107SOL    HW135957   2.466   2.295   7.176 -0.0705  1.0047 -0.2479
 8107SOL    HW235958   2.501   2.158   7.217  0.0913 -2.2065 -1.6801
 8108SOL     OW35959   1.977   2.875   4.063  0.1238 -0.2292  0.7820
 8108SOL    HW135960   2.068   2.880   4.092  0.1144 -0.1736  0.8032
 8108SOL    HW235961   1.935   2.946   4.113 -1.4786  0.3584 -1.3932
 8109SOL     OW35962   3.817   2.153  14.998 -0.0366  0.2409  0.1490
 8109SOL    HW135963   3.765   2.225  14.963  0.4259  0.4636 -0.0747
 8109SOL    HW235964   3.850   2.192  15.079  1.1899  1.2261 -0.8399
 8110SOL     OW35965   3.629   2.324  17.542 -0.0805 -0.3313 -0.5505
 8110SOL    HW135966   3.665   2.275  17.617 -0.3266  0.8496  0.3327
 8110SOL    HW235967   3.541   2.343  17.573 -0.0340  0.5603 -0.9998
 8111SOL     OW35968   4.286   1.727  10.540 -0.1124  0.2389 -0.4165
 8111SOL    HW135969   4.221   1.742  10.472 -3.3142  0.3200  2.6433
 8111SOL    HW235970   4.361   1.775  10.505  0.3451  2.1489  3.1337
 8112SOL     OW35971   1.681   3.241   3.210  0.2589 -0.1948 -0.3321
 8112SOL    HW135972   1.697   3.315   3.269  2.2432 -1.0208  0.1473
 8112SOL    HW235973   1.699   3.168   3.269  1.3569  0.2060 -0.1803
 8113SOL     OW35974   4.719   1.311   4.528 -0.7394  0.4532 -0.3041
 8113SOL    HW135975   4.727   1.217   4.508 -2.3894  0.2310  0.0618
 8113SOL    HW235976   0.030   1.313   4.612 -4.1296  0.8231  1.4506
 8114SOL     OW35977   1.150   2.742   2.087  0.3306 -0.2665  0.0033
 8114SOL    HW135978   1.218   2.676   2.069  0.3779 -0.3695  0.5485
 8114SOL    HW235979   1.149   2.792   2.006 -0.4134 -1.2024 -0.5675
 8115SOL     OW35980   3.317   2.944   0.310 -0.0735 -0.5431 -0.3705
 8115SOL    HW135981   3.324   3.037   0.332 -0.1735 -0.8695  0.9847
 8115SOL    HW235982   3.398   2.938   0.260  0.2709 -1.9941  0.3750
 8116SOL     OW35983   3.123   0.950  14.941 -0.0878  0.1249  0.2846
 8116SOL    HW135984   3.203   1.001  14.927  0.7928 -1.5766 -0.8578
 8116SOL    HW235985   3.164   0.878  14.988 -0.0048  0.7857  1.2186
 8117SOL     OW35986   3.580   0.803   9.752 -0.5652 -0.1370  0.1838
 8117SOL    HW135987   3.596   0.851   9.833 -0.3837  0.5575 -0.2672
 8117SOL    HW235988   3.667   0.796   9.714  0.4397 -0.8260  2.6126
 8118SOL     OW35989   3.352   0.309  10.874  0.0183  0.4720  0.5265
 8118SOL    HW135990   3.377   0.372  10.942  0.6694  2.0218 -1.1491
 8118SOL    HW235991   3.257   0.301  10.885 -0.2066  0.7233 -1.1573
 8119SOL     OW35992   2.946   4.448  11.960 -0.1678 -0.0899  0.1161
 8119SOL    HW135993   2.962   4.492  11.877  1.8482  3.1821  2.2377
 8119SOL    HW235994   2.970   4.522  12.016  1.0481  0.2055 -0.7881
 8120SOL     OW35995   1.527   2.371   9.554 -0.4782 -0.2171 -0.6435
 8120SOL    HW135996   1.457   2.307   9.542  0.3782 -1.0401 -1.3574
 8120SOL    HW235997   1.518   2.410   9.467 -0.6101 -0.0381 -0.5467
 8121SOL     OW35998   4.507   3.176  12.537  0.3819  0.4658 -0.5598
 8121SOL    HW135999   4.457   3.095  12.539  2.3008 -0.6739  0.6478
 8121SOL    HW236000   4.441   3.238  12.566 -0.0943 -0.7055  0.8418
 8122SOL     OW36001   3.875   2.975   2.153  0.8753 -0.0458 -1.0028
 8122SOL    HW136002   3.942   3.040   2.171  1.0784 -1.0418  1.7550
 8122SOL    HW236003   3.796   3.022   2.179  1.0714  0.0972 -0.6760
 8123SOL     OW36004   1.035   0.719   9.173 -0.6804 -0.2430 -0.0421
 8123SOL    HW136005   1.108   0.658   9.179 -0.2593  0.2466 -0.1229
 8123SOL    HW236006   1.030   0.768   9.255  0.0417 -5.1636  2.9089
 8124SOL     OW36007   1.457   1.653  10.993 -0.5506  0.0594 -0.1263
 8124SOL    HW136008   1.489   1.563  10.995 -1.5094 -0.2864 -0.0316
 8124SOL    HW236009   1.407   1.649  11.074 -0.4403  0.5155 -0.0404
 8125SOL     OW36010   0.234   4.368  10.369 -0.6365 -0.3920  0.2093
 8125SOL    HW136011   0.240   4.457  10.402  0.2100  0.1728 -1.4721
 8125SOL    HW236012   0.322   4.334  10.389 -1.0899  0.6242  3.8069
 8126SOL     OW36013   4.651   1.593   9.106  0.1620 -0.2483 -0.4607
 8126SOL    HW136014   4.624   1.509   9.068  0.5516 -1.4971  2.0030
 8126SOL    HW236015   4.699   1.634   9.034  1.2120 -0.6617  0.0182
 8127SOL     OW36016   3.456   1.469   6.548 -0.4938  0.0946  0.3692
 8127SOL    HW136017   3.489   1.469   6.638 -0.0870  1.9171  0.2028
 8127SOL    HW236018   3.387   1.535   6.549 -0.3002  0.3066 -0.1186
 8128SOL     OW36019   4.304   2.421  13.676  0.8549 -0.3264 -0.7205
 8128SOL    HW136020   4.386   2.385  13.708  0.2302 -0.5572  0.6105
 8128SOL    HW236021   4.322   2.400  13.585  0.9880 -0.9440 -0.5467
 8129SOL     OW36022   2.236   3.380  11.914  0.4046 -0.3388 -0.7190
 8129SOL    HW136023   2.268   3.324  11.844  0.3149 -1.5695  0.2373
 8129SOL    HW236024   2.143   3.361  11.901 -0.2298  2.1747  0.1920
 8130SOL     OW36025   1.177   0.839   1.969  0.4995  0.2009  0.3628
 8130SOL    HW136026   1.191   0.915   2.026 -1.3156 -0.0091  1.1125
 8130SOL    HW236027   1.096   0.800   2.003  0.8478 -0.2141  0.7020
 8131SOL     OW36028   0.346   2.695   8.836  0.2856  0.1534 -0.0500
 8131SOL    HW136029   0.316   2.662   8.921 -0.5110 -1.4340 -0.9393
 8131SOL    HW236030   0.329   2.788   8.848  0.6779  0.2451 -0.2282
 8132SOL     OW36031   3.597   0.805   4.171  0.1782 -0.2742  0.4424
 8132SOL    HW136032   3.625   0.770   4.256  1.9367  0.7401  0.2632
 8132SOL    HW236033   3.537   0.734   4.146 -0.0472 -0.6115  1.9072
 8133SOL     OW36034   4.077   1.937   6.570 -0.6230  0.3820  0.3103
 8133SOL    HW136035   4.106   1.989   6.495 -3.8765  0.0722 -1.1473
 8133SOL    HW236036   4.029   1.876   6.514  0.6682  1.2707 -1.7728
 8134SOL     OW36037   1.348   1.083   6.097  0.4811  0.8854 -0.0520
 8134SOL    HW136038   1.415   1.056   6.160 -0.7597 -2.3572 -0.1397
 8134SOL    HW236039   1.267   1.063   6.142  1.2019 -0.9093  0.4424
 8135SOL     OW36040   3.491   1.539   3.429 -0.4311 -0.1226  0.3440
 8135SOL    HW136041   3.508   1.623   3.471 -1.0009 -0.7612  1.8739
 8135SOL    HW236042   3.411   1.507   3.470 -0.3710 -2.6519 -1.5310
 8136SOL     OW36043   0.350   3.131   3.856  0.4662 -0.3082  1.0009
 8136SOL    HW136044   0.365   3.037   3.842  1.9682  0.2026 -0.7743
 8136SOL    HW236045   0.316   3.131   3.946 -1.2669  1.6489  0.3378
 8137SOL     OW36046   4.585   2.233  11.684 -0.2761  0.1094 -0.2119
 8137SOL    HW136047   4.496   2.204  11.663  0.0709 -0.0934 -1.4007
 8137SOL    HW236048   4.641   2.175  11.633  1.3017  1.6768 -0.2415
 8138SOL     OW36049   2.201   0.909  10.347 -0.4881  0.0527  0.1115
 8138SOL    HW136050   2.137   0.849  10.308 -1.0792  1.3027 -0.8453
 8138SOL    HW236051   2.149   0.984  10.320 -1.7201 -1.0249 -0.5185
 8139SOL     OW36052   0.690   3.462   7.545  0.1029  0.2147  0.0698
 8139SOL    HW136053   0.608   3.463   7.494  0.8516  1.2831 -1.1203
 8139SOL    HW236054   0.686   3.553   7.574 -0.5566  0.0861  0.3758
 8140SOL     OW36055   3.682   0.090   7.833 -0.5332  0.2305  0.5184
 8140SOL    HW136056   3.661   0.049   7.917 -0.5997  0.9348  0.8456
 8140SOL    HW236057   3.656   0.178   7.859 -0.0229  0.5944 -0.2099
 8141SOL     OW36058   1.749   1.718   4.425 -0.1393 -0.2643  0.1692
 8141SOL    HW136059   1.795   1.801   4.427 -0.8787  0.1379  0.3369
 8141SOL    HW236060   1.816   1.658   4.392 -0.0364 -1.1736  2.0270
 8142SOL     OW36061   1.763   0.354  16.694 -0.4992  0.0449 -0.0980
 8142SOL    HW136062   1.782   0.262  16.715  0.0633 -0.0813 -1.1304
 8142SOL    HW236063   1.766   0.395  16.781 -1.3446 -1.1730  0.5069
 8143SOL     OW36064   4.488   2.011   8.604  0.1545 -0.3948 -0.2840
 8143SOL    HW136065   4.440   2.073   8.658 -1.2042 -1.1323 -0.6467
 8143SOL    HW236066   4.562   2.066   8.579  0.9047 -1.5637 -0.6083
 8144SOL     OW36067   2.922   3.745  17.201 -0.0635 -0.2279 -0.4750
 8144SOL    HW136068   2.995   3.752  17.263 -0.7555 -0.3174  0.3500
 8144SOL    HW236069   2.947   3.664  17.156 -1.8556 -0.2330 -1.4460
 8145SOL     OW36070   0.377   4.147  17.601  0.1002  0.2472 -0.1935
 8145SOL    HW136071   0.377   4.131  17.506  0.9288 -1.1448  0.0406
 8145SOL    HW236072   0.465   4.177  17.623  0.1463 -0.2380  0.2556
 8146SOL     OW36073   2.492   1.311   6.236  0.1239  0.3519  0.0103
 8146SOL    HW136074   2.542   1.358   6.303  2.6332 -0.0569 -1.6058
 8146SOL    HW236075   2.506   1.371   6.163  1.9963  0.7473  0.7021
 8147SOL     OW36076   3.022   0.260   2.532 -0.1846  0.5885  0.4037
 8147SOL    HW136077   2.933   0.228   2.517  0.8608 -1.8641 -0.5925
 8147SOL    HW236078   3.064   0.220   2.456  0.8502  0.5296  1.0156
 8148SOL     OW36079   2.855   3.629   6.711 -0.3841  0.0760 -0.0656
 8148SOL    HW136080   2.902   3.545   6.707 -0.7533 -0.0983 -0.7675
 8148SOL    HW236081   2.902   3.674   6.641  1.3935 -2.4353 -0.5265
 8149SOL     OW36082   1.669   0.189   5.985  0.3319 -0.2884  0.2737
 8149SOL    HW136083   1.676   0.165   5.893  0.6746 -0.8663  0.4487
 8149SOL    HW236084   1.643   0.110   6.033 -0.8443 -0.1767 -0.1716
 8150SOL     OW36085   2.185   1.705   0.321  0.2228  0.1114 -0.2630
 8150SOL    HW136086   2.166   1.697   0.228 -2.0927  1.9836  0.0642
 8150SOL    HW236087   2.272   1.744   0.323  0.0787  0.4851 -1.2085
 8151SOL     OW36088   1.925   4.716   9.631  0.2974 -0.8200 -0.2386
 8151SOL    HW136089   1.870   4.639   9.647 -1.0404  0.2309  0.2099
 8151SOL    HW236090   1.931   4.718   9.536  2.8001  1.3724 -0.0311
 8152SOL     OW36091   2.299   3.578   3.633  0.3440 -0.2073  0.0215
 8152SOL    HW136092   2.311   3.510   3.700  1.4185 -0.3264 -0.2776
 8152SOL    HW236093   2.306   3.525   3.554 -1.8165 -0.8530  0.2588
 8153SOL     OW36094   0.936   1.507   8.762  0.1463  0.7139 -0.1872
 8153SOL    HW136095   0.894   1.549   8.838 -0.0584 -0.8297  0.5576
 8153SOL    HW236096   0.880   1.533   8.689  0.1686  0.4325 -0.3045
 8154SOL     OW36097   1.175   4.253  16.985 -0.3399  0.2084 -0.1129
 8154SOL    HW136098   1.138   4.327  16.938 -0.2621 -0.8665 -1.8563
 8154SOL    HW236099   1.115   4.184  16.956  1.1908 -1.2179  0.0848
 8155SOL     OW36100   4.719   3.036   8.069 -0.1096  0.5609  0.1902
 8155SOL    HW136101   4.703   3.096   8.142 -0.9007  0.7468 -0.1412
 8155SOL    HW236102   4.649   2.972   8.083 -0.5621  1.1586  0.6586
 8156SOL     OW36103   2.872   3.437   1.032  0.5468  0.2828  0.2131
 8156SOL    HW136104   2.908   3.498   1.096 -2.0613  1.2015  0.8434
 8156SOL    HW236105   2.792   3.405   1.074 -0.2633  0.5236 -1.1346
 8157SOL     OW36106   2.124   0.622   4.779 -0.0387 -0.1026 -0.0183
 8157SOL    HW136107   2.218   0.600   4.775 -0.2354 -0.6912 -1.1466
 8157SOL    HW236108   2.096   0.531   4.773  0.7688 -0.1495 -2.7126
 8158SOL     OW36109   4.603   4.502   5.533 -0.2137 -0.0895 -0.8985
 8158SOL    HW136110   4.627   4.594   5.517 -2.8458  0.4989 -1.3814
 8158SOL    HW236111   4.592   4.496   5.628 -0.6831  1.4186 -0.8548
 8159SOL     OW36112   0.915   1.578   7.181 -0.5242  0.3156 -0.0920
 8159SOL    HW136113   0.924   1.484   7.197 -0.6663  0.8036  2.8515
 8159SOL    HW236114   0.872   1.610   7.261 -2.6934  0.3021 -1.2402
 8160SOL     OW36115   3.689   2.650  13.049 -0.5402 -0.0148 -0.6072
 8160SOL    HW136116   3.699   2.588  12.976  0.2747  1.0739 -1.4316
 8160SOL    HW236117   3.640   2.724  13.012 -2.2435 -0.7007  0.2921
 8161SOL     OW36118   1.335   0.308   8.989 -0.4925 -0.5250  1.0938
 8161SOL    HW136119   1.311   0.328   9.080  0.1851  0.6136  1.0122
 8161SOL    HW236120   1.340   0.213   9.005  0.0290 -0.9692 -1.8578
 8162SOL     OW36121   0.071   1.662   1.726  0.3242  0.4269  0.1833
 8162SOL    HW136122   4.718   1.703   1.733 -0.7994 -2.0287  0.6101
 8162SOL    HW236123   0.128   1.727   1.686 -0.2572  1.1726  0.5771
 8163SOL     OW36124   4.591   0.313   0.918  0.1069 -0.1258  0.6923
 8163SOL    HW136125   4.547   0.395   0.898  0.6080 -0.5271 -2.0090
 8163SOL    HW236126   4.670   0.350   0.958 -0.3113 -0.0659  1.4609
 8164SOL     OW36127   4.069   3.004   2.740  0.0836  0.0167 -0.0731
 8164SOL    HW136128   4.000   2.941   2.716  0.0226  0.2629 -0.5351
 8164SOL    HW236129   4.085   3.070   2.672  1.7689 -1.1496 -0.8115
 8165SOL     OW36130   1.491   3.368   3.381  0.0027 -0.1307  0.3160
 8165SOL    HW136131   1.541   3.292   3.411  0.5031 -0.2975 -0.9274
 8165SOL    HW236132   1.417   3.377   3.441 -0.5904  0.4764 -0.5079
 8166SOL     OW36133   0.520   0.092  17.063 -0.0359  0.3036 -0.0691
 8166SOL    HW136134   0.490   0.113  17.151 -0.4541  1.8500 -0.5778
 8166SOL    HW236135   0.441   0.109  17.012  1.2728  0.1365 -2.1625
 8167SOL     OW36136   0.856   1.368  14.004 -0.0662 -0.3854  0.7542
 8167SOL    HW136137   0.879   1.275  14.001 -0.6066 -0.5242  0.8124
 8167SOL    HW236138   0.927   1.396  14.061  1.2131  1.6825 -1.8727
 8168SOL     OW36139   3.256   2.674   8.833 -0.1894 -0.1301 -0.1091
 8168SOL    HW136140   3.272   2.767   8.821  0.4282 -0.0239  1.5783
 8168SOL    HW236141   3.300   2.647   8.753 -0.7498 -0.7949 -0.1981
 8169SOL     OW36142   2.823   4.619   9.705  0.2962  0.0079  0.1631
 8169SOL    HW136143   2.731   4.619   9.731  0.1206 -1.7987 -0.3949
 8169SOL    HW236144   2.848   4.701   9.662  0.5660  1.0461  2.3467
 8170SOL     OW36145   2.351   0.518   4.932  0.0339 -0.1806 -0.4308
 8170SOL    HW136146   2.425   0.507   4.991 -0.0722 -1.9091 -0.6137
 8170SOL    HW236147   2.396   0.530   4.848  1.0987 -0.9782  0.0300
 8171SOL     OW36148   0.654   1.217   6.596  0.0605  0.9603 -0.1578
 8171SOL    HW136149   0.662   1.259   6.681  0.7478 -3.6862  2.0815
 8171SOL    HW236150   0.739   1.173   6.584 -0.4034  0.6865 -2.3929
 8172SOL     OW36151   0.503   3.483   4.651  0.7013  0.0872 -0.5137
 8172SOL    HW136152   0.423   3.530   4.629  1.0126  1.2839  0.9159
 8172SOL    HW236153   0.530   3.527   4.731  2.0719  0.1718 -1.0322
 8173SOL     OW36154   1.469   0.269  14.187  0.0636 -0.2264 -0.2743
 8173SOL    HW136155   1.464   0.252  14.093 -0.9626 -0.3172 -0.2099
 8173SOL    HW236156   1.530   0.201  14.217 -2.1089 -0.9268  2.5701
 8174SOL     OW36157   3.168   0.176   9.619 -0.4436  0.0352 -0.0372
 8174SOL    HW136158   3.121   0.194   9.701  0.3838  0.7511  0.2752
 8174SOL    HW236159   3.229   0.249   9.618  1.0214 -1.2099 -0.0245
 8175SOL     OW36160   2.655   4.586  17.485 -0.3451 -0.5115  0.1034
 8175SOL    HW136161   2.618   4.663  17.443 -0.8124 -0.0187  1.4116
 8175SOL    HW236162   2.729   4.615  17.539 -0.9582  0.4046  0.4452
 8176SOL     OW36163   2.133   0.849   9.546  0.2713 -0.0949 -0.2757
 8176SOL    HW136164   2.200   0.871   9.482  0.1914  1.1641  0.0776
 8176SOL    HW236165   2.179   0.817   9.624 -0.1657  1.1140  0.4882
 8177SOL     OW36166   1.903   0.540   3.025  0.1063  0.7666 -0.2121
 8177SOL    HW136167   1.921   0.510   3.114 -3.0361  1.5913  0.7151
 8177SOL    HW236168   1.807   0.537   3.018 -0.0182  1.6829  0.9979
 8178SOL     OW36169   4.342   0.505   2.955  0.0380  0.1477  0.2553
 8178SOL    HW136170   4.367   0.461   2.874  0.7590 -1.9682  1.6195
 8178SOL    HW236171   4.329   0.596   2.927  2.0168  0.6984  1.1219
 8179SOL     OW36172   1.416   1.973   6.698  0.3165 -0.0059 -0.3220
 8179SOL    HW136173   1.347   2.024   6.740 -0.6581 -1.1625 -0.5128
 8179SOL    HW236174   1.436   2.022   6.619  0.2171  0.2717 -0.1745
 8180SOL     OW36175   4.588   1.215  16.420  0.2924 -0.1174 -0.2248
 8180SOL    HW136176   4.576   1.283  16.354  1.3031  2.9211  2.6983
 8180SOL    HW236177   4.533   1.254  16.488  0.1386  1.0657 -1.0311
 8181SOL     OW36178   3.837   0.235   9.116  0.3534  0.3754 -0.0378
 8181SOL    HW136179   3.893   0.196   9.049  0.3713  0.3941 -0.0337
 8181SOL    HW236180   3.835   0.159   9.173  1.3807 -0.2532 -0.8295
 8182SOL     OW36181   0.495   0.147   2.148  0.3460  0.1142  0.3717
 8182SOL    HW136182   0.537   0.069   2.113  0.3801  0.1712  0.2866
 8182SOL    HW236183   0.445   0.107   2.219  1.7244  0.3664  1.4864
 8183SOL     OW36184   3.803   3.844   4.169 -0.5212 -0.6147  0.3614
 8183SOL    HW136185   3.780   3.755   4.144 -2.5266  0.1946 -0.7650
 8183SOL    HW236186   3.764   3.846   4.257  1.6608 -0.9406  1.3123
 8184SOL     OW36187   2.646   2.704   4.504  0.0645 -0.2622 -0.2555
 8184SOL    HW136188   2.639   2.708   4.409 -0.5410 -1.3585 -0.2707
 8184SOL    HW236189   2.559   2.674   4.532 -0.0321 -0.7673 -1.1018
 8185SOL     OW36190   0.851   2.644   7.825 -0.5063 -0.0396 -0.6754
 8185SOL    HW136191   0.770   2.609   7.787 -0.4391 -0.6245 -0.2710
 8185SOL    HW236192   0.912   2.579   7.791 -0.6506 -0.1906 -0.6422
 8186SOL     OW36193   4.424   2.371   8.108 -0.0356  0.3365  0.8247
 8186SOL    HW136194   4.501   2.424   8.087 -2.4109  1.7761 -4.1665
 8186SOL    HW236195   4.427   2.314   8.031 -0.0959 -1.5528  2.2462
 8187SOL     OW36196   2.732   3.982   0.764 -0.3933  0.8807  0.1689
 8187SOL    HW136197   2.772   3.918   0.823  1.4537  1.3103 -0.6307
 8187SOL    HW236198   2.639   3.966   0.781 -0.8611  1.7069 -1.6081
 8188SOL     OW36199   0.172   1.209   1.969 -0.5659 -0.1001 -0.3306
 8188SOL    HW136200   0.235   1.196   1.898 -1.1933 -2.1009 -0.5417
 8188SOL    HW236201   0.132   1.292   1.946 -0.1174  0.3315  0.4701
 8189SOL     OW36202   4.065   0.456  13.243  0.0668  0.1601 -0.0586
 8189SOL    HW136203   4.030   0.520  13.181  0.0928  0.7989  0.5867
 8189SOL    HW236204   4.006   0.380  13.238  1.4092 -0.8061 -1.2766
 8190SOL     OW36205   2.444   1.362   1.470 -0.4213  0.5194 -0.1209
 8190SOL    HW136206   2.529   1.387   1.434  0.2417  0.1178  1.1755
 8190SOL    HW236207   2.434   1.443   1.520  1.8700  2.3255 -2.6484
 8191SOL     OW36208   4.126   1.635   3.953 -0.4516  0.6499  0.2260
 8191SOL    HW136209   4.033   1.652   3.938 -0.9330 -1.5891  0.6568
 8191SOL    HW236210   4.130   1.612   4.046  1.4070  2.0175  0.4909
 8192SOL     OW36211   2.444   3.971   4.875  0.3171 -0.5542  0.0157
 8192SOL    HW136212   2.475   3.882   4.863  0.3049 -1.2494  5.4552
 8192SOL    HW236213   2.439   3.989   4.968  2.5506 -0.1956  0.0589
 8193SOL     OW36214   4.642   3.791  11.713 -0.5475 -0.0489 -0.3460
 8193SOL    HW136215   4.646   3.868  11.770 -1.4257 -0.4661  0.2667
 8193SOL    HW236216   0.002   3.779  11.697 -0.1971  0.0684  1.6998
 8194SOL     OW36217   1.153   0.756   2.494  0.9543 -0.3428 -0.0949
 8194SOL    HW136218   1.223   0.753   2.559  2.3190 -1.6864 -1.6220
 8194SOL    HW236219   1.086   0.699   2.531  0.4771  1.6358  2.0698
 8195SOL     OW36220   1.553   4.345   2.736  0.3004  0.6042 -0.2541
 8195SOL    HW136221   1.485   4.332   2.803 -0.0276  2.0570 -0.3019
 8195SOL    HW236222   1.604   4.404   2.793 -1.9441  0.3100  2.0769
 8196SOL     OW36223   0.181   0.519   8.863  0.1422 -0.2381  0.0985
 8196SOL    HW136224   0.167   0.558   8.949 -0.3361 -0.7342  0.2411
 8196SOL    HW236225   0.143   0.433   8.878 -0.8307 -0.2432 -2.4558
 8197SOL     OW36226   4.099   1.609   2.334  0.0428  0.1994  0.3607
 8197SOL    HW136227   4.094   1.513   2.341 -0.8284  0.2767  0.8317
 8197SOL    HW236228   4.193   1.622   2.327  0.1352 -1.6679 -2.1036
 8198SOL     OW36229   0.655   2.773   8.005 -0.0627  0.1639 -0.0649
 8198SOL    HW136230   0.579   2.719   7.984  0.9859 -1.1034 -0.5685
 8198SOL    HW236231   0.727   2.752   7.946  0.1241  1.3445 -0.2672
 8199SOL     OW36232   0.462   4.027  11.434  0.1282 -0.4729 -0.3374
 8199SOL    HW136233   0.427   4.098  11.381  1.8931  0.4577 -0.2538
 8199SOL    HW236234   0.498   3.961  11.374  1.7540  0.0725  0.0254
 8200SOL     OW36235   2.493   4.709   2.119 -0.3807 -0.0959 -0.4120
 8200SOL    HW136236   2.478   4.619   2.092  1.6297  0.0991 -2.1359
 8200SOL    HW236237   2.580   4.694   2.153 -0.4228 -0.4054 -0.4465
 8201SOL     OW36238   1.149   3.316   8.819  0.3946 -0.3353  0.7206
 8201SOL    HW136239   1.054   3.325   8.819  0.4405  0.2564 -0.6181
 8201SOL    HW236240   1.165   3.233   8.865 -2.2196  0.1172  2.3930
 8202SOL     OW36241   0.569   2.323   4.193  0.1964  0.0794  0.2254
 8202SOL    HW136242   0.647   2.268   4.185 -0.6050 -0.7278 -2.1199
 8202SOL    HW236243   0.606   2.409   4.211 -1.3711  0.9251 -0.6480
 8203SOL     OW36244   2.332   2.309   2.685  0.3007  0.1370 -0.2091
 8203SOL    HW136245   2.260   2.371   2.669  0.3441  0.1200 -0.4711
 8203SOL    HW236246   2.374   2.355   2.758  1.0194 -0.7403 -0.0734
 8204SOL     OW36247   0.774   4.515   4.938 -0.3133  0.5820  0.3731
 8204SOL    HW136248   0.707   4.575   4.969  0.5752  2.0032 -0.4250
 8204SOL    HW236249   0.799   4.555   4.855  1.5955  2.1830  1.7226
 8205SOL     OW36250   1.241   0.892  12.151 -0.1386 -0.2225  0.2647
 8205SOL    HW136251   1.301   0.961  12.119 -0.1040 -0.8162 -0.9636
 8205SOL    HW236252   1.195   0.867  12.071  0.3046 -0.6025  0.1281
 8206SOL     OW36253   1.870   1.510   3.867 -0.2333  0.7643 -0.3427
 8206SOL    HW136254   1.961   1.508   3.896 -0.9671 -2.2701  1.7604
 8206SOL    HW236255   1.864   1.415   3.861  2.6868  0.5554  0.2420
 8207SOL     OW36256   2.677   4.575   7.131  0.3798  0.6992 -0.0506
 8207SOL    HW136257   2.593   4.599   7.172 -0.2330 -0.5783 -0.5531
 8207SOL    HW236258   2.657   4.548   7.041  2.7335 -0.4828 -0.2082
 8208SOL     OW36259   3.835   2.704  10.076 -0.4194  0.1693 -0.3324
 8208SOL    HW136260   3.803   2.780  10.028 -0.8144  1.2743  1.6672
 8208SOL    HW236261   3.821   2.727  10.168  0.4751 -0.1663 -0.1160
 8209SOL     OW36262   0.392   4.492   9.702  0.1506 -0.5311  0.0952
 8209SOL    HW136263   0.347   4.410   9.681 -1.5296  0.2397  0.6338
 8209SOL    HW236264   0.313   4.547   9.707 -0.0640 -0.6859 -1.5867
 8210SOL     OW36265   3.077   4.101  14.372  0.0228 -0.5705  0.9768
 8210SOL    HW136266   3.091   4.191  14.343  1.5988 -1.3438 -0.7025
 8210SOL    HW236267   2.984   4.098  14.352  0.2670 -0.3711 -0.1887
 8211SOL     OW36268   1.172   1.511  10.266  0.0849  0.1757  0.1808
 8211SOL    HW136269   1.094   1.530  10.318 -0.3383 -1.7939  0.2826
 8211SOL    HW236270   1.137   1.467  10.188  0.9174  2.0843 -1.2727
 8212SOL     OW36271   0.980   1.904  15.127 -0.5703  0.0191  0.3760
 8212SOL    HW136272   0.995   1.844  15.054 -1.4377 -0.6002  0.7065
 8212SOL    HW236273   1.067   1.942  15.140 -0.3470 -0.1341 -0.7349
 8213SOL     OW36274   1.071   2.109  17.615  0.1487 -0.4025  0.5078
 8213SOL    HW136275   1.157   2.151  17.606  0.1068 -0.6692 -1.1788
 8213SOL    HW236276   1.026   2.160  17.682  1.3313 -1.9707  2.4884
 8214SOL     OW36277   4.333   2.023   4.995  1.0541  0.5952  0.0703
 8214SOL    HW136278   4.240   2.002   4.985  0.6601  2.8767 -0.8297
 8214SOL    HW236279   4.353   2.062   4.910  1.9329  1.3071  0.6023
 8215SOL     OW36280   3.527   1.891   8.349  0.2337  0.1724  0.3222
 8215SOL    HW136281   3.538   1.833   8.274 -1.4232 -1.3330  1.2261
 8215SOL    HW236282   3.451   1.853   8.393  0.9394 -1.0016  0.5031
 8216SOL     OW36283   3.453   1.922   8.689 -0.1759 -0.1843  0.4030
 8216SOL    HW136284   3.361   1.917   8.716 -0.2027  1.9255  0.7022
 8216SOL    HW236285   3.484   1.831   8.687 -0.4582 -0.2666 -0.1930
 8217SOL     OW36286   3.905   1.682   8.135  0.2344 -0.0054  0.1865
 8217SOL    HW136287   3.925   1.721   8.221  2.7461 -1.2283  0.1654
 8217SOL    HW236288   3.960   1.736   8.079  1.7478 -0.7782  0.9067
 8218SOL     OW36289   1.221   3.891  16.636  0.5192 -0.2083 -0.2299
 8218SOL    HW136290   1.235   3.874  16.542  1.7866  1.6648 -0.3784
 8218SOL    HW236291   1.141   3.841  16.651  0.9855 -0.7535  0.4514
 8219SOL     OW36292   4.052   1.003   9.940  0.0277  0.1721  0.0806
 8219SOL    HW136293   4.010   1.037   9.860 -0.8688  0.1325  0.5365
 8219SOL    HW236294   4.106   0.933   9.904 -1.6544 -0.2229 -1.7349
 8220SOL     OW36295   0.596   1.735   4.043  0.0954  0.4307  0.3223
 8220SOL    HW136296   0.509   1.748   4.006 -0.7980 -0.3136  2.1937
 8220SOL    HW236297   0.648   1.805   4.002 -0.8853  0.9599 -0.0243
 8221SOL     OW36298   3.807   0.685   2.429  0.1020  0.4310 -0.8888
 8221SOL    HW136299   3.792   0.728   2.345 -1.6098  0.3651 -0.6080
 8221SOL    HW236300   3.774   0.595   2.422  0.9902  0.0230  0.1898
 8222SOL     OW36301   3.159   2.224   4.199 -0.3724  0.4280  0.5627
 8222SOL    HW136302   3.081   2.240   4.145  0.9163  0.6239 -1.2342
 8222SOL    HW236303   3.221   2.228   4.126 -0.7346 -1.9368  0.1430
 8223SOL     OW36304   2.573   1.869   3.064  0.1331 -0.1370  0.0884
 8223SOL    HW136305   2.596   1.958   3.038 -0.7751 -0.3833 -1.5555
 8223SOL    HW236306   2.629   1.856   3.141 -2.2721  0.3156  1.9063
 8224SOL     OW36307   1.074   2.282   4.908  0.2929  0.0698 -0.6235
 8224SOL    HW136308   1.048   2.354   4.966 -2.2828  0.7625 -2.6619
 8224SOL    HW236309   1.165   2.273   4.938  0.5187  0.9068 -1.0627
 8225SOL     OW36310   1.079   4.546   1.837 -0.0491  0.4508 -0.7075
 8225SOL    HW136311   1.134   4.623   1.825  0.0922  0.2687 -1.2280
 8225SOL    HW236312   1.093   4.530   1.930 -0.1818  1.2441 -0.5462
 8226SOL     OW36313   2.512   0.673   9.019  0.0377 -0.5180  0.0712
 8226SOL    HW136314   2.589   0.714   9.061 -1.8462  2.6618  0.4124
 8226SOL    HW236315   2.509   0.591   9.069  1.2723 -0.2000  0.6917
 8227SOL     OW36316   4.706   1.795   8.685 -0.0036  0.4460  0.6699
 8227SOL    HW136317   4.681   1.743   8.609 -0.1849  0.7565  0.5165
 8227SOL    HW236318   4.647   1.870   8.675  0.3136  0.4476 -1.1248
 8228SOL     OW36319   1.024   1.597   7.510 -0.5648  0.0909  0.6643
 8228SOL    HW136320   1.037   1.639   7.595 -0.1537 -0.9217  1.0968
 8228SOL    HW236321   0.990   1.670   7.458  1.8556 -0.1100 -1.2248
 8229SOL     OW36322   4.081   4.497   9.281 -0.0185  0.2407 -0.5029
 8229SOL    HW136323   4.056   4.564   9.217 -0.5826  0.5336  0.0219
 8229SOL    HW236324   4.166   4.532   9.308 -0.5399  1.9383 -1.0132
 8230SOL     OW36325   0.906   0.304   5.108 -0.0930 -0.3864  0.2199
 8230SOL    HW136326   0.908   0.296   5.204  1.7139  0.1771  0.2352
 8230SOL    HW236327   0.849   0.233   5.082 -1.7176  0.7530  0.6781
 8231SOL     OW36328   2.254   2.429  16.372  0.3306 -0.2497 -0.0744
 8231SOL    HW136329   2.175   2.474  16.340  1.8660  1.6606 -1.2071
 8231SOL    HW236330   2.224   2.374  16.444  1.2816 -0.9789 -0.2332
 8232SOL     OW36331   0.531   0.402   5.029  0.1635 -0.4332 -0.0282
 8232SOL    HW136332   0.601   0.372   4.970  0.0208 -0.0829 -0.3747
 8232SOL    HW236333   0.549   0.353   5.109  0.4632 -0.0269  0.1500
 8233SOL     OW36334   0.119   0.578   4.553  0.2526 -0.3873  0.0741
 8233SOL    HW136335   0.133   0.656   4.607  1.1721 -0.5409  0.0667
 8233SOL    HW236336   0.137   0.508   4.615  2.5763  1.4182  1.4314
 8234SOL     OW36337   1.114   2.565   7.284  0.5032 -0.1080 -0.0218
 8234SOL    HW136338   1.052   2.514   7.231 -0.8385  0.0483  1.3880
 8234SOL    HW236339   1.200   2.538   7.252  0.1307 -1.9663  0.5262
 8235SOL     OW36340   3.236   3.079   6.483 -0.2847  0.0516  0.7372
 8235SOL    HW136341   3.294   3.143   6.440  0.5599 -0.2368  1.4422
 8235SOL    HW236342   3.158   3.132   6.497  0.2336  0.9733  0.1801
 8236SOL     OW36343   3.146   3.759   7.145 -0.2150  0.4851  0.0629
 8236SOL    HW136344   3.073   3.740   7.086  0.0145 -0.7781  0.1830
 8236SOL    HW236345   3.129   3.694   7.214 -1.9601  1.6639  0.7198
 8237SOL     OW36346   3.770   0.865   0.109 -0.4892  0.5096 -0.0284
 8237SOL    HW136347   3.841   0.800   0.107 -0.4926  0.5471 -1.5046
 8237SOL    HW236348   3.694   0.812   0.086 -0.3457  0.2197  0.1591
 8238SOL     OW36349   3.386   2.094   1.962 -0.1670 -0.4745  0.2847
 8238SOL    HW136350   3.313   2.048   2.004 -0.4983 -1.0560 -0.9046
 8238SOL    HW236351   3.466   2.042   1.970  0.4152  0.1165 -1.6094
 8239SOL     OW36352   2.917   0.336   8.398  0.3477 -0.6207 -0.2652
 8239SOL    HW136353   2.962   0.251   8.394  1.1642 -0.2109  0.2042
 8239SOL    HW236354   2.858   0.318   8.471  2.3685 -1.7422  1.1214
 8240SOL     OW36355   2.991   1.946   5.890 -0.2007 -0.1909  0.2000
 8240SOL    HW136356   3.063   1.939   5.827 -0.7105  0.7933 -0.4934
 8240SOL    HW236357   3.036   1.937   5.974  0.8515  0.4546 -0.2823
 8241SOL     OW36358   3.576   2.870   8.613 -0.4106  0.2722  0.2468
 8241SOL    HW136359   3.662   2.853   8.650 -0.7148 -1.8811 -0.0612
 8241SOL    HW236360   3.552   2.780   8.592  0.6865 -0.2611  1.3376
 8242SOL     OW36361   1.746   4.413   6.436 -0.9224  0.2853 -0.0425
 8242SOL    HW136362   1.770   4.322   6.419 -1.5387  0.3246 -1.0721
 8242SOL    HW236363   1.661   4.417   6.393  0.0312  2.5107 -1.6580
 8243SOL     OW36364   0.107   2.325   7.923 -0.2924  0.4941 -0.0445
 8243SOL    HW136365   0.118   2.250   7.865 -0.2510 -0.7826  1.6215
 8243SOL    HW236366   0.191   2.330   7.968 -0.3253 -1.7618  0.2789
 8244SOL     OW36367   0.261   0.243   3.225  0.0457  0.0738 -0.4389
 8244SOL    HW136368   0.179   0.195   3.212 -0.1025  0.0333  0.6084
 8244SOL    HW236369   0.251   0.268   3.317 -0.4420 -2.9131  0.3128
 8245SOL     OW36370   1.433   3.758   8.616 -0.3366 -0.0361 -0.3280
 8245SOL    HW136371   1.344   3.752   8.581 -0.4682  1.1674 -0.1842
 8245SOL    HW236372   1.483   3.781   8.537  2.1710  0.3851  1.3957
 8246SOL     OW36373   2.797   3.599   3.704 -0.3729  0.1704 -0.0918
 8246SOL    HW136374   2.839   3.544   3.771 -0.7500  0.4505  0.3746
 8246SOL    HW236375   2.750   3.535   3.651  0.2637  0.4616 -1.0184
 8247SOL     OW36376   3.669   0.527  14.615  0.0295 -0.2588  0.1527
 8247SOL    HW136377   3.730   0.596  14.590  1.0448 -0.3680  2.3302
 8247SOL    HW236378   3.606   0.531  14.543 -1.8312  3.3785  1.9833
 8248SOL     OW36379   2.974   4.089  11.180  0.3595  0.3356  0.3226
 8248SOL    HW136380   3.050   4.103  11.124 -0.0642 -0.5152 -0.4613
 8248SOL    HW236381   2.976   3.993  11.186 -0.6418  0.3409  0.7715
 8249SOL     OW36382   2.586   0.047  11.679 -0.0810 -0.1446 -0.3112
 8249SOL    HW136383   2.582   4.695  11.723  0.7386  0.5660  1.1268
 8249SOL    HW236384   2.608   0.109  11.748 -0.2427 -0.8630  0.3758
 8250SOL     OW36385   4.728   2.162   8.592  0.3098  0.2345 -0.4360
 8250SOL    HW136386   0.044   2.123   8.520  0.1172  0.4831 -0.7017
 8250SOL    HW236387   0.048   2.136   8.668 -2.2744 -2.5049  0.4282
 8251SOL     OW36388   3.976   3.907   6.174 -0.1211  0.3437 -0.0788
 8251SOL    HW136389   3.974   3.863   6.089  1.0240  1.1132 -0.5002
 8251SOL    HW236390   4.068   3.931   6.183 -0.3649  0.7219  1.3277
 8252SOL     OW36391   2.980   1.839   8.341 -0.5315  0.1300 -0.5033
 8252SOL    HW136392   3.075   1.824   8.338 -0.9139 -1.6324 -3.4674
 8252SOL    HW236393   2.972   1.934   8.344  1.8526  0.2996  0.3242
 8253SOL     OW36394   4.431   3.852   7.399  0.6116 -0.3082  0.3307
 8253SOL    HW136395   4.513   3.898   7.416  2.0010 -3.4004  1.9171
 8253SOL    HW236396   4.402   3.828   7.487 -0.9126 -0.7182 -0.2715
 8254SOL     OW36397   2.701   0.528   0.256  0.1282  0.5975 -0.0806
 8254SOL    HW136398   2.678   0.463   0.322 -0.7878 -1.0395 -1.9944
 8254SOL    HW236399   2.789   0.497   0.234 -0.9462 -1.9509 -0.8439
 8255SOL     OW36400   0.204   1.757   8.279  0.1473  0.1645  0.2847
 8255SOL    HW136401   0.222   1.704   8.201  1.2785  0.9157  0.0285
 8255SOL    HW236402   0.274   1.821   8.262 -1.4577  2.3311  1.8876
 8256SOL     OW36403   4.037   1.051   5.529  0.1103 -0.2069  0.0014
 8256SOL    HW136404   3.960   1.064   5.474 -0.2561 -3.7264 -0.3110
 8256SOL    HW236405   4.045   1.126   5.588 -1.2737  0.8525 -1.1429
 8257SOL     OW36406   1.980   2.284   8.462  0.1294  0.2485  0.2565
 8257SOL    HW136407   1.928   2.305   8.385 -0.1406  0.0369  0.3834
 8257SOL    HW236408   1.919   2.273   8.535  1.0779  0.5267  1.1067
 8258SOL     OW36409   0.371   3.267   2.092 -0.9652  0.1298  0.1562
 8258SOL    HW136410   0.411   3.210   2.157 -2.2959  0.0692  0.9387
 8258SOL    HW236411   0.340   3.337   2.149 -2.4016 -0.0071 -0.4285
 8259SOL     OW36412   1.064   2.442  11.128 -0.2348 -0.3471  0.2095
 8259SOL    HW136413   1.074   2.504  11.200  1.1460  0.3121 -0.5633
 8259SOL    HW236414   1.137   2.484  11.083 -0.8507  0.0560 -0.4137
 8260SOL     OW36415   4.538   2.180   8.377  0.0335  0.0687 -0.5472
 8260SOL    HW136416   4.627   2.201   8.347 -0.5421 -0.7505 -2.7992
 8260SOL    HW236417   4.479   2.171   8.303  0.5206 -2.4058 -0.6426
 8261SOL     OW36418   0.057   3.498   2.385 -0.3753  0.2733  0.4468
 8261SOL    HW136419   0.055   3.591   2.361  1.5469 -0.4510 -2.6181
 8261SOL    HW236420   4.712   3.458   2.347  1.3027 -1.0959 -1.5927
 8262SOL     OW36421   2.399   4.600  15.944 -0.3765  0.2572 -0.0116
 8262SOL    HW136422   2.473   4.540  15.945 -1.4789 -1.0784  0.3274
 8262SOL    HW236423   2.441   4.682  15.972  1.0270 -0.2409 -0.6802
 8263SOL     OW36424   0.136   1.019   7.244 -0.1022 -0.7750 -0.1969
 8263SOL    HW136425   0.226   1.043   7.266 -0.2495  2.7549 -3.4383
 8263SOL    HW236426   0.086   1.074   7.305 -0.9814  2.0577 -3.4459
 8264SOL     OW36427   2.233   0.209  15.214 -0.2849  0.0314 -0.3470
 8264SOL    HW136428   2.162   0.195  15.152 -2.3595  0.2284  1.9912
 8264SOL    HW236429   2.224   0.143  15.283  2.0685 -2.0005 -1.9904
 8265SOL     OW36430   3.743   3.530   4.555 -0.2244 -0.6685 -0.3414
 8265SOL    HW136431   3.730   3.530   4.650 -0.2336 -0.1330 -0.3380
 8265SOL    HW236432   3.743   3.439   4.528 -1.6638 -0.5965 -0.6180
 8266SOL     OW36433   1.042   3.577   6.013 -0.0852 -0.1690 -0.5448
 8266SOL    HW136434   0.969   3.516   6.020  1.2458 -1.5498  1.3839
 8266SOL    HW236435   1.103   3.551   5.944  1.5404  3.7821 -0.6473
 8267SOL     OW36436   0.436   3.682   4.025  0.0205 -0.2141  0.0251
 8267SOL    HW136437   0.488   3.758   4.051 -0.9932  0.4162  0.1771
 8267SOL    HW236438   0.487   3.606   4.054  0.0817  0.8214  2.6056
 8268SOL     OW36439   3.397   1.212   7.202  0.4168 -0.4994 -0.7199
 8268SOL    HW136440   3.318   1.263   7.184  1.7500  1.7216 -0.3555
 8268SOL    HW236441   3.459   1.284   7.218  0.0996 -0.5192  0.6055
 8269SOL     OW36442   0.397   2.740  11.050  0.3135  0.2335 -0.1487
 8269SOL    HW136443   0.330   2.800  11.081  1.1198  0.7523  0.6104
 8269SOL    HW236444   0.362   2.658  11.085  1.6522 -0.0454  0.5397
 8270SOL     OW36445   4.540   3.806   6.732  0.1150 -0.4710  0.2118
 8270SOL    HW136446   4.612   3.860   6.764  0.7994 -0.3729 -1.4508
 8270SOL    HW236447   4.546   3.828   6.639  1.7061 -1.2815  0.1125
 8271SOL     OW36448   4.031   1.231   1.839 -0.9829  0.1509 -0.0309
 8271SOL    HW136449   4.093   1.302   1.825 -0.1020 -0.7580 -0.6763
 8271SOL    HW236450   4.089   1.155   1.839 -0.8472  0.2547  0.3295
 8272SOL     OW36451   4.011   4.071   7.142  0.5202  0.3745  0.3509
 8272SOL    HW136452   4.034   4.164   7.141  1.0725  0.2207 -1.0519
 8272SOL    HW236453   4.083   4.026   7.186 -0.6077 -0.5737  1.2159
 8273SOL     OW36454   3.087   2.537   5.814 -0.0397  0.4916 -0.2103
 8273SOL    HW136455   3.176   2.543   5.849 -0.2366  1.4406  0.1270
 8273SOL    HW236456   3.081   2.443   5.797  1.8591  0.3002  0.2133
 8274SOL     OW36457   0.150   1.583   7.615 -1.0421  0.3201 -0.0005
 8274SOL    HW136458   0.161   1.646   7.543  2.2553 -0.4192 -0.1358
 8274SOL    HW236459   0.205   1.511   7.583  1.0920  1.7520  0.4319
 8275SOL     OW36460   4.704   2.261   4.376  0.2728  0.5988 -0.7382
 8275SOL    HW136461   0.033   2.322   4.416  0.8696  0.7141 -1.8506
 8275SOL    HW236462   4.722   2.276   4.284  0.6468 -0.5200 -0.8474
 8276SOL     OW36463   2.465   2.598  13.886 -0.1979  0.1175  0.0685
 8276SOL    HW136464   2.482   2.516  13.933  2.5540  0.5478 -0.1935
 8276SOL    HW236465   2.494   2.659  13.953  0.8318  0.8677 -1.0474
 8277SOL     OW36466   1.902   2.583   7.905 -0.3932 -0.2849  0.6731
 8277SOL    HW136467   1.866   2.509   7.954 -3.4417 -0.3000 -1.5465
 8277SOL    HW236468   1.846   2.588   7.827  1.3131  1.3657 -0.4324
 8278SOL     OW36469   0.806   1.697  12.997 -0.0735  0.3508  0.1232
 8278SOL    HW136470   0.767   1.667  13.080 -0.2757  2.5932  0.8502
 8278SOL    HW236471   0.893   1.721  13.030  0.4232  0.9524 -1.6120
 8279SOL     OW36472   2.794   0.337   6.717 -0.0327  0.3091 -0.6366
 8279SOL    HW136473   2.854   0.334   6.643 -0.9867  0.9038 -1.4263
 8279SOL    HW236474   2.845   0.280   6.775 -0.1168 -0.4212 -1.2950
 8280SOL     OW36475   0.926   4.523  10.529  0.1833  0.4743  0.1342
 8280SOL    HW136476   0.903   4.547  10.618  2.9903 -1.1124  1.2945
 8280SOL    HW236477   0.982   4.597  10.504  1.7444 -0.6801  0.2386
 8281SOL     OW36478   4.506   2.516   4.865 -0.4705 -0.5587 -0.0894
 8281SOL    HW136479   4.435   2.451   4.869 -0.0799 -1.0544 -1.2126
 8281SOL    HW236480   4.492   2.564   4.784 -0.7985  1.7908  1.3766
 8282SOL     OW36481   4.663   0.842   3.276  0.3434  0.2362  0.0563
 8282SOL    HW136482   4.732   0.838   3.210  0.3373 -0.6762  0.1097
 8282SOL    HW236483   4.710   0.811   3.353 -1.3700 -2.5616 -0.0274
 8283SOL     OW36484   0.288   4.600   8.456 -0.0709  0.0269  0.0059
 8283SOL    HW136485   0.193   4.602   8.466 -0.1581  0.8231 -0.9856
 8283SOL    HW236486   0.311   4.511   8.428 -0.3750  0.1595 -0.6700
 8284SOL     OW36487   2.974   4.421  13.802  0.3813 -0.2055 -0.0444
 8284SOL    HW136488   3.013   4.423  13.890 -0.9653 -0.0153  0.5468
 8284SOL    HW236489   2.990   4.328  13.786  2.1750  0.0343  0.2774
 8285SOL     OW36490   0.684   2.542   7.109  0.1748 -1.0305  0.1244
 8285SOL    HW136491   0.592   2.567   7.107  0.2852 -0.5928  0.4538
 8285SOL    HW236492   0.665   2.449   7.099  0.1734 -0.8788 -1.2946
 8286SOL     OW36493   2.369   3.588   4.336 -0.3039  0.2881  0.0274
 8286SOL    HW136494   2.354   3.511   4.280 -1.2005 -0.9139  1.9478
 8286SOL    HW236495   2.445   3.622   4.290  0.3609 -1.1544  0.0597
 8287SOL     OW36496   1.595   2.125   9.745  0.0823  0.1582  0.9108
 8287SOL    HW136497   1.644   2.050   9.712  0.1286  1.2238 -1.4312
 8287SOL    HW236498   1.596   2.194   9.679 -2.9988 -1.1699 -0.5298
 8288SOL     OW36499   0.362   3.199   5.935 -0.5945  0.1836 -0.6386
 8288SOL    HW136500   0.427   3.242   5.989 -0.9974  0.2723 -0.2263
 8288SOL    HW236501   0.294   3.183   6.001 -0.1661 -0.8830 -0.4472
 8289SOL     OW36502   2.333   4.349   8.903 -0.5070  1.0674 -0.4436
 8289SOL    HW136503   2.381   4.341   8.985  1.3315 -0.6480 -1.7104
 8289SOL    HW236504   2.396   4.305   8.846 -1.5803 -1.2955  0.1936
 8290SOL     OW36505   1.029   3.885   3.510 -0.1122  0.2748  0.0679
 8290SOL    HW136506   1.097   3.822   3.484 -0.1768  0.7566 -1.2735
 8290SOL    HW236507   1.074   3.965   3.484 -1.2985  0.3669 -1.7431
 8291SOL     OW36508   3.632   1.123   3.479 -0.4483  0.0507 -0.0583
 8291SOL    HW136509   3.542   1.139   3.508 -0.8569 -2.6313  0.1059
 8291SOL    HW236510   3.638   1.176   3.400  2.4963  3.6196  2.5524
 8292SOL     OW36511   1.754   3.213   3.704 -0.1086  0.1816  0.7841
 8292SOL    HW136512   1.825   3.265   3.664 -0.1011  0.3526  1.0231
 8292SOL    HW236513   1.790   3.199   3.791  1.5110 -1.4084 -0.1325
 8293SOL     OW36514   2.833   0.938   3.106  0.4618  0.1167  0.2447
 8293SOL    HW136515   2.830   0.917   3.012 -0.2670  1.6784 -0.0846
 8293SOL    HW236516   2.769   0.873   3.136 -1.6350  1.3569 -1.4722
 8294SOL     OW36517   2.655   3.703   6.996 -0.4735 -0.1073  0.2421
 8294SOL    HW136518   2.630   3.623   7.041  1.1485 -0.1576  1.0301
 8294SOL    HW236519   2.585   3.767   7.008  0.7688  1.0045  1.5972
 8295SOL     OW36520   3.739   2.074   7.305 -0.2023  0.5425  0.1072
 8295SOL    HW136521   3.696   1.989   7.308  0.1032  0.3872  0.1368
 8295SOL    HW236522   3.801   2.059   7.376 -0.6360  0.2844  0.4280
 8296SOL     OW36523   1.273   3.118   9.841  0.4901 -0.2076 -0.0182
 8296SOL    HW136524   1.327   3.150   9.914  2.1639 -2.3520 -0.3301
 8296SOL    HW236525   1.205   3.068   9.887  0.0657  0.9003  0.5538
 8297SOL     OW36526   3.543   2.085   5.352  0.1273  0.3584 -1.0207
 8297SOL    HW136527   3.470   2.077   5.413 -0.0499  0.5303 -1.2116
 8297SOL    HW236528   3.525   2.159   5.295  2.2103  3.2186  2.0063
 8298SOL     OW36529   3.803   0.480   9.250 -0.2768  0.2396 -0.3004
 8298SOL    HW136530   3.830   0.407   9.193 -0.9505 -0.6976  0.5885
 8298SOL    HW236531   3.714   0.448   9.265 -0.0638  1.1305  2.7524
 8299SOL     OW36532   0.475   2.549  11.853 -0.2669 -0.1340  0.0451
 8299SOL    HW136533   0.483   2.492  11.929 -1.7255 -1.3204 -0.6796
 8299SOL    HW236534   0.404   2.604  11.887  0.6996 -0.2657  2.2672
 8300SOL     OW36535   4.124   1.875   3.743  0.2388  0.0364 -0.9021
 8300SOL    HW136536   4.088   1.942   3.801 -0.6532  0.3645 -1.8280
 8300SOL    HW236537   4.213   1.883   3.776 -0.5300  0.4726  1.0383
 8301SOL     OW36538   1.876   2.043  14.143  0.1657 -0.4883 -0.0919
 8301SOL    HW136539   1.875   2.115  14.206  3.7415  0.9802 -1.6815
 8301SOL    HW236540   1.801   2.056  14.085  0.6344 -1.0035 -0.8312
 8302SOL     OW36541   4.195   0.765  10.986  0.3533  0.0282 -0.3121
 8302SOL    HW136542   4.178   0.701  11.056 -0.5365 -0.0393 -0.5899
 8302SOL    HW236543   4.287   0.746  10.968 -0.1620 -2.1280 -0.6763
 8303SOL     OW36544   2.907   3.836   5.977  0.0178 -0.3467  0.2140
 8303SOL    HW136545   2.935   3.925   5.998  0.3282 -0.6951  1.2990
 8303SOL    HW236546   2.834   3.839   6.039  0.5107  0.6665  0.7488
 8304SOL     OW36547   4.016   2.559   5.407  0.0852  0.1566  0.4849
 8304SOL    HW136548   4.015   2.654   5.401  0.1085  0.2066  1.2500
 8304SOL    HW236549   4.105   2.549   5.441  0.2301  1.4306  0.4700
 8305SOL     OW36550   3.605   4.610   8.666 -0.5852 -0.0577  0.2540
 8305SOL    HW136551   3.665   4.647   8.730 -1.8684  1.1533  0.7583
 8305SOL    HW236552   3.523   4.658   8.677  0.0937  1.0927  0.2623
 8306SOL     OW36553   1.424   0.854   4.755 -0.5864  0.2950  0.6003
 8306SOL    HW136554   1.339   0.850   4.798 -1.6175 -0.3193 -1.5133
 8306SOL    HW236555   1.418   0.772   4.706 -0.3508  0.1262  0.8557
 8307SOL     OW36556   3.055   4.220   9.205 -0.3689  0.4277  0.2670
 8307SOL    HW136557   3.077   4.147   9.264  1.0377 -0.0577 -0.8670
 8307SOL    HW236558   3.138   4.263   9.224  0.2604 -0.7921  0.3154
 8308SOL     OW36559   2.851   1.952   2.863 -0.0118 -0.4668 -0.0071
 8308SOL    HW136560   2.925   2.003   2.895  0.0765  0.1383 -1.1936
 8308SOL    HW236561   2.771   1.995   2.893  0.9482  2.1535 -1.2162
 8309SOL     OW36562   1.521   3.199   7.658 -0.2988 -0.1537  0.9484
 8309SOL    HW136563   1.445   3.191   7.715  0.2673  0.5507  1.8029
 8309SOL    HW236564   1.484   3.165   7.576 -1.3986  2.0446  0.5392
 8310SOL     OW36565   0.874   4.421   6.987 -0.4152 -0.0333 -0.1105
 8310SOL    HW136566   0.898   4.328   6.996 -2.4874 -0.1889  4.0809
 8310SOL    HW236567   0.935   4.441   7.058 -1.7881 -0.0951  1.0898
 8311SOL     OW36568   3.290   0.703   4.447 -0.0412 -0.1810 -0.0698
 8311SOL    HW136569   3.362   0.739   4.499  0.5821  0.0219 -1.0587
 8311SOL    HW236570   3.286   0.762   4.371 -1.0032 -1.2557 -0.8645
 8312SOL     OW36571   4.067   2.141   8.047  0.0832 -0.8786 -0.1151
 8312SOL    HW136572   4.012   2.155   8.124  3.1265 -0.0034  1.9277
 8312SOL    HW236573   4.072   2.235   8.031 -1.9133 -0.5893  1.0299
 8313SOL     OW36574   3.395   0.425  13.687  0.5626  0.0177  0.4745
 8313SOL    HW136575   3.437   0.493  13.740  0.7137  2.8727 -3.3606
 8313SOL    HW236576   3.448   0.417  13.608 -0.4924 -1.6318 -0.0763
 8314SOL     OW36577   2.568   4.215  15.767  0.0145 -0.1639 -0.4953
 8314SOL    HW136578   2.574   4.259  15.682 -0.5254  2.9274  1.0538
 8314SOL    HW236579   2.658   4.182  15.768 -0.0688 -0.3882 -0.2015
 8315SOL     OW36580   3.401   2.543   1.569  0.2468  0.5220  0.0751
 8315SOL    HW136581   3.350   2.533   1.650 -0.1516 -2.1184 -0.4904
 8315SOL    HW236582   3.485   2.507   1.596 -0.4032  0.1932  1.7026
 8316SOL     OW36583   0.090   2.973   3.743  0.1522  0.1543  1.0781
 8316SOL    HW136584   0.040   2.929   3.812 -0.3071  2.2932  2.0874
 8316SOL    HW236585   0.177   2.934   3.750 -0.1800 -1.0228 -1.4467
 8317SOL     OW36586   3.412   0.794   9.402  0.3432 -0.0390  0.0144
 8317SOL    HW136587   3.385   0.775   9.492  0.4662  0.1398  0.0891
 8317SOL    HW236588   3.429   0.704   9.373 -0.6107 -0.3800  0.5003
 8318SOL     OW36589   3.522   2.155  17.260 -0.9559 -0.0322 -0.2794
 8318SOL    HW136590   3.517   2.249  17.278  1.6895 -0.2223  1.3236
 8318SOL    HW236591   3.500   2.152  17.167  0.8502 -1.1417 -0.6458
 8319SOL     OW36592   4.074   2.260   8.352  0.3491  0.1308 -0.0437
 8319SOL    HW136593   4.012   2.290   8.419 -0.8694 -0.3247 -0.9719
 8319SOL    HW236594   4.124   2.340   8.335 -0.6378  0.8533  0.4397
 8320SOL     OW36595   4.414   3.684   8.350 -0.7688  0.3261  0.0438
 8320SOL    HW136596   4.502   3.648   8.344 -1.5967 -1.7307  0.1344
 8320SOL    HW236597   4.376   3.614   8.403 -0.4626 -1.5560 -2.2078
 8321SOL     OW36598   4.019   2.226   5.412 -0.4460 -0.6667 -0.3141
 8321SOL    HW136599   4.108   2.250   5.441 -0.6453 -1.1613  0.7104
 8321SOL    HW236600   3.968   2.271   5.480  0.4609 -0.1100  0.0040
 8322SOL     OW36601   4.340   1.901   2.574 -0.8580  0.7710 -0.1711
 8322SOL    HW136602   4.335   1.836   2.504 -0.8218  0.2986  0.2617
 8322SOL    HW236603   4.349   1.847   2.653 -0.4433  2.0340  0.6467
 8323SOL     OW36604   3.693   1.412   4.672  0.4254  0.2111  0.1822
 8323SOL    HW136605   3.622   1.382   4.729  0.3920  3.8417  2.0313
 8323SOL    HW236606   3.749   1.334   4.664 -1.7904 -1.0534 -2.7268
 8324SOL     OW36607   1.165   4.054   1.464  0.1072  0.3021  0.4613
 8324SOL    HW136608   1.218   4.099   1.398 -0.1903  1.6599  1.1411
 8324SOL    HW236609   1.158   3.962   1.437  2.3251  1.3119 -3.6097
 8325SOL     OW36610   0.252   3.485  11.780  0.0537 -0.3765 -0.1950
 8325SOL    HW136611   0.321   3.505  11.843 -0.0699  1.3558 -0.6274
 8325SOL    HW236612   0.207   3.404  11.802 -0.0547  0.0069  0.9652
 8326SOL     OW36613   3.757   2.097  17.398  0.4004 -0.0309  0.1974
 8326SOL    HW136614   3.745   2.185  17.435  1.0017  0.1686 -0.0726
 8326SOL    HW236615   3.688   2.109  17.333  0.3777  3.0643  0.7701
 8327SOL     OW36616   4.545   1.423  16.235  0.0508 -0.0606 -0.2965
 8327SOL    HW136617   4.580   1.415  16.146  0.6516  0.2321 -0.0855
 8327SOL    HW236618   4.554   1.517  16.247 -0.2145  0.0411 -0.8735
 8328SOL     OW36619   0.696   2.555   2.294 -0.2524  0.6306 -0.7751
 8328SOL    HW136620   0.777   2.598   2.322 -0.4915  1.5071 -1.4757
 8328SOL    HW236621   0.665   2.513   2.375  1.1770  1.3491  0.1541
 8329SOL     OW36622   2.510   1.406   0.432  0.8168 -0.3597  0.3219
 8329SOL    HW136623   2.477   1.358   0.356 -1.9400  0.7146  0.8249
 8329SOL    HW236624   2.598   1.431   0.405  0.9872 -2.1439 -0.7588
 8330SOL     OW36625   3.393   1.516   0.705  0.0737  0.3243  0.1566
 8330SOL    HW136626   3.301   1.534   0.686  0.0057  0.7526  0.8951
 8330SOL    HW236627   3.412   1.455   0.633 -2.7386 -0.3141 -0.0684
 8331SOL     OW36628   0.126   1.662   6.732 -0.0620  0.4725  0.2539
 8331SOL    HW136629   0.036   1.633   6.715  0.6074  0.0537 -2.4772
 8331SOL    HW236630   0.169   1.653   6.647 -1.2620 -0.3979 -0.2595
 8332SOL     OW36631   0.405   1.781   0.539 -0.3092  0.4918 -0.0107
 8332SOL    HW136632   0.497   1.807   0.545 -0.3353  0.7578 -0.7190
 8332SOL    HW236633   0.409   1.698   0.587  1.7562 -0.1843 -1.3442
 8333SOL     OW36634   2.400   0.538   0.229 -0.5134 -0.2796 -0.2460
 8333SOL    HW136635   2.425   0.627   0.256 -2.1111  0.5239 -1.4385
 8333SOL    HW236636   2.470   0.481   0.261 -1.5918 -0.9486  0.9371
 8334SOL     OW36637   0.450   3.377   5.299 -0.0172  0.5363 -0.5107
 8334SOL    HW136638   0.429   3.351   5.389  0.6802 -0.4236 -0.6289
 8334SOL    HW236639   0.544   3.361   5.304  0.4009  3.2226 -0.0079
 8335SOL     OW36640   1.598   2.623   6.833  0.2242 -0.3713  0.4495
 8335SOL    HW136641   1.654   2.620   6.911 -0.4085 -1.1806  0.8687
 8335SOL    HW236642   1.605   2.534   6.798 -0.3970 -0.8335  1.5023
 8336SOL     OW36643   2.215   2.051   5.410  0.3221  0.5875 -0.1325
 8336SOL    HW136644   2.211   1.956   5.417  0.0377  0.4456 -2.2062
 8336SOL    HW236645   2.244   2.058   5.319  1.0236 -0.3286  0.0147
 8337SOL     OW36646   0.892   2.106  14.780 -0.1491 -1.3088 -0.0127
 8337SOL    HW136647   0.907   2.152  14.863  0.1088 -0.9702 -0.2442
 8337SOL    HW236648   0.869   2.178  14.722 -0.0401 -0.7140  0.6784
 8338SOL     OW36649   0.995   3.727  17.437 -0.8324  0.6343 -0.5228
 8338SOL    HW136650   1.083   3.698  17.460 -0.9373  1.3458  0.7438
 8338SOL    HW236651   0.942   3.706  17.514 -2.0444 -0.8601 -1.7517
 8339SOL     OW36652   3.916   4.153   2.585  0.6531  0.1576 -0.3066
 8339SOL    HW136653   3.955   4.166   2.671 -0.5651 -1.2524  0.4742
 8339SOL    HW236654   3.882   4.239   2.564 -2.3967 -0.7856  0.7023
 8340SOL     OW36655   0.206   4.066   7.127  0.1534  0.0677  0.2792
 8340SOL    HW136656   0.290   4.066   7.080 -0.3758  0.5362 -0.6692
 8340SOL    HW236657   0.145   4.118   7.074  0.6318  0.0440 -0.2930
 8341SOL     OW36658   1.761   0.372   2.769  0.2539  0.3442 -0.7177
 8341SOL    HW136659   1.719   0.382   2.855  0.4116  0.0292 -0.6053
 8341SOL    HW236660   1.770   0.277   2.775 -1.9063  0.1063 -1.4148
 8342SOL     OW36661   1.504   4.057   3.066  0.0587 -0.5474 -0.8358
 8342SOL    HW136662   1.412   4.033   3.059  0.0164  0.3389 -3.4092
 8342SOL    HW236663   1.505   4.120   3.138 -0.5998  0.7609 -1.9869
 8343SOL     OW36664   4.034   3.533   2.449 -0.4144 -0.2022 -0.4105
 8343SOL    HW136665   3.985   3.603   2.492  0.8261  0.1480  0.4306
 8343SOL    HW236666   4.120   3.552   2.487 -0.5669 -0.3489  0.0171
 8344SOL     OW36667   1.589   3.479   6.445 -0.1698 -0.1757  0.5694
 8344SOL    HW136668   1.652   3.523   6.503  2.8192 -0.3895 -2.4849
 8344SOL    HW236669   1.609   3.524   6.363 -1.6046 -1.0984 -0.2910
 8345SOL     OW36670   3.248   0.560   6.950 -0.7543 -0.1536  0.1278
 8345SOL    HW136671   3.307   0.499   6.905 -2.7191 -0.1680 -2.4250
 8345SOL    HW236672   3.312   0.630   6.961 -1.7024  0.8892 -1.0422
 8346SOL     OW36673   3.989   2.700  12.191  0.5932  0.6669 -0.1514
 8346SOL    HW136674   3.942   2.783  12.195  0.7940  0.7527  0.4776
 8346SOL    HW236675   4.079   2.729  12.207  1.5475 -1.6366 -1.3595
 8347SOL     OW36676   1.394   3.529   1.086 -0.2604  0.7831 -0.4411
 8347SOL    HW136677   1.388   3.440   1.053 -0.4682  1.1152 -1.2921
 8347SOL    HW236678   1.305   3.556   1.064 -0.6307 -0.9001 -1.0236
 8348SOL     OW36679   0.402   1.110   6.706 -0.0910 -0.4433 -0.2559
 8348SOL    HW136680   0.489   1.130   6.672 -1.1872  2.6311 -1.2413
 8348SOL    HW236681   0.397   1.189   6.760 -1.1358 -1.2799  0.8481
 8349SOL     OW36682   1.893   4.493   5.334  0.1669 -0.3113 -0.1151
 8349SOL    HW136683   1.938   4.469   5.253  0.4342 -0.0687 -0.0413
 8349SOL    HW236684   1.890   4.589   5.327 -2.4424 -0.3833  0.2526
 8350SOL     OW36685   3.686   4.356   8.691 -0.1816  0.1604 -0.5332
 8350SOL    HW136686   3.636   4.435   8.712 -2.0183 -0.5608 -2.1960
 8350SOL    HW236687   3.753   4.390   8.631  0.3254  1.8031  0.9509
 8351SOL     OW36688   0.341   0.074   2.372 -0.5685 -0.5408  0.4707
 8351SOL    HW136689   0.247   0.069   2.353  0.0174 -0.9638 -2.3984
 8351SOL    HW236690   0.353   4.731   2.429 -1.0125 -0.4345  0.7131
 8352SOL     OW36691   0.613   4.302  11.200 -0.0467  0.2714  0.8860
 8352SOL    HW136692   0.526   4.265  11.217  0.1074  0.8357  2.9257
 8352SOL    HW236693   0.675   4.236  11.229 -1.2114  0.3371  3.6009
 8353SOL     OW36694   1.470   2.098   0.786 -0.2787 -0.0677  0.0519
 8353SOL    HW136695   1.504   2.077   0.700 -1.3353 -1.3978 -0.0360
 8353SOL    HW236696   1.528   2.166   0.821  0.1804  0.4164 -1.6840
 8354SOL     OW36697   1.585   0.420   9.579 -0.4771  0.4657  0.0619
 8354SOL    HW136698   1.501   0.403   9.621 -0.0900 -0.9226  0.2712
 8354SOL    HW236699   1.628   0.335   9.577 -0.5136  0.4043  2.1182
 8355SOL     OW36700   2.386   3.033   7.146 -0.3880  0.3157 -0.1874
 8355SOL    HW136701   2.454   2.967   7.163  0.2604  0.9566 -0.2619
 8355SOL    HW236702   2.442   3.111   7.143 -0.9996  0.8296  1.6261
 8356SOL     OW36703   1.761   0.697   3.622  0.7873  0.0828  0.1279
 8356SOL    HW136704   1.727   0.616   3.659  1.6971 -0.0588  0.6389
 8356SOL    HW236705   1.800   0.742   3.697  1.5355 -0.5583  0.1153
 8357SOL     OW36706   4.375   2.562  15.479  0.2746  0.4962 -0.0254
 8357SOL    HW136707   4.370   2.605  15.564  0.2614  2.8241 -1.1973
 8357SOL    HW236708   4.426   2.486  15.508  1.8781  2.7028  2.8745
 8358SOL     OW36709   4.621   3.501   4.520 -0.2777  0.0695  0.0161
 8358SOL    HW136710   4.576   3.461   4.445  1.4553 -0.7566 -0.5620
 8358SOL    HW236711   4.561   3.474   4.590 -1.1123  0.6973 -0.4502
 8359SOL     OW36712   0.441   4.041   0.987 -0.1150 -0.5222 -0.1716
 8359SOL    HW136713   0.444   4.132   0.959  0.9433 -0.7428 -0.7763
 8359SOL    HW236714   0.524   4.039   1.035 -1.5822 -1.2701  2.3585
 8360SOL     OW36715   1.758   2.916   2.648  0.1558 -0.2519 -0.1338
 8360SOL    HW136716   1.727   2.972   2.577 -0.0219 -0.2549 -0.0587
 8360SOL    HW236717   1.704   2.947   2.721 -0.8018 -0.1502 -0.8892
 8361SOL     OW36718   1.680   2.302   0.918  0.4514  0.0908  0.0082
 8361SOL    HW136719   1.754   2.256   0.878  1.2604  2.0865 -0.7716
 8361SOL    HW236720   1.693   2.251   0.998  1.7645  1.2964  0.5590
 8362SOL     OW36721   0.116   3.336   6.903 -0.1948 -0.0757 -0.1551
 8362SOL    HW136722   0.136   3.256   6.951  0.4197 -0.1684 -0.5786
 8362SOL    HW236723   0.032   3.350   6.948 -2.2517 -2.5962 -3.2678
 8363SOL     OW36724   3.610   0.862   5.121 -0.4379 -0.0022  0.1917
 8363SOL    HW136725   3.597   0.954   5.143 -0.2426  0.2169 -0.6026
 8363SOL    HW236726   3.575   0.833   5.205  2.4823  0.8947  1.6930
 8364SOL     OW36727   2.898   2.452   8.951 -0.5181  0.5462 -0.3985
 8364SOL    HW136728   2.923   2.362   8.932  1.8020  0.9542  0.7584
 8364SOL    HW236729   2.948   2.500   8.885 -0.9282  1.6114  0.0672
 8365SOL     OW36730   3.685   0.685  12.886 -0.2454 -0.1558  0.6891
 8365SOL    HW136731   3.594   0.657  12.881 -0.6037  1.3397 -1.2205
 8365SOL    HW236732   3.676   0.780  12.882 -2.3766 -0.3307  1.4290
 8366SOL     OW36733   1.438   2.965   5.367  0.4566 -0.1581 -0.2113
 8366SOL    HW136734   1.481   3.037   5.413 -2.2951  0.3625  1.5571
 8366SOL    HW236735   1.508   2.916   5.323 -0.1241 -0.3590 -0.9060
 8367SOL     OW36736   0.109   2.586   4.840  0.8376  0.2936 -0.4231
 8367SOL    HW136737   0.185   2.630   4.801 -2.4297  3.7654 -2.9986
 8367SOL    HW236738   0.124   2.584   4.934  1.3205 -1.2606 -0.5439
 8368SOL     OW36739   3.887   4.446   0.929 -0.2470  0.3467  0.4923
 8368SOL    HW136740   3.936   4.366   0.950  0.2167  0.4992  0.0064
 8368SOL    HW236741   3.859   4.411   0.844 -0.2267  0.4461  0.4439
 8369SOL     OW36742   3.407   3.432   8.208  0.0063  0.7026  0.1841
 8369SOL    HW136743   3.374   3.519   8.184  0.2649  0.2826 -1.6803
 8369SOL    HW236744   3.442   3.402   8.124  0.0078 -1.2027  0.8703
 8370SOL     OW36745   3.254   0.712   6.382 -0.3090 -0.5937 -0.2870
 8370SOL    HW136746   3.297   0.628   6.400 -1.0051 -1.2637 -1.7211
 8370SOL    HW236747   3.163   0.686   6.368 -0.0328 -0.3105 -2.6725
 8371SOL     OW36748   1.827   2.167   3.644 -0.6004 -0.0511  0.4459
 8371SOL    HW136749   1.914   2.130   3.628  0.2508  2.7495 -1.2962
 8371SOL    HW236750   1.793   2.186   3.557 -0.9320 -0.5830  0.4557
 8372SOL     OW36751   4.493   4.392   2.425  0.0767 -0.0037  0.4123
 8372SOL    HW136752   4.560   4.416   2.362 -0.7285  0.3294 -0.3028
 8372SOL    HW236753   4.502   4.297   2.422  2.5919  0.2956 -1.0530
 8373SOL     OW36754   0.751   2.333   6.259 -0.8516 -0.1241  0.2744
 8373SOL    HW136755   0.802   2.414   6.262  2.5483 -2.3210  2.2374
 8373SOL    HW236756   0.696   2.351   6.183  0.1980  2.1861  0.0680
 8374SOL     OW36757   4.453   3.966   5.976  0.1548  0.3169  0.6525
 8374SOL    HW136758   4.415   4.026   6.040 -2.6545 -0.9285  0.1281
 8374SOL    HW236759   4.488   3.890   6.022 -2.8428 -0.6571  1.2779
 8375SOL     OW36760   1.298   0.654   5.914 -0.7945 -0.0279 -0.1355
 8375SOL    HW136761   1.392   0.671   5.926 -0.4682 -0.5053 -2.0801
 8375SOL    HW236762   1.292   0.565   5.948  0.0077 -0.7513 -1.8889
 8376SOL     OW36763   0.612   3.947   6.053 -0.3501 -0.3639  0.4083
 8376SOL    HW136764   0.548   4.016   6.037  2.2265  1.9894  0.0198
 8376SOL    HW236765   0.648   3.938   5.964  0.8489  1.7443  0.6559
 8377SOL     OW36766   3.821   1.871  15.087 -0.0140  0.0592  0.2283
 8377SOL    HW136767   3.912   1.842  15.095 -0.0301  0.9907  3.6921
 8377SOL    HW236768   3.830   1.966  15.090 -4.3958  0.5392 -1.1323
 8378SOL     OW36769   1.366   3.822   6.638  0.3506 -0.2706 -0.0076
 8378SOL    HW136770   1.297   3.798   6.577  1.8491 -2.3823 -0.8904
 8378SOL    HW236771   1.393   3.911   6.613 -1.2128 -0.1512 -1.2844
 8379SOL     OW36772   3.731   2.131  12.895 -0.0917  0.0933 -0.5681
 8379SOL    HW136773   3.699   2.166  12.978 -0.4045  1.7617 -1.3990
 8379SOL    HW236774   3.720   2.209  12.840  0.6064  0.3911 -0.2862
 8380SOL     OW36775   2.904   4.175  11.452  0.3869  0.5934  0.1196
 8380SOL    HW136776   2.963   4.191  11.378 -0.8527  0.6915 -0.8369
 8380SOL    HW236777   2.854   4.098  11.425 -2.2342  1.8728  1.3615
 8381SOL     OW36778   0.671   2.607  13.776 -0.1052  0.0177 -0.6408
 8381SOL    HW136779   0.723   2.676  13.735  0.8021 -0.1879  0.1680
 8381SOL    HW236780   0.720   2.595  13.857  2.1173  3.2825 -1.4795
 8382SOL     OW36781   3.920   0.438   8.699 -0.0794 -0.1316  0.3276
 8382SOL    HW136782   4.008   0.431   8.736  0.5111  2.3390 -0.5946
 8382SOL    HW236783   3.939   0.418   8.607 -1.2693  0.8951 -0.1504
 8383SOL     OW36784   3.849   0.908  17.421 -0.1757 -0.3829 -0.5280
 8383SOL    HW136785   3.862   0.815  17.398  2.1943 -0.2279  0.1605
 8383SOL    HW236786   3.922   0.910  17.482 -0.5091 -0.6740 -0.1241
 8384SOL     OW36787   3.211   1.802   3.453  0.2313 -0.2649  0.0660
 8384SOL    HW136788   3.188   1.759   3.370 -0.2847 -1.8363  1.0179
 8384SOL    HW236789   3.302   1.830   3.443  0.5154 -1.1725  0.1135
 8385SOL     OW36790   2.474   1.285   7.626 -0.0578 -0.1842 -0.0624
 8385SOL    HW136791   2.463   1.351   7.694 -0.3197  2.0103 -2.2436
 8385SOL    HW236792   2.411   1.320   7.562 -1.4521 -1.4648  0.5990
 8386SOL     OW36793   1.542   2.265   8.387 -0.2805 -0.0633  0.6111
 8386SOL    HW136794   1.531   2.236   8.296  0.6985  0.4112  0.3440
 8386SOL    HW236795   1.461   2.230   8.425  0.3574 -3.3935 -1.1726
 8387SOL     OW36796   2.698   0.040   7.889 -0.4128 -0.0308  0.3876
 8387SOL    HW136797   2.615   0.067   7.928 -0.6518 -1.8001  1.1064
 8387SOL    HW236798   2.749   0.022   7.968  0.8817 -0.3185 -0.5106
 8388SOL     OW36799   1.486   2.750  16.481  0.0030 -0.0638  0.4791
 8388SOL    HW136800   1.416   2.689  16.505 -0.3157 -0.8202 -2.3175
 8388SOL    HW236801   1.478   2.813  16.553  1.1100 -0.0071  0.5557
 8389SOL     OW36802   3.526   0.070   7.499  0.5765  0.3362  0.4726
 8389SOL    HW136803   3.481   4.719   7.506  1.4351 -0.2985 -1.6168
 8389SOL    HW236804   3.479   0.119   7.567  0.2714 -0.7638  1.0471
 8390SOL     OW36805   2.978   3.928   7.352  0.2342 -0.3790  0.0210
 8390SOL    HW136806   2.899   3.875   7.354 -0.2839  0.3778 -0.2987
 8390SOL    HW236807   3.042   3.880   7.404  0.7226 -0.1770 -0.3908
 8391SOL     OW36808   1.277   3.967   2.818  0.9776  0.3131 -0.6562
 8391SOL    HW136809   1.266   4.049   2.865  0.7027 -0.8147  1.2639
 8391SOL    HW236810   1.205   3.915   2.855  2.0200  0.4024  1.4985
 8392SOL     OW36811   3.579   2.600  16.438 -0.3379 -0.3433 -0.1371
 8392SOL    HW136812   3.669   2.617  16.466  0.0073 -1.1119 -0.7941
 8392SOL    HW236813   3.537   2.684  16.454  0.7345  0.0897  0.4381
 8393SOL     OW36814   4.096   1.376  15.919 -0.4265  0.1545  1.0194
 8393SOL    HW136815   4.133   1.288  15.911  1.3580  0.7251  2.9788
 8393SOL    HW236816   4.130   1.403  16.004  1.0231  2.4971 -0.2760
 8394SOL     OW36817   3.291   2.746   5.993  0.0001  0.6975 -0.0114
 8394SOL    HW136818   3.246   2.701   6.065  2.1527 -1.7286 -0.1501
 8394SOL    HW236819   3.365   2.686   5.983  0.1603  0.6327  1.6606
 8395SOL     OW36820   4.137   3.402   2.237  0.2941 -0.4530 -0.2563
 8395SOL    HW136821   4.126   3.459   2.161 -0.4414 -2.0488 -1.3635
 8395SOL    HW236822   4.107   3.454   2.311 -0.8456 -1.7599  0.1992
 8396SOL     OW36823   3.740   1.793   3.328  0.4795  0.1899  0.0652
 8396SOL    HW136824   3.658   1.781   3.376  0.8169 -0.0222  0.5882
 8396SOL    HW236825   3.722   1.733   3.255  2.2121  1.7636 -1.6455
 8397SOL     OW36826   2.354   2.136   0.230 -0.1686 -0.8674 -0.3225
 8397SOL    HW136827   2.449   2.127   0.225 -0.1329 -0.8433  0.3174
 8397SOL    HW236828   2.337   2.187   0.151  1.0443 -0.0029 -0.0263
 8398SOL     OW36829   1.525   2.220   7.870 -0.0628  0.0418  0.2441
 8398SOL    HW136830   1.495   2.286   7.809 -2.5024 -0.8260  0.5245
 8398SOL    HW236831   1.612   2.191   7.840  0.2834 -1.8358  3.0733
 8399SOL     OW36832   2.134   2.695   6.813  0.5549 -0.0306  0.0251
 8399SOL    HW136833   2.193   2.638   6.863 -0.5635 -0.2039  1.1439
 8399SOL    HW236834   2.124   2.759   6.883  3.7211  1.6287 -1.0453
 8400SOL     OW36835   0.924   1.335  10.592  0.1633  0.5305  0.0395
 8400SOL    HW136836   0.983   1.329  10.667  0.2925 -0.1268 -0.1156
 8400SOL    HW236837   0.836   1.337  10.631  0.6793 -0.6446  1.2469
 8401SOL     OW36838   1.753   1.178  11.182 -0.2315 -0.1706  0.0341
 8401SOL    HW136839   1.684   1.130  11.228 -0.7185 -0.4973 -1.0399
 8401SOL    HW236840   1.824   1.133  11.227 -0.5279 -0.1700  0.5026
 8402SOL     OW36841   1.397   4.361   1.789 -0.5344 -0.2633  0.5339
 8402SOL    HW136842   1.467   4.348   1.853  0.9648  1.7246 -0.7265
 8402SOL    HW236843   1.423   4.448   1.760 -2.5794  0.4797  0.9013
 8403SOL     OW36844   2.428   1.868   9.788 -0.3158  0.5569 -0.2045
 8403SOL    HW136845   2.447   1.791   9.735  0.4173  0.2644  0.4875
 8403SOL    HW236846   2.347   1.843   9.831 -0.5231  2.6999  0.6782
 8404SOL     OW36847   4.534   2.897   4.919 -0.0896 -0.2354 -0.0298
 8404SOL    HW136848   4.519   2.982   4.878 -2.3864 -1.2690 -1.3265
 8404SOL    HW236849   4.522   2.832   4.849  1.6229  0.8007 -1.2908
 8405SOL     OW36850   0.267   0.869   3.627 -0.2743 -0.1573  0.4883
 8405SOL    HW136851   0.219   0.883   3.708  2.1402  2.4772  1.4674
 8405SOL    HW236852   0.323   0.947   3.627  0.4087 -0.6426  0.7145
 8406SOL     OW36853   0.218   1.600   5.505  0.0604  0.1989 -0.2427
 8406SOL    HW136854   0.265   1.577   5.585 -1.5409 -0.1216  0.5977
 8406SOL    HW236855   0.175   1.517   5.484 -0.7711  0.6862 -0.4653
 8407SOL     OW36856   4.404   2.927   6.990  0.0720 -0.5879  0.3694
 8407SOL    HW136857   4.362   2.898   6.909  1.7032 -1.4719 -0.1672
 8407SOL    HW236858   4.486   2.881   6.970 -0.7757 -1.3748 -1.2972
 8408SOL     OW36859   4.381   0.053   7.775 -0.0218  0.7626 -0.5528
 8408SOL    HW136860   4.464   0.097   7.789  1.1973 -1.9075  0.7091
 8408SOL    HW236861   4.383   0.016   7.686 -0.9760 -0.2416 -0.1636
 8409SOL     OW36862   0.076   2.369   5.726  0.0251  0.0907 -0.3472
 8409SOL    HW136863   0.055   2.324   5.645 -1.5812  0.1446  0.0432
 8409SOL    HW236864   0.095   2.296   5.785 -0.9157  0.6160  0.6162
 8410SOL     OW36865   2.171   3.420   7.587 -0.3857 -0.1444  0.0161
 8410SOL    HW136866   2.251   3.452   7.545 -0.6885  1.2586  0.4983
 8410SOL    HW236867   2.193   3.438   7.678  0.8777  0.0559 -0.3219
 8411SOL     OW36868   1.827   1.800   5.228 -0.3196 -0.3812  0.0212
 8411SOL    HW136869   1.777   1.873   5.264  1.4437  0.6271  0.4254
 8411SOL    HW236870   1.865   1.771   5.311  0.5861 -1.8582 -0.9054
 8412SOL     OW36871   3.287   2.534   5.519  0.3819 -0.5269 -0.1579
 8412SOL    HW136872   3.236   2.602   5.561  0.8598 -0.9154  1.0597
 8412SOL    HW236873   3.372   2.555   5.559  0.0816 -3.2628  1.9276
 8413SOL     OW36874   2.340   2.669   4.269 -0.0168  0.4834 -0.7254
 8413SOL    HW136875   2.431   2.656   4.241  0.5182  0.9646  0.7926
 8413SOL    HW236876   2.364   2.648   4.359 -4.2372 -0.6232  0.1313
 8414SOL     OW36877   0.405   4.517   0.027 -0.5637 -0.1279  0.3168
 8414SOL    HW136878   0.495   4.518   0.060  0.6506  2.4832 -3.0943
 8414SOL    HW236879   0.420   4.548  17.670  0.0294  2.2084  1.2053
 8415SOL     OW36880   3.620   1.937   4.520  0.6346 -0.3067 -0.5613
 8415SOL    HW136881   3.675   1.936   4.598  1.1071  2.0567 -0.8459
 8415SOL    HW236882   3.633   1.848   4.489 -0.2062 -0.5488 -0.2112
 8416SOL     OW36883   4.145   2.802   2.377  0.5286 -0.5249  0.2047
 8416SOL    HW136884   4.203   2.752   2.435 -0.8316 -0.0274  2.0035
 8416SOL    HW236885   4.152   2.749   2.298 -1.5676 -1.6270  0.7656
 8417SOL     OW36886   2.640   0.426   8.822 -0.1567 -0.0747  0.3001
 8417SOL    HW136887   2.559   0.395   8.862 -0.6211  0.2786 -0.3557
 8417SOL    HW236888   2.701   0.418   8.895 -1.8703 -0.2787  1.7068
 8418SOL     OW36889   0.757   0.061   9.696 -0.1365 -0.1072  0.0608
 8418SOL    HW136890   0.706   0.109   9.761  2.2442  1.7959  0.5178
 8418SOL    HW236891   0.755   4.708   9.736 -2.1836 -1.1497 -2.2343
 8419SOL     OW36892   0.418   3.029   9.062  0.4787  0.2984 -0.2228
 8419SOL    HW136893   0.384   3.106   9.108  0.5454  1.3388 -1.9196
 8419SOL    HW236894   0.458   2.972   9.127  2.0490  1.6091 -0.0271
 8420SOL     OW36895   0.617   2.420  15.076  0.3077 -0.3294 -0.5136
 8420SOL    HW136896   0.685   2.383  15.132 -0.6490  0.2677  1.0433
 8420SOL    HW236897   0.550   2.384  15.134 -1.3781  2.3316 -0.8389
 8421SOL     OW36898   0.511   2.187   5.783 -0.9514 -0.0655 -0.1206
 8421SOL    HW136899   0.451   2.113   5.783  0.5030 -1.2585 -0.8847
 8421SOL    HW236900   0.484   2.240   5.708  0.7616 -1.3690 -1.6599
 8422SOL     OW36901   2.357   4.702   3.077 -0.3832 -0.1315  0.4748
 8422SOL    HW136902   2.411   0.041   3.110  0.4474 -0.4911 -0.1066
 8422SOL    HW236903   2.311   4.674   3.157 -1.5995  1.5480  0.3738
 8423SOL     OW36904   1.774   3.520   6.675  0.7208  0.3280 -0.3604
 8423SOL    HW136905   1.836   3.486   6.740  0.0476 -0.6629 -0.2277
 8423SOL    HW236906   1.693   3.546   6.720 -0.2982 -2.9193 -0.3089
 8424SOL     OW36907   2.709   3.599   6.128 -0.7191 -0.1361 -0.3639
 8424SOL    HW136908   2.618   3.572   6.120 -0.7769 -1.1706  4.1696
 8424SOL    HW236909   2.707   3.691   6.100  2.4837 -0.2806 -1.0532
 8425SOL     OW36910   3.715   4.236   6.693 -0.1109 -0.4234  0.5876
 8425SOL    HW136911   3.670   4.181   6.757 -1.6734  1.5246  1.1355
 8425SOL    HW236912   3.639   4.278   6.655 -0.4136  0.3276  2.0341
 8426SOL     OW36913   1.575   3.296   4.259 -0.2715  0.2430 -0.3526
 8426SOL    HW136914   1.606   3.371   4.310 -1.7937  1.2704 -0.9159
 8426SOL    HW236915   1.544   3.238   4.328 -0.7721 -0.6951 -1.3691
 8427SOL     OW36916   1.713   4.069   9.413 -0.2547 -0.5612 -0.5920
 8427SOL    HW136917   1.763   4.010   9.471  1.2831  2.5730  1.2652
 8427SOL    HW236918   1.764   4.149   9.424  0.5947 -1.0692 -0.8054
 8428SOL     OW36919   3.793   4.425   5.344  0.1569 -0.0717 -0.1098
 8428SOL    HW136920   3.879   4.467   5.337 -0.2400  0.3379 -2.4922
 8428SOL    HW236921   3.791   4.394   5.435 -1.3519 -0.9017 -0.4247
 8429SOL     OW36922   2.318   1.611   9.209 -0.1895  0.1826  0.4499
 8429SOL    HW136923   2.229   1.636   9.234 -0.4825 -0.5761  0.1504
 8429SOL    HW236924   2.362   1.632   9.292  1.6571  1.3563 -0.8285
 8430SOL     OW36925   2.728   1.880   7.593 -0.3045 -0.0625  0.7066
 8430SOL    HW136926   2.712   1.797   7.547  1.4130 -2.5512  4.6374
 8430SOL    HW236927   2.656   1.891   7.655  1.4565  1.5491  2.4415
 8431SOL     OW36928   0.574   4.307   8.863 -0.3210 -0.0165  0.2781
 8431SOL    HW136929   0.598   4.259   8.783 -0.3396  0.1007  0.2022
 8431SOL    HW236930   0.595   4.242   8.930  1.0113  0.5945  0.4448
 8432SOL     OW36931   3.526   0.758   8.101 -0.3303  0.2037 -0.8793
 8432SOL    HW136932   3.569   0.843   8.113  1.4271 -0.6709 -0.9995
 8432SOL    HW236933   3.484   0.746   8.187 -0.1194 -0.4963 -0.8765
 8433SOL     OW36934   2.239   1.083   8.147 -0.1645 -0.2256 -0.2659
 8433SOL    HW136935   2.144   1.070   8.143 -0.3462  0.6965  0.9896
 8433SOL    HW236936   2.244   1.144   8.221  3.0758  1.5864 -1.9663
 8434SOL     OW36937   4.274   1.269  15.182 -0.0399 -0.2188  0.1111
 8434SOL    HW136938   4.312   1.353  15.158  1.4578 -0.6286  1.0852
 8434SOL    HW236939   4.181   1.272  15.158  0.6909 -0.3922 -2.7120
 8435SOL     OW36940   3.066   2.380   2.272 -0.3386 -0.0774 -0.0470
 8435SOL    HW136941   3.012   2.457   2.255 -0.8975 -0.3612  0.4178
 8435SOL    HW236942   3.104   2.390   2.359 -0.2577  1.2518 -0.2472
 8436SOL     OW36943   2.782   0.146   2.443 -0.1242  0.4009  0.2520
 8436SOL    HW136944   2.724   0.124   2.370 -0.8978  1.7541  0.4557
 8436SOL    HW236945   2.820   0.059   2.455  2.7136  1.5893 -0.0856
 8437SOL     OW36946   2.228   1.898   2.507  0.2503 -0.6116 -0.3536
 8437SOL    HW136947   2.249   1.991   2.511 -0.7124 -0.5109  2.6816
 8437SOL    HW236948   2.195   1.895   2.597  2.1681 -1.8263  0.3376
 8438SOL     OW36949   1.443   1.439   4.964 -0.1177 -0.2036  0.6892
 8438SOL    HW136950   1.357   1.401   4.981 -1.0882  1.2202 -1.0710
 8438SOL    HW236951   1.434   1.441   4.869 -5.0583 -3.1382  1.0900
 8439SOL     OW36952   0.501   3.265   8.595 -0.0694 -0.3887 -0.2183
 8439SOL    HW136953   0.550   3.277   8.513  1.8763 -2.5731  0.6346
 8439SOL    HW236954   0.551   3.196   8.637  0.1080  0.5685  1.1261
 8440SOL     OW36955   2.634   2.916   1.958 -0.7335  0.0606  0.1747
 8440SOL    HW136956   2.600   2.927   1.869 -1.1449  1.5525  0.5200
 8440SOL    HW236957   2.651   2.822   1.969 -0.4450  0.4204  2.8374
 8441SOL     OW36958   2.350   1.106   9.725  0.6016  0.2556  0.1628
 8441SOL    HW136959   2.265   1.133   9.690  2.0452  0.7712 -2.9912
 8441SOL    HW236960   2.346   1.153   9.807  2.7842  2.6714 -1.1222
 8442SOL     OW36961   1.396   1.118   3.174 -0.2979  0.0059  0.2614
 8442SOL    HW136962   1.443   1.120   3.091  0.4063 -2.8373  0.6098
 8442SOL    HW236963   1.468   1.154   3.226 -0.2563  0.3781 -0.0549
 8443SOL     OW36964   2.877   4.249  11.701 -0.2709  0.2434  0.1307
 8443SOL    HW136965   2.879   4.229  11.608  2.3523  1.1194 -0.0022
 8443SOL    HW236966   2.889   4.344  11.710 -0.9074  0.1753  1.7773
 8444SOL     OW36967   0.080   3.782   1.676  0.4760  0.2634  0.4113
 8444SOL    HW136968   4.730   3.822   1.704  1.4277  0.8418  2.3980
 8444SOL    HW236969   0.116   3.853   1.623 -2.2717 -0.7854 -2.8607
 8445SOL     OW36970   4.545   1.847  16.952 -0.0634 -0.4117 -0.4461
 8445SOL    HW136971   4.454   1.843  16.980  0.7260 -0.1581  2.1436
 8445SOL    HW236972   4.582   1.899  17.023  3.2719 -0.3324 -2.2430
 8446SOL     OW36973   0.024   2.954   9.225 -0.0402 -0.3746  0.1107
 8446SOL    HW136974   4.677   2.946   9.276 -1.7703  1.2172 -2.3508
 8446SOL    HW236975   0.013   2.909   9.141  1.4424 -0.5163 -0.0116
 8447SOL     OW36976   3.946   1.174  16.457 -0.3661 -0.2695  0.7314
 8447SOL    HW136977   3.867   1.220  16.429  0.1500  0.4550  0.4940
 8447SOL    HW236978   3.987   1.254  16.490 -0.8602  0.6787 -0.9486
 8448SOL     OW36979   2.294   1.026   5.843  0.3203 -0.5905  0.7003
 8448SOL    HW136980   2.319   1.017   5.935 -1.0803 -2.2902  0.9243
 8448SOL    HW236981   2.263   1.116   5.850  1.9927  0.0638 -0.3666
 8449SOL     OW36982   3.073   4.265   2.173  0.2053  0.2155  0.5846
 8449SOL    HW136983   2.986   4.306   2.178  0.1743  0.1056  1.0089
 8449SOL    HW236984   3.051   4.172   2.180 -0.4230  0.2860 -0.4514
 8450SOL     OW36985   3.636   2.233   5.020 -0.3586 -0.2026  0.1127
 8450SOL    HW136986   3.701   2.194   5.079 -0.1565  0.3290  0.2431
 8450SOL    HW236987   3.573   2.268   5.082  0.5781 -0.3124  1.1310
 8451SOL     OW36988   4.350   0.751   2.776  0.4130  0.0577 -0.4042
 8451SOL    HW136989   4.373   0.803   2.853 -0.1002 -1.0993  0.5364
 8451SOL    HW236990   4.255   0.754   2.787  0.7041  0.4406  1.9955
 8452SOL     OW36991   4.531   3.963   7.800 -0.0588 -0.4320 -0.2438
 8452SOL    HW136992   4.467   4.018   7.845 -0.3478 -1.5221  0.6837
 8452SOL    HW236993   4.528   4.003   7.714 -1.4316  0.7796  0.3705
 8453SOL     OW36994   0.199   3.187   7.132 -0.4405  0.1314 -0.6115
 8453SOL    HW136995   0.168   3.235   7.209  0.4919  0.8265 -0.6659
 8453SOL    HW236996   0.165   3.098   7.144  1.9497 -1.0056 -2.4041
 8454SOL     OW36997   2.083   2.662  12.553 -0.0097 -0.2639 -0.0361
 8454SOL    HW136998   2.159   2.714  12.528 -0.3255 -0.8105 -2.1466
 8454SOL    HW236999   2.013   2.721  12.523 -0.9859 -1.4353 -0.0611
 8455SOL     OW37000   0.962   3.099   9.001 -0.0139  0.1975  0.0263
 8455SOL    HW137001   0.930   3.117   9.090  0.1733  0.5332  0.0281
 8455SOL    HW237002   1.054   3.077   9.015 -0.7426 -1.7751  1.8134
 8456SOL     OW37003   0.092   1.334   6.364  0.2396  0.5406 -0.5378
 8456SOL    HW137004   0.084   1.372   6.451 -1.2514 -2.4300  0.6222
 8456SOL    HW237005   0.113   1.247   6.396 -1.3063 -0.5784 -2.5484
 8457SOL     OW37006   1.445   0.554   1.082  0.2671  0.1691  0.2460
 8457SOL    HW137007   1.513   0.578   1.144 -0.5429 -1.2989  1.7010
 8457SOL    HW237008   1.503   0.533   1.008  0.3772 -1.2449  0.7420
 8458SOL     OW37009   0.021   1.747   3.564 -0.1229  0.1375  0.2666
 8458SOL    HW137010   4.712   1.664   3.542 -0.6259  0.3976  0.2511
 8458SOL    HW237011   4.677   1.793   3.596 -0.0718 -0.2953  1.0157
 8459SOL     OW37012   0.708   4.196   8.172 -0.1241  0.0509  0.3726
 8459SOL    HW137013   0.667   4.275   8.206 -1.0565 -0.3107  0.0745
 8459SOL    HW237014   0.684   4.129   8.236  2.1602 -2.0715 -0.9630
 8460SOL     OW37015   1.213   2.399   9.156 -0.0608  0.2551  0.0234
 8460SOL    HW137016   1.298   2.410   9.199 -0.3725 -1.1228  0.9837
 8460SOL    HW237017   1.214   2.313   9.114  0.7291  1.3372 -2.1740
 8461SOL     OW37018   1.825   2.569  16.859  0.0149  0.1581 -0.1796
 8461SOL    HW137019   1.765   2.497  16.840  1.1373 -0.6440 -0.6490
 8461SOL    HW237020   1.785   2.630  16.797 -2.8104 -0.3354  1.1228
 8462SOL     OW37021   4.287   1.926   5.853 -0.1163 -0.1884  0.3189
 8462SOL    HW137022   4.370   1.941   5.809 -0.0095  0.3153  0.6995
 8462SOL    HW237023   4.243   2.009   5.836  1.0609  0.2813 -0.4183
 8463SOL     OW37024   3.568   2.613   8.116  0.0195  0.0714 -0.2110
 8463SOL    HW137025   3.553   2.522   8.141  2.7011  0.1917  1.8104
 8463SOL    HW237026   3.638   2.620   8.180 -1.5265 -0.7722  1.5914
 8464SOL     OW37027   0.908   1.944   3.875 -0.5475  0.3178 -0.7010
 8464SOL    HW137028   0.994   1.946   3.915 -1.1883 -0.8753  0.7445
 8464SOL    HW237029   0.884   1.851   3.868  1.8027 -0.3251  0.0075
 8465SOL     OW37030   1.629   2.113   4.369  1.0122 -0.1523 -0.3950
 8465SOL    HW137031   1.606   2.055   4.297 -0.2237 -0.7679  0.4976
 8465SOL    HW237032   1.598   2.198   4.339  2.3459 -0.3498 -2.3307
 8466SOL     OW37033   1.152   4.514   2.103 -0.7037  0.8405  0.1834
 8466SOL    HW137034   1.136   4.440   2.163 -0.0396  1.0200  0.5769
 8466SOL    HW237035   1.158   4.581   2.171 -1.5992 -0.1061  1.2190
 8467SOL     OW37036   4.668   2.668  15.271  0.6883  0.2189  0.2614
 8467SOL    HW137037   4.682   2.579  15.304 -1.9524 -1.1579 -2.2308
 8467SOL    HW237038   4.580   2.664  15.232  0.0074 -2.5902  2.0709
 8468SOL     OW37039   2.164   2.024   7.750 -0.8516 -0.8672 -0.3053
 8468SOL    HW137040   2.183   2.117   7.758 -1.6292 -0.7712  0.5291
 8468SOL    HW237041   2.241   1.986   7.707  0.4409 -1.5103  2.5256
 8469SOL     OW37042   2.248   2.081   5.142  0.6980 -0.2171 -0.3280
 8469SOL    HW137043   2.235   2.045   5.054  0.1683  0.3718 -0.4926
 8469SOL    HW237044   2.241   2.174   5.119 -0.0350  0.2022  1.6011
 8470SOL     OW37045   2.113   4.474  13.444  0.4145 -0.2726 -0.6650
 8470SOL    HW137046   2.022   4.477  13.473  0.5201  1.8390 -0.5491
 8470SOL    HW237047   2.133   4.565  13.466 -0.7172  0.2458 -1.7678
 8471SOL     OW37048   3.676   2.423   2.699  0.2172 -0.0979  0.4233
 8471SOL    HW137049   3.603   2.484   2.712  0.1501 -0.7614  3.0419
 8471SOL    HW237050   3.693   2.449   2.609 -1.1623 -0.3567  0.0834
 8472SOL     OW37051   1.566   1.565   8.191  0.1850 -0.1582  0.2002
 8472SOL    HW137052   1.575   1.525   8.277 -0.5450  2.0628  1.3064
 8472SOL    HW237053   1.482   1.529   8.163 -0.5714  1.2899  0.5749
 8473SOL     OW37054   4.458   3.991   4.858 -0.0339 -0.2791 -0.4650
 8473SOL    HW137055   4.464   4.086   4.865 -0.8016 -0.2804  0.1738
 8473SOL    HW237056   4.429   3.974   4.947 -0.1681  2.6255  0.0427
 8474SOL     OW37057   4.700   3.381   5.488 -0.3914 -0.3991  0.0240
 8474SOL    HW137058   4.638   3.334   5.544  1.4652 -2.1844  0.5766
 8474SOL    HW237059   4.635   3.444   5.457  1.6195  1.1400 -1.0797
 8475SOL     OW37060   0.851   2.612   6.212  0.4140  0.2334 -0.0728
 8475SOL    HW137061   0.795   2.677   6.255 -0.0304 -0.2559  0.0983
 8475SOL    HW237062   0.879   2.656   6.132  0.7427  2.1920  1.1068
 8476SOL     OW37063   3.978   0.716  17.721  0.7759 -0.0700  1.0749
 8476SOL    HW137064   3.989   0.653  17.650  2.8584  1.1860  0.2909
 8476SOL    HW237065   3.982   0.645   0.053 -1.9714 -0.8969  0.3404
 8477SOL     OW37066   3.264   4.117   4.003 -0.1478 -0.0854 -0.4511
 8477SOL    HW137067   3.356   4.115   4.029 -0.1289 -0.0755 -0.5193
 8477SOL    HW237068   3.257   4.054   3.932 -1.1132 -1.8205  1.1684
 8478SOL     OW37069   2.772   1.082   0.971 -0.1640  0.4181 -0.0938
 8478SOL    HW137070   2.839   1.145   0.944  0.8685 -1.5344 -2.1655
 8478SOL    HW237071   2.733   1.134   1.041  0.2508 -0.3411  0.7065
 8479SOL     OW37072   1.830   1.647   3.596 -0.1712 -0.7286  0.4344
 8479SOL    HW137073   1.840   1.570   3.652 -0.5376 -1.0980 -0.0078
 8479SOL    HW237074   1.873   1.616   3.517 -1.6126  0.0015 -0.6368
 8480SOL     OW37075   4.074   1.206  13.462  0.2979 -0.1081  0.3502
 8480SOL    HW137076   3.980   1.214  13.478 -0.1903 -3.7425 -0.6334
 8480SOL    HW237077   4.115   1.257  13.532 -2.7364 -0.4173  2.3311
 8481SOL     OW37078   1.644   2.888  15.370  0.2124  0.3924  0.2722
 8481SOL    HW137079   1.586   2.938  15.427 -0.9663 -1.7999  0.9785
 8481SOL    HW237080   1.701   2.839  15.429 -1.7007 -3.2668 -0.9345
 8482SOL     OW37081   0.053   0.239   6.524  0.2202 -0.1738  0.2119
 8482SOL    HW137082   0.043   0.189   6.605 -0.2836  0.0599  0.2965
 8482SOL    HW237083   0.100   0.177   6.468 -0.6393  0.1921 -0.9101
 8483SOL     OW37084   3.737   1.361  15.862  0.1877  0.1203 -0.2258
 8483SOL    HW137085   3.811   1.321  15.906  0.2705  0.9711  0.4032
 8483SOL    HW237086   3.743   1.450  15.897  0.7682  0.0623 -0.1858
 8484SOL     OW37087   2.174   3.785   7.467 -0.1666  0.2083  0.1566
 8484SOL    HW137088   2.151   3.781   7.559 -0.4952  0.9393  0.1104
 8484SOL    HW237089   2.249   3.845   7.471 -0.2298  0.4071 -1.7267
 8485SOL     OW37090   1.384   2.999   0.986 -0.0568 -0.1371  0.0713
 8485SOL    HW137091   1.348   2.912   1.000 -0.9114  0.1321 -0.5105
 8485SOL    HW237092   1.406   2.994   0.893 -0.2191  2.1120 -0.0829
 8486SOL     OW37093   0.473   1.587   8.417  0.0067 -0.4029 -0.3255
 8486SOL    HW137094   0.438   1.525   8.353  0.3783  0.1293 -1.0474
 8486SOL    HW237095   0.562   1.610   8.389  0.4487  0.0895  1.5069
 8487SOL     OW37096   1.262   2.237   8.785  0.3417  0.1120  0.0446
 8487SOL    HW137097   1.191   2.286   8.827  0.6020  0.2329  0.3450
 8487SOL    HW237098   1.293   2.178   8.854 -0.7558  1.4132  1.6533
 8488SOL     OW37099   2.945   1.823   6.833  0.0088  0.3666  0.1110
 8488SOL    HW137100   2.854   1.798   6.848  0.2806 -0.8828 -0.3191
 8488SOL    HW237101   2.998   1.753   6.870 -0.7772  0.4152  1.3461
 8489SOL     OW37102   1.258   3.404  16.787 -0.0235 -0.0659 -0.0951
 8489SOL    HW137103   1.163   3.410  16.786 -0.0643 -0.5901  1.0939
 8489SOL    HW237104   1.284   3.451  16.708 -1.4095  0.3343 -0.3116
 8490SOL     OW37105   1.230   2.345  10.827  0.7616 -0.3231 -0.3448
 8490SOL    HW137106   1.248   2.259  10.787  0.3187 -0.3415 -0.4986
 8490SOL    HW237107   1.319   2.376  10.844 -0.0916  3.2241 -2.5083
 8491SOL     OW37108   1.918   2.836   2.353 -0.1838  0.1996 -0.3095
 8491SOL    HW137109   1.954   2.751   2.328  0.2090  0.2871 -0.0447
 8491SOL    HW237110   1.988   2.869   2.410 -0.6841  2.4534 -1.0134
 8492SOL     OW37111   0.592   3.683   0.325 -0.4844  0.2386 -0.2832
 8492SOL    HW137112   0.627   3.605   0.282 -0.9699 -1.0719  1.7198
 8492SOL    HW237113   0.667   3.715   0.376 -1.3376  1.8222  0.0036
 8493SOL     OW37114   2.626   4.300  11.440  0.2113  0.1084 -0.0195
 8493SOL    HW137115   2.715   4.283  11.469  0.8048  1.5371 -1.0340
 8493SOL    HW237116   2.635   4.291  11.346 -1.1986 -2.2245  0.0603
 8494SOL     OW37117   4.089   1.633   2.705  0.3296  0.2281  0.1762
 8494SOL    HW137118   4.168   1.676   2.736  0.9889 -0.8936  0.0572
 8494SOL    HW237119   4.053   1.699   2.646 -1.4157  0.6447  1.7085
 8495SOL     OW37120   3.322   1.645   3.705 -0.1555  0.2994  0.1758
 8495SOL    HW137121   3.254   1.704   3.738 -0.4824 -1.1134  2.0031
 8495SOL    HW237122   3.361   1.605   3.783 -0.5665 -0.1099  0.1703
 8496SOL     OW37123   3.306   1.604   8.421  0.0398  0.3494  0.1488
 8496SOL    HW137124   3.213   1.627   8.421  0.0896  0.5371 -0.4493
 8496SOL    HW237125   3.318   1.578   8.330  1.0432 -0.1410  0.4223
 8497SOL     OW37126   4.347   4.557   9.357  0.1159  0.6957  0.1303
 8497SOL    HW137127   4.412   4.608   9.307  0.0596 -1.4959 -2.1794
 8497SOL    HW237128   4.386   4.572   9.443  0.6667 -1.2091  0.2206
 8498SOL     OW37129   4.047   1.777  16.054  0.2946 -0.2068 -0.0464
 8498SOL    HW137130   4.092   1.859  16.034 -1.8011  0.4579 -2.1782
 8498SOL    HW237131   4.002   1.768  15.970  0.2746 -2.8736  0.2721
 8499SOL     OW37132   3.577   3.607   5.766  0.2486  0.3635  0.1551
 8499SOL    HW137133   3.656   3.657   5.786  1.4588 -1.6621  0.4657
 8499SOL    HW237134   3.623   3.533   5.727  1.6457  0.2196  2.0950
 8500SOL     OW37135   0.206   3.360   5.111  0.3527  0.5625  0.0327
 8500SOL    HW137136   0.261   3.352   5.189 -0.2188 -0.8370  0.2862
 8500SOL    HW237137   0.198   3.271   5.077  1.7045 -0.4969  2.4935
 8501SOL     OW37138   4.225   2.379  15.885  0.0671 -0.5066 -0.5259
 8501SOL    HW137139   4.265   2.308  15.835  0.6240 -0.9730  0.5605
 8501SOL    HW237140   4.137   2.385  15.848 -0.0276  2.8402  0.2223
 8502SOL     OW37141   3.396   2.201   6.926  0.5418 -0.2921  0.0523
 8502SOL    HW137142   3.464   2.133   6.921  0.9880  0.0561  1.2470
 8502SOL    HW237143   3.337   2.160   6.989 -0.8819 -2.0521 -2.4124
 8503SOL     OW37144   1.075   2.622  11.351 -0.0344 -0.2319 -0.1744
 8503SOL    HW137145   1.027   2.704  11.361 -1.7151 -1.3263  0.8432
 8503SOL    HW237146   1.163   2.638  11.385  0.1555 -0.4986 -0.5478
 8504SOL     OW37147   3.062   4.124   4.192  0.0962  0.0628  0.1325
 8504SOL    HW137148   3.142   4.113   4.142 -1.2025  2.6052 -2.5116
 8504SOL    HW237149   3.095   4.180   4.263  3.0633 -0.3791 -0.9085
 8505SOL     OW37150   3.281   2.461   0.156 -0.3067 -0.0774 -0.7491
 8505SOL    HW137151   3.213   2.480   0.091 -0.4504  0.4192 -0.4549
 8505SOL    HW237152   3.313   2.544   0.191  2.6155 -1.8834  0.8582
 8506SOL     OW37153   4.332   1.498   6.985  1.0685 -0.2967  0.1719
 8506SOL    HW137154   4.365   1.447   7.059 -0.9156 -3.3006 -1.0101
 8506SOL    HW237155   4.407   1.556   6.973 -0.0836  1.2422  0.4473
 8507SOL     OW37156   4.131   2.602   4.901  0.0825 -0.6881  0.5214
 8507SOL    HW137157   4.041   2.608   4.933 -0.1497  1.0190 -0.4358
 8507SOL    HW237158   4.137   2.667   4.831 -0.4536 -1.3626 -0.1488
 8508SOL     OW37159   1.502   4.353  15.314  0.6446  0.0468  0.0183
 8508SOL    HW137160   1.591   4.380  15.336  0.5188 -1.1677  2.0677
 8508SOL    HW237161   1.462   4.382  15.396  1.1664 -0.4610  0.4614
 8509SOL     OW37162   4.501   2.747   4.698  0.0759  0.4489  0.6220
 8509SOL    HW137163   4.406   2.749   4.683  0.2300 -0.3756 -0.4830
 8509SOL    HW237164   4.532   2.774   4.611  1.8415 -1.5412  0.6600
 8510SOL     OW37165   0.969   1.382   3.948  0.2252 -0.4319 -0.2977
 8510SOL    HW137166   1.020   1.361   4.026  0.8539  1.0060 -0.3127
 8510SOL    HW237167   0.882   1.382   3.987  0.4617 -0.8867  0.2223
 8511SOL     OW37168   0.207   2.484   3.815 -0.1431 -0.0574  0.4611
 8511SOL    HW137169   0.249   2.442   3.891 -1.0077  0.3597  1.1670
 8511SOL    HW237170   0.229   2.573   3.843 -2.2473  1.1648 -1.7970
 8512SOL     OW37171   2.627   1.999  17.652 -0.0340 -0.2466 -0.1111
 8512SOL    HW137172   2.646   2.085  17.689  0.1305 -0.1129 -0.5012
 8512SOL    HW237173   2.658   2.008  17.561  2.5609 -2.4365  0.5508
 8513SOL     OW37174   0.543   1.065   4.939 -0.1168 -0.2258 -0.4298
 8513SOL    HW137175   0.597   1.141   4.964 -1.5763  0.2834  1.2030
 8513SOL    HW237176   0.573   1.014   5.014  0.0270  0.0036 -0.3290
 8514SOL     OW37177   0.041   2.333   4.813  0.0750  0.3090  0.7350
 8514SOL    HW137178   0.131   2.311   4.787 -0.9707 -0.0306 -2.5782
 8514SOL    HW237179   0.049   2.428   4.817 -1.8262  0.4824  0.6404
 8515SOL     OW37180   3.869   4.441   7.407  0.1915  0.1118  0.0839
 8515SOL    HW137181   3.843   4.351   7.427 -0.0186  0.8724  3.2372
 8515SOL    HW237182   3.894   4.466   7.496 -1.9379  2.4822  0.0243
 8516SOL     OW37183   1.407   0.260  14.724  0.2841  0.3229  0.2270
 8516SOL    HW137184   1.460   0.191  14.765 -0.6771 -0.7463 -0.3228
 8516SOL    HW237185   1.432   0.256  14.632 -0.0527 -2.2317  0.2321
 8517SOL     OW37186   1.502   2.208   5.655 -0.0044  0.0271 -0.0754
 8517SOL    HW137187   1.551   2.150   5.713  0.7703  1.0174  0.2582
 8517SOL    HW237188   1.415   2.197   5.692  0.6029 -2.4827  0.5827
 8518SOL     OW37189   1.814   0.957   7.636 -0.5107  0.1765 -0.2560
 8518SOL    HW137190   1.788   0.869   7.610  0.5497  0.1497 -1.2361
 8518SOL    HW237191   1.759   1.023   7.593 -0.2671  1.4919  1.4378
 8519SOL     OW37192   2.340   1.521   2.574  0.1763 -0.0619  0.1642
 8519SOL    HW137193   2.401   1.495   2.643 -1.8350 -1.0995  1.5314
 8519SOL    HW237194   2.259   1.483   2.608  0.4500 -0.5413  0.2745
 8520SOL     OW37195   1.911   2.269   6.083  0.3616  0.0344  0.1839
 8520SOL    HW137196   1.921   2.336   6.015 -0.2512 -0.0554  0.0017
 8520SOL    HW237197   1.885   2.189   6.035  0.3030  0.4499 -0.4771
 8521SOL     OW37198   4.690   0.576   9.828 -0.1598  0.7382 -0.1993
 8521SOL    HW137199   4.623   0.551   9.764 -0.8660 -1.4105  1.3806
 8521SOL    HW237200   4.654   0.523   9.900  1.6285 -0.5557 -0.2592
 8522SOL     OW37201   0.710   0.982   3.457 -0.7582  0.0462  0.2505
 8522SOL    HW137202   0.642   0.959   3.520 -0.6415 -0.4514  0.1927
 8522SOL    HW237203   0.790   0.974   3.510 -0.7789  0.9972  0.4399
 8523SOL     OW37204   3.293   2.701   2.900  0.0532  0.2905  0.6824
 8523SOL    HW137205   3.367   2.742   2.943  1.4918 -2.0106  0.4037
 8523SOL    HW237206   3.304   2.616   2.942 -0.3972  0.7512  1.7383
 8524SOL     OW37207   3.333   2.886  10.753 -0.0732  0.6285 -0.4518
 8524SOL    HW137208   3.409   2.893  10.695 -0.8644  0.7016 -1.4615
 8524SOL    HW237209   3.341   2.804  10.802  1.5030  1.8791  1.4081
 8525SOL     OW37210   2.104   4.502  12.025  0.4079 -0.1138  0.3077
 8525SOL    HW137211   2.147   4.450  11.957  0.7466  0.2758  0.2292
 8525SOL    HW237212   2.059   4.434  12.076  0.4916  0.9501  1.7781
 8526SOL     OW37213   3.672   0.745  17.258 -0.3377 -0.8944 -0.0469
 8526SOL    HW137214   3.730   0.820  17.244  2.4268 -3.0084 -0.0481
 8526SOL    HW237215   3.619   0.742  17.178 -0.5528 -4.4678  0.1967
 8527SOL     OW37216   1.423   4.221   9.045 -0.7689 -0.0039  0.0597
 8527SOL    HW137217   1.422   4.147   8.984 -2.0082  1.5896 -1.8572
 8527SOL    HW237218   1.510   4.208   9.081 -1.5443 -1.8308  1.2439
 8528SOL     OW37219   0.780   3.144   5.156 -0.2729 -0.1195  0.0669
 8528SOL    HW137220   0.736   3.089   5.221  2.1838 -1.5181  0.5284
 8528SOL    HW237221   0.834   3.194   5.216  1.7838 -0.2603 -1.6489
 8529SOL     OW37222   1.060   2.385  11.511  0.3464  0.2658  0.1810
 8529SOL    HW137223   0.975   2.342  11.501  0.5322  0.2681 -1.4247
 8529SOL    HW237224   1.041   2.474  11.480 -0.9453 -0.0843 -0.0232
 8530SOL     OW37225   2.566   2.436  10.429 -0.0941 -0.0401  0.0035
 8530SOL    HW137226   2.622   2.360  10.415 -0.2509 -0.4986  1.9789
 8530SOL    HW237227   2.601   2.474  10.509 -0.7954  1.7832 -0.5618
 8531SOL     OW37228   0.806   3.694  11.015  0.0528 -0.3302  0.0120
 8531SOL    HW137229   0.873   3.678  10.948 -0.4676  1.0683 -0.8446
 8531SOL    HW237230   0.740   3.625  11.006 -1.3759  1.0405  0.0771
 8532SOL     OW37231   3.854   0.145   5.505  0.0287 -0.3584 -0.1784
 8532SOL    HW137232   3.930   0.118   5.556  1.3028  1.6807 -0.9789
 8532SOL    HW237233   3.879   0.113   5.418 -0.6408 -0.7906 -0.2094
 8533SOL     OW37234   2.874   3.490   2.582 -0.3472 -0.2299 -0.3972
 8533SOL    HW137235   2.795   3.446   2.553  0.2767 -1.6745  0.0541
 8533SOL    HW237236   2.930   3.419   2.614 -1.0551 -0.2203  0.8616
 8534SOL     OW37237   2.670   3.923   9.139 -0.3604 -0.1553  0.2257
 8534SOL    HW137238   2.745   3.912   9.197  1.9285  1.2177 -2.4367
 8534SOL    HW237239   2.627   3.837   9.146  1.5495 -1.2224 -1.0109
 8535SOL     OW37240   1.890   1.977   7.788 -0.5532 -0.6277  0.9115
 8535SOL    HW137241   1.981   1.996   7.763 -1.1035  0.8378  0.0051
 8535SOL    HW237242   1.850   1.988   7.701  0.2490 -3.7755  0.1580
 8536SOL     OW37243   1.448   2.343   5.425  0.5070  0.3740 -0.1574
 8536SOL    HW137244   1.454   2.292   5.506  0.9126  1.7660  0.6782
 8536SOL    HW237245   1.426   2.428   5.461 -0.4489 -0.1122  0.4127
 8537SOL     OW37246   1.983   2.524   2.329  0.1957  0.2109 -0.0032
 8537SOL    HW137247   1.968   2.435   2.297  0.9867  0.1782 -0.2804
 8537SOL    HW237248   1.987   2.512   2.424 -2.0957 -0.0904  0.0738
 8538SOL     OW37249   3.990   3.418   4.890  0.2883  0.9375 -0.6089
 8538SOL    HW137250   4.010   3.486   4.826  1.5784  0.0254 -1.1831
 8538SOL    HW237251   3.916   3.462   4.933  1.8374  1.2197  1.7670
 8539SOL     OW37252   1.744   0.159   9.347  0.0306  0.3716  0.2283
 8539SOL    HW137253   1.831   0.199   9.341  0.2424 -0.3737 -1.9109
 8539SOL    HW237254   1.695   0.220   9.291  0.2052  0.4071  0.1135
 8540SOL     OW37255   1.240   2.031   1.881  0.7035  0.2830 -0.1512
 8540SOL    HW137256   1.294   2.005   1.807 -0.6617  0.8713 -1.3569
 8540SOL    HW237257   1.263   2.122   1.897  1.4761 -0.1957  1.4374
 8541SOL     OW37258   2.904   1.061   6.568  0.1382  0.0896 -0.0639
 8541SOL    HW137259   2.851   1.139   6.586  2.2748  1.6435 -0.4987
 8541SOL    HW237260   2.989   1.103   6.582 -0.5067  1.8970 -1.4938
 8542SOL     OW37261   1.751   1.796   8.799 -0.0054  0.8910  0.5305
 8542SOL    HW137262   1.828   1.849   8.778  0.8067 -0.2028  0.7522
 8542SOL    HW237263   1.732   1.757   8.714 -0.9555  0.5347  0.9086
 8543SOL     OW37264   0.142   1.795   5.747  0.4523 -0.1880  0.2082
 8543SOL    HW137265   0.196   1.717   5.759 -0.3168 -0.4671  1.8175
 8543SOL    HW237266   0.212   1.860   5.752  0.1041  0.0676  1.5926
 8544SOL     OW37267   4.714   4.314   7.956 -0.0043 -0.2519 -0.1843
 8544SOL    HW137268   4.699   4.405   7.980  1.5865 -0.0474  0.0692
 8544SOL    HW237269   0.059   4.283   8.002 -1.5575 -1.7004  1.4704
 8545SOL     OW37270   0.321   3.383   5.719 -0.2001  0.2523 -0.3480
 8545SOL    HW137271   0.349   3.311   5.775  1.9320  1.3567 -0.0052
 8545SOL    HW237272   0.247   3.411   5.774 -0.2712  1.5344 -1.0951
 8546SOL     OW37273   0.375   4.136   4.025  0.0124  0.2226 -0.6187
 8546SOL    HW137274   0.438   4.178   4.084 -1.7032 -0.9616  2.0506
 8546SOL    HW237275   0.353   4.210   3.969  1.7918  0.3821 -1.1143
 8547SOL     OW37276   2.103   1.453   3.958  0.1824  0.5009 -0.0219
 8547SOL    HW137277   2.153   1.505   4.021 -0.6037  0.0150  0.9870
 8547SOL    HW237278   2.173   1.412   3.907 -0.2338  1.2172 -1.1662
 8548SOL     OW37279   4.054   2.445   6.551 -0.1734  0.3648 -0.0504
 8548SOL    HW137280   3.975   2.413   6.508  0.6029  0.4177 -1.5468
 8548SOL    HW237281   4.046   2.538   6.530 -2.6755  0.0852 -0.2566
 8549SOL     OW37282   0.470   3.480   3.148  1.2620  0.9071 -0.3823
 8549SOL    HW137283   0.490   3.568   3.115 -2.6255  0.7004 -3.3586
 8549SOL    HW237284   0.528   3.474   3.223  0.7954 -0.0922 -0.0988
 8550SOL     OW37285   3.628   2.318   8.968 -0.1619 -0.2506  0.4741
 8550SOL    HW137286   3.553   2.270   9.004 -1.6976  2.2296  0.5656
 8550SOL    HW237287   3.701   2.303   9.029  0.8706  1.6618 -0.2867
 8551SOL     OW37288   4.233   1.705  10.253  0.0998  0.3791 -0.3678
 8551SOL    HW137289   4.149   1.725  10.211 -0.1713  0.0458  0.0089
 8551SOL    HW237290   4.258   1.625  10.207 -1.1103  0.2150 -0.7495
 8552SOL     OW37291   0.307   1.547   8.893 -0.2809 -0.5902 -0.1913
 8552SOL    HW137292   0.290   1.513   8.806  0.5432 -0.5205 -0.3722
 8552SOL    HW237293   0.238   1.613   8.906  0.1017 -0.6071  2.0104
 8553SOL     OW37294   4.255   4.340  15.975 -0.2675  0.2642 -0.1004
 8553SOL    HW137295   4.341   4.314  16.006 -1.8737 -1.9230  2.5502
 8553SOL    HW237296   4.272   4.433  15.961 -0.4260  0.1862 -0.7957
 8554SOL     OW37297   3.259   4.333   9.686 -0.2441 -0.1455 -0.1636
 8554SOL    HW137298   3.183   4.381   9.654 -0.7441 -1.6946 -1.3182
 8554SOL    HW237299   3.247   4.350   9.779 -0.7310 -0.6723 -0.1318
 8555SOL     OW37300   0.751   2.998   2.972  0.3820  0.0295  0.4544
 8555SOL    HW137301   0.829   2.992   2.916  0.1370  0.2337  0.0871
 8555SOL    HW237302   0.689   2.977   2.902  1.7533 -0.2080 -0.7088
 8556SOL     OW37303   0.284   3.191  12.740 -0.3254 -0.0019 -0.1725
 8556SOL    HW137304   0.315   3.276  12.770  1.3143  0.0174 -1.9404
 8556SOL    HW237305   0.266   3.197  12.646 -1.2707  0.3392  0.0377
 8557SOL     OW37306   3.613   4.201   7.235  0.3339 -0.0522  0.4195
 8557SOL    HW137307   3.520   4.215   7.255  0.0248 -0.0186 -1.0655
 8557SOL    HW237308   3.618   4.105   7.234 -0.5162 -0.0846 -0.5269
 8558SOL     OW37309   1.450   3.124   4.484  0.2875 -0.6221 -0.2557
 8558SOL    HW137310   1.426   3.095   4.572  0.3220 -1.2604 -0.4510
 8558SOL    HW237311   1.401   3.203   4.462  1.7844  0.1679 -0.7655
 8559SOL     OW37312   2.728   3.126   4.882 -0.9472  0.3076 -0.3701
 8559SOL    HW137313   2.789   3.098   4.814 -0.2994  1.0991 -0.1174
 8559SOL    HW237314   2.782   3.175   4.944 -2.4096  0.6517  0.6273
 8560SOL     OW37315   1.755   3.607   5.519  0.6920  0.2046  0.0809
 8560SOL    HW137316   1.831   3.639   5.471  0.3865  0.4146 -0.2589
 8560SOL    HW237317   1.728   3.687   5.565  2.0092  0.1098  1.0271
 8561SOL     OW37318   1.420   3.617   5.668 -0.1254 -0.3668 -0.8209
 8561SOL    HW137319   1.372   3.665   5.736 -0.9483 -1.2012 -0.8154
 8561SOL    HW237320   1.451   3.682   5.605  1.5470  0.1751  0.5517
 8562SOL     OW37321   1.482   0.817  13.591  1.0685  0.4162  0.6783
 8562SOL    HW137322   1.505   0.724  13.582  2.9936  1.0563 -0.9208
 8562SOL    HW237323   1.499   0.843  13.501  1.4926 -0.1949  0.5841
 8563SOL     OW37324   2.754   3.847   6.466  0.3589  0.1236 -1.0529
 8563SOL    HW137325   2.788   3.765   6.430  0.7372 -0.8577  1.5525
 8563SOL    HW237326   2.732   3.819   6.555 -2.4905  1.6513 -1.2724
 8564SOL     OW37327   1.173   3.693  15.138  0.3626  0.0003  0.7806
 8564SOL    HW137328   1.120   3.723  15.211  1.9259 -0.0505  1.9471
 8564SOL    HW237329   1.182   3.778  15.095 -0.5708  0.5627  1.7040
 8565SOL     OW37330   0.886   1.825   4.266 -0.5427 -0.2761  0.1254
 8565SOL    HW137331   0.890   1.856   4.357 -0.0637  1.0769 -0.3606
 8565SOL    HW237332   0.821   1.756   4.281  2.1013 -2.5125  1.4058
 8566SOL     OW37333   3.862   3.400  10.248 -0.2451 -0.1993 -0.2058
 8566SOL    HW137334   3.787   3.341  10.245  0.5386 -1.1222 -1.6513
 8566SOL    HW237335   3.891   3.368  10.334 -2.5930  0.2017  0.7334
 8567SOL     OW37336   0.751   4.663  17.068 -0.5633  0.9639 -0.2667
 8567SOL    HW137337   0.677   4.723  17.062 -2.6961 -1.8193 -2.1442
 8567SOL    HW237338   0.792   4.688  16.985  0.0090 -0.4530 -0.4133
 8568SOL     OW37339   0.381   0.401   7.943  0.5584  0.3424 -0.1923
 8568SOL    HW137340   0.355   0.441   8.026  2.6761  0.1099  0.5942
 8568SOL    HW237341   0.448   0.453   7.899  0.1605  1.5440  0.6214
 8569SOL     OW37342   2.522   2.993   3.282 -0.4296 -0.4571  0.8479
 8569SOL    HW137343   2.502   2.901   3.299 -0.9057 -0.6438 -0.7641
 8569SOL    HW237344   2.604   2.980   3.235 -1.1253 -2.4209  0.1830
 8570SOL     OW37345   3.826   1.545   5.182  0.5652  0.1116 -0.0073
 8570SOL    HW137346   3.851   1.620   5.237  0.7117  0.9481 -1.2042
 8570SOL    HW237347   3.737   1.527   5.212 -0.0383 -1.7549 -2.9975
 8571SOL     OW37348   3.378   2.641   4.322  0.0181 -0.2527 -0.1343
 8571SOL    HW137349   3.360   2.561   4.370 -0.7212  0.7617  1.2815
 8571SOL    HW237350   3.470   2.632   4.298  0.2440 -1.2005  1.0877
 8572SOL     OW37351   3.768   4.045  10.817 -0.2414 -0.0737  0.1139
 8572SOL    HW137352   3.744   3.953  10.831 -2.7751  0.8422  1.7822
 8572SOL    HW237353   3.857   4.034  10.785  0.4426 -1.4997  2.4990
 8573SOL     OW37354   3.859   1.913   4.317  0.0690  0.3305  0.2385
 8573SOL    HW137355   3.811   1.835   4.343 -1.2361  1.2496  0.6081
 8573SOL    HW237356   3.788   1.971   4.288 -2.6988 -2.5436  1.3394
 8574SOL     OW37357   0.752   2.689   4.537 -0.5483  0.2706  0.2645
 8574SOL    HW137358   0.661   2.714   4.523 -0.5119  0.0899 -0.2840
 8574SOL    HW237359   0.795   2.775   4.534  2.8862 -1.4146  0.2810
 8575SOL     OW37360   0.373   0.577   5.820 -0.3486  0.4253 -0.0765
 8575SOL    HW137361   0.400   0.647   5.760 -1.6564 -0.3245 -1.5048
 8575SOL    HW237362   0.458   0.535   5.836  0.5263  1.4585 -2.0009
 8576SOL     OW37363   2.549   4.150  10.867 -0.2607  0.3411 -0.7866
 8576SOL    HW137364   2.549   4.112  10.955 -2.1298  1.0491 -0.4711
 8576SOL    HW237365   2.623   4.106  10.826  0.3079  1.0159 -0.4949
 8577SOL     OW37366   2.171   2.283   7.191  0.4657  0.0589 -0.5121
 8577SOL    HW137367   2.266   2.281   7.177  0.4875  3.6212 -0.7197
 8577SOL    HW237368   2.164   2.319   7.279 -1.2369  0.7595 -0.9468
 8578SOL     OW37369   2.683   2.925   3.910 -0.2679 -0.1947 -0.1998
 8578SOL    HW137370   2.760   2.871   3.888 -0.0559  0.6882 -1.6796
 8578SOL    HW237371   2.724   3.010   3.925 -1.1737  0.2772 -0.4379
 8579SOL     OW37372   4.634   1.975  17.404 -0.7412 -0.4663 -0.5372
 8579SOL    HW137373   4.713   1.953  17.356  0.5648  2.3850  0.2675
 8579SOL    HW237374   4.651   1.933  17.488  1.8858  0.9370 -0.3470
 8580SOL     OW37375   1.678   3.122  14.407  0.2493 -0.2235 -0.1126
 8580SOL    HW137376   1.679   3.218  14.407 -2.4046 -0.1860  0.0681
 8580SOL    HW237377   1.585   3.104  14.393  0.4057 -0.3162 -1.0019
 8581SOL     OW37378   0.782   0.517   6.995  0.7162 -0.1948 -0.6906
 8581SOL    HW137379   0.727   0.533   6.919 -1.2619 -2.4519  0.2983
 8581SOL    HW237380   0.733   0.459   7.053  1.3284 -2.0138 -2.0202
 8582SOL     OW37381   2.353   3.608   5.116 -0.0800  0.7220  0.1399
 8582SOL    HW137382   2.372   3.536   5.176 -0.1006 -1.2146 -2.1429
 8582SOL    HW237383   2.259   3.591   5.106  0.1701 -0.0551 -1.0437
 8583SOL     OW37384   2.951   0.918   5.616  0.2360 -0.1764 -0.3397
 8583SOL    HW137385   3.019   0.893   5.679 -1.2116 -0.7878  0.9762
 8583SOL    HW237386   2.952   0.840   5.560  0.0818  1.3608 -2.4512
 8584SOL     OW37387   4.417   3.245  16.866 -0.2708 -0.9625 -0.1793
 8584SOL    HW137388   4.398   3.259  16.959 -0.1947  0.8945 -0.4342
 8584SOL    HW237389   4.512   3.247  16.879 -0.7436  0.3547  3.0292
 8585SOL     OW37390   3.498   4.615   3.951  0.4634  0.4072  0.4064
 8585SOL    HW137391   3.527   4.539   3.900  1.3990  0.9388  0.1337
 8585SOL    HW237392   3.510   4.584   4.040 -1.1028 -1.6821 -0.1193
 8586SOL     OW37393   3.919   1.581   1.862  0.7636  0.4639  0.6177
 8586SOL    HW137394   3.995   1.528   1.887  1.1827 -0.0648 -1.7766
 8586SOL    HW237395   3.865   1.579   1.941 -0.3524  2.5247 -0.0976
 8587SOL     OW37396   2.558   2.022  14.179  0.1465  0.6753 -0.1403
 8587SOL    HW137397   2.596   1.935  14.169  1.3524  1.2929 -0.9667
 8587SOL    HW237398   2.573   2.066  14.095  0.3139  1.4444  0.2877
 8588SOL     OW37399   1.952   2.660   5.292  0.2545 -0.2240 -0.6938
 8588SOL    HW137400   1.937   2.745   5.333 -0.4595 -1.0319  0.7091
 8588SOL    HW237401   1.896   2.611   5.353  2.2963 -0.8399  0.6689
 8589SOL     OW37402   2.062   0.395   5.860  0.1579  0.0934  0.3321
 8589SOL    HW137403   2.127   0.325   5.869 -0.2673 -0.6402 -2.3875
 8589SOL    HW237404   2.123   0.451   5.812 -1.8236  1.0466 -1.0684
 8590SOL     OW37405   1.252   2.627   6.161  0.0327  0.1618 -0.2064
 8590SOL    HW137406   1.340   2.591   6.173  0.0057  0.2373  0.1898
 8590SOL    HW237407   1.187   2.558   6.174 -0.8261  1.3217  1.4961
 8591SOL     OW37408   1.741   4.632   9.372  0.2356 -0.2915 -0.7471
 8591SOL    HW137409   1.753   4.727   9.373  1.8201 -0.4859 -1.2988
 8591SOL    HW237410   1.679   4.615   9.300 -1.0229  1.0995  0.0077
 8592SOL     OW37411   3.572   3.094   0.727 -0.2921 -0.2984  0.1963
 8592SOL    HW137412   3.582   3.031   0.656 -1.2996  1.0402 -1.1354
 8592SOL    HW237413   3.537   3.174   0.686  0.9768  0.5215  0.7234
 8593SOL     OW37414   0.115   0.225   7.516 -0.1593  0.3964  0.0339
 8593SOL    HW137415   0.179   0.159   7.488 -0.7268 -1.4336  3.1431
 8593SOL    HW237416   0.117   0.225   7.611  1.6555 -1.3769 -0.0181
 8594SOL     OW37417   4.650   1.033  15.284 -0.2704 -0.3793 -0.4340
 8594SOL    HW137418   4.696   1.112  15.254  3.2122 -2.0843  0.4385
 8594SOL    HW237419   4.559   1.056  15.303  0.1413  1.1978 -0.3012
 8595SOL     OW37420   3.536   3.623   2.841  0.2946  0.4582 -0.1422
 8595SOL    HW137421   3.626   3.652   2.838  0.3844  0.1936 -0.0376
 8595SOL    HW237422   3.548   3.539   2.797  1.7869 -0.4471  2.0129
 8596SOL     OW37423   1.682   1.791   7.973  0.1569 -0.5212  0.2746
 8596SOL    HW137424   1.608   1.793   8.034 -1.3036  2.5682 -1.5933
 8596SOL    HW237425   1.757   1.814   8.028  0.7246  0.5411 -0.9414
 8597SOL     OW37426   2.824   2.967   6.476 -0.2271 -0.1244  0.4271
 8597SOL    HW137427   2.909   2.930   6.499 -0.9374 -1.5235  0.8146
 8597SOL    HW237428   2.762   2.895   6.488  0.7512 -1.5244 -3.0445
 8598SOL     OW37429   0.356   0.985  12.347 -0.7646 -0.9944  0.0145
 8598SOL    HW137430   0.428   0.997  12.285  2.0694 -1.5321  3.1474
 8598SOL    HW237431   0.357   0.893  12.374 -2.3213 -0.7415  0.9342
 8599SOL     OW37432   0.791   2.070   8.896  0.1964  0.2853 -0.1077
 8599SOL    HW137433   0.760   2.094   8.809  1.9028  1.3089 -0.4412
 8599SOL    HW237434   0.874   2.118   8.898 -0.4299  1.3535 -0.0792
 8600SOL     OW37435   0.869   0.573   5.642 -0.4444 -0.1322 -0.1933
 8600SOL    HW137436   0.919   0.638   5.593 -2.1001  0.1371 -1.5237
 8600SOL    HW237437   0.933   0.504   5.659  2.2025  2.2928 -0.2089
 8601SOL     OW37438   0.068   2.067   4.536 -0.1167 -0.1485 -0.4220
 8601SOL    HW137439   4.717   2.072   4.581  0.2638  0.0951  0.2517
 8601SOL    HW237440   0.058   2.141   4.477 -2.1813 -0.7045 -0.7882
 8602SOL     OW37441   3.136   1.996   7.486  0.1733  0.2785  0.2864
 8602SOL    HW137442   3.163   1.904   7.485 -1.1652 -0.1111  0.3221
 8602SOL    HW237443   3.088   1.992   7.569 -2.0474 -0.8738 -1.0609
 8603SOL     OW37444   4.439   0.413   6.649 -0.3679 -0.2307 -0.0937
 8603SOL    HW137445   4.411   0.500   6.679 -0.0300 -0.7973  1.8632
 8603SOL    HW237446   4.355   0.380   6.617 -0.2167  0.0246 -0.7518
 8604SOL     OW37447   0.483   2.136   0.544  0.0661 -0.1731  0.0756
 8604SOL    HW137448   0.554   2.090   0.589 -0.6511  0.6491  2.0276
 8604SOL    HW237449   0.454   2.196   0.613 -1.1263  0.1851 -0.7341
 8605SOL     OW37450   1.152   4.041   7.785 -0.2913  0.6682 -0.6609
 8605SOL    HW137451   1.237   4.007   7.756 -0.8767 -0.4841 -1.0379
 8605SOL    HW237452   1.100   3.961   7.788  1.9471 -0.7364  0.6220
 8606SOL     OW37453   3.343   4.241   3.713 -0.2268  0.3099 -0.2727
 8606SOL    HW137454   3.325   4.148   3.720 -0.6011  0.2760 -1.5990
 8606SOL    HW237455   3.374   4.245   3.623 -0.3742  1.0984 -0.2916
 8607SOL     OW37456   2.446   4.610  15.610  0.4008 -0.5110  0.0077
 8607SOL    HW137457   2.448   4.706  15.604  0.8915 -0.5844 -1.0761
 8607SOL    HW237458   2.392   4.596  15.688 -1.0678 -1.4902 -1.1738
 8608SOL     OW37459   2.623   3.257   1.953 -0.1988 -0.2043  0.1799
 8608SOL    HW137460   2.712   3.221   1.955 -0.3116 -0.4555  0.5438
 8608SOL    HW237461   2.618   3.280   1.860 -0.4708 -0.4253  0.1411
 8609SOL     OW37462   2.504   3.786  13.560  0.0491 -0.0672  0.9266
 8609SOL    HW137463   2.495   3.882  13.566  1.1759  0.2659 -2.7016
 8609SOL    HW237464   2.432   3.753  13.507 -1.5653  3.0063  1.1572
 8610SOL     OW37465   3.983   3.702  13.306  0.0752 -0.5083  0.0294
 8610SOL    HW137466   3.935   3.620  13.293 -0.0457 -0.2378 -1.1492
 8610SOL    HW237467   4.064   3.658  13.333  0.6442  0.0732 -0.7399
 8611SOL     OW37468   1.546   1.941  15.334  0.3286  0.6454 -0.1265
 8611SOL    HW137469   1.639   1.922  15.321 -0.0841 -0.7340 -1.0746
 8611SOL    HW237470   1.544   2.016  15.393  1.1469  0.5827 -0.0186
 8612SOL     OW37471   4.574   3.970  11.903 -0.0182  0.6513  0.7289
 8612SOL    HW137472   4.528   3.942  11.982 -2.5215  1.1257 -0.5702
 8612SOL    HW237473   4.583   4.063  11.922 -0.6971  0.9268 -0.3321
 8613SOL     OW37474   3.540   1.644   2.041 -0.4674  0.0043  0.2172
 8613SOL    HW137475   3.488   1.664   2.119  1.2775  0.9375  1.1351
 8613SOL    HW237476   3.627   1.624   2.076 -0.0880 -0.9777 -1.3169
 8614SOL     OW37477   3.664   1.620   8.448 -0.3349 -0.9201 -0.3744
 8614SOL    HW137478   3.726   1.548   8.441  0.8301 -0.0187  0.7271
 8614SOL    HW237479   3.672   1.653   8.358 -3.2128 -0.9006 -0.6308
 8615SOL     OW37480   0.542   0.959   3.072  0.2018  0.1530 -0.3075
 8615SOL    HW137481   0.599   0.903   3.125 -0.0914  0.6318  0.5313
 8615SOL    HW237482   0.597   1.035   3.052 -0.2012  0.6484  0.4256
 8616SOL     OW37483   2.918   3.754   2.515 -0.2928  0.4356 -0.1355
 8616SOL    HW137484   3.004   3.776   2.551 -0.3500  1.6609 -0.7334
 8616SOL    HW237485   2.905   3.665   2.546  2.6790  0.2135  0.4640
 8617SOL     OW37486   0.113   4.047   0.734  0.2547 -0.1814  0.2860
 8617SOL    HW137487   0.171   4.123   0.741 -1.8522  1.5995 -1.7333
 8617SOL    HW237488   0.091   4.021   0.823 -1.4162  0.6937  0.1225
 8618SOL     OW37489   2.731   0.661   2.325  0.5915  0.0452 -0.8915
 8618SOL    HW137490   2.766   0.572   2.325  0.6919  0.0834 -1.4893
 8618SOL    HW237491   2.640   0.651   2.351  0.5885 -2.6094 -2.0059
 8619SOL     OW37492   1.887   2.959   7.966 -0.1408  0.6843 -0.1425
 8619SOL    HW137493   1.946   2.909   8.023 -1.6866 -1.5312 -0.4842
 8619SOL    HW237494   1.852   2.892   7.908 -1.2935 -1.4711  3.0318
 8620SOL     OW37495   2.431   4.443   0.813  0.1786  0.2571 -0.4486
 8620SOL    HW137496   2.343   4.407   0.812  1.5540 -3.2257  3.8830
 8620SOL    HW237497   2.444   4.484   0.728  0.8243  0.5218 -0.2253
 8621SOL     OW37498   4.445   1.816  12.226 -0.2533  0.6809  0.0255
 8621SOL    HW137499   4.527   1.778  12.194 -1.2983 -0.8127 -0.8607
 8621SOL    HW237500   4.395   1.799  12.147  0.2452 -0.4922 -0.0469
 8622SOL     OW37501   1.157   0.435   4.153  0.0801 -0.5145 -0.5478
 8622SOL    HW137502   1.205   0.514   4.125  0.8229 -0.0890  1.9145
 8622SOL    HW237503   1.208   0.367   4.109  1.2215  0.9581 -1.5030
 8623SOL     OW37504   0.360   3.781  16.476 -0.0303  0.4959  0.3562
 8623SOL    HW137505   0.359   3.780  16.380 -1.3997 -0.4983  0.3902
 8623SOL    HW237506   0.324   3.694  16.490  0.6341 -0.3903 -3.2855
 8624SOL     OW37507   3.465   0.094  16.745 -0.3158  0.1798  0.0641
 8624SOL    HW137508   3.443   0.106  16.838  2.7469  1.2689  0.6700
 8624SOL    HW237509   3.514   0.013  16.758 -0.4947 -0.2677 -2.1230
 8625SOL     OW37510   3.434   2.309   3.569  0.1458  0.6278 -0.1237
 8625SOL    HW137511   3.374   2.243   3.535 -0.7553  0.7152  1.2959
 8625SOL    HW237512   3.495   2.321   3.496  0.6362 -0.3800  0.1082
 8626SOL     OW37513   1.010   1.536   1.598 -0.2967 -0.0627  0.1173
 8626SOL    HW137514   1.017   1.631   1.605  0.2063  0.0393 -1.7826
 8626SOL    HW237515   1.096   1.505   1.569 -0.1522 -0.2162  0.7164
 8627SOL     OW37516   0.145   3.594  13.007 -0.4602 -0.4014 -0.0285
 8627SOL    HW137517   0.207   3.661  12.980 -1.0527  0.6416  1.2149
 8627SOL    HW237518   0.139   3.536  12.931 -1.0557 -0.3227 -0.0420
 8628SOL     OW37519   2.149   0.217   8.295 -0.4562  0.3582  0.6212
 8628SOL    HW137520   2.194   0.284   8.347  1.2292 -0.5816  0.3668
 8628SOL    HW237521   2.218   0.208   8.230 -0.1750 -1.0425  1.1335
 8629SOL     OW37522   4.228   0.302   0.473  0.2313  0.0644  0.0514
 8629SOL    HW137523   4.171   0.226   0.486  1.3842 -0.6473  0.9405
 8629SOL    HW237524   4.278   0.262   0.402  0.1218  1.0124 -0.5518
 8630SOL     OW37525   1.727   1.118  10.286  0.1232 -0.6107 -0.4916
 8630SOL    HW137526   1.653   1.058  10.284  0.1730 -0.7279  1.0918
 8630SOL    HW237527   1.697   1.177  10.355  0.0712 -1.1954 -0.0158
 8631SOL     OW37528   4.042   1.062   3.330  0.0606 -0.4568 -0.5986
 8631SOL    HW137529   4.095   1.017   3.395 -2.0115 -1.6972  0.2346
 8631SOL    HW237530   4.102   1.133   3.308 -0.0238 -0.3625 -0.5283
 8632SOL     OW37531   0.936   1.109  17.520  0.2339 -0.2748  0.1047
 8632SOL    HW137532   1.029   1.131  17.513  0.1685 -0.7154 -1.9631
 8632SOL    HW237533   0.916   1.167  17.594  1.5068  1.3106 -0.8094
 8633SOL     OW37534   3.163   0.714   4.175 -0.0685  0.2846  0.5436
 8633SOL    HW137535   3.244   0.673   4.145 -0.8102 -0.2827 -0.7312
 8633SOL    HW237536   3.194   0.797   4.210 -2.7413  1.4685  0.1483
 8634SOL     OW37537   3.313   1.159   4.311  0.2619 -0.0491 -0.4017
 8634SOL    HW137538   3.230   1.150   4.357  0.3697 -0.7447 -0.3464
 8634SOL    HW237539   3.270   1.188   4.230  1.3047  0.8199 -0.6529
 8635SOL     OW37540   0.974   0.788   5.481 -0.2404  0.8145  0.7337
 8635SOL    HW137541   0.998   0.828   5.565 -3.0692  0.0214  1.9176
 8635SOL    HW237542   1.045   0.804   5.418  1.0986 -0.5491  1.8899
 8636SOL     OW37543   1.032   2.809   4.602 -0.0766 -0.7227 -0.0928
 8636SOL    HW137544   0.985   2.814   4.685 -0.4098 -1.8715 -0.2163
 8636SOL    HW237545   1.111   2.774   4.642  0.7842  1.2551 -0.0502
 8637SOL     OW37546   3.107   3.148   2.924 -0.0684 -1.1141  0.3459
 8637SOL    HW137547   3.187   3.186   2.888  0.0587  0.2388  2.0679
 8637SOL    HW237548   3.102   3.199   3.005  0.3737  3.3637 -2.4331
 8638SOL     OW37549   4.244   0.065   3.009  0.0928  0.5235 -0.1013
 8638SOL    HW137550   4.246   0.142   3.066 -1.9922  0.1694  0.4414
 8638SOL    HW237551   4.336   0.069   2.981  0.2883 -2.6126  0.1551
 8639SOL     OW37552   3.108   0.928  11.184  0.1041  0.5183 -0.1186
 8639SOL    HW137553   3.047   0.870  11.230  0.2053  0.0828 -0.5335
 8639SOL    HW237554   3.070   0.910  11.098  2.0073 -0.0696 -0.8457
 8640SOL     OW37555   0.442   3.327   6.183  0.4912 -0.6580 -0.3962
 8640SOL    HW137556   0.375   3.326   6.252 -0.4543  0.1426 -1.2998
 8640SOL    HW237557   0.518   3.353   6.234  1.0106 -3.2536  0.1823
 8641SOL     OW37558   4.437   2.339   7.162 -0.7203 -0.0206  0.4168
 8641SOL    HW137559   4.453   2.250   7.130  1.7360  0.4683  0.3089
 8641SOL    HW237560   4.347   2.359   7.134 -0.5785 -0.9566 -0.6936
 8642SOL     OW37561   2.222   3.429   8.587 -0.2298 -1.4107  0.5705
 8642SOL    HW137562   2.184   3.403   8.671  0.1497  0.4597  1.3111
 8642SOL    HW237563   2.146   3.441   8.531 -1.0570 -1.0756  1.7734
 8643SOL     OW37564   4.032   1.917   9.918 -0.4765  0.1241 -0.1975
 8643SOL    HW137565   4.108   1.972   9.900 -0.0339 -0.5439 -0.3683
 8643SOL    HW237566   3.964   1.972   9.880 -0.4031  0.0962 -0.3664
 8644SOL     OW37567   4.392   4.492   4.941  0.1532  0.2518  0.0685
 8644SOL    HW137568   4.378   4.554   4.870 -1.9125 -0.2337  0.0487
 8644SOL    HW237569   4.304   4.456   4.954  1.1452 -2.6124 -1.2091
 8645SOL     OW37570   1.606   4.436  12.705  0.1504 -0.3035  0.0118
 8645SOL    HW137571   1.585   4.529  12.715 -0.7844 -0.4982 -0.1521
 8645SOL    HW237572   1.587   4.423  12.612  1.9084  1.6559 -0.6359
 8646SOL     OW37573   3.193   1.673   5.604 -0.2350 -0.5067 -0.4012
 8646SOL    HW137574   3.128   1.603   5.611 -0.7212  0.0467  0.5812
 8646SOL    HW237575   3.226   1.652   5.516 -1.0392 -3.1397 -0.0926
 8647SOL     OW37576   0.486   0.422   9.185  0.5288  0.2654  0.3023
 8647SOL    HW137577   0.498   0.353   9.120 -0.1658  1.0725 -0.6797
 8647SOL    HW237578   0.551   0.406   9.253  0.5868 -0.2884  0.1109
 8648SOL     OW37579   2.403   2.687   3.670 -0.5277 -0.3422 -0.2038
 8648SOL    HW137580   2.422   2.752   3.738  1.4958 -1.3808  0.2209
 8648SOL    HW237581   2.416   2.605   3.717 -2.5095 -0.3441  0.3633
 8649SOL     OW37582   1.382   3.167   3.911 -0.1254  0.0749 -0.4538
 8649SOL    HW137583   1.421   3.236   3.964  2.9418 -2.1329  0.1238
 8649SOL    HW237584   1.424   3.167   3.825  0.4322 -0.1041 -0.1785
 8650SOL     OW37585   4.012   0.496  14.684 -0.2555 -0.6944 -0.2283
 8650SOL    HW137586   4.048   0.577  14.720 -0.2791 -1.0705  0.6429
 8650SOL    HW237587   3.977   0.525  14.600  0.1751 -0.5395 -0.3532
 8651SOL     OW37588   2.255   4.605   5.108 -0.1942  0.2284  0.0407
 8651SOL    HW137589   2.306   4.544   5.162 -1.1593  1.8666  2.8125
 8651SOL    HW237590   2.291   4.580   5.023  1.0364 -0.9280  0.9088
 8652SOL     OW37591   3.855   2.409   7.355  0.2552 -0.3556  0.4093
 8652SOL    HW137592   3.811   2.451   7.428 -1.9994  0.0871 -1.2064
 8652SOL    HW237593   3.913   2.338   7.384  0.7593  0.2711  0.9312
 8653SOL     OW37594   0.239   2.952   8.871 -0.0604 -0.5651  0.6026
 8653SOL    HW137595   0.252   2.992   8.785 -1.6522 -0.2453  0.5084
 8653SOL    HW237596   0.285   3.006   8.935  0.6973 -2.5815  1.7527
 8654SOL     OW37597   2.283   2.824  15.021  0.2184  0.3916  0.1039
 8654SOL    HW137598   2.200   2.851  14.982  0.2165 -0.6195 -0.5789
 8654SOL    HW237599   2.257   2.836  15.112  1.1676  0.9267  0.3074
 8655SOL     OW37600   4.000   3.261  13.265 -0.3416  0.1796  0.0608
 8655SOL    HW137601   3.994   3.297  13.176 -1.0526 -1.9081 -0.7197
 8655SOL    HW237602   3.915   3.221  13.282 -0.2985 -0.9786 -2.5159
 8656SOL     OW37603   2.105   3.378   1.808  0.3052 -0.2761 -0.4716
 8656SOL    HW137604   2.119   3.327   1.888 -1.9191 -0.5225 -0.2244
 8656SOL    HW237605   2.010   3.390   1.815  0.5314  0.7923  0.8421
 8657SOL     OW37606   4.270   2.727  14.805  0.5645  0.6355 -0.1509
 8657SOL    HW137607   4.292   2.815  14.775  3.3601 -0.8762 -2.4944
 8657SOL    HW237608   4.353   2.688  14.832 -0.0773  0.1606  1.1380
 8658SOL     OW37609   1.612   3.155   7.251  0.3430 -0.1236 -0.2626
 8658SOL    HW137610   1.625   3.081   7.191 -2.0741  0.3004 -1.2885
 8658SOL    HW237611   1.648   3.230   7.204  2.0402 -0.8225 -0.1117
 8659SOL     OW37612   2.024   1.744   8.159 -0.3874  0.7078 -0.3598
 8659SOL    HW137613   2.091   1.806   8.132 -0.5787  0.1419 -2.1419
 8659SOL    HW237614   1.950   1.804   8.156 -0.7149  0.5184  3.5572
 8660SOL     OW37615   2.288   0.967   2.777  0.1220 -0.4761 -0.3669
 8660SOL    HW137616   2.259   1.051   2.741  0.7290 -0.5563 -1.0323
 8660SOL    HW237617   2.275   0.912   2.700 -1.0069 -0.3947 -0.2398
 8661SOL     OW37618   0.536   1.970   5.461  0.4243 -0.6360  0.3832
 8661SOL    HW137619   0.475   1.898   5.450 -1.2391  0.6819  1.0053
 8661SOL    HW237620   0.504   2.016   5.383 -0.7982 -2.9776 -0.4763
 8662SOL     OW37621   4.046   3.901   0.507 -0.4707 -0.3235 -0.1534
 8662SOL    HW137622   3.986   3.907   0.582  1.6264  1.1990  1.3803
 8662SOL    HW237623   4.075   3.810   0.511  0.1355 -0.1627 -0.8731
 8663SOL     OW37624   0.028   4.452   6.326 -0.1864 -0.1901  0.1430
 8663SOL    HW137625   0.046   4.537   6.367  0.9740 -0.0887 -0.5537
 8663SOL    HW237626   0.115   4.412   6.323 -0.0648 -0.0149  1.3163
 8664SOL     OW37627   1.694   0.207  12.390  0.2761  0.7040 -0.4075
 8664SOL    HW137628   1.609   0.165  12.400  0.5295  0.8675  2.6793
 8664SOL    HW237629   1.665   0.297  12.403 -0.5790  0.0463  2.3822
 8665SOL     OW37630   2.691   2.618   9.024 -0.3498  0.1005 -0.4659
 8665SOL    HW137631   2.739   2.701   9.028 -1.7256  0.8036  1.1955
 8665SOL    HW237632   2.765   2.559   9.007  0.2043 -0.3225  3.2949
 8666SOL     OW37633   0.682   0.762   1.737  0.1722 -0.3228  0.4697
 8666SOL    HW137634   0.625   0.838   1.729 -0.6040 -1.1821 -1.9578
 8666SOL    HW237635   0.746   0.769   1.666 -0.8021 -0.3883 -0.4003
 8667SOL     OW37636   1.075   3.089  11.863  0.2741 -0.3254  0.2322
 8667SOL    HW137637   1.059   3.139  11.942  0.1531  0.0490 -0.0295
 8667SOL    HW237638   0.982   3.072  11.848  0.0081  2.1197 -0.7871
 8668SOL     OW37639   0.782   0.250   4.709  0.1045  0.5001 -0.1306
 8668SOL    HW137640   0.805   0.240   4.616 -2.4132 -1.3650 -0.5578
 8668SOL    HW237641   0.869   0.245   4.749  0.2257 -0.7651 -0.5579
 8669SOL     OW37642   2.826   4.288  10.292 -0.0517 -0.1142 -0.1055
 8669SOL    HW137643   2.849   4.197  10.274 -0.7029 -0.3594  0.3187
 8669SOL    HW237644   2.778   4.275  10.373 -1.3254 -0.9493 -0.9896
 8670SOL     OW37645   1.384   3.805   3.584 -0.3553  0.5847 -0.3966
 8670SOL    HW137646   1.324   3.734   3.561 -2.6039  2.8621 -1.5363
 8670SOL    HW237647   1.357   3.814   3.675  2.1222 -3.5646  0.7853
 8671SOL     OW37648   1.951   0.965   2.073  0.6219  0.0964  0.4502
 8671SOL    HW137649   1.981   0.895   2.014 -3.0725  0.1365 -1.4730
 8671SOL    HW237650   1.976   0.915   2.150  1.4849 -1.3695 -0.7754
 8672SOL     OW37651   1.381   1.291   1.028  0.7120  0.7384 -0.5298
 8672SOL    HW137652   1.391   1.306   1.122 -0.3686 -4.8529  0.5045
 8672SOL    HW237653   1.286   1.294   1.017  0.8552  0.9330 -1.7495
 8673SOL     OW37654   1.937   4.510   9.170 -0.5913 -0.2996  0.3678
 8673SOL    HW137655   1.900   4.561   9.098  0.1221 -0.4279 -0.0805
 8673SOL    HW237656   1.927   4.578   9.237  0.2360 -0.0368  0.2294
 8674SOL     OW37657   4.513   2.179   0.855  0.4521 -0.5980  0.1254
 8674SOL    HW137658   4.512   2.172   0.950 -0.8411 -0.1739  0.1407
 8674SOL    HW237659   4.424   2.212   0.840  0.6356  0.0550  0.4681
 8675SOL     OW37660   4.409   1.857   7.445 -0.1962 -0.4607  0.0207
 8675SOL    HW137661   4.457   1.811   7.376  0.6094  1.2423 -0.5449
 8675SOL    HW237662   4.411   1.950   7.425 -3.2470 -0.4718 -0.3469
 8676SOL     OW37663   2.166   4.717   9.754  0.1108  0.0786 -0.3021
 8676SOL    HW137664   2.079   4.726   9.715 -1.3671  0.7944  3.1713
 8676SOL    HW237665   2.212   0.052   9.705 -0.6457  0.9471  0.1888
 8677SOL     OW37666   2.085   4.571   3.534  0.0250  0.0095  0.2101
 8677SOL    HW137667   2.045   4.486   3.550 -0.2669  0.0891 -0.1171
 8677SOL    HW237668   2.011   4.630   3.522 -0.0911 -0.5050 -1.5998
 8678SOL     OW37669   4.678   4.335   7.261 -0.0752  0.0822 -0.0512
 8678SOL    HW137670   4.670   4.276   7.186 -0.9011 -0.8715  0.8062
 8678SOL    HW237671   4.590   4.340   7.297  0.2418 -0.8851  0.8689
 8679SOL     OW37672   0.522   0.208   5.767 -0.1647  0.0690  0.1582
 8679SOL    HW137673   0.577   0.285   5.782 -2.5606  1.5154  1.6926
 8679SOL    HW237674   0.453   0.218   5.833 -0.1574 -1.8739  0.4655
 8680SOL     OW37675   1.992   2.826   4.966  0.2861  0.6292  0.6040
 8680SOL    HW137676   1.948   2.754   4.922  1.0915  0.6260 -0.1891
 8680SOL    HW237677   1.938   2.900   4.939 -1.6376 -0.4297  1.5779
 8681SOL     OW37678   1.907   1.404  16.737 -0.0663  0.0870  0.0877
 8681SOL    HW137679   1.877   1.475  16.793  0.6778  1.7524 -1.6356
 8681SOL    HW237680   1.824   1.376  16.700 -0.1863  1.1276 -0.4113
 8682SOL     OW37681   1.627   0.333  17.082 -0.6916  0.6686 -0.2073
 8682SOL    HW137682   1.603   0.416  17.041  1.3443  0.7216 -1.3215
 8682SOL    HW237683   1.603   0.271  17.013  0.6932  2.2577 -2.1559
 8683SOL     OW37684   3.153   1.514  14.731 -0.4774 -0.6520 -0.4245
 8683SOL    HW137685   3.108   1.478  14.656  0.3743  1.0868 -1.7825
 8683SOL    HW237686   3.231   1.552  14.690 -1.0195  0.0881 -0.7817
 8684SOL     OW37687   3.345   3.313   1.639 -0.4507  0.1857 -0.0624
 8684SOL    HW137688   3.300   3.390   1.605  0.4761  1.2476  1.1274
 8684SOL    HW237689   3.311   3.241   1.586 -1.1981  1.1366 -0.8750
 8685SOL     OW37690   4.311   1.758   2.819  0.2221  0.1849 -0.4957
 8685SOL    HW137691   4.312   1.802   2.904 -0.2593  2.8356 -1.8673
 8685SOL    HW237692   4.400   1.721   2.820  0.1605  0.0360 -0.4109
 8686SOL     OW37693   1.316   1.189  15.660 -0.1601 -0.3673  0.6574
 8686SOL    HW137694   1.389   1.185  15.722  0.7148 -1.9895 -0.4733
 8686SOL    HW237695   1.277   1.270  15.692 -1.3772 -0.7629  0.1671
 8687SOL     OW37696   4.281   1.832   9.125 -0.1402 -0.4609 -0.2127
 8687SOL    HW137697   4.329   1.797   9.200  1.8385 -1.1960 -1.8215
 8687SOL    HW237698   4.321   1.790   9.049 -1.4652 -1.5442 -0.3075
 8688SOL     OW37699   4.394   2.212   7.663  0.5539 -0.3063 -0.2726
 8688SOL    HW137700   4.406   2.143   7.728  1.9344  1.4275  1.2958
 8688SOL    HW237701   4.439   2.169   7.590  0.2825 -0.3990 -0.3892
 8689SOL     OW37702   3.975   2.441  12.061 -0.1086 -0.6414 -0.3996
 8689SOL    HW137703   4.009   2.527  12.085 -0.4539 -0.4711 -0.5299
 8689SOL    HW237704   3.942   2.405  12.143  1.5682 -1.5874 -0.1323
 8690SOL     OW37705   2.116   1.371   8.786  0.9043  0.7055 -0.0552
 8690SOL    HW137706   2.182   1.362   8.717  1.3610  2.1019  0.1896
 8690SOL    HW237707   2.154   1.435   8.847 -0.5506  0.8249  0.7281
 8691SOL     OW37708   0.985   0.543   3.768  0.6888  0.1621 -0.4153
 8691SOL    HW137709   0.990   0.613   3.833 -1.8024  0.7921 -0.8952
 8691SOL    HW237710   1.058   0.560   3.708  0.4066 -1.6896 -1.2863
 8692SOL     OW37711   2.466   0.063  10.528 -0.1801  0.3798 -0.0138
 8692SOL    HW137712   2.524   4.726  10.558  0.5234  1.2199  0.6035
 8692SOL    HW237713   2.403   0.071  10.599  0.4949 -0.1917  0.6536
 8693SOL     OW37714   4.162   0.088   5.102 -0.1429  0.2758 -0.5263
 8693SOL    HW137715   4.251   0.073   5.134 -0.2316 -0.4146 -0.5967
 8693SOL    HW237716   4.164   0.057   5.012  2.3238  0.1157 -0.4215
 8694SOL     OW37717   0.575   1.165   1.473 -0.1259 -0.2129  0.1487
 8694SOL    HW137718   0.517   1.141   1.401  0.9553 -2.5468  0.0627
 8694SOL    HW237719   0.611   1.246   1.437  1.4910  0.3237  2.9730
 8695SOL     OW37720   0.781   4.055   6.703 -0.4793 -0.1008 -0.2766
 8695SOL    HW137721   0.720   4.117   6.744 -1.2823 -1.2637  0.2861
 8695SOL    HW237722   0.720   3.984   6.685 -0.4675 -0.0204 -0.6340
 8696SOL     OW37723   2.662   4.639   8.551  0.4186  0.6430 -0.1354
 8696SOL    HW137724   2.630   4.723   8.582 -0.7153 -0.3190  1.2938
 8696SOL    HW237725   2.623   4.634   8.464 -0.5781 -1.8250  0.4547
 8697SOL     OW37726   2.727   3.851   3.813 -0.3272 -0.2507 -0.4641
 8697SOL    HW137727   2.756   3.760   3.806  1.2578  0.3844 -2.1133
 8697SOL    HW237728   2.752   3.895   3.732  0.0215  1.0898  0.3827
 8698SOL     OW37729   4.009   4.690   2.948 -0.0195  0.0106 -0.0690
 8698SOL    HW137730   3.944   0.026   2.963 -0.7347 -0.8421  0.7656
 8698SOL    HW237731   4.093   0.002   2.945 -1.7449  3.1627 -1.1235
 8699SOL     OW37732   1.052   4.423   7.301 -0.0174 -0.1961  0.0191
 8699SOL    HW137733   1.104   4.381   7.233 -1.3185  1.0541 -1.7373
 8699SOL    HW237734   1.066   4.360   7.372 -1.3441 -1.0416 -0.4594
 8700SOL     OW37735   3.037   3.490  13.033 -0.1048 -0.2573  0.0295
 8700SOL    HW137736   3.084   3.459  13.111  1.0421 -0.0415 -0.5706
 8700SOL    HW237737   2.973   3.421  13.013 -0.0642 -0.4095  0.4134
 8701SOL     OW37738   1.041   1.015   8.550  0.0519  0.0428 -0.2694
 8701SOL    HW137739   1.052   1.089   8.490  0.4899  0.0766 -0.1476
 8701SOL    HW237740   0.996   1.045   8.629  2.5917 -2.2779  2.0824
 8702SOL     OW37741   3.748   2.882   9.630  0.0025  0.5235  0.3487
 8702SOL    HW137742   3.734   2.901   9.723 -0.7986  1.9485 -0.0662
 8702SOL    HW237743   3.774   2.965   9.591 -0.2685  0.6434  0.4222
 8703SOL     OW37744   1.078   1.219   8.231  0.4396 -0.2165 -0.0486
 8703SOL    HW137745   1.024   1.244   8.306  0.4342 -0.5678  0.0641
 8703SOL    HW237746   1.030   1.267   8.164 -0.4479  0.3135  0.9622
 8704SOL     OW37747   0.844   3.938  17.535  0.0201  0.3511  0.2761
 8704SOL    HW137748   0.936   3.934  17.508 -0.3914 -0.8427 -0.9334
 8704SOL    HW237749   0.855   3.966  17.626 -1.7107  0.3460  0.4797
 8705SOL     OW37750   1.718   4.346  14.012 -0.1294  0.3287  0.7597
 8705SOL    HW137751   1.682   4.310  14.093 -0.9431 -2.0776 -0.6756
 8705SOL    HW237752   1.801   4.297  14.007  0.4937  1.7340 -2.4227
 8706SOL     OW37753   1.002   4.180   8.191 -0.4071  0.4776 -0.2168
 8706SOL    HW137754   0.962   4.097   8.217  2.2123 -0.9414 -0.6934
 8706SOL    HW237755   0.921   4.220   8.160 -1.0510 -2.0481 -1.8079
 8707SOL     OW37756   2.601   1.440   6.430 -0.0164  0.2653  0.5360
 8707SOL    HW137757   2.624   1.410   6.518  0.3541 -0.2067  0.2779
 8707SOL    HW237758   2.690   1.440   6.395  0.1202 -0.5902  0.8750
 8708SOL     OW37759   1.245   2.519   7.565  0.2666 -0.8431  0.4519
 8708SOL    HW137760   1.248   2.505   7.471  0.0944  0.9833  0.1785
 8708SOL    HW237761   1.336   2.500   7.589  0.7223  0.3713 -0.3624
 8709SOL     OW37762   4.032   4.258   2.063 -0.1346 -0.5286  0.3377
 8709SOL    HW137763   3.986   4.185   2.020  1.3973 -2.0662  1.3193
 8709SOL    HW237764   4.068   4.221   2.143  0.2310  0.5403  0.6629
 8710SOL     OW37765   4.279   2.585   5.112 -0.4128  0.2305  0.0326
 8710SOL    HW137766   4.255   2.601   5.020 -0.0732 -1.3481 -0.3364
 8710SOL    HW237767   4.312   2.496   5.103 -1.8335 -0.5506  2.8123
 8711SOL     OW37768   2.079   1.988   3.009 -0.1505 -0.5368 -0.1901
 8711SOL    HW137769   2.156   1.960   3.059  0.4458  1.0555 -0.2076
 8711SOL    HW237770   2.072   2.079   3.037 -0.4047 -1.5061  2.8066
 8712SOL     OW37771   0.749   1.907   8.176 -0.6830 -0.2627 -0.1056
 8712SOL    HW137772   0.759   1.817   8.205 -1.0172  0.3815  1.9691
 8712SOL    HW237773   0.693   1.894   8.099  0.1508  0.8861 -0.8982
 8713SOL     OW37774   4.586   2.293   9.190 -0.6467 -0.1619  0.0583
 8713SOL    HW137775   4.598   2.214   9.244  0.7229 -0.7183 -1.0606
 8713SOL    HW237776   4.574   2.255   9.103  2.5693 -0.2959 -0.3150
 8714SOL     OW37777   3.250   4.156   5.164 -0.2503 -0.6558  0.1427
 8714SOL    HW137778   3.296   4.239   5.173 -1.9365  0.6168 -3.1313
 8714SOL    HW237779   3.213   4.178   5.079  0.5921 -1.3728 -0.4097
 8715SOL     OW37780   3.628   0.339   8.698  0.5178  0.5394 -0.2273
 8715SOL    HW137781   3.635   0.286   8.777 -0.5824 -1.6343 -1.5852
 8715SOL    HW237782   3.720   0.364   8.690  0.3989  1.1521  0.3595
 8716SOL     OW37783   1.609   3.379   6.037 -0.3835 -0.0660  0.0095
 8716SOL    HW137784   1.599   3.398   5.944 -2.3719 -0.2588  0.1938
 8716SOL    HW237785   1.675   3.309   6.030 -2.1997 -1.8378  0.4446
 8717SOL     OW37786   3.084   1.381  11.723 -0.6097 -0.0675  0.5117
 8717SOL    HW137787   3.073   1.463  11.772  1.3736  1.5243 -1.7442
 8717SOL    HW237788   3.106   1.325  11.798  0.7456  0.0007  0.1646
 8718SOL     OW37789   3.909   1.107   2.060 -0.1082 -0.0837 -0.2563
 8718SOL    HW137790   3.942   1.177   2.004  0.7096  0.0510  0.3985
 8718SOL    HW237791   3.962   1.030   2.038  0.4839 -0.1260  1.3355
 8719SOL     OW37792   0.500   0.246   6.362  0.3348 -0.1775  0.2319
 8719SOL    HW137793   0.574   0.237   6.301 -1.3615  0.9210 -1.9595
 8719SOL    HW237794   0.491   0.341   6.354 -1.2594 -0.2762  1.0247
 8720SOL     OW37795   1.619   3.473   4.930 -0.5339 -0.2114 -0.3308
 8720SOL    HW137796   1.599   3.385   4.897 -1.2110 -0.4162  0.6401
 8720SOL    HW237797   1.578   3.518   4.856 -0.0263  1.0233  0.1332
 8721SOL     OW37798   0.490   2.566   7.948  0.3357 -0.4363  0.0306
 8721SOL    HW137799   0.520   2.504   8.015  1.0395 -2.7786 -2.4664
 8721SOL    HW237800   0.527   2.538   7.865 -0.0718 -0.9016  0.0041
 8722SOL     OW37801   2.313   4.041   7.265  0.1730  0.1544  0.2670
 8722SOL    HW137802   2.343   4.025   7.355 -0.4301 -1.2184  0.2348
 8722SOL    HW237803   2.375   4.100   7.222  1.0761 -2.0367 -1.4765
 8723SOL     OW37804   3.640   1.681   8.177  0.7673 -0.2913  0.3047
 8723SOL    HW137805   3.584   1.660   8.102  0.5180 -1.8524  0.9203
 8723SOL    HW237806   3.727   1.687   8.139  0.7467 -1.5792  0.0379
 8724SOL     OW37807   4.156   0.573   0.442  0.4358  0.2300 -0.0067
 8724SOL    HW137808   4.092   0.571   0.514  0.9881 -1.4665  0.4267
 8724SOL    HW237809   4.196   0.491   0.471  0.9610  1.1748  1.9733
 8725SOL     OW37810   0.926   1.044   3.315 -0.0459 -0.8455 -0.0019
 8725SOL    HW137811   0.911   0.976   3.249 -1.4527 -0.3013 -0.2259
 8725SOL    HW237812   0.846   1.028   3.364  0.6196 -2.4268  0.6005
 8726SOL     OW37813   2.284   4.331   9.558 -0.1015  0.0745  0.0015
 8726SOL    HW137814   2.226   4.356   9.486  0.5170  0.5972 -0.3195
 8726SOL    HW237815   2.367   4.322   9.511 -0.4936  0.5894 -0.8058
 8727SOL     OW37816   4.027   4.346  14.450 -0.1870 -0.1029  0.3258
 8727SOL    HW137817   4.047   4.307  14.365  2.1620 -0.6436  1.1514
 8727SOL    HW237818   3.951   4.395  14.419  1.1570  2.3403  0.9555
 8728SOL     OW37819   1.605   1.098   7.910 -0.1964  0.4528 -0.3407
 8728SOL    HW137820   1.679   1.156   7.895  1.0562 -1.0289  0.1381
 8728SOL    HW237821   1.542   1.169   7.924 -0.3669  0.3547 -0.6033
 8729SOL     OW37822   2.212   0.426  11.858  0.0087 -0.3194 -0.1951
 8729SOL    HW137823   2.207   0.452  11.766 -0.6921  0.8376  0.1718
 8729SOL    HW237824   2.212   0.331  11.846 -1.1408 -0.5321  1.5377
 8730SOL     OW37825   0.263   3.348   2.542  0.5720  0.2342 -0.1592
 8730SOL    HW137826   0.225   3.262   2.521  0.5110  0.1180  0.4250
 8730SOL    HW237827   0.199   3.411   2.509  1.4923  1.7558  1.0364
 8731SOL     OW37828   0.805   0.849  16.105  0.2375 -0.2747  0.0332
 8731SOL    HW137829   0.844   0.875  16.188 -2.7518 -1.2079  1.7453
 8731SOL    HW237830   0.807   0.753  16.113 -2.6959 -0.4103 -0.8945
 8732SOL     OW37831   2.942   2.213   8.789  0.1221  0.6351 -0.1080
 8732SOL    HW137832   2.986   2.142   8.742  0.3172  0.3684  0.4801
 8732SOL    HW237833   2.960   2.285   8.729 -1.2778  2.3074  1.4812
 8733SOL     OW37834   2.882   1.851   4.395  0.5761  0.3065  0.0044
 8733SOL    HW137835   2.975   1.833   4.411  0.1452  0.0881  2.3006
 8733SOL    HW237836   2.860   1.824   4.485 -1.4315  0.3536 -0.4797
 8734SOL     OW37837   0.528   4.454   4.468  0.2603  0.0007  0.4446
 8734SOL    HW137838   0.612   4.497   4.482 -0.5375  0.7062  3.0550
 8734SOL    HW237839   0.502   4.432   4.558  0.4243 -0.2939  0.4178
 8735SOL     OW37840   2.530   3.673   9.161  0.5502 -0.0753  0.6026
 8735SOL    HW137841   2.438   3.681   9.183  0.5839  2.2136 -0.1060
 8735SOL    HW237842   2.528   3.597   9.102  1.8783 -0.8135  1.4976
 8736SOL     OW37843   2.310   3.581   7.932  0.3607  0.3967 -0.1987
 8736SOL    HW137844   2.226   3.583   7.886 -0.2068  0.3644  0.8260
 8736SOL    HW237845   2.345   3.495   7.907  1.1834  0.2038  1.5954
 8737SOL     OW37846   2.561   1.460   0.013  0.1958 -0.0268 -0.1376
 8737SOL    HW137847   2.487   1.417   0.057 -0.9480  0.5823 -1.4575
 8737SOL    HW237848   2.631   1.396   0.004 -1.8206 -2.0047 -1.6468
 8738SOL     OW37849   1.852   0.889  15.886  0.7211  0.0811  0.2731
 8738SOL    HW137850   1.887   0.819  15.830  1.1515  1.2877 -0.9878
 8738SOL    HW237851   1.775   0.866  15.938  2.1588 -0.3137  2.2068
 8739SOL     OW37852   3.697   0.807  15.443  0.3841  0.5452 -0.1005
 8739SOL    HW137853   3.679   0.772  15.531 -1.4159  1.6074 -0.0427
 8739SOL    HW237854   3.744   0.736  15.400 -0.2493  0.5775 -0.8377
 8740SOL     OW37855   0.873   0.011   5.191 -0.0958 -0.2705  0.3912
 8740SOL    HW137856   0.911   4.689   5.259  0.8215 -2.1834 -1.6415
 8740SOL    HW237857   0.950   0.035   5.139  0.4922 -2.5128  0.1944
 8741SOL     OW37858   0.929   2.355  10.898  0.6485  0.1126  0.1490
 8741SOL    HW137859   0.969   2.285  10.847 -0.4564  0.3387 -1.0378
 8741SOL    HW237860   1.002   2.385  10.952 -0.7473  0.3196  1.9058
 8742SOL     OW37861   0.017   3.260   7.894  0.0600 -0.0681  0.1873
 8742SOL    HW137862   4.724   3.227   7.980 -0.9448  0.5770  0.1340
 8742SOL    HW237863   4.713   3.348   7.908 -2.1624 -0.9673 -0.1422
 8743SOL     OW37864   3.790   1.003  13.883 -0.1957  0.3691 -0.9047
 8743SOL    HW137865   3.742   1.085  13.885 -1.5835 -0.4469 -1.1795
 8743SOL    HW237866   3.821   0.997  13.974  0.1312  3.0709 -0.8488
 8744SOL     OW37867   2.948   3.540  13.498 -0.2016  0.0499  0.1799
 8744SOL    HW137868   3.028   3.558  13.448 -0.4008  2.6216  0.8333
 8744SOL    HW237869   2.889   3.608  13.468  0.1346  0.1230 -0.3211
 8745SOL     OW37870   3.443   3.749  16.316 -0.9941 -0.0422 -0.0289
 8745SOL    HW137871   3.423   3.775  16.227 -0.7531  3.1361  0.8318
 8745SOL    HW237872   3.373   3.795  16.363 -1.5072 -0.4304 -0.4241
 8746SOL     OW37873   1.812   3.054   0.279 -0.1400  0.4776  0.4022
 8746SOL    HW137874   1.897   3.057   0.236 -1.6132 -1.4286 -2.5983
 8746SOL    HW237875   1.832   3.102   0.360  2.3016  1.9869 -1.0914
 8747SOL     OW37876   1.960   1.398   7.655 -0.0948  0.1227  0.3495
 8747SOL    HW137877   1.973   1.487   7.686  1.3418  0.2942 -0.7872
 8747SOL    HW237878   1.987   1.404   7.563 -0.3733 -2.7571  0.0761
 8748SOL     OW37879   4.049   1.945   4.716  1.3259  0.2053  0.1045
 8748SOL    HW137880   4.044   1.973   4.625  2.3742  0.3750  0.0928
 8748SOL    HW237881   4.041   1.850   4.709 -0.1623  0.2858  0.7624
 8749SOL     OW37882   0.064   1.742   7.968 -0.7949  0.9520  0.5281
 8749SOL    HW137883   0.121   1.670   7.995 -0.8246  0.7455  0.0455
 8749SOL    HW237884   0.011   1.768   8.043 -1.7545 -0.5443  0.3554
 8750SOL     OW37885   1.722   1.048   1.944  0.0782  0.0932  0.8600
 8750SOL    HW137886   1.796   1.026   2.000  0.3352  2.1444  1.3529
 8750SOL    HW237887   1.681   0.964   1.925 -0.0119  0.3181  0.0271
 8751SOL     OW37888   3.998   2.824   7.520 -0.1713 -0.3384 -0.2781
 8751SOL    HW137889   4.080   2.782   7.545 -0.0129 -0.7833 -1.5382
 8751SOL    HW237890   3.930   2.770   7.561  0.1363 -2.0269 -1.9953
 8752SOL     OW37891   0.220   3.566  13.937  0.3006 -0.0183  0.2637
 8752SOL    HW137892   0.209   3.592  14.029 -0.4741 -0.9205  0.4181
 8752SOL    HW237893   0.197   3.474  13.935  0.7583 -0.1045 -1.2674
 8753SOL     OW37894   0.714   4.695   5.450  0.3384 -0.0403 -0.2431
 8753SOL    HW137895   0.735   0.020   5.524  1.6066  0.3191 -0.8838
 8753SOL    HW237896   0.799   4.655   5.433  1.5768  2.0151  1.1392
 8754SOL     OW37897   2.886   3.807   3.017  0.0072  0.0422  0.2442
 8754SOL    HW137898   2.931   3.782   3.098 -2.6116 -1.2281  1.3038
 8754SOL    HW237899   2.880   3.721   2.975  3.6060  0.6545 -1.4825
 8755SOL     OW37900   2.965   1.881   2.414 -0.8466  0.0681  0.3661
 8755SOL    HW137901   2.930   1.947   2.355 -1.0220  2.0128  2.6291
 8755SOL    HW237902   2.990   1.811   2.355 -0.2681  1.5390 -1.1221
 8756SOL     OW37903   4.731   0.832   7.093 -0.2441 -0.6279  0.1727
 8756SOL    HW137904   0.038   0.888   7.160  0.9545  0.4309 -1.4065
 8756SOL    HW237905   4.711   0.752   7.141 -2.0175 -1.2868 -1.6775
 8757SOL     OW37906   1.091   4.360  12.478 -0.5574  0.1772  0.1119
 8757SOL    HW137907   1.051   4.446  12.488 -2.5437 -0.6225 -1.1441
 8757SOL    HW237908   1.115   4.350  12.570 -0.1998 -0.2198 -0.0276
 8758SOL     OW37909   1.721   3.563  14.098  0.1234  0.0761  0.4930
 8758SOL    HW137910   1.811   3.547  14.126  0.7744  0.0790 -1.6123
 8758SOL    HW237911   1.737   3.643  14.048  1.3778 -0.0631  0.6921
 8759SOL     OW37912   2.696   2.043   7.382 -0.3624  0.2086 -0.1794
 8759SOL    HW137913   2.663   1.990   7.309 -0.3224 -1.1964  0.8170
 8759SOL    HW237914   2.727   1.982   7.449 -1.3612 -1.1071 -0.9144
 8760SOL     OW37915   2.227   4.316   5.578 -0.5283  0.1150  0.2049
 8760SOL    HW137916   2.232   4.223   5.599 -1.0444 -0.2652 -1.4133
 8760SOL    HW237917   2.311   4.326   5.533  0.5653  1.6976  2.5761
 8761SOL     OW37918   1.268   3.677   7.482 -0.0532 -0.0984  0.3305
 8761SOL    HW137919   1.279   3.612   7.551 -1.1736 -0.8960 -0.2347
 8761SOL    HW237920   1.360   3.698   7.473  0.2576 -1.3683  0.5522
 8762SOL     OW37921   2.799   2.512   4.797 -0.5049  0.0840  0.4036
 8762SOL    HW137922   2.847   2.527   4.716 -0.4715  0.3384  0.4693
 8762SOL    HW237923   2.817   2.419   4.812 -2.1407 -0.4762 -1.1559
 8763SOL     OW37924   2.742   2.221  10.412 -0.7540  0.5918 -0.6449
 8763SOL    HW137925   2.681   2.176  10.353  0.1300 -1.4007 -0.0388
 8763SOL    HW237926   2.825   2.188  10.377 -0.9919 -2.0876  1.2822
 8764SOL     OW37927   0.800   0.447   4.223  0.6795  0.0519 -0.2334
 8764SOL    HW137928   0.714   0.426   4.187  0.6173 -0.1714  0.0450
 8764SOL    HW237929   0.854   0.371   4.202  0.9891  0.0531  0.5403
 8765SOL     OW37930   1.774   3.527   2.233 -0.4742  0.0842  0.4903
 8765SOL    HW137931   1.811   3.573   2.157  1.2806 -0.6682  0.9076
 8765SOL    HW237932   1.851   3.492   2.277  0.7945  0.5453 -1.3392
 8766SOL     OW37933   4.596   2.338   6.356  0.1128 -0.0740 -0.1823
 8766SOL    HW137934   4.514   2.342   6.405 -0.0495  0.5578 -0.4993
 8766SOL    HW237935   4.571   2.372   6.270 -2.8290  1.3800  1.2471
 8767SOL     OW37936   1.911   3.711  15.201 -0.0751 -1.0501 -0.3457
 8767SOL    HW137937   1.923   3.768  15.278  1.0208 -0.7814 -0.7116
 8767SOL    HW237938   1.825   3.670  15.210 -0.1986 -0.7602 -0.1999
 8768SOL     OW37939   2.025   1.636   6.955  0.4268 -0.2783  0.1087
 8768SOL    HW137940   1.974   1.601   6.881 -1.7962 -0.6654  1.8176
 8768SOL    HW237941   1.963   1.663   7.023  0.0563  0.7014 -0.6199
 8769SOL     OW37942   2.804   2.773   8.721  0.3410  0.5258  0.0627
 8769SOL    HW137943   2.872   2.839   8.709 -0.9128  2.0007  1.2705
 8769SOL    HW237944   2.788   2.781   8.815 -1.2369 -0.3944 -0.1260
 8770SOL     OW37945   3.091   1.821   4.968 -0.3348 -0.5870 -0.0538
 8770SOL    HW137946   3.024   1.870   4.921  1.5491  1.0921 -1.0304
 8770SOL    HW237947   3.171   1.872   4.956 -0.3365 -0.3154  1.1465
 8771SOL     OW37948   2.702   1.650   6.869 -0.1231 -0.0266  0.6499
 8771SOL    HW137949   2.614   1.661   6.904 -0.7689  1.6897 -1.4999
 8771SOL    HW237950   2.738   1.576   6.920  3.1976  1.9973  1.2578
 8772SOL     OW37951   1.953   1.932   3.583  0.0217 -0.6374 -0.4929
 8772SOL    HW137952   1.862   1.907   3.567  0.2865 -0.6165 -2.0348
 8772SOL    HW237953   1.966   1.899   3.672 -0.2898  1.3633  0.2974
 8773SOL     OW37954   1.429   1.987  16.077 -1.1812  0.5014  0.3160
 8773SOL    HW137955   1.435   1.907  16.023  0.0633  2.0032 -1.7623
 8773SOL    HW237956   1.344   1.974  16.120 -1.2677  1.1802  0.3398
 8774SOL     OW37957   1.890   1.327  12.544  0.0073  0.2285  0.3021
 8774SOL    HW137958   1.949   1.338  12.618  1.7902  0.8028 -1.1996
 8774SOL    HW237959   1.869   1.417  12.519  0.6991  0.5502  0.8826
 8775SOL     OW37960   1.769   3.754   8.103  0.0348  0.4202 -0.0077
 8775SOL    HW137961   1.844   3.783   8.155 -0.3459 -2.3484  2.0766
 8775SOL    HW237962   1.826   3.733   8.029 -0.3715 -1.4292  0.2009
 8776SOL     OW37963   4.721   3.475   8.680 -0.4830  0.3832 -0.5236
 8776SOL    HW137964   4.689   3.428   8.757  1.3345  0.1752  0.0976
 8776SOL    HW237965   0.060   3.415   8.660  0.2912  0.3020  2.4496
 8777SOL     OW37966   1.416   1.342  17.146  0.0510 -0.0699  0.2185
 8777SOL    HW137967   1.429   1.346  17.241  0.7518  1.6047  0.0337
 8777SOL    HW237968   1.340   1.283  17.150  0.1561 -0.4500 -3.0261
 8778SOL     OW37969   1.480   0.492  15.708 -0.3082  0.0096 -0.2761
 8778SOL    HW137970   1.534   0.495  15.787 -0.7569  0.3095  0.0226
 8778SOL    HW237971   1.551   0.480  15.646  0.0257  1.8973 -0.2708
 8779SOL     OW37972   3.805   1.860  17.206 -0.6613  0.8498 -0.4292
 8779SOL    HW137973   3.779   1.905  17.287 -2.0324 -1.2222  0.2841
 8779SOL    HW237974   3.744   1.786  17.206 -2.0871  2.0046  0.1277
 8780SOL     OW37975   1.239   1.625   7.108 -0.0623  0.1212 -0.1958
 8780SOL    HW137976   1.317   1.570   7.113  0.4621  0.8570 -0.1767
 8780SOL    HW237977   1.237   1.628   7.012  3.7963 -1.1744 -0.3150
 8781SOL     OW37978   2.658   0.391   0.716  0.0163 -0.0795 -0.7069
 8781SOL    HW137979   2.703   0.424   0.794 -1.0855  2.0538 -0.9859
 8781SOL    HW237980   2.595   0.461   0.699 -0.6262 -0.0893  1.6577
 8782SOL     OW37981   4.581   1.729   5.319 -0.4816 -0.2739 -0.6773
 8782SOL    HW137982   4.668   1.717   5.282 -0.5213  0.6326 -1.0742
 8782SOL    HW237983   4.530   1.775   5.251 -1.3179  0.4504  0.4257
 8783SOL     OW37984   2.770   3.136  11.896 -0.0061 -0.0687 -0.2749
 8783SOL    HW137985   2.704   3.088  11.948 -0.4857 -1.3335 -2.0544
 8783SOL    HW237986   2.827   3.060  11.885  0.2674  0.3778 -1.8622
 8784SOL     OW37987   3.207   3.345   3.097  0.2873  0.0002  0.1360
 8784SOL    HW137988   3.301   3.343   3.115  0.4514  0.8836 -0.6170
 8784SOL    HW237989   3.207   3.407   3.024 -0.2950  0.6628  0.6981
 8785SOL     OW37990   4.646   3.050   5.721  0.5142  0.2621 -0.2225
 8785SOL    HW137991   4.624   2.999   5.643 -0.0435 -0.7598  0.6090
 8785SOL    HW237992   0.008   3.035   5.723  0.3631 -0.7118 -0.4965
 8786SOL     OW37993   1.288   3.127   5.223 -0.1725  0.3070  0.0071
 8786SOL    HW137994   1.333   3.052   5.261  0.0052  0.6938  0.5581
 8786SOL    HW237995   1.356   3.192   5.205  0.5228 -1.3198 -3.3556
 8787SOL     OW37996   4.345   0.531   0.762  0.6429  0.2766 -0.2059
 8787SOL    HW137997   4.253   0.505   0.753  0.4302  0.8522  0.3290
 8787SOL    HW237998   4.335   0.621   0.732  2.0020  0.2653 -0.6861
 8788SOL     OW37999   2.463   1.814   0.296  0.2115 -0.0219 -0.2786
 8788SOL    HW138000   2.476   1.881   0.229 -2.7538  1.7494  0.8928
 8788SOL    HW238001   2.505   1.738   0.256 -2.0080 -1.2001 -0.3797
 8789SOL     OW38002   1.979   0.533  17.059  0.8246 -0.1339  0.4288
 8789SOL    HW138003   1.929   0.496  16.986  1.4614 -0.2569  0.0588
 8789SOL    HW238004   1.915   0.603  17.072 -3.1207 -3.5154 -0.4507
 8790SOL     OW38005   3.571   0.231   4.587 -0.1876  0.9636 -0.6296
 8790SOL    HW138006   3.520   0.273   4.657 -2.0227 -2.6573  0.1992
 8790SOL    HW238007   3.626   0.180   4.646 -2.1843 -0.8047 -0.2678
 8791SOL     OW38008   3.268   3.856   7.879  0.3567 -0.5572  0.0922
 8791SOL    HW138009   3.330   3.910   7.928 -1.4254 -0.8734  2.6998
 8791SOL    HW238010   3.323   3.789   7.839 -0.1869 -0.3837 -0.9289
 8792SOL     OW38011   4.566   2.627   7.037  0.3138 -0.7092 -0.2224
 8792SOL    HW138012   4.579   2.612   6.944 -0.9583  0.9350 -0.6724
 8792SOL    HW238013   4.524   2.548   7.069  0.4142 -1.0654 -0.9730
 8793SOL     OW38014   4.602   3.682   1.919 -0.2651  0.3977  0.1680
 8793SOL    HW138015   4.658   3.614   1.883 -0.7934 -0.2053  0.4809
 8793SOL    HW238016   4.651   3.752   1.962  1.5616 -1.1267  0.5403
 8794SOL     OW38017   0.554   4.491   1.857 -0.0172  0.0972 -0.2893
 8794SOL    HW138018   0.643   4.470   1.884 -0.0018  0.0456 -0.3813
 8794SOL    HW238019   0.515   4.502   1.944  1.9349  2.5967  0.2695
 8795SOL     OW38020   1.520   4.602   0.837 -0.4436  0.0315 -0.0721
 8795SOL    HW138021   1.477   4.685   0.817 -0.9025 -0.0032  0.7390
 8795SOL    HW238022   1.596   4.642   0.879 -1.1803  1.4288 -0.0670
 8796SOL     OW38023   3.655   4.465   5.090 -0.1853 -0.0434 -0.1658
 8796SOL    HW138024   3.730   4.524   5.100  0.0750 -0.3918 -0.0618
 8796SOL    HW238025   3.639   4.442   5.182  1.0504 -2.3089 -0.5123
 8797SOL     OW38026   1.046   2.576   5.867 -0.3847 -0.3736  0.2459
 8797SOL    HW138027   1.058   2.643   5.799  0.9210  2.3348  3.1420
 8797SOL    HW238028   0.990   2.618   5.932  1.1426 -0.7141  1.7789
 8798SOL     OW38029   2.187   0.196   6.389 -0.2919 -0.1357  0.3167
 8798SOL    HW138030   2.157   0.262   6.452 -0.2092 -0.5459  0.7867
 8798SOL    HW238031   2.264   0.159   6.432 -0.5978 -1.9495 -0.7281
 8799SOL     OW38032   3.905   4.120   4.356 -0.1067 -0.2870  0.2270
 8799SOL    HW138033   3.996   4.148   4.370 -0.8745  1.5608  1.4126
 8799SOL    HW238034   3.907   4.051   4.422  0.2658  1.3653  1.9340
 8800SOL     OW38035   0.070   0.047  12.983 -0.4654  0.6538 -0.1613
 8800SOL    HW138036   0.138   0.088  13.036 -1.0017  1.6670 -0.2470
 8800SOL    HW238037   0.092   0.099  12.905 -1.1355  0.3781 -0.5329
 8801SOL     OW38038   0.019   3.287   1.368  0.3595  0.2903  0.0693
 8801SOL    HW138039   4.730   3.371   1.328 -2.4961 -0.6242 -0.2825
 8801SOL    HW238040   0.095   3.262   1.316  0.7155 -0.3055  0.8731
 8802SOL     OW38041   2.884   4.607   2.495  0.3210 -0.0886  0.1050
 8802SOL    HW138042   2.970   4.577   2.523  0.5694  2.3260  1.9790
 8802SOL    HW238043   2.836   4.528   2.471  1.4508 -1.5233  2.5778
 8803SOL     OW38044   0.387   2.959   9.580 -0.5123 -0.2276 -0.2115
 8803SOL    HW138045   0.393   3.051   9.607 -1.8889  0.4673 -2.1862
 8803SOL    HW238046   0.476   2.932   9.599 -0.6132  0.1135  0.7603
 8804SOL     OW38047   1.535   0.915   7.437  0.0858  0.3615 -0.2807
 8804SOL    HW138048   1.442   0.935   7.432  0.0415  0.1407 -0.3590
 8804SOL    HW238049   1.565   0.993   7.483  0.7685 -1.9277  3.1177
 8805SOL     OW38050   2.087   4.626   1.897 -0.3518  0.9199  0.2544
 8805SOL    HW138051   2.056   4.570   1.827 -1.6505  1.1703  0.6248
 8805SOL    HW238052   2.002   4.642   1.938 -0.8621 -0.9290 -0.1007
 8806SOL     OW38053   0.332   3.870   1.356  0.1093 -0.0976 -0.1339
 8806SOL    HW138054   0.380   3.898   1.434 -0.1487  2.1293 -0.7581
 8806SOL    HW238055   0.243   3.901   1.369 -0.9919 -1.8495 -3.5624
 8807SOL     OW38056   0.881   3.087   9.256  0.4010 -0.0527 -0.4966
 8807SOL    HW138057   0.877   3.092   9.352 -1.5723 -3.1865 -0.4150
 8807SOL    HW238058   0.893   2.992   9.253 -1.0553 -0.1797 -1.8390
 8808SOL     OW38059   2.470   0.741   5.260  0.6487  0.0919 -0.1246
 8808SOL    HW138060   2.398   0.692   5.220  0.3849 -0.0507  0.5338
 8808SOL    HW238061   2.499   0.779   5.177 -1.8302  0.1095 -1.0054
 8809SOL     OW38062   3.659   3.239   9.055  1.1445 -0.4387 -0.4334
 8809SOL    HW138063   3.739   3.291   9.063  0.6232  0.9204 -3.8618
 8809SOL    HW238064   3.627   3.238   9.145 -0.6258  1.7188 -1.0411
 8810SOL     OW38065   3.698   3.716  13.572 -0.6583 -0.2194 -0.0966
 8810SOL    HW138066   3.761   3.650  13.600 -1.4849 -0.9692  0.0047
 8810SOL    HW238067   3.714   3.712  13.478 -0.8970  0.0143 -0.1460
 8811SOL     OW38068   3.237   0.847  16.135  0.7197  0.3185  0.5427
 8811SOL    HW138069   3.209   0.764  16.097  0.0350  1.3116 -1.0990
 8811SOL    HW238070   3.158   0.869  16.183  0.2404  1.3463 -0.7102
 8812SOL     OW38071   1.895   4.118  16.268  0.6580 -0.0273 -0.5360
 8812SOL    HW138072   1.934   4.183  16.326  0.3827 -0.9540  0.6835
 8812SOL    HW238073   1.808   4.155  16.256 -0.1945 -1.6764  0.5296
 8813SOL     OW38074   1.624   3.471   7.592  0.0342 -0.6713  0.6428
 8813SOL    HW138075   1.633   3.379   7.616  2.4642 -0.1824  1.6289
 8813SOL    HW238076   1.532   3.474   7.618 -0.3577 -0.4150 -0.7689
 8814SOL     OW38077   1.613   1.876  11.415  0.4135  0.1853 -0.1064
 8814SOL    HW138078   1.587   1.825  11.491 -2.0943  2.8516  0.8304
 8814SOL    HW238079   1.703   1.898  11.438  1.1883 -2.0290 -1.0397
 8815SOL     OW38080   2.391   2.680   4.557  0.2972 -0.4654  0.1877
 8815SOL    HW138081   2.361   2.671   4.647  2.0478  0.2974  0.8630
 8815SOL    HW238082   2.341   2.759   4.538  0.0657 -0.7000 -0.1902
 8816SOL     OW38083   1.264   0.945   6.702  0.8187 -0.2552 -0.6534
 8816SOL    HW138084   1.265   0.956   6.798 -1.8395  0.0257 -0.6751
 8816SOL    HW238085   1.356   0.923   6.688  1.4060  2.2193 -0.7441
 8817SOL     OW38086   1.179   3.124   1.147  0.4835 -0.0224  1.2585
 8817SOL    HW138087   1.245   3.090   1.086 -1.2343  0.7924 -1.0365
 8817SOL    HW238088   1.216   3.098   1.231  0.0658  0.5223  1.6118
 8818SOL     OW38089   3.767   3.879   5.474  0.1192 -0.0215  0.2015
 8818SOL    HW138090   3.678   3.848   5.488 -0.4335  0.8483 -1.3864
 8818SOL    HW238091   3.738   3.965   5.443  0.0479  0.3901  1.4465
 8819SOL     OW38092   3.523   0.931  10.196 -0.3347 -0.3471  0.1070
 8819SOL    HW138093   3.618   0.928  10.208 -0.4235 -0.5294  0.7911
 8819SOL    HW238094   3.511   1.025  10.211 -0.4482 -0.4598  0.7105
 8820SOL     OW38095   4.396   2.153   3.039 -0.6164  0.0290  0.0342
 8820SOL    HW138096   4.478   2.106   3.052 -0.7686 -0.4732 -0.7817
 8820SOL    HW238097   4.410   2.195   2.954 -1.5200  0.5581  0.1353
 8821SOL     OW38098   1.304   2.988  12.487  0.2149 -0.7209 -0.8380
 8821SOL    HW138099   1.338   2.940  12.562  1.2041  0.4177 -0.5620
 8821SOL    HW238100   1.389   2.995  12.443  0.4158 -0.5933 -0.4239
 8822SOL     OW38101   0.996   2.288   7.947  0.1294  0.1833 -0.3130
 8822SOL    HW138102   1.089   2.287   7.970  0.0005 -0.2646  0.1863
 8822SOL    HW238103   0.972   2.219   8.008 -2.8780 -0.1735 -1.9202
 8823SOL     OW38104   4.078   2.855   5.749  0.4167  0.1397  0.8055
 8823SOL    HW138105   4.087   2.948   5.729  0.7747 -0.1433 -0.3203
 8823SOL    HW238106   4.011   2.856   5.817  0.7268 -2.3949  1.1275
 8824SOL     OW38107   4.169   3.066   8.940 -0.5177 -0.5323 -0.2694
 8824SOL    HW138108   4.194   2.973   8.946 -1.6312 -0.8533 -0.6963
 8824SOL    HW238109   4.226   3.100   9.009 -1.2913 -3.1232  1.6670
 8825SOL     OW38110   4.159   1.169   4.050  0.3753 -0.1058 -0.2964
 8825SOL    HW138111   4.152   1.089   3.997  0.6928  0.1057 -0.6555
 8825SOL    HW238112   4.084   1.226   4.036 -0.6820 -0.9511  1.9728
 8826SOL     OW38113   3.412   0.324  13.979 -0.6556 -0.8851 -0.1009
 8826SOL    HW138114   3.437   0.231  13.984  0.3410 -0.4802  2.2675
 8826SOL    HW238115   3.394   0.334  13.885  0.6812  2.3032 -0.0107
 8827SOL     OW38116   3.920   2.905   3.221  0.4370  0.2582 -0.0057
 8827SOL    HW138117   4.014   2.914   3.234  0.2442 -1.5020  2.4815
 8827SOL    HW238118   3.902   2.958   3.299  0.9948 -0.2174  0.4488
 8828SOL     OW38119   2.155   4.148   4.301 -0.3711 -0.3230 -0.5121
 8828SOL    HW138120   2.196   4.145   4.387 -0.2445 -2.8277 -0.6490
 8828SOL    HW238121   2.233   4.137   4.246  0.1220  0.3627  0.0495
 8829SOL     OW38122   0.976   0.429  12.431 -0.0935 -0.4585  0.6434
 8829SOL    HW138123   1.060   0.459  12.398  0.4822  1.2103  3.6426
 8829SOL    HW238124   0.982   0.345  12.385 -1.8334 -0.3590  0.2121
 8830SOL     OW38125   0.824   3.829   4.293  0.2212 -0.5614  0.1418
 8830SOL    HW138126   0.742   3.844   4.340 -1.6037 -1.8943 -2.6145
 8830SOL    HW238127   0.843   3.735   4.303  2.6004 -0.2904 -1.8790
 8831SOL     OW38128   3.794   0.257   6.592  0.0227 -0.3861 -0.4587
 8831SOL    HW138129   3.873   0.305   6.567 -0.7173  0.2526 -1.5340
 8831SOL    HW238130   3.826   0.213   6.671 -0.2132 -0.6314 -0.5009
 8832SOL     OW38131   0.288   2.324  13.002 -0.6247  0.1521  0.0151
 8832SOL    HW138132   0.195   2.300  12.994 -0.0420 -2.4702  1.2418
 8832SOL    HW238133   0.281   2.418  12.989 -1.1817  0.5668  3.4217
 8833SOL     OW38134   1.847   2.625   8.594 -0.9634 -0.0377 -0.0504
 8833SOL    HW138135   1.889   2.660   8.515 -1.2909  2.0678  0.7169
 8833SOL    HW238136   1.763   2.603   8.554 -1.8388 -1.1201  2.3588
 8834SOL     OW38137   3.324   2.800  16.062  0.2216 -0.6087  0.2527
 8834SOL    HW138138   3.339   2.724  16.118 -0.9480 -0.8397  0.2478
 8834SOL    HW238139   3.291   2.771  15.977 -2.9759  1.1095  0.9104
 8835SOL     OW38140   0.805   3.487   4.407 -0.1937 -0.4204  0.0973
 8835SOL    HW138141   0.846   3.441   4.479  1.1069  1.2360  0.4196
 8835SOL    HW238142   0.731   3.527   4.453 -1.0517  0.1540 -1.7825
 8836SOL     OW38143   2.288   0.036   5.666  0.1615 -0.2037 -0.1757
 8836SOL    HW138144   2.294   0.080   5.581 -1.8247 -0.2037 -0.2972
 8836SOL    HW238145   2.270   0.108   5.726 -1.2801 -1.3522  0.7644
 8837SOL     OW38146   1.209   3.892   8.141 -0.8404 -0.4902 -1.0802
 8837SOL    HW138147   1.121   3.876   8.106 -1.1662  0.2329 -0.5972
 8837SOL    HW238148   1.216   3.985   8.119  0.2983 -0.5209 -0.8606
 8838SOL     OW38149   3.241   2.936  14.490 -0.0338 -0.4831  0.1666
 8838SOL    HW138150   3.256   2.899  14.403  1.7706  1.3153 -0.2767
 8838SOL    HW238151   3.172   3.000  14.469  0.4991 -0.4578 -1.4464
 8839SOL     OW38152   3.381   0.687  12.662  0.5073  0.3865  0.0300
 8839SOL    HW138153   3.393   0.678  12.567  0.7771  0.7019  0.0354
 8839SOL    HW238154   3.362   0.781  12.672  1.5576  0.6545 -0.4782
 8840SOL     OW38155   0.395   4.332   6.100 -0.7156 -0.3063 -0.3712
 8840SOL    HW138156   0.489   4.334   6.084 -0.5661 -0.2257  0.5389
 8840SOL    HW238157   0.379   4.368   6.187  3.0438 -0.1629  0.2611
 8841SOL     OW38158   3.345   4.601   6.669  0.1356 -0.6891  0.0299
 8841SOL    HW138159   3.404   4.545   6.619  2.6937  1.9056  0.1506
 8841SOL    HW238160   3.392   4.625   6.749  0.2599  3.1687 -1.2050
 8842SOL     OW38161   1.629   4.139   5.694 -0.1571 -0.1626 -0.0819
 8842SOL    HW138162   1.723   4.138   5.706  0.1249 -1.5230 -2.2810
 8842SOL    HW238163   1.591   4.114   5.778  0.8472  1.7881  0.9479
 8843SOL     OW38164   4.586   4.314   7.568 -0.0877  0.4808 -0.0798
 8843SOL    HW138165   4.659   4.376   7.571  0.3007 -0.0053  0.5068
 8843SOL    HW238166   4.551   4.319   7.657 -2.3617  2.8728 -1.1319
 8844SOL     OW38167   0.053   1.695   0.206 -0.5346 -0.1718  0.7498
 8844SOL    HW138168   0.033   1.754   0.279 -1.3257 -1.3075  1.4424
 8844SOL    HW238169   4.703   1.695   0.158  1.3004  1.1010 -2.4774
 8845SOL     OW38170   0.469   1.844  17.573  0.2152  0.2207  0.3648
 8845SOL    HW138171   0.555   1.826  17.612  0.4421  1.4570  0.4285
 8845SOL    HW238172   0.416   1.846  17.653 -0.2598 -0.0459  0.0594
 8846SOL     OW38173   2.030   1.808   9.078  0.1707 -0.5352  0.5218
 8846SOL    HW138174   1.937   1.786   9.088 -0.4487  1.3564 -0.9463
 8846SOL    HW238175   2.054   1.822   9.170  2.8693 -1.8775 -0.0010
 8847SOL     OW38176   3.123   0.700   8.255  0.2645  0.5720  0.2413
 8847SOL    HW138177   3.046   0.729   8.206  3.2014  4.4927 -2.1020
 8847SOL    HW238178   3.156   0.627   8.202  1.4374  0.4300  1.1652
 8848SOL     OW38179   2.727   1.299   5.727 -0.3311  0.4381 -0.1738
 8848SOL    HW138180   2.792   1.369   5.718  1.6069 -1.5247 -1.2390
 8848SOL    HW238181   2.744   1.236   5.658  1.8080  1.6074 -0.7235
 8849SOL     OW38182   1.753   1.820  16.724 -0.6076 -0.1842 -0.0764
 8849SOL    HW138183   1.737   1.866  16.641 -2.9903  0.0265  0.4964
 8849SOL    HW238184   1.674   1.855  16.766 -1.3714  0.4129 -2.0308
 8850SOL     OW38185   3.117   2.271   1.552 -0.3819 -0.3194 -0.9256
 8850SOL    HW138186   3.186   2.260   1.618 -0.5528  0.8864 -0.5473
 8850SOL    HW238187   3.117   2.363   1.528  1.9812  0.2556  1.2760
 8851SOL     OW38188   1.787   2.475   3.853  0.8562 -0.4475  0.1080
 8851SOL    HW138189   1.701   2.479   3.811 -0.1199  0.0460  2.1642
 8851SOL    HW238190   1.822   2.400   3.804  2.2411  0.3610 -0.1245
 8852SOL     OW38191   3.698   1.121   5.105 -0.1879  0.3346  0.2098
 8852SOL    HW138192   3.627   1.181   5.128  0.8406  1.2321  1.0541
 8852SOL    HW238193   3.676   1.118   5.012 -0.6640 -2.4893  0.4104
 8853SOL     OW38194   0.309   2.767   4.781 -0.5666  0.1545  0.1090
 8853SOL    HW138195   0.356   2.758   4.864  1.2010  1.0024 -0.7844
 8853SOL    HW238196   0.291   2.861   4.784  1.0856  0.5015 -0.6985
 8854SOL     OW38197   4.149   3.438   7.321  0.2058  0.4657  0.1154
 8854SOL    HW138198   4.172   3.439   7.413  1.5504 -0.1016 -0.2209
 8854SOL    HW238199   4.161   3.344   7.301  0.4296 -0.4599  4.7553
 8855SOL     OW38200   3.604   3.875  12.146 -0.4783 -0.0134  0.2241
 8855SOL    HW138201   3.562   3.951  12.187  0.7391  0.3067  0.8779
 8855SOL    HW238202   3.618   3.813  12.217 -0.2043  2.4036  2.2639
 8856SOL     OW38203   4.251   0.432   5.138  1.0735 -0.0148  0.0761
 8856SOL    HW138204   4.281   0.353   5.094  1.1546  0.4675 -0.7234
 8856SOL    HW238205   4.238   0.496   5.068  0.7164 -0.2958 -0.1095
 8857SOL     OW38206   2.372   0.245   6.149 -0.3311 -0.1428 -0.0140
 8857SOL    HW138207   2.445   0.235   6.210 -0.8068 -0.8004  0.4498
 8857SOL    HW238208   2.300   0.230   6.210 -0.0751 -0.4651  0.2094
 8858SOL     OW38209   2.883   4.124   4.556  0.3367 -0.1662 -0.5363
 8858SOL    HW138210   2.813   4.077   4.602 -1.0234  2.8765  0.5484
 8858SOL    HW238211   2.864   4.218   4.564 -0.6075 -0.4895  1.0444
 8859SOL     OW38212   3.132   3.410  16.440 -0.0714  0.9088 -0.2404
 8859SOL    HW138213   3.103   3.501  16.438 -0.6938  0.7253  0.4567
 8859SOL    HW238214   3.054   3.363  16.408 -0.0213 -0.0983  1.1324
 8860SOL     OW38215   1.619   4.306   7.492 -0.0774 -0.0607 -0.1918
 8860SOL    HW138216   1.600   4.278   7.403 -0.0902  1.9500 -0.8152
 8860SOL    HW238217   1.583   4.394   7.486 -1.6230 -0.8979 -3.0743
 8861SOL     OW38218   3.879   0.522   3.523 -0.0307 -0.1630  0.2993
 8861SOL    HW138219   3.828   0.584   3.575 -0.3294 -0.0475 -0.1333
 8861SOL    HW238220   3.919   0.574   3.453  1.2749 -0.1176  1.0697
 8862SOL     OW38221   1.581   2.950   3.124  0.0851 -0.0191  0.0452
 8862SOL    HW138222   1.496   2.917   3.153  0.2008 -0.4993 -0.1511
 8862SOL    HW238223   1.627   2.986   3.200 -0.9044 -1.5295  1.3498
 8863SOL     OW38224   0.274   3.234  16.509  0.2649 -0.3654 -0.0336
 8863SOL    HW138225   0.334   3.169  16.545  1.8395  0.9474 -0.2867
 8863SOL    HW238226   0.194   3.190  16.538  0.4130 -0.3220  0.4268
 8864SOL     OW38227   2.881   2.023  11.676  0.0362 -0.0931 -0.1970
 8864SOL    HW138228   2.799   1.998  11.634  0.0084  2.1017 -1.4408
 8864SOL    HW238229   2.852   2.068  11.755  0.5202 -0.0020 -0.0725
 8865SOL     OW38230   0.091   3.047  17.341  0.3154 -0.2724  0.0603
 8865SOL    HW138231   0.169   3.086  17.381  0.6074 -0.9180  0.1328
 8865SOL    HW238232   0.088   3.106  17.266 -0.8089 -1.3537 -0.7424
 8866SOL     OW38233   0.561   3.814   2.064  0.7528  0.4089 -0.7760
 8866SOL    HW138234   0.577   3.743   2.002  0.1229 -0.6534  0.2754
 8866SOL    HW238235   0.518   3.770   2.137 -0.3925 -0.1640 -1.8030
 8867SOL     OW38236   0.615   1.062   6.104 -0.3079  0.2235 -0.2353
 8867SOL    HW138237   0.650   1.148   6.128 -0.4009 -0.2922  1.7752
 8867SOL    HW238238   0.665   1.052   6.024 -0.9500 -0.8694 -0.4982
 8868SOL     OW38239   3.789   3.008   3.713 -0.1178  0.2741 -0.6144
 8868SOL    HW138240   3.711   2.980   3.761  0.2833  1.1820  0.5808
 8868SOL    HW238241   3.837   3.044   3.788 -0.3846 -0.0511 -0.2918
 8869SOL     OW38242   0.354   1.320   4.849  0.4919 -0.1169  0.2077
 8869SOL    HW138243   0.395   1.339   4.764 -0.3209 -0.9046 -0.3596
 8869SOL    HW238244   0.412   1.254   4.887 -0.7732 -1.0481  0.4930
 8870SOL     OW38245   0.954   0.769  12.327  0.2338  0.2946 -0.1934
 8870SOL    HW138246   1.035   0.723  12.347  0.3711 -0.4172 -2.2858
 8870SOL    HW238247   0.990   0.847  12.286 -0.1817  1.1114  1.0085
 8871SOL     OW38248   1.370   2.769   9.955  0.2382 -0.4643 -0.3430
 8871SOL    HW138249   1.371   2.790  10.048 -0.6771 -0.7941 -0.2647
 8871SOL    HW238250   1.462   2.743   9.946  0.2022  0.0372 -2.2832
 8872SOL     OW38251   1.390   2.079   3.658  0.2326 -0.0811  0.4582
 8872SOL    HW138252   1.385   2.164   3.701  0.1636  0.5078 -0.7059
 8872SOL    HW238253   1.321   2.091   3.592  1.6048  0.5683 -0.8636
 8873SOL     OW38254   3.325   3.286   6.317  0.3643  0.3860  0.4054
 8873SOL    HW138255   3.261   3.342   6.272  1.0392 -1.4461 -2.8526
 8873SOL    HW238256   3.337   3.326   6.403  2.1329  2.4424 -0.8017
 8874SOL     OW38257   1.096   1.785   6.549 -0.1562 -0.1500  0.0917
 8874SOL    HW138258   1.099   1.876   6.579 -0.3298 -0.2046  0.2705
 8874SOL    HW238259   1.042   1.792   6.471  2.7903  2.1141 -1.7170
 8875SOL     OW38260   2.052   2.634  15.472  0.1367 -0.2095 -0.2561
 8875SOL    HW138261   2.081   2.544  15.456 -1.6420 -0.7819 -0.2794
 8875SOL    HW238262   2.076   2.642  15.565 -0.7089 -0.0212 -0.0547
 8876SOL     OW38263   4.450   0.143   5.747  0.1669  0.3111  0.0932
 8876SOL    HW138264   4.471   0.144   5.840 -2.5964 -0.9624  0.7241
 8876SOL    HW238265   4.468   0.235   5.728 -0.7596  0.1936 -1.3616
 8877SOL     OW38266   0.917   1.507   2.425  0.3904 -0.2172  0.0233
 8877SOL    HW138267   0.982   1.528   2.492 -0.1844 -0.0628  0.5295
 8877SOL    HW238268   0.955   1.568   2.362  0.0297  0.7035  0.6935
 8878SOL     OW38269   0.796   4.386  17.128  0.0018 -0.4283  0.0509
 8878SOL    HW138270   0.786   4.360  17.036 -0.1293  1.5409 -0.5061
 8878SOL    HW238271   0.797   4.481  17.113  2.1715 -0.2978  1.0333
 8879SOL     OW38272   4.543   3.981   2.257  0.2642 -0.5547  0.3084
 8879SOL    HW138273   4.620   4.038   2.250  0.7811 -1.2800  0.1695
 8879SOL    HW238274   4.466   4.039   2.258  1.7332  1.4196 -1.2751
 8880SOL     OW38275   4.307   4.675   2.629 -0.0098 -0.0203  0.3534
 8880SOL    HW138276   4.401   4.661   2.636  0.2958  0.2107 -3.5104
 8880SOL    HW238277   4.296   0.035   2.608 -0.0715  0.2321  1.5016
 8881SOL     OW38278   0.028   1.379   0.335 -0.2075  0.1815 -0.1429
 8881SOL    HW138279   0.082   1.301   0.350 -1.5654 -0.3292  2.0268
 8881SOL    HW238280   0.021   1.392   0.240  2.1465 -1.8373 -0.5888
 8882SOL     OW38281   3.190   3.542   2.416  0.0223  0.1472 -0.4594
 8882SOL    HW138282   3.198   3.474   2.349  1.2589 -0.7819  0.6122
 8882SOL    HW238283   3.176   3.613   2.354  0.4139  0.3265 -0.3409
 8883SOL     OW38284   3.621   0.104   8.109 -0.3766 -0.2984 -0.0951
 8883SOL    HW138285   3.557   0.062   8.165  0.2804 -1.4073 -0.1788
 8883SOL    HW238286   3.693   0.041   8.118  1.1838  1.7080  1.5705
 8884SOL     OW38287   0.797   2.918  12.745  0.3221 -0.3516 -0.2201
 8884SOL    HW138288   0.744   2.996  12.731  0.5494 -0.2731 -0.6701
 8884SOL    HW238289   0.857   2.903  12.672  2.3276  1.9455  0.9548
 8885SOL     OW38290   0.733   0.416   5.420 -0.3237 -0.2273 -0.6803
 8885SOL    HW138291   0.827   0.428   5.413 -0.2345 -0.5556 -0.0985
 8885SOL    HW238292   0.717   0.450   5.508 -1.2971 -1.5841 -0.3154
 8886SOL     OW38293   4.047   1.510  15.683  0.1176  0.1763 -0.2119
 8886SOL    HW138294   4.062   1.446  15.614  1.8750  1.3654 -0.9211
 8886SOL    HW238295   4.057   1.464  15.766  1.3245  1.5414  0.4036
 8887SOL     OW38296   3.804   2.187  12.493  0.6455  0.1230  0.6160
 8887SOL    HW138297   3.804   2.095  12.520 -0.3710  0.5909  2.1825
 8887SOL    HW238298   3.750   2.223  12.563 -1.2546  0.2482 -0.9069
 8888SOL     OW38299   2.640   0.836  14.294 -0.1840 -0.2326  0.4779
 8888SOL    HW138300   2.671   0.772  14.230  0.3040 -0.2212  0.7036
 8888SOL    HW238301   2.573   0.786  14.340  0.3575 -0.9098  0.5325
 8889SOL     OW38302   1.990   3.301   5.180 -0.1790 -0.7879 -0.1399
 8889SOL    HW138303   1.952   3.306   5.093 -0.1606 -0.5811 -0.1358
 8889SOL    HW238304   2.084   3.319   5.175 -0.0128 -1.9573 -1.5757
 8890SOL     OW38305   1.811   4.148   5.052  0.4653 -0.7068  0.0597
 8890SOL    HW138306   1.875   4.207   5.091  0.8903 -1.7545  0.9475
 8890SOL    HW238307   1.796   4.192   4.968  0.3459 -0.3187  0.2852
 8891SOL     OW38308   3.839   1.509  10.929 -0.0406  0.6417 -0.1130
 8891SOL    HW138309   3.768   1.572  10.943 -0.3308  0.0729  1.0364
 8891SOL    HW238310   3.835   1.449  11.005 -0.3166 -1.6250 -1.9106
 8892SOL     OW38311   1.943   0.828   5.010  0.1634 -0.6150  0.5142
 8892SOL    HW138312   1.927   0.922   5.017  2.2721 -0.4302  2.6107
 8892SOL    HW238313   1.886   0.796   5.080  1.2504 -0.1082  1.6071
 8893SOL     OW38314   4.725   1.705  14.779  0.0694 -0.7534  0.3087
 8893SOL    HW138315   4.675   1.711  14.698 -1.3650 -0.4796  1.2047
 8893SOL    HW238316   4.664   1.656  14.834 -0.6880  1.2640  1.2697
 8894SOL     OW38317   3.446   1.011   2.671  0.4568 -0.3792  0.4438
 8894SOL    HW138318   3.462   0.917   2.662 -0.6346 -0.2180 -3.2363
 8894SOL    HW238319   3.354   1.017   2.645  0.5839 -0.7364 -0.0708
 8895SOL     OW38320   0.393   2.919   7.629  0.1084 -0.1462  0.2497
 8895SOL    HW138321   0.346   2.991   7.671  1.1252 -0.1204  1.3267
 8895SOL    HW238322   0.340   2.839   7.627 -3.2727  1.9930  2.6661
 8896SOL     OW38323   1.998   4.325   2.046 -0.2152 -0.0526  0.3216
 8896SOL    HW138324   1.914   4.362   2.072 -1.4988 -0.6312 -2.9968
 8896SOL    HW238325   2.036   4.333   2.133 -0.3873  0.5320  0.3472
 8897SOL     OW38326   4.396   2.154   2.486 -0.2998  0.2524 -0.6352
 8897SOL    HW138327   4.349   2.073   2.506  4.0073 -1.9262  0.7076
 8897SOL    HW238328   4.468   2.153   2.549  1.8645  2.6476 -3.0219
 8898SOL     OW38329   2.279   3.318   1.592  0.0371  0.0592 -0.5896
 8898SOL    HW138330   2.232   3.335   1.674  0.7264  0.2373 -0.2383
 8898SOL    HW238331   2.210   3.345   1.531  1.3794  1.7022 -1.3827
 8899SOL     OW38332   0.390   3.882  11.663  0.1511  0.7129 -0.2663
 8899SOL    HW138333   0.449   3.924  11.725  1.4587  0.2384 -1.1812
 8899SOL    HW238334   0.407   3.922  11.577  0.0246  0.2456 -0.5129
 8900SOL     OW38335   4.330   4.154   2.236 -0.2788  0.1430 -0.0479
 8900SOL    HW138336   4.341   4.244   2.204  3.8260 -0.2601  0.2723
 8900SOL    HW238337   4.250   4.172   2.285 -1.2331 -1.6241 -0.9620
 8901SOL     OW38338   2.416   2.641   7.912 -0.1499 -0.4709  0.8716
 8901SOL    HW138339   2.374   2.597   7.838  0.2220 -0.3079  0.5659
 8901SOL    HW238340   2.475   2.701   7.867  0.6243 -2.3908 -0.6926
 8902SOL     OW38341   0.669   1.435  15.500  0.6826  0.1340  0.1585
 8902SOL    HW138342   0.747   1.490  15.498  1.0382 -0.4451 -1.7055
 8902SOL    HW238343   0.711   1.354  15.528  2.2021  0.6596 -0.5974
 8903SOL     OW38344   0.968   2.429  12.147  0.5137  0.1209  0.2325
 8903SOL    HW138345   0.887   2.480  12.150  1.1938  1.2797 -0.7719
 8903SOL    HW238346   0.942   2.338  12.132  0.4451  0.2450 -0.4267
 8904SOL     OW38347   0.012   1.107   2.175 -0.0964  0.2197  0.7667
 8904SOL    HW138348   0.008   1.017   2.143 -3.0317  0.0854  1.5362
 8904SOL    HW238349   0.072   1.137   2.107 -0.6093 -0.1561  0.1456
 8905SOL     OW38350   3.826   0.872   4.913  0.3384 -0.1877 -0.6459
 8905SOL    HW138351   3.783   0.867   4.998  2.8294 -3.0439  0.4127
 8905SOL    HW238352   3.913   0.863   4.950 -0.5041 -1.2935  1.0402
 8906SOL     OW38353   0.283   1.439   2.421 -0.2408 -0.4937 -0.0930
 8906SOL    HW138354   0.225   1.363   2.433  0.6246 -0.8933  1.6100
 8906SOL    HW238355   0.258   1.457   2.331 -0.5121  1.5562  0.3851
 8907SOL     OW38356   2.801   1.611   4.267 -0.0799 -0.5217  0.4825
 8907SOL    HW138357   2.827   1.698   4.297  1.7133 -1.5271  1.8289
 8907SOL    HW238358   2.807   1.613   4.171 -0.1413  0.0169  0.4892
 8908SOL     OW38359   2.209   0.610   4.104  0.0902  0.0639 -0.6334
 8908SOL    HW138360   2.182   0.701   4.116 -0.8073  0.1057 -2.9142
 8908SOL    HW238361   2.243   0.612   4.014  0.6263  0.7381 -0.4164
 8909SOL     OW38362   2.318   3.257  17.496  0.0412 -0.4678 -0.0790
 8909SOL    HW138363   2.332   3.344  17.459 -0.8411 -0.0736  0.5294
 8909SOL    HW238364   2.401   3.213  17.478  0.0340  0.1697 -1.6495
 8910SOL     OW38365   4.241   3.452   9.701 -0.0900 -0.4421 -0.0106
 8910SOL    HW138366   4.330   3.443   9.735  0.4738 -0.2354 -1.4433
 8910SOL    HW238367   4.207   3.524   9.754  0.7336  1.2699 -1.7839
 8911SOL     OW38368   2.851   3.426  12.720 -0.7389  0.1735  0.2028
 8911SOL    HW138369   2.793   3.350  12.709  0.1861 -0.4059 -0.6615
 8911SOL    HW238370   2.814   3.467  12.798  0.0113  0.0491  0.6275
 8912SOL     OW38371   3.388   1.286  16.415  0.2054 -0.1492 -0.7921
 8912SOL    HW138372   3.369   1.227  16.342 -1.3919 -2.3758  1.4303
 8912SOL    HW238373   3.409   1.370  16.374  1.4383  0.3006  0.7513
 8913SOL     OW38374   3.118   1.880   6.129 -0.2918  0.5956 -0.7283
 8913SOL    HW138375   3.145   1.943   6.195 -0.9700  1.7142 -1.5219
 8913SOL    HW238376   3.050   1.827   6.171 -0.4891  0.9665 -0.5847
 8914SOL     OW38377   2.109   0.815   6.198  0.1039 -0.0196  0.4962
 8914SOL    HW138378   2.128   0.814   6.292  0.8294 -0.8183  0.3416
 8914SOL    HW238379   2.076   0.726   6.183  2.3550 -0.4726 -1.6876
 8915SOL     OW38380   1.029   3.201   4.372 -0.4641  0.5400 -0.0536
 8915SOL    HW138381   0.942   3.186   4.408 -1.5118  1.1152 -2.3487
 8915SOL    HW238382   1.027   3.137   4.301 -1.8917  0.0222  0.4593
 8916SOL     OW38383   1.747   4.153   2.767  0.0220 -0.8130 -0.7780
 8916SOL    HW138384   1.822   4.194   2.725 -1.2197  0.2693 -1.9262
 8916SOL    HW238385   1.685   4.219   2.737  0.3578  0.1061  0.5517
 8917SOL     OW38386   1.227   3.652   4.954 -0.2894 -0.2485  0.0737
 8917SOL    HW138387   1.225   3.716   5.025  1.5548 -1.1277  0.9208
 8917SOL    HW238388   1.186   3.572   4.988 -0.0009 -0.5127 -0.1979
 8918SOL     OW38389   1.332   3.238  10.715  0.1883  0.0941  0.2473
 8918SOL    HW138390   1.394   3.239  10.642 -0.0181 -0.0142  0.0710
 8918SOL    HW238391   1.368   3.309  10.768 -0.0182  0.4894 -0.1416
 8919SOL     OW38392   2.032   0.367   4.739  0.4184 -0.3168 -0.3174
 8919SOL    HW138393   2.051   0.339   4.649  0.1032  0.4635 -0.6222
 8919SOL    HW238394   1.960   0.307   4.760  0.4670 -0.3350 -0.2049
 8920SOL     OW38395   3.832   3.349   8.180  0.0290 -0.1207 -0.5678
 8920SOL    HW138396   3.925   3.371   8.186 -0.1461  0.2544  0.7158
 8920SOL    HW238397   3.834   3.282   8.112  4.8004 -1.7034  1.1062
 8921SOL     OW38398   3.332   1.187   3.577  0.2044  0.4271 -0.0101
 8921SOL    HW138399   3.348   1.108   3.525  0.1178  0.0311  0.5636
 8921SOL    HW238400   3.309   1.154   3.664 -2.1154 -0.0287 -0.7844
 8922SOL     OW38401   2.886   3.400  10.641  0.1152  0.0043 -0.3510
 8922SOL    HW138402   2.825   3.386  10.713 -0.9834  1.4162 -1.0131
 8922SOL    HW238403   2.932   3.476  10.675  2.9890 -2.2217  0.7951
 8923SOL     OW38404   0.703   4.561   8.581 -0.2306  0.1989  0.0598
 8923SOL    HW138405   0.663   4.524   8.660  2.5955  1.3638  2.0305
 8923SOL    HW238406   0.666   4.648   8.595 -1.0355 -0.4427  1.9447
 8924SOL     OW38407   2.095   1.523   5.728 -0.1230  0.1870  0.1059
 8924SOL    HW138408   2.147   1.602   5.715  0.9109 -0.5347 -0.2031
 8924SOL    HW238409   2.075   1.483   5.643  1.6640 -2.0347  0.7327
 8925SOL     OW38410   2.864   0.381  13.596 -0.1329 -0.8494  0.6576
 8925SOL    HW138411   2.817   0.384  13.680 -0.6719 -2.0913  0.3969
 8925SOL    HW238412   2.870   0.288  13.573  1.7264 -0.0397 -2.0835
 8926SOL     OW38413   2.150   2.889  14.515 -0.4782  0.0942  0.0849
 8926SOL    HW138414   2.100   2.966  14.489  1.4795  0.6734 -1.9928
 8926SOL    HW238415   2.225   2.930  14.558 -1.3106  0.4900  1.1607
 8927SOL     OW38416   3.709   1.870   7.556  0.0173 -0.4483 -0.0869
 8927SOL    HW138417   3.729   1.881   7.649  1.5361 -1.8536 -0.2388
 8927SOL    HW238418   3.794   1.865   7.513  0.3603  0.1790  0.5185
 8928SOL     OW38419   0.438   1.905   5.086  0.2578  0.4994 -0.6854
 8928SOL    HW138420   0.522   1.881   5.125 -0.5304  1.0405  1.3441
 8928SOL    HW238421   0.406   1.819   5.058 -1.8903  0.6452  1.3460
 8929SOL     OW38422   1.012   3.511   5.291  0.3025 -0.0164  0.4705
 8929SOL    HW138423   1.068   3.535   5.364 -0.0122  0.1805  0.6480
 8929SOL    HW238424   0.982   3.596   5.259 -0.6368  0.2068  1.9270
 8930SOL     OW38425   3.364   3.028  17.119 -0.0638 -0.4563  0.0919
 8930SOL    HW138426   3.456   3.017  17.145  0.1863 -1.6961 -1.3203
 8930SOL    HW238427   3.373   3.105  17.064  1.6572 -0.3584  0.5187
 8931SOL     OW38428   1.613   4.320   3.213 -0.0324  0.0306 -0.3051
 8931SOL    HW138429   1.658   4.321   3.297 -0.6165 -2.3530  0.0513
 8931SOL    HW238430   1.670   4.259   3.166 -2.3720 -3.1782  0.9655
 8932SOL     OW38431   3.146   2.345   4.551  0.9671 -0.0767 -0.5781
 8932SOL    HW138432   3.165   2.256   4.582  0.1161  0.1240  0.5116
 8932SOL    HW238433   3.210   2.355   4.480  2.0985 -4.1303 -0.1755
 8933SOL     OW38434   2.070   0.326  16.763 -0.0170 -0.1318 -0.6225
 8933SOL    HW138435   2.107   0.310  16.850 -0.9701  1.1666  0.0117
 8933SOL    HW238436   1.978   0.303  16.771 -0.0085 -0.2598 -0.8870
 8934SOL     OW38437   4.230   3.890   9.415 -0.5916 -0.2989  0.3461
 8934SOL    HW138438   4.156   3.949   9.402 -0.7472 -0.8146 -1.1056
 8934SOL    HW238439   4.291   3.932   9.476 -1.6559 -3.4409  3.5762
 8935SOL     OW38440   2.466   2.858  11.137 -0.1678  0.4921 -0.3003
 8935SOL    HW138441   2.476   2.952  11.150  0.0220  0.7473 -2.3011
 8935SOL    HW238442   2.374   2.856  11.163 -0.4939  4.8783 -1.2571
 8936SOL     OW38443   4.011   2.716   6.806 -0.7740  0.0212  0.0024
 8936SOL    HW138444   4.036   2.625   6.817 -2.0104 -0.5221 -1.7041
 8936SOL    HW238445   4.083   2.753   6.754 -0.4994  1.2344  1.2243
 8937SOL     OW38446   3.549   3.796  13.767  0.6850 -0.8534  0.2065
 8937SOL    HW138447   3.619   3.833  13.821  1.1574  0.4685 -1.3083
 8937SOL    HW238448   3.603   3.774  13.692  0.5997 -0.4978  0.0419
 8938SOL     OW38449   0.643   2.598   0.784  0.0301 -0.4703  0.1930
 8938SOL    HW138450   0.712   2.611   0.719  0.6183  2.9937  1.5375
 8938SOL    HW238451   0.611   2.509   0.768  0.0175 -0.6438  1.1655
 8939SOL     OW38452   3.115   1.068   2.890 -0.3230  0.0944 -0.3937
 8939SOL    HW138453   3.043   1.006   2.893 -1.3826  1.3136 -0.8481
 8939SOL    HW238454   3.126   1.083   2.796  1.9285  1.0492  0.0052
 8940SOL     OW38455   2.693   3.850   1.955  0.0339  0.0693  0.4818
 8940SOL    HW138456   2.681   3.757   1.937  2.3832 -0.4468  1.6163
 8940SOL    HW238457   2.762   3.844   2.021  0.7441  3.0143  0.0215
 8941SOL     OW38458   4.376   2.360  13.035 -0.6482 -0.2361  0.0691
 8941SOL    HW138459   4.442   2.421  13.002 -0.3350  1.1463  3.2109
 8941SOL    HW238460   4.390   2.289  12.973  0.9024 -0.5812  0.8086
 8942SOL     OW38461   3.930   2.686   2.898 -0.5185 -0.5463 -0.4797
 8942SOL    HW138462   3.892   2.673   2.811 -0.5106  0.4020 -0.6262
 8942SOL    HW238463   4.023   2.701   2.882 -0.6158  0.4046 -0.1420
 8943SOL     OW38464   1.508   1.685  13.650  0.1742 -0.5025 -0.1083
 8943SOL    HW138465   1.435   1.732  13.690  0.6614  1.0286 -1.0645
 8943SOL    HW238466   1.533   1.626  13.721  0.1387 -1.1136 -0.6052
 8944SOL     OW38467   4.470   3.716   9.500  0.1275 -0.7324 -0.1632
 8944SOL    HW138468   4.415   3.712   9.578  1.1303 -0.2942  0.5660
 8944SOL    HW238469   4.561   3.711   9.529  0.2274 -0.9787 -0.5181
 8945SOL     OW38470   2.415   1.312   7.998 -0.4847 -0.3445 -0.4299
 8945SOL    HW138471   2.332   1.341   7.960 -0.8062  0.1437  0.6384
 8945SOL    HW238472   2.387   1.300   8.089 -2.2732 -0.8421 -1.0535
 8946SOL     OW38473   0.357   4.586   2.523 -0.4952  0.2289 -0.0239
 8946SOL    HW138474   0.355   4.517   2.456 -0.7787  0.0935  0.1204
 8946SOL    HW238475   0.329   4.533   2.597  2.2970  1.8087  2.1364
 8947SOL     OW38476   1.238   2.976  12.051  0.0437 -0.5281  0.1300
 8947SOL    HW138477   1.198   2.985  11.965  0.1717 -1.4248 -0.0188
 8947SOL    HW238478   1.295   3.053  12.054  0.1525 -0.5428 -1.8406
 8948SOL     OW38479   1.157   1.524   4.618  0.0777 -0.0917  0.1309
 8948SOL    HW138480   1.093   1.563   4.559  0.2544 -1.0205 -0.6962
 8948SOL    HW238481   1.146   1.583   4.692 -0.2980 -1.1566  0.9314
 8949SOL     OW38482   0.782   0.850   8.472 -0.3002  0.3763  0.2183
 8949SOL    HW138483   0.840   0.918   8.508 -1.4951  1.2363  0.4942
 8949SOL    HW238484   0.849   0.786   8.447  0.6847  1.2699  0.5133
 8950SOL     OW38485   1.209   1.441   8.950  0.6184  0.5044  0.1429
 8950SOL    HW138486   1.137   1.384   8.979  1.9405 -2.4904 -2.4675
 8950SOL    HW238487   1.229   1.395   8.869 -0.3664  0.0246  0.1706
 8951SOL     OW38488   2.072   1.351   1.776 -0.5093 -0.0012 -0.0744
 8951SOL    HW138489   2.042   1.331   1.687 -0.0180 -0.3839 -0.1497
 8951SOL    HW238490   2.093   1.268   1.818 -0.8480  0.0466  0.1891
 8952SOL     OW38491   0.293   2.170  13.418 -0.1421  0.0841  0.2635
 8952SOL    HW138492   0.224   2.132  13.363 -0.2787 -0.0642  0.5391
 8952SOL    HW238493   0.281   2.264  13.406 -1.8746 -0.4392 -2.1307
 8953SOL     OW38494   2.199   2.459   3.890 -0.3942 -0.0224 -0.2021
 8953SOL    HW138495   2.238   2.405   3.821  0.7511  1.7582 -0.9418
 8953SOL    HW238496   2.151   2.529   3.845  0.0902 -0.2395 -1.0630
 8954SOL     OW38497   3.176   4.381   8.221 -0.2530 -0.0065  0.3508
 8954SOL    HW138498   3.164   4.433   8.301 -1.6105 -0.7587  0.6296
 8954SOL    HW238499   3.123   4.426   8.155 -1.2438  0.9778  1.8059
 8955SOL     OW38500   3.465   3.892   2.760  0.1984  0.4404 -0.3774
 8955SOL    HW138501   3.468   3.934   2.674 -0.8582  0.6847 -0.2911
 8955SOL    HW238502   3.468   3.799   2.736 -1.4883  0.3375 -0.1312
 8956SOL     OW38503   1.406   1.753  15.510 -0.2375  0.1442  0.0376
 8956SOL    HW138504   1.461   1.676  15.518  1.4168  1.2529 -0.5369
 8956SOL    HW238505   1.450   1.812  15.449  1.2868  1.3495  2.3061
 8957SOL     OW38506   0.283   3.045   4.716 -0.1266  0.1469  0.4498
 8957SOL    HW138507   0.274   3.075   4.626  0.8274 -2.7912 -0.6342
 8957SOL    HW238508   0.366   3.081   4.748  0.0206  1.5019 -1.5125
 8958SOL     OW38509   4.039   4.482  12.839  0.5859  0.4887  0.7779
 8958SOL    HW138510   4.003   4.434  12.914 -0.8856 -1.1918 -1.0077
 8958SOL    HW238511   3.979   4.556  12.825  0.1975  0.5335  2.7070
 8959SOL     OW38512   0.089   2.619   9.272  0.0125  0.2494 -0.0909
 8959SOL    HW138513   0.004   2.620   9.229 -0.3315  0.3352  0.5910
 8959SOL    HW238514   0.096   2.527   9.297 -1.4120  0.1465 -0.0611
 8960SOL     OW38515   1.619   4.210  11.192 -0.3396 -0.0777  0.0237
 8960SOL    HW138516   1.649   4.138  11.248  1.1062  0.2457 -0.3150
 8960SOL    HW238517   1.525   4.212  11.211 -0.4393  0.4793 -0.5263
 8961SOL     OW38518   3.416   3.816   4.529 -0.5232  0.2066  0.3526
 8961SOL    HW138519   3.505   3.829   4.563 -0.6544  2.3362 -0.1177
 8961SOL    HW238520   3.366   3.804   4.609  2.2731  4.1976  2.6843
 8962SOL     OW38521   3.091   1.560   1.865  0.4269 -0.5286 -0.4872
 8962SOL    HW138522   3.177   1.603   1.857  0.8980 -1.5268 -0.7051
 8962SOL    HW238523   3.090   1.520   1.778 -3.3631  0.1600 -0.7660
 8963SOL     OW38524   2.957   2.019  10.293 -0.1663 -0.3759  0.2722
 8963SOL    HW138525   2.936   2.011  10.200  0.2528 -0.9766  0.2293
 8963SOL    HW238526   3.003   1.939  10.319 -1.3755 -0.5810  1.7513
 8964SOL     OW38527   2.006   1.317   0.736 -0.1716 -0.3305  0.0277
 8964SOL    HW138528   1.946   1.241   0.740 -0.5150 -0.0493  0.2258
 8964SOL    HW238529   1.966   1.357   0.659 -1.4591 -0.7808  0.4531
 8965SOL     OW38530   0.769   4.552   4.321 -0.5843 -0.3764  0.3083
 8965SOL    HW138531   0.797   4.466   4.290 -1.1257 -1.4226  2.6451
 8965SOL    HW238532   0.722   4.587   4.245  3.4252 -0.0190 -1.9589
 8966SOL     OW38533   0.397   3.800  16.190 -0.0788 -0.3636 -0.1674
 8966SOL    HW138534   0.381   3.892  16.211  0.6478 -0.0005 -1.2188
 8966SOL    HW238535   0.466   3.810  16.124  0.7898 -1.1824  0.6213
 8967SOL     OW38536   2.394   1.704   5.980  0.2288 -0.4122  0.1264
 8967SOL    HW138537   2.360   1.740   6.062  1.6631  2.2293 -0.4530
 8967SOL    HW238538   2.315   1.661   5.946  1.0805 -0.8005 -1.3987
 8968SOL     OW38539   3.716   1.370   6.848 -0.3563 -0.6446 -0.0188
 8968SOL    HW138540   3.779   1.403   6.785 -0.1131  0.3593  0.7611
 8968SOL    HW238541   3.646   1.433   6.833 -1.1214 -1.5544 -0.2934
 8969SOL     OW38542   1.495   4.502   0.532 -0.1887 -0.0975  0.3730
 8969SOL    HW138543   1.424   4.502   0.597  0.8021  2.8787  1.4765
 8969SOL    HW238544   1.474   4.424   0.481  0.6750 -0.5084  0.6445
 8970SOL     OW38545   4.349   3.841   6.483  0.4326 -0.4543 -0.1022
 8970SOL    HW138546   4.426   3.843   6.426  0.7827  2.3224  0.4677
 8970SOL    HW238547   4.355   3.922   6.533  1.1076  1.2191 -2.9531
 8971SOL     OW38548   2.191   3.146   5.637 -0.0945 -0.1361 -0.1424
 8971SOL    HW138549   2.153   3.067   5.675 -0.6260  0.0069 -0.3767
 8971SOL    HW238550   2.178   3.138   5.542 -1.1556 -0.8860  0.0737
 8972SOL     OW38551   2.490   1.453   5.731  0.0468  0.6580 -0.1066
 8972SOL    HW138552   2.567   1.406   5.700  0.4210 -0.1638  2.0418
 8972SOL    HW238553   2.494   1.523   5.666 -2.7954 -0.9823 -2.0329
 8973SOL     OW38554   2.797   4.449   0.366  0.2011 -0.4146  0.2103
 8973SOL    HW138555   2.856   4.457   0.441 -0.9375 -2.1763  1.3166
 8973SOL    HW238556   2.821   4.364   0.328  0.2104 -0.2825 -0.0841
 8974SOL     OW38557   1.976   0.062   6.732 -0.5474  0.2708 -0.4517
 8974SOL    HW138558   1.989   0.011   6.812 -1.8217  1.5614  0.5835
 8974SOL    HW238559   2.042   0.131   6.732  0.1713 -0.4199 -0.9011
 8975SOL     OW38560   2.072   0.728   6.689 -0.6940  0.3878  0.0103
 8975SOL    HW138561   2.036   0.649   6.648 -0.5806  0.0483  0.5581
 8975SOL    HW238562   2.014   0.742   6.763  0.2541 -1.5606  1.1286
 8976SOL     OW38563   3.457   0.809  17.105  0.0424 -0.1877 -0.3631
 8976SOL    HW138564   3.523   0.806  17.036  0.4927 -2.5720  0.1979
 8976SOL    HW238565   3.392   0.872  17.072  0.5341  0.0888 -0.8065
 8977SOL     OW38566   4.194   2.994   3.806  0.4341 -0.1942 -0.3093
 8977SOL    HW138567   4.277   3.024   3.771  0.0715 -2.2453 -2.9398
 8977SOL    HW238568   4.157   2.972   3.721 -1.5164  0.2743  0.4109
 8978SOL     OW38569   2.874   1.510   3.111  0.1630 -0.5745  0.0098
 8978SOL    HW138570   2.936   1.461   3.165  2.2508 -0.1395 -2.0120
 8978SOL    HW238571   2.854   1.574   3.179  2.4284  0.0794  0.0579
 8979SOL     OW38572   3.116   1.640   1.470 -0.1070 -0.2457 -0.0968
 8979SOL    HW138573   3.166   1.626   1.390  0.4420 -0.3016  0.2581
 8979SOL    HW238574   3.136   1.558   1.515  1.0806  0.5970  0.9362
 8980SOL     OW38575   0.990   4.531   2.558  0.7326  0.6647 -0.3519
 8980SOL    HW138576   1.039   4.449   2.548 -0.2089  0.0780 -0.1418
 8980SOL    HW238577   1.011   4.557   2.647 -0.4737  0.2697  0.0506
 8981SOL     OW38578   3.633   1.442   9.180  0.3075 -0.3244 -0.0259
 8981SOL    HW138579   3.689   1.376   9.140  0.8654  1.7414 -2.6623
 8981SOL    HW238580   3.550   1.396   9.189 -1.6076  3.3833  1.4975
 8982SOL     OW38581   4.536   1.409   5.419 -0.3174 -0.1167 -0.4755
 8982SOL    HW138582   4.591   1.414   5.497 -1.6895  2.7026  0.3175
 8982SOL    HW238583   4.534   1.502   5.397 -0.3137 -0.6529 -2.7112
 8983SOL     OW38584   2.959   2.889   1.774  0.5927 -0.1604  0.0023
 8983SOL    HW138585   2.933   2.812   1.723 -0.2866 -0.3005  0.6817
 8983SOL    HW238586   3.030   2.863   1.833  0.8241 -1.6541 -0.9074
 8984SOL     OW38587   2.293   0.189   9.624 -0.1020 -0.3927  0.4258
 8984SOL    HW138588   2.246   0.260   9.669  1.2485  0.5629  0.3087
 8984SOL    HW238589   2.381   0.214   9.652 -0.5705  1.6005  0.1282
 8985SOL     OW38590   0.691   3.820   9.429 -0.0646  0.0216  0.1474
 8985SOL    HW138591   0.695   3.909   9.464 -1.5146 -0.2208  0.9768
 8985SOL    HW238592   0.625   3.832   9.360  0.0011  1.0991  0.2730
 8986SOL     OW38593   4.317   3.897  13.593 -0.0462  0.6169 -0.0481
 8986SOL    HW138594   4.326   3.939  13.508 -1.3615  1.2329  0.1185
 8986SOL    HW238595   4.266   3.961  13.643 -0.2089 -0.4492  1.1665
 8987SOL     OW38596   1.960   1.496   6.730 -0.0018 -0.3163  0.0579
 8987SOL    HW138597   1.977   1.419   6.784  0.6359  0.2696  0.6810
 8987SOL    HW238598   1.953   1.443   6.650  1.2533 -0.7765  0.2593
 8988SOL     OW38599   3.514   1.339   3.689  0.1630 -0.4394 -0.5348
 8988SOL    HW138600   3.499   1.359   3.782  1.5098 -0.9754 -0.2050
 8988SOL    HW238601   3.433   1.300   3.656  0.9521 -0.5682 -2.2924
 8989SOL     OW38602   4.449   3.774  11.511  0.4350 -0.6310  0.1435
 8989SOL    HW138603   4.508   3.772  11.586 -0.2834 -0.1854  0.7210
 8989SOL    HW238604   4.472   3.696  11.461 -1.8461 -1.3136  0.1579
 8990SOL     OW38605   2.233   0.119   1.876 -0.1224  0.4471 -0.0682
 8990SOL    HW138606   2.251   0.094   1.786 -2.5224  2.3686 -1.0963
 8990SOL    HW238607   2.189   0.041   1.910  0.9316 -0.3852 -0.6284
 8991SOL     OW38608   3.414   4.337  17.337 -0.4694  0.0178  0.7771
 8991SOL    HW138609   3.340   4.303  17.287  0.0740  0.8695 -0.6020
 8991SOL    HW238610   3.377   4.406  17.392 -3.4717  1.0942 -2.6287
 8992SOL     OW38611   2.934   4.500   4.863  0.6865 -0.1848 -0.1229
 8992SOL    HW138612   2.871   4.430   4.851  1.0464 -0.4569 -0.4112
 8992SOL    HW238613   3.021   4.459   4.867 -0.1724 -2.3275 -3.4492
 8993SOL     OW38614   0.304   2.939  12.364 -0.4550 -0.0632 -0.2624
 8993SOL    HW138615   0.281   2.993  12.439  1.0876 -0.0481  0.1957
 8993SOL    HW238616   0.230   2.970  12.312 -1.5281  0.3187  1.4833
 8994SOL     OW38617   0.925   4.703   6.538 -1.1127  0.4368 -0.7318
 8994SOL    HW138618   0.939   4.635   6.604  1.4373  2.9551  1.3609
 8994SOL    HW238619   0.994   4.686   6.474  0.0593  0.0662  0.6114
 8995SOL     OW38620   1.662   0.976   6.029 -0.3411  0.0519  0.2717
 8995SOL    HW138621   1.645   0.966   5.935 -1.7005  0.9566  0.4189
 8995SOL    HW238622   1.577   0.969   6.074 -0.3874 -0.3593  0.1232
 8996SOL     OW38623   0.148   3.468   6.179  0.6850  0.1246  0.7178
 8996SOL    HW138624   0.165   3.442   6.269 -2.6458 -2.9751  0.4799
 8996SOL    HW238625   0.166   3.387   6.132 -3.7319  0.6298 -1.9129
 8997SOL     OW38626   2.588   1.705   7.909 -0.1063  0.3002 -0.0696
 8997SOL    HW138627   2.669   1.679   7.866 -0.7474 -0.1064 -1.0370
 8997SOL    HW238628   2.611   1.795   7.931  0.0466  0.3349 -0.3754
 8998SOL     OW38629   4.676   2.014   2.928 -0.4397  0.2517 -0.0392
 8998SOL    HW138630   0.031   2.042   2.901 -1.1731  1.1224 -1.5381
 8998SOL    HW238631   4.693   1.964   3.007 -0.2511 -0.4491 -0.5223
 8999SOL     OW38632   2.271   0.917  17.350  0.1520  0.5631 -0.2294
 8999SOL    HW138633   2.259   0.853  17.420 -0.8307  0.9072 -0.0792
 8999SOL    HW238634   2.188   0.905  17.303  0.2610  0.0170 -0.2832
 9000SOL     OW38635   3.085   3.580   9.812 -0.2390  0.1382 -0.0809
 9000SOL    HW138636   3.082   3.568   9.717  0.3123  0.2451 -0.1115
 9000SOL    HW238637   3.026   3.655   9.819  0.4828  0.5969  1.0726
 9001SOL     OW38638   3.387   1.924  14.215  0.0816 -0.0391 -0.0329
 9001SOL    HW138639   3.363   1.857  14.153 -3.1422  0.5036  0.6476
 9001SOL    HW238640   3.480   1.905  14.227 -0.1721 -1.4924 -0.4732
 9002SOL     OW38641   1.051   0.212  12.307  0.3760 -0.0265 -0.0568
 9002SOL    HW138642   1.067   0.263  12.228  1.4379  1.0210  0.8396
 9002SOL    HW238643   1.116   0.143  12.294 -0.6722 -1.1922  0.8130
 9003SOL     OW38644   3.265   1.923   2.487  0.1842 -0.2921  0.1252
 9003SOL    HW138645   3.243   1.869   2.563  1.7264 -0.1812  0.6459
 9003SOL    HW238646   3.178   1.949   2.456 -0.5494 -0.2590  2.2013
 9004SOL     OW38647   4.323   3.708  12.961  0.0284  0.2762 -0.4246
 9004SOL    HW138648   4.241   3.757  12.971  0.0185  0.0253  0.6764
 9004SOL    HW238649   4.390   3.763  13.002 -1.1923  0.7602  0.9377
 9005SOL     OW38650   4.718   1.124  12.917  0.2445  0.0356  0.1930
 9005SOL    HW138651   4.687   1.044  12.873  1.3828 -1.3042  1.8528
 9005SOL    HW238652   0.067   1.128  12.869  0.3662 -0.1122  0.3909
 9006SOL     OW38653   3.455   1.240  12.422  0.2532  0.2894  0.2571
 9006SOL    HW138654   3.410   1.245  12.506  1.4980 -1.0847  0.9973
 9006SOL    HW238655   3.443   1.152  12.387  1.3514  0.9680 -1.8967
 9007SOL     OW38656   4.472   0.384  17.086 -0.2230  0.3250  0.0339
 9007SOL    HW138657   4.452   0.391  17.179 -0.1236  2.3305 -0.0987
 9007SOL    HW238658   4.474   0.288  17.085  1.3525  0.3279  2.6511
 9008SOL     OW38659   2.929   2.574   5.355  0.1152  0.5219 -0.0211
 9008SOL    HW138660   2.859   2.568   5.290 -0.6817  0.7192  0.8142
 9008SOL    HW238661   2.882   2.610   5.430  2.7282  0.3779  1.6934
 9009SOL     OW38662   3.559   0.111  12.634  0.2527 -0.0897 -0.9042
 9009SOL    HW138663   3.519   0.177  12.690  0.2597 -0.2632 -0.6909
 9009SOL    HW238664   3.645   0.151  12.625  0.7615 -0.9410  0.0805
 9010SOL     OW38665   2.642   4.175   5.808 -0.7905  0.2422  0.3318
 9010SOL    HW138666   2.674   4.266   5.810  0.1853 -0.0825 -0.0845
 9010SOL    HW238667   2.698   4.145   5.736 -0.0570  0.5713  0.7560
 9011SOL     OW38668   1.008   4.141   6.395  0.0914 -0.2309  0.0693
 9011SOL    HW138669   0.916   4.130   6.372 -0.0323 -0.9631  0.9040
 9011SOL    HW238670   1.020   4.074   6.463 -0.1229 -0.7023 -0.3627
 9012SOL     OW38671   0.346   0.602   5.437 -0.0459  0.2179 -0.0634
 9012SOL    HW138672   0.338   0.506   5.441  0.7213  0.1253 -0.9230
 9012SOL    HW238673   0.430   0.620   5.395  1.1036 -1.8645  1.3063
 9013SOL     OW38674   4.243   3.509   8.503  0.4209  0.0836 -0.4423
 9013SOL    HW138675   4.194   3.527   8.583  0.0362 -1.2979 -0.3592
 9013SOL    HW238676   4.201   3.434   8.460  0.2518  0.3964 -0.8183
 9014SOL     OW38677   0.532   0.547   7.721 -0.3561  0.1414  0.1226
 9014SOL    HW138678   0.456   0.605   7.722 -0.1435  0.4447 -1.4168
 9014SOL    HW238679   0.542   0.550   7.626 -0.4982  0.3111  0.1134
 9015SOL     OW38680   1.027   1.677   4.801  0.5701 -0.0467  0.5748
 9015SOL    HW138681   1.042   1.697   4.894  0.9394  2.2804  0.0144
 9015SOL    HW238682   0.990   1.759   4.767  1.2977  0.6657  1.4972
 9016SOL     OW38683   4.401   1.278   3.476 -0.2689  0.0417  0.1727
 9016SOL    HW138684   4.479   1.257   3.425 -1.7155 -0.8552 -1.6677
 9016SOL    HW238685   4.384   1.200   3.529 -1.4450  0.4806  0.4493
 9017SOL     OW38686   2.442   2.131   7.513 -0.0906 -0.8452 -0.2635
 9017SOL    HW138687   2.527   2.093   7.490  0.8456  1.2352 -0.1781
 9017SOL    HW238688   2.384   2.073   7.463 -0.1191 -0.2502 -0.9034
 9018SOL     OW38689   2.483   4.127   6.419 -0.6376 -0.4173 -0.0180
 9018SOL    HW138690   2.570   4.155   6.446 -0.6422  0.0431 -0.4887
 9018SOL    HW238691   2.447   4.200   6.369 -1.0086 -1.2020 -0.8832
 9019SOL     OW38692   3.202   2.829   5.572  0.3753  0.0374 -0.1218
 9019SOL    HW138693   3.177   2.858   5.660 -0.9333  1.7729 -1.0672
 9019SOL    HW238694   3.286   2.876   5.563 -0.6666  1.6671 -1.2700
 9020SOL     OW38695   3.819   2.775   5.973  0.3894 -0.0213 -0.4740
 9020SOL    HW138696   3.805   2.867   5.996 -2.3871 -0.2651 -1.1218
 9020SOL    HW238697   3.819   2.783   5.878  2.3270 -0.7439 -0.5316
 9021SOL     OW38698   1.093   3.893   7.425  0.1932  0.3743  0.5107
 9021SOL    HW138699   1.129   3.805   7.420 -2.6186 -0.7809  0.6576
 9021SOL    HW238700   1.107   3.902   7.519 -4.1802  1.9218  1.0099
 9022SOL     OW38701   2.520   2.173   4.863  0.4245 -0.3280 -0.1579
 9022SOL    HW138702   2.521   2.091   4.913  0.5390 -1.9415 -2.7844
 9022SOL    HW238703   2.433   2.167   4.822  0.1003  2.2327  0.2045
 9023SOL     OW38704   4.483   0.849  16.589  0.5221 -0.5033  0.7676
 9023SOL    HW138705   4.437   0.781  16.638 -1.0032  0.4309  0.6450
 9023SOL    HW238706   4.474   0.828  16.496 -2.1886  0.9700  0.6713
 9024SOL     OW38707   0.591   0.804   7.084  0.3080 -0.3625 -0.8527
 9024SOL    HW138708   0.599   0.711   7.105  1.4440 -0.0764 -0.0051
 9024SOL    HW238709   0.510   0.821   7.132  0.1303 -1.9113 -0.5878
 9025SOL     OW38710   1.982   3.478   2.401  0.4077  0.0577  0.4549
 9025SOL    HW138711   2.068   3.519   2.402  1.2095 -1.6103  0.3278
 9025SOL    HW238712   1.980   3.453   2.494  0.2206 -1.8255 -0.0628
 9026SOL     OW38713   1.546   1.736  15.090 -0.4494  0.3328  0.3978
 9026SOL    HW138714   1.624   1.767  15.137 -0.0392 -1.1075  0.6678
 9026SOL    HW238715   1.567   1.643  15.082 -0.3280  0.4580 -0.7881
 9027SOL     OW38716   2.888   0.938   2.800 -0.4058  0.3211 -0.2352
 9027SOL    HW138717   2.885   0.912   2.708  2.3123 -0.9968  0.0276
 9027SOL    HW238718   2.812   0.995   2.799 -0.6866 -0.0537 -0.5501
 9028SOL     OW38719   0.468   4.560   7.094  0.1241  0.2106  0.2935
 9028SOL    HW138720   0.514   4.476   7.084  0.2512  0.1073  1.7864
 9028SOL    HW238721   0.528   4.618   7.048  0.1110 -1.2881 -1.6564
 9029SOL     OW38722   4.632   2.586   7.413 -0.0719  0.0627 -0.1838
 9029SOL    HW138723   4.678   2.517   7.366 -1.4175 -0.8673 -0.1538
 9029SOL    HW238724   4.619   2.540   7.497 -2.6947 -1.0670 -1.1950
 9030SOL     OW38725   0.671   0.504  14.836 -0.0034  0.1979 -0.3575
 9030SOL    HW138726   0.610   0.537  14.770 -0.8807 -1.2267 -0.2524
 9030SOL    HW238727   0.752   0.478  14.792 -0.1255  0.5854 -0.8199
 9031SOL     OW38728   3.142   0.891   3.963  0.2481  0.0221 -0.2455
 9031SOL    HW138729   3.049   0.873   3.950 -0.1483  1.6439  0.3960
 9031SOL    HW238730   3.169   0.818   4.019 -1.2319 -0.5363 -0.2526
 9032SOL     OW38731   3.378   4.402   6.116  0.1160 -0.4083  0.3871
 9032SOL    HW138732   3.398   4.471   6.179  0.9507 -1.6462  1.4631
 9032SOL    HW238733   3.463   4.397   6.072 -0.8989 -2.9111 -1.2939
 9033SOL     OW38734   1.751   3.965  11.231  0.0962 -0.1561  0.3208
 9033SOL    HW138735   1.804   3.917  11.294 -0.4425 -0.1166  0.8040
 9033SOL    HW238736   1.809   3.966  11.154 -0.0581 -0.6606  0.1981
 9034SOL     OW38737   0.604   0.139   0.853  0.1652 -0.1284  0.6126
 9034SOL    HW138738   0.574   0.217   0.900  0.6076  1.3388 -1.5500
 9034SOL    HW238739   0.576   0.068   0.911 -0.8010  0.0243  0.3303
 9035SOL     OW38740   3.366   0.945  10.944 -0.4938 -0.1631  0.6804
 9035SOL    HW138741   3.441   0.919  10.997 -0.1585 -1.4604 -0.4310
 9035SOL    HW238742   3.294   0.945  11.007 -1.5532  0.2080 -0.5386
 9036SOL     OW38743   1.213   4.023  12.074  0.1821 -0.0333 -0.7804
 9036SOL    HW138744   1.169   4.101  12.108  0.1628 -0.3976  0.0211
 9036SOL    HW238745   1.279   4.011  12.143  0.8281 -0.0030 -1.3886
 9037SOL     OW38746   4.650   2.708  12.550 -0.1091 -0.2498 -0.2103
 9037SOL    HW138747   4.576   2.764  12.525  1.2753  1.5150 -0.2838
 9037SOL    HW238748   4.706   2.769  12.597 -0.7677  1.2605 -1.3914
 9038SOL     OW38749   4.349   1.336   2.098 -0.7629 -0.4750 -0.0850
 9038SOL    HW138750   4.310   1.327   2.185  1.2678  2.8221  1.1902
 9038SOL    HW238751   4.389   1.249   2.089  1.1699  0.3852  0.1024
 9039SOL     OW38752   2.805   1.094  16.740  0.0095 -0.1172  0.4920
 9039SOL    HW138753   2.759   1.056  16.815 -0.1475  0.0255  0.4662
 9039SOL    HW238754   2.805   1.032  16.667  5.2536  0.0175  0.3817
 9040SOL     OW38755   1.804   3.601   3.817 -0.8499 -0.3071 -0.8196
 9040SOL    HW138756   1.778   3.667   3.881 -1.3595  0.3957 -1.7530
 9040SOL    HW238757   1.863   3.538   3.859 -0.3784  1.4644  1.1586
 9041SOL     OW38758   4.394   2.534   2.960 -0.3953 -0.6508 -0.1313
 9041SOL    HW138759   4.314   2.556   2.913  0.1115  0.0837 -0.6373
 9041SOL    HW238760   4.427   2.454   2.919 -0.0537 -0.3853 -0.3726
 9042SOL     OW38761   1.922   4.290   6.830 -0.1779  0.3496 -0.4579
 9042SOL    HW138762   1.903   4.278   6.922  0.9666 -0.9216 -0.3867
 9042SOL    HW238763   1.982   4.365   6.837  0.3654 -0.0786 -0.4953
 9043SOL     OW38764   3.558   4.151   9.169 -0.4320  0.5015 -0.0505
 9043SOL    HW138765   3.613   4.113   9.238 -0.8013  1.4591  0.7816
 9043SOL    HW238766   3.618   4.210   9.123 -1.0202  2.9796  2.3123
 9044SOL     OW38767   1.858   3.388  17.432  0.3472 -0.4050  0.3890
 9044SOL    HW138768   1.907   3.308  17.450  0.2922 -0.2098  1.4026
 9044SOL    HW238769   1.904   3.420  17.354 -1.4933  0.0306 -0.5116
 9045SOL     OW38770   2.169   3.132   1.980 -0.2826 -1.0583  0.1743
 9045SOL    HW138771   2.075   3.120   1.992 -0.4753  0.1037 -0.2440
 9045SOL    HW238772   2.198   3.053   2.026  0.6964  1.1126  3.2769
 9046SOL     OW38773   1.585   2.335   7.270  0.3602 -0.0818  0.0170
 9046SOL    HW138774   1.598   2.287   7.189 -1.3680  0.2559 -0.4668
 9046SOL    HW238775   1.662   2.392   7.271  0.2229  0.1259 -0.9258
 9047SOL     OW38776   1.713   4.609  14.060 -0.2307  0.4678  0.0333
 9047SOL    HW138777   1.721   4.514  14.052 -2.2660  0.4845 -2.0947
 9047SOL    HW238778   1.626   4.621  14.023 -0.0063  1.7075 -0.0923
 9048SOL     OW38779   0.947   3.068  17.234 -0.2112  1.1664 -0.0402
 9048SOL    HW138780   1.027   3.038  17.190 -0.2903  0.5893  0.2094
 9048SOL    HW238781   0.984   3.139  17.288  0.7529  1.3840 -0.9873
 9049SOL     OW38782   2.256   4.718  16.218 -0.4951 -0.2852 -0.2349
 9049SOL    HW138783   2.327   4.654  16.220 -0.5175 -0.3210 -0.6759
 9049SOL    HW238784   2.219   4.720  16.306  0.8673  2.0071  0.2894
 9050SOL     OW38785   1.028   1.014   4.005 -0.2318  0.1578  0.4874
 9050SOL    HW138786   1.118   1.044   3.995 -1.0805  2.8124  0.8807
 9050SOL    HW238787   1.016   1.025   4.099 -0.7322 -0.7398  0.5286
 9051SOL     OW38788   2.216   1.103   0.014  0.0565  0.4307  0.5070
 9051SOL    HW138789   2.133   1.107  17.698 -0.2183 -0.6328  0.9046
 9051SOL    HW238790   2.284   1.114  17.679 -0.3262 -3.2130 -0.4971
 9052SOL     OW38791   3.063   2.952  10.949  0.0239 -0.5721 -0.4567
 9052SOL    HW138792   3.029   2.918  10.866 -0.6130 -1.2609  0.0928
 9052SOL    HW238793   3.122   2.883  10.979 -1.0573 -1.5280 -0.5605
 9053SOL     OW38794   1.355   0.161  11.522  0.4108  0.0244  0.2392
 9053SOL    HW138795   1.388   0.197  11.440  1.6715 -0.8175  0.3732
 9053SOL    HW238796   1.290   0.098  11.492  3.0581 -2.3228 -0.5755
 9054SOL     OW38797   2.116   4.679   4.421 -0.0144  0.2722  0.1905
 9054SOL    HW138798   2.099   4.597   4.374 -3.2267 -0.1198  2.0645
 9054SOL    HW238799   2.139   0.008   4.352 -2.9186 -1.0614 -1.9782
 9055SOL     OW38800   3.568   3.646   6.998 -0.4070  0.0726 -0.3727
 9055SOL    HW138801   3.483   3.638   6.955 -0.3407 -0.7244 -0.3573
 9055SOL    HW238802   3.616   3.680   6.922 -1.3629  1.0423 -0.5444
 9056SOL     OW38803   3.467   2.683  13.275  0.3968 -0.2535 -0.0553
 9056SOL    HW138804   3.412   2.607  13.255  1.6979 -1.0640 -0.5690
 9056SOL    HW238805   3.557   2.649  13.269  0.5521  0.2502 -0.5820
 9057SOL     OW38806   1.005   2.623   6.567  0.0922  0.1236  0.1059
 9057SOL    HW138807   1.100   2.624   6.553  0.3468  0.1224  1.7949
 9057SOL    HW238808   0.987   2.529   6.574  0.8925  0.0180  0.7991
 9058SOL     OW38809   2.222   0.102   8.026 -0.2147 -0.0465  0.3773
 9058SOL    HW138810   2.175   0.057   7.956  2.0624 -2.6870  0.5440
 9058SOL    HW238811   2.222   0.190   7.988 -1.6951 -0.3680 -0.4033
 9059SOL     OW38812   0.682   4.545   8.873 -0.1113 -0.1781 -0.4226
 9059SOL    HW138813   0.632   4.466   8.858 -0.4685 -0.2741  1.2469
 9059SOL    HW238814   0.619   4.589   8.930 -1.7321 -3.9348  0.6764
 9060SOL     OW38815   2.337   1.551   1.613  0.1308 -0.4438  0.2942
 9060SOL    HW138816   2.246   1.524   1.605  0.1566 -0.0476 -1.2477
 9060SOL    HW238817   2.327   1.623   1.675 -1.5446  0.5444 -1.1285
 9061SOL     OW38818   3.702   0.967  17.040 -0.4127 -0.0490 -0.5290
 9061SOL    HW138819   3.693   1.021  16.961 -1.3694  1.2391  0.4675
 9061SOL    HW238820   3.747   1.025  17.101  0.8397 -1.5257 -0.0469
 9062SOL     OW38821   4.105   1.487  14.132  0.1496 -1.0038  0.1353
 9062SOL    HW138822   4.031   1.530  14.175 -1.3127 -1.3126 -2.0908
 9062SOL    HW238823   4.098   1.397  14.163 -0.9975 -1.0180 -0.1834
 9063SOL     OW38824   2.655   2.658   2.308 -0.6357  0.0869  0.2216
 9063SOL    HW138825   2.735   2.710   2.316 -0.5430 -0.2977  1.7259
 9063SOL    HW238826   2.692   2.571   2.318  4.2809  2.2166  0.6764
 9064SOL     OW38827   4.354   0.188   7.487 -0.4183 -0.3698 -0.0743
 9064SOL    HW138828   4.333   0.095   7.497  0.2896 -0.4173  1.0005
 9064SOL    HW238829   4.441   0.175   7.451  0.7072  0.5006  2.3010
 9065SOL     OW38830   2.382   2.956  17.688  0.2477  0.1928 -0.2098
 9065SOL    HW138831   2.419   2.869  17.670  3.2201  1.2762  0.7294
 9065SOL    HW238832   2.358   2.951   0.049 -2.3419  1.0982 -0.8452
 9066SOL     OW38833   3.771   1.695   3.004 -0.1941  0.5113  0.0696
 9066SOL    HW138834   3.684   1.674   3.039 -0.8345  0.6224 -1.4525
 9066SOL    HW238835   3.755   1.712   2.912 -3.0888 -4.9726 -0.4224
 9067SOL     OW38836   2.226   0.521  11.596 -0.1441 -0.4039 -0.9123
 9067SOL    HW138837   2.276   0.566  11.528  1.4816  0.1145  0.6442
 9067SOL    HW238838   2.252   0.430  11.580 -0.7607 -1.0888  2.0195
 9068SOL     OW38839   1.830   3.683   4.566  0.2591  0.4253  0.2561
 9068SOL    HW138840   1.842   3.684   4.661 -0.5646 -0.1250  0.3729
 9068SOL    HW238841   1.885   3.756   4.540  0.5343  0.3233  0.5475
 9069SOL     OW38842   2.970   1.936   7.702 -0.1728 -0.4886  0.7172
 9069SOL    HW138843   2.885   1.912   7.664  0.2555 -0.5673 -0.1927
 9069SOL    HW238844   3.004   1.862   7.752  1.1932  0.2976  0.9624
 9070SOL     OW38845   3.451   3.433   3.190 -0.1618 -0.3143 -0.3394
 9070SOL    HW138846   3.525   3.411   3.133  0.4497 -1.6559  0.9786
 9070SOL    HW238847   3.495   3.467   3.268 -0.8551  0.7640 -0.4211
 9071SOL     OW38848   3.374   3.013   3.582  0.2089  0.0189  0.8241
 9071SOL    HW138849   3.422   3.092   3.557 -1.4349  1.0114  0.7724
 9071SOL    HW238850   3.283   3.019   3.553 -0.0396 -2.1532  1.1021
 9072SOL     OW38851   4.683   0.799   7.445 -0.1169  0.0400 -0.2624
 9072SOL    HW138852   4.604   0.766   7.487 -0.1106 -0.8493 -0.9595
 9072SOL    HW238853   4.670   0.894   7.441  0.3344  0.0472 -1.4373
 9073SOL     OW38854   2.126   3.988   2.735 -0.4574  0.0612  0.2659
 9073SOL    HW138855   2.118   3.965   2.643 -1.7595  2.3005 -0.1876
 9073SOL    HW238856   2.112   4.083   2.728 -1.9222 -0.1449  0.2988
 9074SOL     OW38857   2.489   3.986   5.413  0.0920  0.0984  0.6692
 9074SOL    HW138858   2.438   3.983   5.494  0.5595  2.6347  1.0563
 9074SOL    HW238859   2.560   3.924   5.432  1.4050  1.7486  1.1471
 9075SOL     OW38860   1.928   2.107  10.634  0.1544  0.0675  0.0440
 9075SOL    HW138861   1.852   2.051  10.614  0.2991  0.3034 -1.1363
 9075SOL    HW238862   1.994   2.038  10.634 -0.8463 -0.9024  0.1336
 9076SOL     OW38863   4.731   3.260   1.068 -0.5258  0.2186 -0.2657
 9076SOL    HW138864   0.087   3.295   1.058 -0.2442 -0.1712  0.8860
 9076SOL    HW238865   4.684   3.341   1.088  0.3251  0.3144  1.3670
 9077SOL     OW38866   3.406   2.572  16.227 -0.4951  1.0316  0.5860
 9077SOL    HW138867   3.352   2.499  16.259 -1.2059  0.8414 -1.0183
 9077SOL    HW238868   3.472   2.574  16.297 -1.4786 -0.2900  1.5558
 9078SOL     OW38869   3.421   0.282   2.582  0.0027  0.3305  0.0109
 9078SOL    HW138870   3.384   0.196   2.603  2.2011  0.0191  2.4748
 9078SOL    HW238871   3.424   0.314   2.672 -1.2306  0.7007 -0.0750
 9079SOL     OW38872   0.160   3.372   7.675  0.0385 -0.3450  0.4502
 9079SOL    HW138873   0.110   3.453   7.671 -0.7666 -0.8595  0.2682
 9079SOL    HW238874   0.104   3.320   7.733 -1.1283 -1.1478 -1.3965
 9080SOL     OW38875   2.079   1.418   2.628 -0.1395  0.0651 -0.3250
 9080SOL    HW138876   2.076   1.480   2.701  4.2030 -0.7042  0.5356
 9080SOL    HW238877   2.001   1.446   2.580 -1.3307 -4.1063 -0.7687
 9081SOL     OW38878   2.179   3.558   6.815  0.0566 -0.4134  0.0066
 9081SOL    HW138879   2.114   3.627   6.801 -0.0382 -0.5298 -0.1182
 9081SOL    HW238880   2.264   3.598   6.795 -0.2448  1.0167  1.5142
 9082SOL     OW38881   2.723   1.820   4.886 -0.1460  0.2831 -0.0571
 9082SOL    HW138882   2.785   1.878   4.842  2.4095 -0.1680  2.8924
 9082SOL    HW238883   2.679   1.783   4.810  1.3814 -0.9913 -0.3354
 9083SOL     OW38884   0.122   4.608   7.445  0.1587 -0.2478  0.1006
 9083SOL    HW138885   0.205   4.564   7.458 -0.0070 -1.1066 -1.8627
 9083SOL    HW238886   0.108   4.638   7.535  0.1307 -0.0173  0.0206
 9084SOL     OW38887   1.369   3.868   7.762 -0.4551  0.2395 -0.0234
 9084SOL    HW138888   1.403   3.788   7.803  1.3935  0.4401 -1.1741
 9084SOL    HW238889   1.433   3.894   7.695 -1.8696 -1.1497 -1.9251
 9085SOL     OW38890   3.625   3.584   2.524 -0.0709 -0.3049  0.0918
 9085SOL    HW138891   3.711   3.600   2.563  0.0895  0.0663 -0.4222
 9085SOL    HW238892   3.619   3.648   2.454  1.6310  0.3699  0.5694
 9086SOL     OW38893   3.028   2.370   1.975 -0.3545 -0.6736 -0.1687
 9086SOL    HW138894   3.078   2.312   2.032 -0.8579  0.8905  1.8958
 9086SOL    HW238895   3.010   2.431   2.047 -0.8951 -0.6408 -0.3291
 9087SOL     OW38896   1.851   4.073   8.164 -0.1465 -0.8661 -0.3973
 9087SOL    HW138897   1.882   4.163   8.154 -1.2214 -0.6028 -1.3814
 9087SOL    HW238898   1.800   4.070   8.245  2.8011 -1.8704  1.3924
 9088SOL     OW38899   0.180   4.435   3.556 -0.4236  0.3882  0.1136
 9088SOL    HW138900   0.122   4.367   3.591  0.1256 -0.3713 -0.4518
 9088SOL    HW238901   0.165   4.416   3.463  3.2551 -1.6234 -0.0797
 9089SOL     OW38902   4.257   0.847   9.043  0.3081  0.4705 -0.0570
 9089SOL    HW138903   4.173   0.835   9.000  0.7258  1.2503 -1.0883
 9089SOL    HW238904   4.226   0.887   9.125 -0.7688 -1.0133  0.2613
 9090SOL     OW38905   0.797   1.570   7.798 -0.1887  0.4476 -0.1108
 9090SOL    HW138906   0.808   1.478   7.820 -0.3653  0.4073 -0.1878
 9090SOL    HW238907   0.889   1.597   7.791  0.5262 -1.2096  3.0539
 9091SOL     OW38908   1.277   4.420   0.736 -0.1550 -0.2232 -0.2550
 9091SOL    HW138909   1.219   4.493   0.756  0.4730  0.7944 -2.0298
 9091SOL    HW238910   1.358   4.449   0.778 -1.3239  1.3760  0.8962
 9092SOL     OW38911   4.162   4.368   6.022 -0.3217 -0.1414 -0.3880
 9092SOL    HW138912   4.173   4.279   6.056  1.2770  0.1229 -0.2372
 9092SOL    HW238913   4.198   4.424   6.090 -2.3962  0.5248  0.1706
 9093SOL     OW38914   0.687   1.483   2.603  0.2083  0.4215  0.3546
 9093SOL    HW138915   0.775   1.450   2.583  0.8914  2.0628  0.5866
 9093SOL    HW238916   0.670   1.545   2.532  1.4085  0.1664 -0.1528
 9094SOL     OW38917   1.120   2.259   4.643  0.2249  0.4656  0.7501
 9094SOL    HW138918   1.083   2.260   4.731  0.4768 -1.0290  0.8617
 9094SOL    HW238919   1.076   2.334   4.602  0.6104  1.0406  1.3837
 9095SOL     OW38920   3.712   1.275   5.907 -0.0845  0.2659 -0.3138
 9095SOL    HW138921   3.678   1.209   5.967  0.7760  1.1601  1.1438
 9095SOL    HW238922   3.741   1.221   5.834 -1.4476 -2.5279  1.2200
 9096SOL     OW38923   4.697   1.343   3.668 -0.0425 -0.1990  0.3748
 9096SOL    HW138924   0.056   1.367   3.676 -0.2667  1.5472 -2.3403
 9096SOL    HW238925   4.717   1.259   3.711  1.0372 -2.0655 -3.7492
 9097SOL     OW38926   3.981   2.639  14.397  0.1286 -0.3208 -0.3607
 9097SOL    HW138927   4.023   2.671  14.477  0.5388  0.1698 -0.7696
 9097SOL    HW238928   4.059   2.627  14.342  0.2939 -0.8628 -0.0046
 9098SOL     OW38929   3.590   4.326   5.774 -0.1737 -0.2868  0.7548
 9098SOL    HW138930   3.500   4.354   5.758 -0.2011 -1.9295 -1.9570
 9098SOL    HW238931   3.581   4.231   5.786  1.1735 -0.1340  2.9935
 9099SOL     OW38932   3.197   2.153  15.870  0.0561 -0.1114  0.0210
 9099SOL    HW138933   3.246   2.208  15.809 -2.3016  1.9179 -0.0197
 9099SOL    HW238934   3.223   2.062  15.856  0.5453  0.0740 -0.2666
 9100SOL     OW38935   2.228   2.198  17.050  0.4926  0.1092 -0.4981
 9100SOL    HW138936   2.210   2.122  16.994 -0.3062 -0.4547  0.5343
 9100SOL    HW238937   2.201   2.261  16.983  0.7781 -1.3372 -1.9764
 9101SOL     OW38938   2.616   1.461   6.003 -0.2986 -0.4809 -0.4553
 9101SOL    HW138939   2.676   1.472   5.928  2.3430  3.0990  2.2067
 9101SOL    HW238940   2.533   1.485   5.963 -0.0673 -0.1998 -0.7702
 9102SOL     OW38941   1.726   2.405  11.411  0.6104 -0.7473 -0.3354
 9102SOL    HW138942   1.782   2.405  11.489 -0.9603 -0.4089  0.8064
 9102SOL    HW238943   1.788   2.381  11.343 -0.7903 -0.2488 -1.7994
 9103SOL     OW38944   3.547   2.254  16.348 -0.2354 -0.3147 -0.0953
 9103SOL    HW138945   3.634   2.293  16.361  0.0499 -2.1428  3.3663
 9103SOL    HW238946   3.535   2.284  16.258  0.8017  0.1112 -0.0946
 9104SOL     OW38947   0.693   3.117   2.120  0.4283 -0.3268 -0.0310
 9104SOL    HW138948   0.655   3.046   2.068 -3.1054 -0.7570  3.1023
 9104SOL    HW238949   0.785   3.116   2.095  0.6447  1.1381  0.7208
 9105SOL     OW38950   0.759   3.740   6.376  0.2552 -0.1707  0.2032
 9105SOL    HW138951   0.681   3.699   6.414  0.0027 -0.2134 -0.3623
 9105SOL    HW238952   0.821   3.705   6.440  2.2224  1.5682 -0.7750
 9106SOL     OW38953   0.073   1.236  15.186  0.2447  0.9003  0.0361
 9106SOL    HW138954   0.062   1.271  15.098 -1.3946  0.5976  0.1180
 9106SOL    HW238955   0.111   1.310  15.233 -1.9871  1.4616  0.9844
 9107SOL     OW38956   1.204   3.112   6.707  0.5519 -0.7853  0.6720
 9107SOL    HW138957   1.199   3.021   6.678  0.0327 -1.0164  1.4814
 9107SOL    HW238958   1.158   3.119   6.791  1.0058 -0.3193  0.8826
 9108SOL     OW38959   1.402   2.669   8.420 -0.3458  0.0498 -0.5983
 9108SOL    HW138960   1.415   2.763   8.406 -2.3388  0.4514  0.2159
 9108SOL    HW238961   1.309   2.661   8.441 -0.3908 -1.7097 -1.4832
 9109SOL     OW38962   3.353   1.086  14.993 -0.4462 -0.0061  0.2667
 9109SOL    HW138963   3.429   1.031  15.015 -0.6514  0.0206  1.0420
 9109SOL    HW238964   3.358   1.146  15.067  0.1856 -1.6941  1.6131
 9110SOL     OW38965   4.397   2.171   5.636 -0.7581 -0.5548 -0.1917
 9110SOL    HW138966   4.455   2.102   5.669 -1.0459 -1.4137 -1.4452
 9110SOL    HW238967   4.367   2.137   5.551  0.4805 -0.5913 -0.6181
 9111SOL     OW38968   4.374   4.147   3.013  0.2898  0.6359 -0.0591
 9111SOL    HW138969   4.436   4.078   2.988  1.4624  2.2996 -1.7419
 9111SOL    HW238970   4.303   4.136   2.949 -0.3504  0.9458  0.6047
 9112SOL     OW38971   2.640   0.431  14.807 -0.2141  0.2218 -0.5505
 9112SOL    HW138972   2.568   0.485  14.842  1.0362  0.6778  1.2981
 9112SOL    HW238973   2.664   0.474  14.725  0.8256  0.5715 -0.0620
 9113SOL     OW38974   2.597   1.047   8.099  0.1054  0.0590 -0.0600
 9113SOL    HW138975   2.530   1.112   8.077 -1.9819 -1.8216  0.7645
 9113SOL    HW238976   2.647   1.036   8.018 -0.4565  1.9341 -0.6602
 9114SOL     OW38977   2.945   4.540   7.181  0.1034 -0.2117  0.1405
 9114SOL    HW138978   2.944   4.600   7.256 -0.6864 -0.6824  0.5073
 9114SOL    HW238979   2.854   4.539   7.154  0.4349 -3.2384 -0.7724
 9115SOL     OW38980   0.463   1.122   7.967 -0.3539  0.0364 -0.3385
 9115SOL    HW138981   0.532   1.105   8.031 -1.3993 -0.0431  0.7844
 9115SOL    HW238982   0.382   1.091   8.009 -0.7159 -0.4975 -1.4271
 9116SOL     OW38983   4.695   1.939   4.847 -0.2517 -0.1502  0.7127
 9116SOL    HW138984   4.646   1.857   4.841  0.6657 -0.5785 -0.8165
 9116SOL    HW238985   0.052   1.907   4.849 -0.3187 -0.4589 -1.4759
 9117SOL     OW38986   2.866   0.163   7.721  0.0572 -0.4615 -0.5177
 9117SOL    HW138987   2.800   0.107   7.761  0.2807 -1.2576 -1.2640
 9117SOL    HW238988   2.932   0.159   7.790  0.0107 -1.2958 -0.5209
 9118SOL     OW38989   1.888   3.683   9.309  0.0627 -0.1302  0.2017
 9118SOL    HW138990   1.880   3.768   9.352 -0.3482 -0.3758  0.6106
 9118SOL    HW238991   1.824   3.626   9.352  1.4357 -1.4144  0.5181
 9119SOL     OW38992   2.585   4.176   2.145 -0.0523  0.4370 -0.0163
 9119SOL    HW138993   2.672   4.157   2.181  0.1034  1.5304  0.1821
 9119SOL    HW238994   2.551   4.087   2.153  1.5383  0.0242  2.1277
 9120SOL     OW38995   3.219   0.548  14.499 -0.3296  0.2848  0.3339
 9120SOL    HW138996   3.293   0.525  14.443  0.9331  0.1789  2.0360
 9120SOL    HW238997   3.171   0.466  14.489  0.2056 -0.0065  0.1688
 9121SOL     OW38998   2.154   1.647  17.393 -0.2507 -0.1767 -0.8427
 9121SOL    HW138999   2.210   1.636  17.317 -1.0523  1.5549 -1.6726
 9121SOL    HW239000   2.191   1.726  17.432  0.7109 -0.4033 -1.3085
 9122SOL     OW39001   4.498   1.188   5.071  0.1077  0.7042 -0.3652
 9122SOL    HW139002   4.492   1.093   5.082  0.7915  0.7764  0.5633
 9122SOL    HW239003   4.436   1.200   4.999  0.5121 -0.8906 -0.9957
 9123SOL     OW39004   1.947   0.072   2.455  0.4032  0.5503  0.1225
 9123SOL    HW139005   2.022   0.110   2.501 -0.2418  0.6070  1.1336
 9123SOL    HW239006   1.916   0.145   2.400 -0.9476 -0.8816 -1.0238
 9124SOL     OW39007   3.110   0.516  10.694 -0.2510 -0.0078 -0.8335
 9124SOL    HW139008   3.163   0.468  10.631  2.4642 -0.7805  2.0622
 9124SOL    HW239009   3.101   0.445  10.758 -0.6974  0.8367  0.0437
 9125SOL     OW39010   3.819   4.122   1.809 -0.3839 -0.2560  0.1064
 9125SOL    HW139011   3.822   4.173   1.728 -1.7169 -1.5064 -0.7354
 9125SOL    HW239012   3.903   4.077   1.814  0.5197  1.2603 -1.2840
 9126SOL     OW39013   4.032   2.589   7.723  0.2354 -1.0067 -0.2473
 9126SOL    HW139014   4.054   2.502   7.688 -1.4959 -2.2940  1.8456
 9126SOL    HW239015   4.095   2.651   7.688 -0.2037 -0.5544 -0.2256
 9127SOL     OW39016   1.397   2.883  10.197  0.2266 -0.4377  0.2634
 9127SOL    HW139017   1.369   2.935  10.272  1.6751 -0.0471  0.5257
 9127SOL    HW239018   1.477   2.838  10.225  1.1313 -1.1707 -3.5446
 9128SOL     OW39019   3.818   4.082   5.146 -0.6964 -0.1037  0.3723
 9128SOL    HW139020   3.823   4.162   5.095 -0.4559 -0.5797 -0.3459
 9128SOL    HW239021   3.910   4.074   5.171 -0.7662  0.2592  0.7436
 9129SOL     OW39022   3.803   1.250   0.436 -0.5578  0.0467  0.2767
 9129SOL    HW139023   3.757   1.172   0.406 -2.0010  2.6956 -4.3702
 9129SOL    HW239024   3.887   1.252   0.390  0.1156 -2.4622  1.4518
 9130SOL     OW39025   0.501   1.999  13.242  0.3134  0.8379 -0.7153
 9130SOL    HW139026   0.416   1.988  13.285  2.1066 -1.5213  2.1685
 9130SOL    HW239027   0.515   2.093  13.256  1.2111  0.4237  1.2387
 9131SOL     OW39028   2.148   1.179  15.544 -0.2364  0.4739 -0.0287
 9131SOL    HW139029   2.218   1.244  15.548  0.0338  0.1461  0.6704
 9131SOL    HW239030   2.178   1.138  15.625  0.8241  1.6412  0.1758
 9132SOL     OW39031   1.240   0.428  17.241  0.0914 -0.4173  0.1163
 9132SOL    HW139032   1.242   0.420  17.336  0.1596  0.4428  0.1864
 9132SOL    HW239033   1.277   0.515  17.225 -1.5599  0.4893  1.2826
 9133SOL     OW39034   3.900   1.449   3.030  0.3445  0.0924 -0.5965
 9133SOL    HW139035   3.929   1.467   2.941  1.6446  0.9124 -0.0035
 9133SOL    HW239036   3.850   1.530   3.041 -1.0178 -1.2286  3.0424
 9134SOL     OW39037   3.240   4.005   7.123 -0.0942 -0.3656 -0.2751
 9134SOL    HW139038   3.182   3.929   7.129 -2.5115  1.1913 -3.5524
 9134SOL    HW239039   3.325   3.965   7.138  1.2360  2.3505 -0.6985
 9135SOL     OW39040   4.360   3.168   2.642  0.2425 -0.2559 -0.5655
 9135SOL    HW139041   4.438   3.136   2.596  0.4439 -1.4791  0.6014
 9135SOL    HW239042   4.292   3.134   2.584 -0.4477  0.0471  0.0525
 9136SOL     OW39043   2.078   3.427   7.857  0.0305 -0.1493 -0.0300
 9136SOL    HW139044   2.117   3.340   7.849  2.4907  0.8502  1.1422
 9136SOL    HW239045   2.003   3.425   7.797  0.0204  1.7506 -0.0768
 9137SOL     OW39046   2.480   0.184   0.636 -0.2444  0.1163  0.3963
 9137SOL    HW139047   2.545   0.243   0.673  1.0759 -1.5799  0.7861
 9137SOL    HW239048   2.524   0.099   0.642 -0.3725  0.1128  1.1991
 9138SOL     OW39049   4.052   1.306   9.356  0.5657  0.2337 -0.2782
 9138SOL    HW139050   4.033   1.269   9.442 -0.5568 -2.5104 -1.7019
 9138SOL    HW239051   4.067   1.399   9.376  0.2644  0.7035 -2.1876
 9139SOL     OW39052   0.119   0.242  14.700 -0.0644  0.0498 -0.2901
 9139SOL    HW139053   0.161   0.328  14.700  2.8576 -1.4012  1.6820
 9139SOL    HW239054   0.080   0.241  14.612  1.6950 -1.5276 -1.0540
 9140SOL     OW39055   4.331   3.311   6.671 -0.7536 -0.5161  0.0223
 9140SOL    HW139056   4.309   3.357   6.753  0.7242  0.5765 -0.1972
 9140SOL    HW239057   4.292   3.362   6.601  1.3945  2.1342  0.7521
 9141SOL     OW39058   4.680   3.475  14.437 -0.6060 -0.0769 -0.1947
 9141SOL    HW139059   4.702   3.383  14.420 -0.7298 -0.0478 -0.5002
 9141SOL    HW239060   0.029   3.522  14.452 -0.2912 -0.4474 -0.7498
 9142SOL     OW39061   3.809   0.305   9.708 -0.2259 -0.4096 -0.5482
 9142SOL    HW139062   3.811   0.383   9.763  0.3331 -0.5173 -0.4218
 9142SOL    HW239063   3.813   0.236   9.774 -0.7981  1.3280  1.2784
 9143SOL     OW39064   3.389   2.388   4.411 -0.1550  0.1473 -0.0390
 9143SOL    HW139065   3.443   2.386   4.490 -0.7659 -2.6635  0.2859
 9143SOL    HW239066   3.435   2.317   4.366  0.4218 -0.3617  1.3486
 9144SOL     OW39067   0.510   0.497   4.342 -0.1471  0.5552  0.1832
 9144SOL    HW139068   0.483   0.557   4.411 -0.7136  1.0945 -0.5084
 9144SOL    HW239069   0.602   0.516   4.323  0.0906 -0.9383 -0.1990
 9145SOL     OW39070   1.937   0.833   1.328  0.6638 -0.0046  0.1708
 9145SOL    HW139071   2.021   0.852   1.371  1.3867 -0.2948 -1.1376
 9145SOL    HW239072   1.927   0.751   1.376  1.4059  1.1255  2.2959
 9146SOL     OW39073   2.936   1.739   2.056 -0.2754 -0.3299 -0.1072
 9146SOL    HW139074   2.888   1.816   2.027  0.5669  0.3010  0.1889
 9146SOL    HW239075   2.958   1.703   1.970  0.1675  1.0851 -0.5883
 9147SOL     OW39076   2.895   1.824   5.572 -0.1185 -0.0806  0.1011
 9147SOL    HW139077   2.859   1.855   5.490  0.1662 -1.3190 -0.4984
 9147SOL    HW239078   2.984   1.860   5.571 -0.0283 -0.3130 -0.3351
 9148SOL     OW39079   3.121   1.270   7.094  0.2884  0.2018  0.0293
 9148SOL    HW139080   3.104   1.274   7.188  2.7260  2.1405  0.4135
 9148SOL    HW239081   3.113   1.176   7.085 -0.9553  0.5610 -2.7062
 9149SOL     OW39082   2.963   3.392   5.728  0.6666 -0.0871 -0.4547
 9149SOL    HW139083   2.876   3.369   5.761 -0.0968  2.4405 -0.7387
 9149SOL    HW239084   2.976   3.452   5.801 -1.3648  0.1803 -0.3059
 9150SOL     OW39085   4.464   1.508  15.218  0.5361  0.1909  0.4019
 9150SOL    HW139086   4.493   1.452  15.291  0.3776 -1.5356 -0.8516
 9150SOL    HW239087   4.447   1.586  15.271 -1.2243 -0.1825  0.3879
 9151SOL     OW39088   4.032   1.994  14.889  0.0730  1.0630  0.4549
 9151SOL    HW139089   3.970   2.062  14.864  0.7290  0.6072 -2.4122
 9151SOL    HW239090   4.066   2.034  14.969  0.8863 -1.3210  1.2786
 9152SOL     OW39091   2.355   4.305   2.210 -0.1239 -0.1952 -0.6983
 9152SOL    HW139092   2.419   4.238   2.186  0.4465 -0.3211  1.1661
 9152SOL    HW239093   2.359   4.368   2.138  2.0407  1.6877  1.0848
 9153SOL     OW39094   4.587   1.696   2.840 -0.0190 -0.7644 -0.4927
 9153SOL    HW139095   4.667   1.650   2.815 -0.1065 -0.7850 -0.7340
 9153SOL    HW239096   4.617   1.781   2.871  0.7756 -1.6959  1.2869
 9154SOL     OW39097   0.552   1.412   7.067  0.4127 -0.4221 -1.0284
 9154SOL    HW139098   0.556   1.493   7.017 -1.1448  0.2509 -0.0749
 9154SOL    HW239099   0.558   1.342   7.003  3.0049  0.4625 -1.7338
 9155SOL     OW39100   3.075   3.013   6.982 -0.3383  0.3460  0.0163
 9155SOL    HW139101   3.070   2.941   7.044 -0.8230  0.6004  0.2668
 9155SOL    HW239102   2.983   3.037   6.977 -0.2924  0.2822 -1.2568
 9156SOL     OW39103   4.136   0.003   7.164 -0.0531  0.5978 -0.5956
 9156SOL    HW139104   4.115   4.671   7.098 -0.3380  0.4651 -0.3694
 9156SOL    HW239105   4.170   4.685   7.237 -1.1059  1.1411  0.2715
 9157SOL     OW39106   1.090   0.540   1.773  0.4052  0.7287  0.0575
 9157SOL    HW139107   1.014   0.529   1.716  1.2712  0.1778 -0.9827
 9157SOL    HW239108   1.167   0.528   1.717 -0.9877  0.2723 -1.7630
 9158SOL     OW39109   0.050   1.096   8.608  0.1690  0.2847  0.1741
 9158SOL    HW139110   0.014   1.030   8.549 -0.7970 -0.2872  1.4116
 9158SOL    HW239111   0.083   1.033   8.673  1.1628  0.6537  0.0336
 9159SOL     OW39112   3.353   0.233   6.996  0.4529 -0.4576 -0.0250
 9159SOL    HW139113   3.262   0.225   7.024  0.6573 -0.0686  0.7716
 9159SOL    HW239114   3.402   0.180   7.059  0.4636  1.7386  1.8201
 9160SOL     OW39115   3.587   4.581  16.816 -0.1296 -0.9306  0.2382
 9160SOL    HW139116   3.516   4.540  16.866  1.5685 -1.5172  2.1378
 9160SOL    HW239117   3.634   4.504  16.783  0.4953 -0.1822 -0.5964
 9161SOL     OW39118   4.581   4.725   2.682 -0.3055  0.3339 -0.5766
 9161SOL    HW139119   4.562   0.064   2.622  2.4692 -0.0955 -1.9789
 9161SOL    HW239120   4.673   0.012   2.698 -0.5652  1.6271 -0.7437
 9162SOL     OW39121   0.118   2.963  14.297 -0.4454  0.1183 -0.1625
 9162SOL    HW139122   0.068   2.884  14.277  2.6421 -1.6953 -0.7341
 9162SOL    HW239123   0.172   2.923  14.365  0.9316  0.0138 -1.3170
 9163SOL     OW39124   3.029   2.907   8.696 -0.4568 -0.5999  0.0051
 9163SOL    HW139125   3.061   2.876   8.611  1.7636 -0.9220  0.9553
 9163SOL    HW239126   3.105   2.963   8.715 -2.0466  1.5296  0.0956
 9164SOL     OW39127   2.233   2.283   7.788  0.0173  0.1720 -0.3002
 9164SOL    HW139128   2.318   2.298   7.746  0.0430 -2.4814 -1.1850
 9164SOL    HW239129   2.253   2.310   7.878  1.2851 -0.7840 -0.2879
 9165SOL     OW39130   0.103   4.034   7.737  0.1321  0.0904 -0.2241
 9165SOL    HW139131   0.087   4.027   7.831 -0.6535 -1.1474 -0.4393
 9165SOL    HW239132   0.091   4.127   7.718 -2.3266 -0.8447 -3.2446
 9166SOL     OW39133   2.685   3.428  17.590  0.0060 -0.2691 -0.4338
 9166SOL    HW139134   2.739   3.491  17.542  0.8081 -1.9210 -1.6652
 9166SOL    HW239135   2.599   3.471  17.597  0.3082  0.5967 -1.9990
 9167SOL     OW39136   1.721   0.161   9.002  0.1193  0.2485  0.4309
 9167SOL    HW139137   1.789   0.094   8.999 -0.3919 -0.3123  1.5589
 9167SOL    HW239138   1.715   0.180   8.908 -1.6232  0.2327  0.5324
 9168SOL     OW39139   4.684   4.073   7.420 -0.0184  0.0814  0.2177
 9168SOL    HW139140   0.021   4.095   7.482  0.0762 -1.4439  0.6383
 9168SOL    HW239141   4.623   4.144   7.440  0.7230  0.2052  2.0348
 9169SOL     OW39142   0.301   0.679  16.279 -0.0254 -0.4584  0.3606
 9169SOL    HW139143   0.371   0.731  16.239  0.9714 -1.2668  1.0485
 9169SOL    HW239144   0.236   0.746  16.298  1.6427  1.2752 -0.0794
 9170SOL     OW39145   3.273   3.043   2.582 -0.1190  0.1596 -0.1250
 9170SOL    HW139146   3.302   2.954   2.601 -1.2440 -0.1372  0.1826
 9170SOL    HW239147   3.315   3.101   2.646 -2.3244  2.3004 -0.6324
 9171SOL     OW39148   0.480   0.532   7.416  0.2308  0.0530  0.1073
 9171SOL    HW139149   0.386   0.517   7.404  0.3953 -0.8133 -0.0837
 9171SOL    HW239150   0.516   0.477   7.346 -0.9170 -1.2181  0.5110
 9172SOL     OW39151   4.287   3.207   0.313 -0.1223 -0.4958 -0.1444
 9172SOL    HW139152   4.220   3.209   0.245  0.7127  2.8615 -0.8530
 9172SOL    HW239153   4.351   3.265   0.273 -0.8864 -0.2617 -1.0200
 9173SOL     OW39154   4.283   3.710  10.126  0.3339 -0.0438 -0.8264
 9173SOL    HW139155   4.254   3.632  10.173 -0.8364  0.5206 -0.5828
 9173SOL    HW239156   4.376   3.701  10.106  0.5296 -1.9143  0.9058
 9174SOL     OW39157   2.450   3.303   2.173 -0.3387 -0.0995 -0.6323
 9174SOL    HW139158   2.488   3.273   2.090  0.6626 -3.0533  0.8957
 9174SOL    HW239159   2.484   3.237   2.234 -3.5975 -0.5080  0.7387
 9175SOL     OW39160   0.352   3.862  17.695  0.3030  0.7777 -0.6592
 9175SOL    HW139161   0.384   3.820   0.043  0.3652  2.1617  0.0459
 9175SOL    HW239162   0.346   3.948   0.005  1.7034 -0.5685  2.2923
 9176SOL     OW39163   1.515   0.816  10.364 -0.3877 -0.3556 -0.2251
 9176SOL    HW139164   1.610   0.814  10.348 -0.8512 -2.3391 -2.6259
 9176SOL    HW239165   1.468   0.865  10.297 -1.4675 -1.3212 -0.1760
 9177SOL     OW39166   4.406   1.142   1.706  0.0617 -0.4101  0.3873
 9177SOL    HW139167   4.486   1.096   1.733  0.3085  0.0680  0.4812
 9177SOL    HW239168   4.423   1.170   1.616 -2.0470 -1.4185 -0.3187
 9178SOL     OW39169   1.941   1.814   1.292 -0.4032  0.2055  0.4033
 9178SOL    HW139170   1.921   1.737   1.240  0.4545 -0.5065  1.1211
 9178SOL    HW239171   2.016   1.779   1.340 -0.7457 -1.5299 -0.3385
 9179SOL     OW39172   2.237   0.586  17.264  0.1411  0.2603  0.7027
 9179SOL    HW139173   2.145   0.579  17.240 -0.3805  0.1298  2.7207
 9179SOL    HW239174   2.245   0.572  17.359 -2.2329  1.6693  1.1231
 9180SOL     OW39175   1.630   1.944   6.197 -0.9586  0.1290 -0.4114
 9180SOL    HW139176   1.537   1.925   6.208 -1.0376 -0.3314 -1.8226
 9180SOL    HW239177   1.640   1.982   6.109  0.4722 -1.1553 -0.8042
 9181SOL     OW39178   2.981   2.647  12.223  0.2693 -0.3067  0.5222
 9181SOL    HW139179   3.077   2.654  12.231  0.1848  2.7359 -1.1371
 9181SOL    HW239180   2.972   2.614  12.133  0.5061 -0.8540  0.6974
 9182SOL     OW39181   2.755   3.831   2.333  0.4411  0.1743 -0.1748
 9182SOL    HW139182   2.797   3.794   2.255  0.7932  0.0126  0.0933
 9182SOL    HW239183   2.805   3.804   2.409  0.2841 -1.6656 -0.7252
 9183SOL     OW39184   3.282   0.605  11.284 -0.0258 -0.1060 -0.0997
 9183SOL    HW139185   3.331   0.649  11.213  1.6321 -1.2346  0.3379
 9183SOL    HW239186   3.351   0.541  11.303 -1.4602 -1.3382  0.9396
 9184SOL     OW39187   3.953   3.740  14.321 -0.4479  0.0319  0.0819
 9184SOL    HW139188   4.035   3.733  14.272 -0.6238  1.5560 -0.4439
 9184SOL    HW239189   3.950   3.653  14.360  1.7992 -0.5425 -1.0149
 9185SOL     OW39190   2.435   4.106   2.448 -0.1089  0.2821  0.4744
 9185SOL    HW139191   2.497   4.076   2.514 -0.9876  3.4917  2.7601
 9185SOL    HW239192   2.472   4.063   2.371 -0.6023  0.1632  0.3016
 9186SOL     OW39193   1.589   3.821   8.348 -0.1009  0.0651 -0.1960
 9186SOL    HW139194   1.662   3.847   8.292  0.6435 -1.1585  0.1896
 9186SOL    HW239195   1.583   3.729   8.323 -1.5416  0.6363 -1.9029
 9187SOL     OW39196   1.632   1.076   3.550 -0.2955 -0.4215 -0.3198
 9187SOL    HW139197   1.688   1.101   3.476 -0.0534 -1.9792 -0.6747
 9187SOL    HW239198   1.590   0.994   3.522  1.8444 -1.9710  0.9420
 9188SOL     OW39199   4.004   2.987   1.897 -0.2926 -0.0980  0.4809
 9188SOL    HW139200   3.917   2.965   1.864 -0.2335  1.6040 -0.8265
 9188SOL    HW239201   3.986   2.977   1.990 -2.9747  0.7960  0.0700
 9189SOL     OW39202   4.703   3.421   3.162  0.4163  0.4261  0.1220
 9189SOL    HW139203   0.052   3.468   3.172  0.2377  0.9057 -0.7077
 9189SOL    HW239204   4.682   3.397   3.253 -0.1166 -0.1171 -0.1394
 9190SOL     OW39205   1.902   4.036   6.643 -0.4620  0.4739 -0.5413
 9190SOL    HW139206   1.946   4.095   6.581  2.1581  0.3230  1.1775
 9190SOL    HW239207   1.943   4.076   6.719 -2.0562 -2.2837  1.7296
 9191SOL     OW39208   3.820   2.685   4.972 -0.3783 -0.4149  0.1421
 9191SOL    HW139209   3.777   2.601   4.988  0.2217 -0.6457  0.5702
 9191SOL    HW239210   3.781   2.732   5.046 -0.1768  0.9381 -0.6190
 9192SOL     OW39211   3.850   1.631  12.298 -0.0908  0.2872 -0.1443
 9192SOL    HW139212   3.780   1.584  12.252  1.5856 -2.0809 -0.2772
 9192SOL    HW239213   3.922   1.603  12.241 -2.6978 -1.7154 -2.4577
 9193SOL     OW39214   4.565   3.116  12.078  0.4958 -0.2022  0.7815
 9193SOL    HW139215   4.471   3.121  12.097  0.1115  1.0351 -1.4547
 9193SOL    HW239216   4.582   3.034  12.123  1.9389 -0.1461  0.3289
 9194SOL     OW39217   3.123   0.697   5.141 -0.5838 -0.2116 -0.2669
 9194SOL    HW139218   3.207   0.673   5.181 -0.9786 -0.2317  0.5534
 9194SOL    HW239219   3.058   0.630   5.161 -1.6486  1.0783  0.5605
 9195SOL     OW39220   0.390   2.676   6.413  0.3027  0.3256 -0.4594
 9195SOL    HW139221   0.361   2.687   6.323 -1.0561  1.8708  0.1494
 9195SOL    HW239222   0.465   2.735   6.415 -0.1523  0.8935  0.3264
 9196SOL     OW39223   0.968   1.813   5.660 -0.3798 -0.6513  0.1789
 9196SOL    HW139224   0.932   1.727   5.684  0.6774 -0.3102  2.9445
 9196SOL    HW239225   0.886   1.859   5.639 -0.5118 -0.1410  1.7833
 9197SOL     OW39226   3.651   3.875   9.777 -0.4771 -0.1337  0.7373
 9197SOL    HW139227   3.721   3.846   9.719 -1.1550 -0.8951  0.3017
 9197SOL    HW239228   3.711   3.910   9.843  1.2400 -0.7361 -0.5207
 9198SOL     OW39229   0.077   3.067  12.227  0.1972  0.3917 -0.2023
 9198SOL    HW139230   0.022   3.111  12.291  0.1362  1.6687 -1.1446
 9198SOL    HW239231   0.040   3.108  12.149  0.2416 -0.4118 -0.6504
 9199SOL     OW39232   2.688   1.438   5.463  0.0025 -0.4418 -0.3282
 9199SOL    HW139233   2.753   1.467   5.400 -1.6268  1.3571 -1.1866
 9199SOL    HW239234   2.716   1.352   5.493  0.0582 -0.6607 -1.0079
 9200SOL     OW39235   2.370   1.233   9.950 -0.5472  0.1933  0.3959
 9200SOL    HW139236   2.395   1.319   9.916  0.7169 -0.3278  0.0060
 9200SOL    HW239237   2.287   1.240   9.997 -0.7664 -1.2624  0.2298
 9201SOL     OW39238   0.134   1.056   5.954  1.0383 -0.0649  0.2787
 9201SOL    HW139239   0.088   0.981   5.993  1.6385 -0.3513  0.4248
 9201SOL    HW239240   0.225   1.028   5.961  0.2424 -2.0835  2.7158
 9202SOL     OW39241   2.508   0.720   6.084 -0.3387 -0.6032  1.0263
 9202SOL    HW139242   2.530   0.741   6.175  0.8803  0.1356  0.5559
 9202SOL    HW239243   2.586   0.697   6.034  0.9305  3.1263  1.3459
 9203SOL     OW39244   0.026   0.776   6.023 -0.0835 -0.8682  0.2250
 9203SOL    HW139245   0.055   0.795   6.112 -1.2626  0.0812  0.4042
 9203SOL    HW239246   0.108   0.734   5.997  0.7846  2.0084 -1.6641
 9204SOL     OW39247   0.870   0.843   2.145 -0.0121  0.4959 -0.4035
 9204SOL    HW139248   0.947   0.886   2.181  1.4854 -0.5216 -2.4686
 9204SOL    HW239249   0.911   0.771   2.098 -1.1498  0.4891 -1.3835
 9205SOL     OW39250   4.377   0.433   5.910  0.1414 -0.0770 -0.8182
 9205SOL    HW139251   4.459   0.424   5.959 -0.5351  0.9645  0.5110
 9205SOL    HW239252   4.347   0.520   5.935 -0.6235 -0.7642  0.6806
 9206SOL     OW39253   2.072   3.144   4.272 -0.3534  0.2018 -0.4057
 9206SOL    HW139254   2.115   3.058   4.266 -0.1282  0.3067 -0.3169
 9206SOL    HW239255   2.035   3.142   4.360 -0.9826  0.7169 -0.6624
 9207SOL     OW39256   3.828   3.618   2.696 -0.4045  0.0267  0.4142
 9207SOL    HW139257   3.886   3.566   2.751 -0.1210 -0.7095 -0.5678
 9207SOL    HW239258   3.888   3.681   2.655 -1.2504  0.3334 -0.3517
 9208SOL     OW39259   1.411   2.848   9.679  0.2226  0.2650  0.0461
 9208SOL    HW139260   1.388   2.848   9.772  2.5700 -0.8412  0.6506
 9208SOL    HW239261   1.472   2.774   9.679  1.9564  1.7110 -3.8186
 9209SOL     OW39262   1.746   1.330   1.959  0.2782  0.4501 -0.2970
 9209SOL    HW139263   1.765   1.262   1.893 -0.4261  0.6784 -0.7329
 9209SOL    HW239264   1.653   1.321   1.938  0.4171 -0.0404 -0.7108
 9210SOL     OW39265   1.622   2.463   3.426  0.1932  0.2889  0.5412
 9210SOL    HW139266   1.560   2.520   3.380 -0.6361 -2.2281 -1.5061
 9210SOL    HW239267   1.695   2.521   3.449 -0.8597  0.7723  2.6403
 9211SOL     OW39268   2.326   0.580   6.436  0.5921  0.4954 -0.2192
 9211SOL    HW139269   2.298   0.672   6.433  1.7337  0.8338 -0.6337
 9211SOL    HW239270   2.318   0.547   6.347  0.1208 -1.8161  0.6858
 9212SOL     OW39271   3.968   0.287   7.751  0.0336 -0.1993 -0.5668
 9212SOL    HW139272   3.906   0.359   7.743 -0.0622 -0.2111  0.0653
 9212SOL    HW239273   3.915   0.208   7.737 -2.2280  1.2631 -0.1724
 9213SOL     OW39274   1.025   0.708   2.808 -0.1061  0.4432  0.5113
 9213SOL    HW139275   0.944   0.759   2.816  1.1586  2.4654  0.3455
 9213SOL    HW239276   0.991   0.630   2.764  1.8593  0.4871 -1.0581
 9214SOL     OW39277   3.480   1.296  17.442  0.7246 -0.2156 -0.0966
 9214SOL    HW139278   3.548   1.281  17.376  1.4547 -1.2664  0.8926
 9214SOL    HW239279   3.530   1.267  17.518  2.8808  0.0834 -1.4044
 9215SOL     OW39280   4.017   4.224   5.669 -0.1066  0.3315 -0.0552
 9215SOL    HW139281   4.082   4.279   5.712 -0.7708  0.2690  1.0452
 9215SOL    HW239282   3.953   4.290   5.643 -0.1637 -1.4369 -4.3294
 9216SOL     OW39283   2.342   2.087  12.686 -0.0742  0.1274 -0.0963
 9216SOL    HW139284   2.365   2.027  12.615 -1.5636 -1.5911  0.8576
 9216SOL    HW239285   2.364   2.032  12.760 -2.4463 -2.4465 -1.2859
 9217SOL     OW39286   4.173   4.533  12.034 -0.3074 -0.1980  0.1313
 9217SOL    HW139287   4.206   4.622  12.047  1.7954 -0.8791 -0.5882
 9217SOL    HW239288   4.246   4.486  12.074 -0.2706 -0.1124  0.1644
 9218SOL     OW39289   0.982   1.838   2.416  0.1797 -0.1291  0.1263
 9218SOL    HW139290   1.024   1.768   2.366 -0.5066  0.7929 -1.7472
 9218SOL    HW239291   1.037   1.916   2.404 -1.2051  0.5868 -1.6374
 9219SOL     OW39292   3.336   1.523  17.641 -0.3604 -0.1842 -0.5436
 9219SOL    HW139293   3.411   1.505  17.584 -0.0224  1.1065 -0.4908
 9219SOL    HW239294   3.303   1.435  17.661 -3.2921  0.8801 -0.7066
 9220SOL     OW39295   1.917   0.889   9.043 -0.4497  0.5940  0.2860
 9220SOL    HW139296   2.001   0.925   9.015 -0.4358 -0.4468 -1.0319
 9220SOL    HW239297   1.940   0.855   9.130 -3.7110 -0.4944  0.7503
 9221SOL     OW39298   3.450   3.350  10.096  0.6861  0.5436 -0.1510
 9221SOL    HW139299   3.384   3.376  10.160 -0.1681 -2.4994  0.1860
 9221SOL    HW239300   3.518   3.331  10.160  0.5971  0.2155 -0.1530
 9222SOL     OW39301   3.223   3.194   8.579  0.8751 -0.3700 -0.1789
 9222SOL    HW139302   3.139   3.148   8.580  0.2623  0.8061  1.5797
 9222SOL    HW239303   3.213   3.244   8.498  2.5445 -0.1520 -0.2485
 9223SOL     OW39304   4.006   3.693  12.665  0.1475  0.9591  0.0524
 9223SOL    HW139305   4.017   3.699  12.760 -0.8478  0.2008  0.2049
 9223SOL    HW239306   4.099   3.683  12.646 -0.4998  0.4657 -2.7354
 9224SOL     OW39307   0.204   0.105   8.193  0.3310 -0.3278 -0.2102
 9224SOL    HW139308   0.284   0.141   8.231  0.0990  0.8549 -0.8659
 9224SOL    HW239309   0.144   0.177   8.176 -0.7379 -1.2165 -0.2012
 9225SOL     OW39310   3.456   3.148   3.927  0.5129 -0.7209 -0.4414
 9225SOL    HW139311   3.511   3.086   3.879  0.3947 -1.2553  0.1097
 9225SOL    HW239312   3.404   3.196   3.862  0.1261  1.4417  1.4861
 9226SOL     OW39313   2.503   1.848   5.777 -0.8469  0.1413  0.3078
 9226SOL    HW139314   2.509   1.785   5.706  1.9351  1.3472 -0.5487
 9226SOL    HW239315   2.453   1.800   5.843 -1.8755  0.3553 -0.3182
 9227SOL     OW39316   1.350   2.202   7.583 -0.2637  0.0108  0.2345
 9227SOL    HW139317   1.264   2.243   7.576 -1.3496 -1.8543  2.9771
 9227SOL    HW239318   1.410   2.277   7.590 -0.8409  0.5640 -0.6346
 9228SOL     OW39319   4.719   1.813   7.594  0.4133  0.0802 -0.2847
 9228SOL    HW139320   0.033   1.753   7.651  0.5000 -0.6463 -1.1106
 9228SOL    HW239321   4.702   1.764   7.513 -0.6380  1.0317 -0.6516
 9229SOL     OW39322   0.056   1.606  17.596  0.2085 -0.3820  0.2311
 9229SOL    HW139323   0.147   1.604  17.624  0.3406  1.9085 -0.0673
 9229SOL    HW239324   0.017   1.544  17.659  0.6204 -1.0881 -0.2114
 9230SOL     OW39325   1.506   2.561   9.084 -0.8510  0.7028  0.3771
 9230SOL    HW139326   1.514   2.490   9.020 -0.2207  1.4126 -0.3369
 9230SOL    HW239327   1.598   2.589   9.089 -0.7946  0.8169 -1.1246
 9231SOL     OW39328   1.579   1.239   0.519  0.1481  0.4430  0.1564
 9231SOL    HW139329   1.541   1.170   0.573  1.1957 -0.9843 -0.9006
 9231SOL    HW239330   1.548   1.201   0.436 -0.1934  2.6013 -0.6928
 9232SOL     OW39331   1.080   3.617   8.022  0.6340  0.3046 -0.2689
 9232SOL    HW139332   1.171   3.623   8.051  0.6326  0.2503 -0.2526
 9232SOL    HW239333   1.061   3.523   8.029  0.7908  0.2321 -0.8711
 9233SOL     OW39334   1.515   1.600   5.368  0.2685 -0.0353  0.4399
 9233SOL    HW139335   1.574   1.614   5.443 -0.2425  0.0762  0.8199
 9233SOL    HW239336   1.437   1.607   5.423  1.7387  0.5391  2.4883
 9234SOL     OW39337   3.252   1.290   8.755 -0.3267 -0.5840 -0.4236
 9234SOL    HW139338   3.228   1.306   8.664 -1.8220  0.5192  0.1506
 9234SOL    HW239339   3.164   1.292   8.793 -1.0644 -0.3986 -2.1498
 9235SOL     OW39340   3.387   1.583  11.991 -0.1735 -0.0114  0.1466
 9235SOL    HW139341   3.320   1.515  11.982 -1.1165  1.0731 -0.9420
 9235SOL    HW239342   3.325   1.656  11.984 -0.3154  0.1365  2.7936
 9236SOL     OW39343   3.792   3.760   5.855 -0.7387 -0.8440 -0.1923
 9236SOL    HW139344   3.782   3.815   5.933  1.6519 -1.8422  0.8007
 9236SOL    HW239345   3.837   3.816   5.791 -1.4923 -0.4138 -0.3482
 9237SOL     OW39346   0.046   1.923  14.912  0.8117 -0.3848 -0.4086
 9237SOL    HW139347   0.045   1.854  14.845  0.9271  0.5618 -1.3812
 9237SOL    HW239348   0.073   1.879  14.993 -0.0263  0.9282  0.5860
 9238SOL     OW39349   0.359   3.149  11.817 -0.7939 -0.5509  0.3006
 9238SOL    HW139350   0.276   3.172  11.776 -0.6969  0.6050  0.7642
 9238SOL    HW239351   0.401   3.230  11.845  1.1108 -1.0692 -1.0083
 9239SOL     OW39352   1.592   2.880   6.734  0.2128 -0.3803 -0.0502
 9239SOL    HW139353   1.594   2.923   6.820  0.6320 -3.4400  1.4997
 9239SOL    HW239354   1.605   2.789   6.763 -0.3196 -0.1093  1.0518
 9240SOL     OW39355   1.827   0.371   7.019 -0.6377  0.4618 -0.0074
 9240SOL    HW139356   1.773   0.325   7.083 -1.3413  2.0743  0.5261
 9240SOL    HW239357   1.792   0.326   6.942 -1.7933  0.7805  0.3426
 9241SOL     OW39358   2.762   2.597   1.883 -0.9215  0.1517 -0.2984
 9241SOL    HW139359   2.815   2.519   1.868 -2.5918 -0.6623 -2.0316
 9241SOL    HW239360   2.776   2.643   1.801 -0.1560 -0.3551 -0.4508
 9242SOL     OW39361   2.267   1.100  14.166 -0.7899  0.6268  0.6292
 9242SOL    HW139362   2.245   1.167  14.230 -0.8745  1.1968  0.0011
 9242SOL    HW239363   2.184   1.081  14.122  0.7595  0.4330 -2.2027
 9243SOL     OW39364   0.937   0.047   8.549  0.5029 -0.7069  0.4963
 9243SOL    HW139365   0.872   0.090   8.605  0.2054 -1.1255  0.4696
 9243SOL    HW239366   0.921   4.687   8.567  0.8080 -0.6279  1.1964
 9244SOL     OW39367   0.024   4.195   9.310 -0.3856  0.5697  0.5105
 9244SOL    HW139368   4.693   4.267   9.306  1.3659  2.1726  1.2701
 9244SOL    HW239369   4.723   4.143   9.383 -0.5293  2.8324  2.0629
 9245SOL     OW39370   2.548   2.593   2.039  0.2787  0.0280  0.3160
 9245SOL    HW139371   2.592   2.597   2.124  0.8587  1.7952 -0.0639
 9245SOL    HW239372   2.622   2.590   1.979  0.0947 -1.3556  0.1590
 9246SOL     OW39373   0.860   0.622   3.506  0.2034  0.8900  0.6726
 9246SOL    HW139374   0.948   0.660   3.509  0.3823  0.5557 -0.1047
 9246SOL    HW239375   0.863   0.563   3.581 -1.4145 -0.2075 -0.1144
 9247SOL     OW39376   2.295   1.165  17.451  0.1189 -0.2300 -0.0589
 9247SOL    HW139377   2.381   1.206  17.442 -0.2378  0.4833 -0.1844
 9247SOL    HW239378   2.301   1.085  17.397 -0.7587 -1.1636  1.2202
 9248SOL     OW39379   0.750   4.115  16.110  0.6812 -0.0605 -0.7882
 9248SOL    HW139380   0.763   4.208  16.091  1.4591  0.0672  0.3787
 9248SOL    HW239381   0.809   4.107  16.185  0.2656  0.2458 -0.4253
 9249SOL     OW39382   2.899   1.063  11.634  0.4622 -0.3495 -0.0397
 9249SOL    HW139383   2.980   1.015  11.616 -0.7357 -1.0222 -3.7017
 9249SOL    HW239384   2.917   1.139  11.578 -1.4236 -0.3299 -0.6170
 9250SOL     OW39385   1.820   2.305   6.516 -0.1632 -0.1086  0.1098
 9250SOL    HW139386   1.794   2.281   6.426  0.5089 -2.5579  0.5683
 9250SOL    HW239387   1.814   2.220   6.560  0.1329  0.1817  0.6995
 9251SOL     OW39388   3.299   2.059   0.018 -0.0612 -0.1157  0.2327
 9251SOL    HW139389   3.373   2.081  17.694  1.1230 -0.8150  1.5165
 9251SOL    HW239390   3.339   1.993   0.075 -1.0304 -0.4002  0.5765
 9252SOL     OW39391   2.970   0.584   0.041 -0.3184 -0.0867  0.1210
 9252SOL    HW139392   2.967   0.581   0.136 -2.5292 -2.5183 -0.0068
 9252SOL    HW239393   2.982   0.491   0.018 -0.2667 -0.5980  2.2517
 9253SOL     OW39394   2.172   1.784   0.730 -0.1297  0.1574  0.0744
 9253SOL    HW139395   2.254   1.780   0.682  0.5293  1.0207  1.1294
 9253SOL    HW239396   2.210   1.819   0.811 -0.0356 -0.2632  0.2115
 9254SOL     OW39397   0.564   2.586   5.487 -0.1226  0.0196  0.3403
 9254SOL    HW139398   0.632   2.519   5.495 -2.2596 -2.2149 -0.2677
 9254SOL    HW239399   0.481   2.542   5.471  0.8104 -1.5840 -0.0966
 9255SOL     OW39400   0.956   0.678   6.589  0.2301  0.4862 -0.1170
 9255SOL    HW139401   1.022   0.639   6.532 -0.0520  0.1650 -0.2221
 9255SOL    HW239402   0.877   0.655   6.540  0.7467  2.1809 -1.7266
 9256SOL     OW39403   2.396   3.878   2.802  0.4319  0.6022  0.1651
 9256SOL    HW139404   2.421   3.931   2.878  0.8984  1.6349 -0.7073
 9256SOL    HW239405   2.309   3.916   2.788  0.8448  1.4016 -0.2100
 9257SOL     OW39406   0.434   0.811  11.291 -0.3715  0.0501  0.0874
 9257SOL    HW139407   0.400   0.848  11.210 -1.8161 -1.2065  0.1041
 9257SOL    HW239408   0.363   0.751  11.316 -1.6807  2.4020  1.9869
 9258SOL     OW39409   0.844   0.099   2.754  0.2273 -0.1130  0.3682
 9258SOL    HW139410   0.786   0.114   2.679 -0.8268  1.5483  1.4999
 9258SOL    HW239411   0.781   0.100   2.826  0.0902  2.3783  0.2143
 9259SOL     OW39412   0.224   3.327   4.110  0.1297 -0.2842 -0.0630
 9259SOL    HW139413   0.302   3.353   4.060 -1.2883  0.2867 -1.9913
 9259SOL    HW239414   0.215   3.402   4.168 -0.4559  0.2039 -0.7911
 9260SOL     OW39415   3.067   2.379   3.630  0.1572  0.2808  0.3485
 9260SOL    HW139416   3.016   2.454   3.600 -0.1993 -0.3730 -0.6684
 9260SOL    HW239417   3.130   2.362   3.561 -1.5455 -0.0524 -1.1263
 9261SOL     OW39418   4.611   3.325   8.877  0.0863 -0.0340 -0.3560
 9261SOL    HW139419   4.536   3.348   8.931  0.9392  0.5635  0.5860
 9261SOL    HW239420   4.678   3.316   8.945  0.5461 -2.2941 -1.1314
 9262SOL     OW39421   1.130   3.466   1.858  0.3222 -0.1962 -0.1368
 9262SOL    HW139422   1.179   3.392   1.822 -0.5969 -1.3761  1.0345
 9262SOL    HW239423   1.140   3.532   1.790  3.1842  0.3145  0.7780
 9263SOL     OW39424   1.287   3.781   5.202 -0.1203  0.0069 -0.4515
 9263SOL    HW139425   1.304   3.687   5.208  1.0199  0.2253 -0.2970
 9263SOL    HW239426   1.201   3.765   5.241 -1.5032  1.5576 -2.8509
 9264SOL     OW39427   2.261   0.461   7.463 -0.2776  0.2647 -0.5499
 9264SOL    HW139428   2.191   0.430   7.405 -0.2576 -1.9521  0.6026
 9264SOL    HW239429   2.285   0.530   7.401 -0.7836 -1.2720 -2.4652
 9265SOL     OW39430   1.944   0.709   8.672  0.4269  0.1454  0.3892
 9265SOL    HW139431   1.953   0.623   8.631  0.7023 -0.5064  1.8039
 9265SOL    HW239432   1.852   0.735   8.672 -0.4842 -2.9797  1.2571
 9266SOL     OW39433   3.430   1.209  10.233  0.3514 -0.3178  0.1507
 9266SOL    HW139434   3.435   1.221  10.327 -1.9809  0.8953  0.1377
 9266SOL    HW239435   3.343   1.243  10.211  0.1182 -0.2827  1.1598
 9267SOL     OW39436   2.801   4.229  11.997 -0.4169  0.2434  0.8959
 9267SOL    HW139437   2.830   4.163  12.060 -1.3064 -0.7567  0.2409
 9267SOL    HW239438   2.863   4.302  12.002 -0.2911  0.2263 -0.6977
 9268SOL     OW39439   1.402   1.873  11.233 -0.2914 -0.1778  0.7116
 9268SOL    HW139440   1.482   1.873  11.285 -0.7125  0.6508  1.3622
 9268SOL    HW239441   1.373   1.782  11.220 -1.0436  0.4147 -1.6264
 9269SOL     OW39442   3.359   1.569   6.050  0.3077 -0.4630  0.4475
 9269SOL    HW139443   3.449   1.591   6.072 -0.4107  1.4144  1.5398
 9269SOL    HW239444   3.325   1.651   6.013 -1.7736 -1.6041 -0.1466
 9270SOL     OW39445   1.012   2.933   6.099  0.0690 -0.3894  0.1965
 9270SOL    HW139446   1.065   2.933   6.019  0.2118  1.8064  0.3047
 9270SOL    HW239447   0.996   3.027   6.110  0.3883 -0.4177  0.9508
 9271SOL     OW39448   3.040   3.061  13.444 -0.6954 -0.1014 -0.5852
 9271SOL    HW139449   3.007   3.125  13.507 -2.0145 -1.6576  0.2843
 9271SOL    HW239450   3.119   3.102  13.409 -0.6700 -0.3839 -0.8534
 9272SOL     OW39451   2.519   4.309   5.479 -0.3343  0.3186  0.3408
 9272SOL    HW139452   2.510   4.215   5.493  0.7164  0.1813  0.0412
 9272SOL    HW239453   2.610   4.326   5.456 -0.9557  1.0070 -1.5888
 9273SOL     OW39454   4.008   1.761   8.572  0.8755  0.1559 -0.5091
 9273SOL    HW139455   3.987   1.729   8.660 -0.9162  0.5610 -0.7860
 9273SOL    HW239456   4.052   1.686   8.533  0.0855 -0.6807  0.2144
 9274SOL     OW39457   0.937   2.971   3.614 -0.0267  0.2815 -0.1084
 9274SOL    HW139458   0.981   2.995   3.532  0.1728 -1.5220 -0.5196
 9274SOL    HW239459   0.871   2.906   3.591  3.3283 -2.3467 -2.2773
 9275SOL     OW39460   3.417   3.113  10.398 -0.2950  0.4741  0.7464
 9275SOL    HW139461   3.422   3.045  10.465  0.0583 -0.2783 -0.0377
 9275SOL    HW239462   3.340   3.164  10.421 -0.2181 -0.0857  2.2674
 9276SOL     OW39463   1.064   0.949   2.281  0.2432  0.0861 -0.1835
 9276SOL    HW139464   1.072   0.886   2.352  2.7687  1.5730  0.8533
 9276SOL    HW239465   1.043   1.035   2.318  0.5102  0.1625 -0.2068
 9277SOL     OW39466   3.872   3.961  11.110  0.0206 -0.1697  0.1589
 9277SOL    HW139467   3.909   4.049  11.102  0.1195 -0.0937  1.4100
 9277SOL    HW239468   3.958   3.918  11.114 -1.2260 -2.7650 -0.9692
 9278SOL     OW39469   1.018   2.943   3.318 -0.2220 -0.6509  0.1555
 9278SOL    HW139470   1.052   3.028   3.347 -0.4857  0.5854 -3.2058
 9278SOL    HW239471   1.081   2.883   3.360 -1.8494 -0.7878  2.4112
 9279SOL     OW39472   0.103   0.665   2.817  0.5238  0.7162 -0.0144
 9279SOL    HW139473   0.121   0.672   2.911 -3.0217 -0.1138  0.7111
 9279SOL    HW239474   0.190   0.645   2.783  0.4938  0.2816  0.1694
 9280SOL     OW39475   2.430   0.208   9.351  0.2509 -0.0747  0.2659
 9280SOL    HW139476   2.369   0.194   9.424  0.6272 -0.5538  0.4924
 9280SOL    HW239477   2.508   0.236   9.399  1.3911  0.8714 -2.1799
 9281SOL     OW39478   0.748   2.208   5.438 -0.2602  0.1212 -0.2205
 9281SOL    HW139479   0.655   2.225   5.450 -0.1296 -0.6964  2.1135
 9281SOL    HW239480   0.783   2.282   5.488 -0.2317 -0.8303  1.1823
 9282SOL     OW39481   4.065   0.536   0.716  0.3618 -0.3989 -1.0186
 9282SOL    HW139482   4.022   0.452   0.735 -2.6401  1.1243 -1.2142
 9282SOL    HW239483   4.008   0.606   0.748  2.4877  0.2776  1.2789
 9283SOL     OW39484   2.752   0.126   3.632  0.3611 -0.4905 -0.7252
 9283SOL    HW139485   2.724   0.216   3.616  0.2384 -0.6308 -1.3324
 9283SOL    HW239486   2.815   0.129   3.704  2.7345  0.8636 -2.8636
 9284SOL     OW39487   2.836   0.895   7.056 -0.0787  0.1263  0.1925
 9284SOL    HW139488   2.878   0.846   7.127 -0.8156 -0.9583 -0.1077
 9284SOL    HW239489   2.912   0.941   7.020 -0.8287  0.9671 -0.3068
 9285SOL     OW39490   4.674   3.783   4.547 -0.1713 -0.1011 -0.2582
 9285SOL    HW139491   4.600   3.839   4.523  1.7308  0.7078 -4.1122
 9285SOL    HW239492   4.643   3.693   4.555  0.5952 -0.4110 -0.7942
 9286SOL     OW39493   2.844   1.008  11.325  0.7987 -0.2652  0.6039
 9286SOL    HW139494   2.908   1.057  11.377 -0.0638 -0.9684  2.3660
 9286SOL    HW239495   2.876   0.919  11.316  0.1279 -0.2155 -2.0896
 9287SOL     OW39496   2.333   2.722   8.590 -0.1245 -0.4346 -0.1664
 9287SOL    HW139497   2.384   2.707   8.670 -2.3795 -1.9178  0.9975
 9287SOL    HW239498   2.254   2.757   8.631  0.1942 -0.2059  0.2575
 9288SOL     OW39499   4.089   1.135   6.158  0.0128 -0.1814  0.5402
 9288SOL    HW139500   4.011   1.181   6.189  1.0897  1.8901  0.1607
 9288SOL    HW239501   4.150   1.207   6.141  0.6047 -1.0210 -0.8777
 9289SOL     OW39502   1.745   1.433   6.201  0.1666  0.1779 -0.8206
 9289SOL    HW139503   1.794   1.359   6.237 -0.6053 -0.3627 -0.8893
 9289SOL    HW239504   1.692   1.374   6.147 -1.0084 -0.3216  0.8793
 9290SOL     OW39505   2.852   1.263  14.006  0.4336  0.8057 -0.0711
 9290SOL    HW139506   2.775   1.220  13.970  1.0412  0.0174 -0.4400
 9290SOL    HW239507   2.855   1.248  14.100 -0.4536  0.3124 -0.1266
 9291SOL     OW39508   2.999   3.874   3.952  0.3120  0.4032 -0.1813
 9291SOL    HW139509   2.938   3.941   3.921 -1.7773 -2.3330 -1.9656
 9291SOL    HW239510   3.071   3.937   3.953  0.4872  0.2088 -0.4789
 9292SOL     OW39511   1.726   2.363  12.834  0.1201  0.0297 -0.2115
 9292SOL    HW139512   1.742   2.291  12.895 -2.2832 -1.9990 -1.9844
 9292SOL    HW239513   1.805   2.366  12.780  2.0971 -0.2795  2.6719
 9293SOL     OW39514   4.504   3.861   4.185 -0.4402  0.5664 -0.0932
 9293SOL    HW139515   4.469   3.814   4.108 -0.3374 -1.5776  1.1837
 9293SOL    HW239516   4.459   3.809   4.252  0.6191  0.5409  0.5835
 9294SOL     OW39517   4.371   3.721  10.610  0.1701 -0.1152  0.6785
 9294SOL    HW139518   4.329   3.663  10.547 -1.2275  2.5072 -0.8055
 9294SOL    HW239519   4.294   3.766  10.645 -1.7242 -0.0203 -3.5505
 9295SOL     OW39520   1.879   1.767   7.513 -0.4316  0.5636  0.6423
 9295SOL    HW139521   1.874   1.732   7.602 -0.5770  0.2144  0.4967
 9295SOL    HW239522   1.963   1.731   7.481 -1.7147 -0.2720 -1.8019
 9296SOL     OW39523   2.631   0.476   7.298 -0.4731  0.5582  0.1066
 9296SOL    HW139524   2.704   0.533   7.277 -0.4025 -0.7621 -3.2659
 9296SOL    HW239525   2.565   0.542   7.319  0.9496  1.9865  0.0887
 9297SOL     OW39526   0.578   3.862   6.602 -0.3351  0.2777  0.6246
 9297SOL    HW139527   0.540   3.799   6.540  2.2749  1.8671 -2.6287
 9297SOL    HW239528   0.559   3.818   6.684 -0.1830  1.6648  1.3955
 9298SOL     OW39529   2.654   4.035  12.658 -0.1170 -0.6788 -0.0354
 9298SOL    HW139530   2.630   3.967  12.595 -3.5885  0.7641 -0.2880
 9298SOL    HW239531   2.642   4.107  12.595 -0.4161 -0.3154  0.4397
 9299SOL     OW39532   1.927   3.466   8.114  0.4521 -0.2842  0.8664
 9299SOL    HW139533   1.897   3.376   8.100 -0.7113 -0.2308  3.0863
 9299SOL    HW239534   1.993   3.477   8.046  0.1725 -1.5262  0.3899
 9300SOL     OW39535   4.702   1.380  10.108  0.0354 -0.0861  0.3844
 9300SOL    HW139536   0.061   1.361  10.122  0.1442  0.5811  0.5781
 9300SOL    HW239537   4.690   1.438  10.033 -1.0744  0.8529  1.2969
 9301SOL     OW39538   4.652   0.121  14.504 -0.7814  0.1271  0.1859
 9301SOL    HW139539   4.677   0.127  14.412  0.0576  1.6702  0.5087
 9301SOL    HW239540   4.569   0.074  14.494 -0.6025  0.3150 -2.2803
 9302SOL     OW39541   1.826   2.638   3.498 -0.8116 -0.1323 -0.3974
 9302SOL    HW139542   1.920   2.625   3.481 -1.0957 -2.3235 -0.2991
 9302SOL    HW239543   1.839   2.722   3.543 -0.4621 -1.1800  1.4524
 9303SOL     OW39544   2.443   2.816   3.913 -0.5409 -0.5232  0.4306
 9303SOL    HW139545   2.465   2.728   3.944 -1.6696 -1.0039 -0.1441
 9303SOL    HW239546   2.521   2.869   3.931 -1.6613  1.1101  0.4763
 9304SOL     OW39547   0.503   4.412   4.746 -0.2371 -0.1771  0.5368
 9304SOL    HW139548   0.491   4.505   4.762  3.8829  0.3664  0.6226
 9304SOL    HW239549   0.423   4.378   4.785 -1.8106  0.3224 -2.2310
 9305SOL     OW39550   3.356   0.092   1.879 -0.6436  0.1319  0.5114
 9305SOL    HW139551   3.410   0.014   1.862  0.5077  1.3084 -1.1919
 9305SOL    HW239552   3.415   0.142   1.936  0.5187 -0.6884  0.0426
 9306SOL     OW39553   3.326   1.186  13.825 -0.1494 -0.7893 -0.0248
 9306SOL    HW139554   3.284   1.253  13.878  0.0208 -1.9371  1.5626
 9306SOL    HW239555   3.339   1.224  13.738  1.2572  0.8110  0.8732
 9307SOL     OW39556   2.254   3.242   0.058 -0.1261  0.5643  0.3151
 9307SOL    HW139557   2.245   3.287  17.705 -1.4220 -2.0658 -0.9420
 9307SOL    HW239558   2.350   3.242   0.063 -0.1832 -0.8919  1.4720
 9308SOL     OW39559   4.601   4.242   8.287 -0.3739 -0.2065  0.2542
 9308SOL    HW139560   4.537   4.287   8.233 -0.5448  0.6104  1.1461
 9308SOL    HW239561   4.685   4.257   8.244 -0.1212  0.9804  1.1584
 9309SOL     OW39562   1.329   4.209   9.466  0.1389 -0.2511 -0.2595
 9309SOL    HW139563   1.348   4.302   9.453  1.9784 -0.2255  2.7479
 9309SOL    HW239564   1.408   4.173   9.426 -1.5093 -1.8820 -2.0310
 9310SOL     OW39565   3.057   2.546  13.936  0.3678 -0.5041  0.5695
 9310SOL    HW139566   3.039   2.453  13.944 -3.2736 -0.0782 -2.4414
 9310SOL    HW239567   3.100   2.541  13.850  0.0694 -0.3852  0.4117
 9311SOL     OW39568   3.624   1.459   2.593  0.2473  0.5453 -0.3485
 9311SOL    HW139569   3.575   1.451   2.511 -0.4888 -0.3028  0.1682
 9311SOL    HW239570   3.703   1.413   2.564  0.4056  1.2353 -1.0098
 9312SOL     OW39571   1.225   3.096   5.717 -0.1617 -0.3325  0.3622
 9312SOL    HW139572   1.211   3.150   5.640  0.3951 -2.3293 -1.1215
 9312SOL    HW239573   1.231   3.160   5.789 -1.9452 -0.8548  0.9872
 9313SOL     OW39574   1.351   1.312  15.084 -0.1646  0.0575 -0.0854
 9313SOL    HW139575   1.367   1.317  15.178  0.7887  0.7166 -0.2846
 9313SOL    HW239576   1.427   1.367  15.068 -0.1954  0.8821  2.6405
 9314SOL     OW39577   1.131   0.862   6.486 -0.0024  0.4799 -0.1819
 9314SOL    HW139578   1.176   0.882   6.568 -1.8641 -0.9927  1.1839
 9314SOL    HW239579   1.041   0.854   6.516 -0.2141  1.9611 -0.4104
 9315SOL     OW39580   2.694   2.643  12.695 -0.7326  0.1382  0.2311
 9315SOL    HW139581   2.692   2.602  12.609  0.2778  1.0127 -0.2082
 9315SOL    HW239582   2.739   2.580  12.751  1.7180  1.0576 -0.7048
 9316SOL     OW39583   4.003   3.293   8.473  0.2103 -0.2374  0.1551
 9316SOL    HW139584   3.927   3.235   8.475 -2.1608  2.9539  1.7891
 9316SOL    HW239585   4.039   3.266   8.557 -0.6403  0.2388  0.6734
 9317SOL     OW39586   1.569   4.276   1.968 -0.2696  0.2749 -0.1618
 9317SOL    HW139587   1.522   4.243   2.045  0.2910 -1.5551 -0.6048
 9317SOL    HW239588   1.645   4.218   1.977 -0.0912  0.6261  0.5801
 9318SOL     OW39589   4.046   2.282  10.726 -0.3161  0.0137 -0.4451
 9318SOL    HW139590   3.991   2.223  10.675  1.7218 -2.9792  0.8642
 9318SOL    HW239591   4.036   2.265  10.820  2.3826 -0.4380 -0.2561
 9319SOL     OW39592   0.291   2.051  11.242 -0.0504 -1.2602  0.9013
 9319SOL    HW139593   0.282   2.018  11.332 -3.8780 -2.8476 -0.0565
 9319SOL    HW239594   0.312   1.965  11.205  0.1713 -1.2296  0.9570
 9320SOL     OW39595   4.000   1.416  10.310 -0.2619  0.0887 -0.0313
 9320SOL    HW139596   4.037   1.422  10.398  0.8439  0.2247 -0.5007
 9320SOL    HW239597   3.979   1.323  10.305 -2.0449  0.4955  0.0143
 9321SOL     OW39598   2.158   0.526   2.467 -0.2670  0.1559  0.3303
 9321SOL    HW139599   2.130   0.435   2.475 -1.8056  0.7442  1.5001
 9321SOL    HW239600   2.071   0.561   2.486  0.4280  0.0313  3.7175
 9322SOL     OW39601   0.521   0.120   4.484  0.8129  0.1424  0.1809
 9322SOL    HW139602   0.458   0.143   4.416 -0.5601  2.6006  2.2900
 9322SOL    HW239603   0.602   0.151   4.445  1.4112  1.3980  2.4509
 9323SOL     OW39604   4.204   3.304   4.651 -0.4902 -0.2294 -0.8398
 9323SOL    HW139605   4.177   3.264   4.568  0.9845 -0.6911 -1.0972
 9323SOL    HW239606   4.132   3.286   4.711  0.8978  0.6993  1.1079
 9324SOL     OW39607   2.910   0.768  11.266 -0.8436 -0.1349  0.2166
 9324SOL    HW139608   2.849   0.717  11.320 -3.9589  0.3856 -2.7838
 9324SOL    HW239609   2.976   0.699  11.258 -1.5314 -0.6329 -1.2915
 9325SOL     OW39610   0.449   2.394   0.729 -0.1962  0.3053 -0.2287
 9325SOL    HW139611   0.488   2.316   0.769 -0.0106 -0.2064 -1.3959
 9325SOL    HW239612   0.405   2.441   0.800  0.8162 -0.7930  1.1089
 9326SOL     OW39613   4.468   4.653  14.427  0.3901 -0.0366 -0.2627
 9326SOL    HW139614   4.416   4.575  14.408 -3.7969  3.3302 -2.4455
 9326SOL    HW239615   4.444   4.714  14.358  2.0184  1.6838  0.6877
 9327SOL     OW39616   4.450   4.656   9.120 -0.4320  0.3612 -0.1915
 9327SOL    HW139617   4.369   4.652   9.069  0.4144 -2.8256 -1.2955
 9327SOL    HW239618   4.462   0.018   9.123 -0.2465  0.2868  1.4049
 9328SOL     OW39619   1.962   2.952   6.331 -0.6202  0.8360 -0.4809
 9328SOL    HW139620   1.998   2.873   6.371  1.0952  0.1823 -3.2705
 9328SOL    HW239621   1.916   2.991   6.405  0.5852  0.3562  0.5128
 9329SOL     OW39622   4.236   3.356   6.914  0.0855  0.3215 -0.9615
 9329SOL    HW139623   4.193   3.272   6.901  0.9726 -0.7894  3.1022
 9329SOL    HW239624   4.276   3.344   7.001 -1.6605  0.0880 -0.1883
 9330SOL     OW39625   0.763   3.540  16.644  0.2503 -0.4793 -0.0244
 9330SOL    HW139626   0.699   3.475  16.672  0.4739 -0.3514  0.7808
 9330SOL    HW239627   0.731   3.620  16.687  0.5340 -0.8275  0.8430
 9331SOL     OW39628   3.170   1.076  12.442  0.0659 -0.5733  0.5202
 9331SOL    HW139629   3.151   1.150  12.384  0.2533 -1.2683 -0.4332
 9331SOL    HW239630   3.259   1.047  12.422  0.2746 -0.1674  0.8797
 9332SOL     OW39631   2.614   3.692   5.177  0.1391 -0.0355  0.0341
 9332SOL    HW139632   2.656   3.633   5.240 -1.1676 -1.8576 -0.8317
 9332SOL    HW239633   2.523   3.676   5.201  0.2910 -0.1873  0.5145
 9333SOL     OW39634   1.137   4.704   9.854 -0.9190  0.3673 -0.1896
 9333SOL    HW139635   1.227   4.679   9.876 -0.9763 -0.2932 -0.7143
 9333SOL    HW239636   1.139   4.710   9.759 -1.6894 -3.6540 -0.4567
 9334SOL     OW39637   3.519   2.357  16.079 -0.0690  0.6015 -0.2257
 9334SOL    HW139638   3.485   2.441  16.110 -0.2109  0.3210  0.3864
 9334SOL    HW239639   3.452   2.338  16.015 -0.0867  3.2401 -0.9957
 9335SOL     OW39640   4.715   1.629   4.811  0.1059 -0.1417 -0.1843
 9335SOL    HW139641   4.729   1.640   4.717  3.1076  0.3832  0.3488
 9335SOL    HW239642   0.010   1.539   4.823 -1.2278 -0.5946 -0.3852
 9336SOL     OW39643   3.056   1.604   8.521 -0.0277  0.5762  0.3563
 9336SOL    HW139644   2.980   1.639   8.568 -0.1615  0.4986  0.1991
 9336SOL    HW239645   3.030   1.517   8.489 -3.3769  1.3295  1.0030
 9337SOL     OW39646   1.707   3.383   8.867 -0.5160  0.1917 -0.1167
 9337SOL    HW139647   1.655   3.439   8.809  1.7831  2.3729 -0.0414
 9337SOL    HW239648   1.712   3.298   8.824  0.2312  0.5759 -0.7866
 9338SOL     OW39649   0.343   4.525   5.731  0.0170 -0.1984  0.0190
 9338SOL    HW139650   0.264   4.576   5.715 -0.1440  0.0565  1.6263
 9338SOL    HW239651   0.360   4.550   5.822 -1.1973  1.5593 -0.2292
 9339SOL     OW39652   0.294   2.691  11.983  0.1483  0.6226  0.0615
 9339SOL    HW139653   0.259   2.779  11.996  0.5213  1.0140 -1.5647
 9339SOL    HW239654   0.302   2.681  12.078 -0.2492  0.3276  0.0631
 9340SOL     OW39655   0.071   2.564   2.392  0.5136  0.0974  0.1687
 9340SOL    HW139656   4.718   2.554   2.350  0.7279  1.5232 -0.6246
 9340SOL    HW239657   0.060   2.655   2.419 -1.5477  0.0535 -0.5247
 9341SOL     OW39658   3.069   3.742   6.560  0.0604  0.0456 -0.0620
 9341SOL    HW139659   3.038   3.812   6.502  2.5518  0.7697 -0.5360
 9341SOL    HW239660   3.132   3.785   6.618  1.4458 -0.4662 -1.1658
 9342SOL     OW39661   0.026   4.702   7.000 -0.3653 -0.1202 -0.0365
 9342SOL    HW139662   0.117   4.712   7.030 -0.6653  2.3201  0.1103
 9342SOL    HW239663   4.724   4.658   7.077 -1.5627 -0.9578 -1.0617
 9343SOL     OW39664   0.670   2.038  12.630 -0.2319 -0.5381  1.0274
 9343SOL    HW139665   0.710   2.031  12.716 -0.1262 -3.4505  0.7209
 9343SOL    HW239666   0.623   1.955  12.633 -0.1867 -0.5416  1.5768
 9344SOL     OW39667   3.010   0.932   1.525  0.1782 -0.3717 -0.2411
 9344SOL    HW139668   3.064   1.009   1.537  2.0728 -1.8279  0.5859
 9344SOL    HW239669   2.942   0.961   1.464  0.8116  0.3165 -0.6182
 9345SOL     OW39670   3.892   3.572   8.485 -0.1161 -0.5986 -0.0265
 9345SOL    HW139671   3.963   3.522   8.445  0.4467  0.4756 -0.3792
 9345SOL    HW239672   3.872   3.523   8.565 -0.6111 -0.9500 -0.3650
 9346SOL     OW39673   3.023   4.426   5.781 -0.2232  0.3527  0.2520
 9346SOL    HW139674   3.050   4.336   5.799 -1.1544  0.5053  2.3448
 9346SOL    HW239675   2.932   4.433   5.811 -0.0616  3.2211  0.0715
 9347SOL     OW39676   4.489   4.639  13.220  0.3609  0.0731  0.7099
 9347SOL    HW139677   4.465   4.670  13.307  2.5683  2.0856  0.6182
 9347SOL    HW239678   4.503   4.720  13.171 -1.1593 -1.2552 -1.9061
 9348SOL     OW39679   1.168   4.347  16.583 -0.0589 -0.1460 -0.3821
 9348SOL    HW139680   1.109   4.296  16.638 -1.5131  0.1241 -1.6807
 9348SOL    HW239681   1.216   4.390  16.654  0.6334  0.5058 -1.2476
 9349SOL     OW39682   4.047   2.747  14.644  0.1231  0.0686 -0.1121
 9349SOL    HW139683   4.106   2.718  14.714  0.1822 -0.8459 -0.5385
 9349SOL    HW239684   3.970   2.765  14.699 -0.2941  0.8427 -0.9457
 9350SOL     OW39685   3.012   4.525   9.412 -0.3661  0.1229 -0.3484
 9350SOL    HW139686   2.954   4.540   9.486  0.9063  0.8575  0.4950
 9350SOL    HW239687   2.950   4.494   9.347 -0.3654 -0.5850 -0.0084
 9351SOL     OW39688   1.882   3.939   3.213  0.4406 -0.3205 -0.7152
 9351SOL    HW139689   1.879   3.989   3.131  0.8881 -2.1714 -1.8607
 9351SOL    HW239690   1.815   3.981   3.267 -1.8308 -2.2404 -2.0420
 9352SOL     OW39691   2.009   3.495   8.392 -0.3418 -1.0678 -0.2506
 9352SOL    HW139692   1.961   3.419   8.424 -1.0368 -0.0611  1.0751
 9352SOL    HW239693   2.001   3.501   8.297  0.3484  1.6463 -0.1462
 9353SOL     OW39694   0.595   3.818  12.981  0.1227 -0.2316  0.5450
 9353SOL    HW139695   0.592   3.911  12.959 -0.8095  0.0984  2.0427
 9353SOL    HW239696   0.649   3.769  12.919  0.2491 -1.4448  1.6066
 9354SOL     OW39697   3.568   3.010  13.601 -0.1770  0.0131 -0.2707
 9354SOL    HW139698   3.511   2.943  13.564  1.1597 -1.3636  0.1327
 9354SOL    HW239699   3.565   2.990  13.695 -1.1785  0.1503 -0.2743
 9355SOL     OW39700   2.234   0.241   4.893  0.0914 -0.1465 -0.3470
 9355SOL    HW139701   2.290   0.318   4.906 -1.8847  1.2306 -0.0562
 9355SOL    HW239702   2.184   0.281   4.822  1.6478  2.9374  0.3038
 9356SOL     OW39703   3.021   1.955  17.574  0.2336 -0.1253  0.0278
 9356SOL    HW139704   3.064   2.005  17.643 -1.5289  0.6399  0.5370
 9356SOL    HW239705   3.078   1.975  17.499  1.4223  0.8366  1.1913
 9357SOL     OW39706   3.693   3.798  12.638 -0.4369 -0.7794  0.1660
 9357SOL    HW139707   3.782   3.811  12.671 -0.2060  0.4902 -0.9389
 9357SOL    HW239708   3.656   3.737  12.702 -0.6269  0.2165  1.0087
 9358SOL     OW39709   0.664   0.267  14.599 -0.5544 -0.7148  0.2019
 9358SOL    HW139710   0.596   0.254  14.534  1.0362  0.6141 -1.7225
 9358SOL    HW239711   0.614   0.274  14.680 -1.9194 -1.2680 -0.6080
 9359SOL     OW39712   1.921   0.464   0.503 -0.3585 -0.3436  0.8871
 9359SOL    HW139713   1.907   0.370   0.491 -1.3905 -0.0739 -0.0199
 9359SOL    HW239714   1.969   0.485   0.423 -1.1858  1.1542  0.7948
 9360SOL     OW39715   0.531   3.686   2.320  0.7895 -0.1795 -0.0840
 9360SOL    HW139716   0.492   3.751   2.379  0.1396  0.0400 -0.7489
 9360SOL    HW239717   0.454   3.636   2.294 -0.3214  0.9999  0.9248
 9361SOL     OW39718   3.511   4.552   7.240  0.0791  0.7043 -0.0691
 9361SOL    HW139719   3.532   4.459   7.244 -0.5886  0.6113  1.1091
 9361SOL    HW239720   3.456   4.556   7.318  0.8197  1.0743  0.4337
 9362SOL     OW39721   1.430   2.619  12.579 -0.0471  0.2604 -0.2831
 9362SOL    HW139722   1.453   2.536  12.538  1.2678  0.3059  0.3437
 9362SOL    HW239723   1.336   2.625  12.589 -0.0493 -2.0028  1.0061
 9363SOL     OW39724   4.301   0.162   8.960  0.2073 -0.7648  0.1353
 9363SOL    HW139725   4.378   0.218   8.968  0.0787 -0.6631  0.6267
 9363SOL    HW239726   4.316   0.160   8.865  1.9367 -0.2606  0.4074
 9364SOL     OW39727   2.520   2.071   5.295  0.8240 -0.7995 -0.4808
 9364SOL    HW139728   2.488   2.036   5.211 -0.9032 -1.1888  0.3466
 9364SOL    HW239729   2.539   2.163   5.278  0.0207 -0.6344 -0.4910
 9365SOL     OW39730   1.944   1.197   4.722  0.2590 -0.0828 -0.1013
 9365SOL    HW139731   2.026   1.149   4.710  0.6910  0.2654  1.3924
 9365SOL    HW239732   1.975   1.286   4.743  1.1568 -0.0879 -1.3847
 9366SOL     OW39733   1.877   1.144  15.674 -0.2323  0.3511 -0.3544
 9366SOL    HW139734   1.900   1.099  15.755  0.4039 -0.5996 -1.0671
 9366SOL    HW239735   1.960   1.183  15.649 -1.7855  1.4366 -3.7593
 9367SOL     OW39736   3.567   4.373   3.013  0.4872 -0.1201  0.0648
 9367SOL    HW139737   3.567   4.286   2.973  0.0826  0.5348 -1.3908
 9367SOL    HW239738   3.658   4.375   3.041  0.5194 -2.9613  0.1485
 9368SOL     OW39739   1.996   2.255   5.782 -0.1472  0.0005  0.0145
 9368SOL    HW139740   1.922   2.311   5.757 -0.5558 -0.9469 -0.8614
 9368SOL    HW239741   2.041   2.317   5.840  0.5751  0.0315 -0.5898
 9369SOL     OW39742   1.848   4.326   4.791 -0.3115 -0.4801  0.0056
 9369SOL    HW139743   1.795   4.321   4.712  0.3543  0.5336 -0.4978
 9369SOL    HW239744   1.931   4.361   4.759 -1.7335  1.7317 -1.1893
 9370SOL     OW39745   2.892   0.162   9.400  0.3243 -0.4503 -0.0753
 9370SOL    HW139746   2.857   0.104   9.333 -0.3683  0.2635 -0.3315
 9370SOL    HW239747   2.973   0.193   9.360  0.6687  0.1045  1.0270
 9371SOL     OW39748   0.308   2.311   4.709 -0.4561 -0.5582 -0.3342
 9371SOL    HW139749   0.310   2.223   4.746  0.4334 -0.2166  0.4334
 9371SOL    HW239750   0.364   2.356   4.774 -1.2454  1.1298 -0.8141
 9372SOL     OW39751   1.096   4.278   6.645 -0.2015  0.1127  0.2343
 9372SOL    HW139752   1.143   4.249   6.723  1.5938 -0.2756 -0.9887
 9372SOL    HW239753   1.062   4.191   6.622 -0.1232  0.4624 -1.2257
 9373SOL     OW39754   3.824   0.363  13.606 -0.0320 -0.5060 -0.3949
 9373SOL    HW139755   3.839   0.458  13.610 -1.1225 -0.3785  0.4965
 9373SOL    HW239756   3.859   0.340  13.520  1.8857 -1.4757  0.6478
 9374SOL     OW39757   3.038   0.781   9.297 -0.1020  0.8516  0.6996
 9374SOL    HW139758   3.112   0.841   9.302  2.9556 -2.9051  0.6386
 9374SOL    HW239759   3.028   0.753   9.388  1.2220  1.6977  1.1037
 9375SOL     OW39760   0.200   3.371   9.434 -0.4864  0.0760 -0.5629
 9375SOL    HW139761   0.189   3.280   9.461 -0.0939  0.1665 -0.1038
 9375SOL    HW239762   0.200   3.418   9.517  0.8643 -0.8528 -0.0303
 9376SOL     OW39763   3.815   2.449  14.447  0.1123  0.0048  0.2110
 9376SOL    HW139764   3.869   2.523  14.418  0.9307 -0.5935  0.2067
 9376SOL    HW239765   3.839   2.378  14.387 -1.6798 -0.0242 -0.4668
 9377SOL     OW39766   1.433   1.875  10.834  0.2506 -0.1336  0.5037
 9377SOL    HW139767   1.485   1.813  10.782 -0.0899 -0.9901  1.1887
 9377SOL    HW239768   1.446   1.840  10.922 -0.8468  0.6973  0.9944
 9378SOL     OW39769   4.459   0.219   5.402 -0.2070 -0.3153 -0.2397
 9378SOL    HW139770   4.487   0.311   5.408 -2.2697  0.3871 -1.2079
 9378SOL    HW239771   4.365   0.222   5.420 -0.5743 -1.4415 -1.9460
 9379SOL     OW39772   3.727   1.478   7.136  0.0691 -0.3180 -0.2027
 9379SOL    HW139773   3.735   1.438   7.049  0.0751 -0.7868  0.0114
 9379SOL    HW239774   3.785   1.553   7.126 -0.6086  0.1415 -0.7290
 9380SOL     OW39775   1.305   2.556   3.616 -0.0648  0.5523  0.4622
 9380SOL    HW139776   1.387   2.603   3.602  0.2499 -0.0129  0.4135
 9380SOL    HW239777   1.282   2.573   3.707 -0.1143 -0.2922  0.6070
 9381SOL     OW39778   0.331   3.975  16.667  0.1773 -0.2425  0.2512
 9381SOL    HW139779   0.372   3.912  16.726  0.7768 -3.0391 -3.0756
 9381SOL    HW239780   0.344   3.930  16.583 -0.0086  0.7177 -0.2843
 9382SOL     OW39781   4.307   1.693  16.100  0.0892  0.1079 -0.2123
 9382SOL    HW139782   4.342   1.752  16.167 -1.5285 -0.6157  1.2659
 9382SOL    HW239783   4.215   1.717  16.087  0.2929  1.7024  1.1752
 9383SOL     OW39784   4.419   2.762   6.261  0.0280  0.1167 -0.8020
 9383SOL    HW139785   4.345   2.805   6.304  1.1852  1.1131  0.1883
 9383SOL    HW239786   4.468   2.737   6.339 -2.9665 -0.6712  0.8180
 9384SOL     OW39787   4.701   0.585   7.201  0.0531 -0.1933 -0.0234
 9384SOL    HW139788   4.620   0.590   7.251  1.1359  1.5145  1.5437
 9384SOL    HW239789   0.033   0.588   7.270  0.3578  1.5016 -0.4008
 9385SOL     OW39790   3.598   2.862   3.895 -0.7691  0.5965  0.3949
 9385SOL    HW139791   3.547   2.826   3.967 -0.7892 -0.1537  0.0028
 9385SOL    HW239792   3.684   2.829   3.919 -1.8186 -1.7479  0.8549
 9386SOL     OW39793   3.512   4.005  15.133  0.0077 -0.1361  0.7762
 9386SOL    HW139794   3.455   3.954  15.190  0.4971 -0.0453  1.3537
 9386SOL    HW239795   3.451   4.043  15.070  0.0517  0.2986  0.9969
 9387SOL     OW39796   3.770   2.483  17.341 -0.0006 -0.0803  0.5215
 9387SOL    HW139797   3.713   2.434  17.400 -0.4454 -0.7069 -0.4342
 9387SOL    HW239798   3.853   2.444  17.368  0.5396 -1.0155 -2.5144
 9388SOL     OW39799   4.545   1.873   7.014  0.0217  0.0763  0.3636
 9388SOL    HW139800   4.579   1.954   6.978  1.1994 -0.2750  0.6633
 9388SOL    HW239801   4.615   1.862   7.079  0.8089  0.8001 -0.3590
 9389SOL     OW39802   1.365   1.987  10.135  0.3867 -0.1150  0.1052
 9389SOL    HW139803   1.435   2.041  10.097  0.8269 -0.5841  0.2520
 9389SOL    HW239804   1.293   2.040  10.101  0.0801 -0.5455  0.0812
 9390SOL     OW39805   0.652   4.094   8.682 -0.2313  0.2422  0.2300
 9390SOL    HW139806   0.600   4.028   8.637 -1.6072  1.7059 -0.3298
 9390SOL    HW239807   0.714   4.043   8.734 -1.4512 -0.5609  0.8940
 9391SOL     OW39808   2.968   0.521   4.829  0.1838  0.1195 -0.0406
 9391SOL    HW139809   3.040   0.559   4.778  0.6719 -0.4697  0.2044
 9391SOL    HW239810   3.031   0.475   4.885  1.1365  3.0993  1.3596
 9392SOL     OW39811   3.348   3.441  17.159  0.6217  0.5937 -0.1768
 9392SOL    HW139812   3.407   3.390  17.215  2.2487  1.8861 -0.7426
 9392SOL    HW239813   3.345   3.398  17.074 -1.9463  0.1742  0.1318
 9393SOL     OW39814   3.306   2.201   4.899  0.0113 -0.1556  0.1427
 9393SOL    HW139815   3.246   2.174   4.968  1.3398 -1.3378  0.8409
 9393SOL    HW239816   3.314   2.293   4.925  0.0057 -0.3306  0.7734
 9394SOL     OW39817   1.616   2.674   9.457  0.4782 -0.0219  0.2982
 9394SOL    HW139818   1.535   2.699   9.413  0.8218 -0.2177 -0.4395
 9394SOL    HW239819   1.577   2.667   9.545  2.6844 -0.3086  1.2606
 9395SOL     OW39820   0.693   2.120   4.793  0.6788  0.2587 -0.0272
 9395SOL    HW139821   0.629   2.125   4.723  1.0053 -2.8999 -0.5364
 9395SOL    HW239822   0.678   2.209   4.827 -0.8859  0.4036 -1.0613
 9396SOL     OW39823   3.451   0.766   3.256 -0.0395  0.2912 -0.1474
 9396SOL    HW139824   3.519   0.743   3.320 -1.4898 -1.1564  0.8714
 9396SOL    HW239825   3.490   0.846   3.221 -0.9218  0.5737 -0.4765
 9397SOL     OW39826   2.591   2.380   9.117  0.5283  0.2467 -0.1993
 9397SOL    HW139827   2.618   2.464   9.082 -1.0555  0.2331 -1.4706
 9397SOL    HW239828   2.498   2.401   9.127  0.0102 -2.3635  0.6763
 9398SOL     OW39829   2.321   0.902  11.848  0.2169  0.0942 -0.0454
 9398SOL    HW139830   2.305   0.996  11.858  0.5657 -0.1359  2.7321
 9398SOL    HW239831   2.232   0.870  11.866  1.3009 -1.9880  1.7111
 9399SOL     OW39832   2.783   2.519  13.650  0.2870  0.2336 -0.0241
 9399SOL    HW139833   2.734   2.601  13.654  1.6457  0.9439  2.3806
 9399SOL    HW239834   2.706   2.465  13.637  1.5094 -0.9727 -2.2534
 9400SOL     OW39835   2.295   3.497   8.203 -0.0344 -0.1506  0.1016
 9400SOL    HW139836   2.223   3.437   8.183 -2.8060  2.6194  1.8010
 9400SOL    HW239837   2.317   3.531   8.116  1.6379 -0.0909  0.5488
 9401SOL     OW39838   0.198   1.416  11.421  0.5303  0.0946 -0.1798
 9401SOL    HW139839   0.209   1.373  11.506 -0.3643  0.6296  0.1984
 9401SOL    HW239840   0.182   1.345  11.358 -1.7413 -1.9264  2.6680
 9402SOL     OW39841   3.450   2.935   7.754  0.6212  0.4136 -0.1407
 9402SOL    HW139842   3.535   2.964   7.721 -0.6104  1.6824 -2.2100
 9402SOL    HW239843   3.471   2.859   7.809  1.9432 -0.3631 -1.7486
 9403SOL     OW39844   4.724   2.044  17.087 -0.0896 -0.0516 -0.0242
 9403SOL    HW139845   0.058   2.029  17.153 -0.8934  0.5736  0.9346
 9403SOL    HW239846   4.694   2.127  17.124 -0.6377 -0.7527  1.0947
 9404SOL     OW39847   4.356   1.752   6.665  0.2107  0.4222  0.9759
 9404SOL    HW139848   4.285   1.687   6.671  0.0929  0.5435  0.8915
 9404SOL    HW239849   4.372   1.744   6.571  0.1142  0.5001  0.9522
 9405SOL     OW39850   3.310   2.937   5.064  0.6024 -0.1293 -0.3297
 9405SOL    HW139851   3.348   3.018   5.098 -1.8187  0.0369  1.9927
 9405SOL    HW239852   3.218   2.953   5.085  0.1971 -2.8527 -0.1222
 9406SOL     OW39853   4.270   1.185   8.082  0.0840 -0.3613  0.4100
 9406SOL    HW139854   4.348   1.168   8.135  1.7285  1.4375 -1.4379
 9406SOL    HW239855   4.216   1.228   8.148 -0.3255  1.1878 -0.9580
 9407SOL     OW39856   2.580   4.699  11.939 -0.4163 -0.7944 -0.8237
 9407SOL    HW139857   2.619   4.666  12.020  0.7666  1.3173 -0.5361
 9407SOL    HW239858   2.526   0.040  11.966  2.0247  1.4555 -2.1267
 9408SOL     OW39859   0.525   4.111  10.202 -0.0905 -0.3385 -0.0829
 9408SOL    HW139860   0.617   4.114  10.228 -0.0680 -1.4142 -0.0427
 9408SOL    HW239861   0.484   4.171  10.264 -0.1992  2.5198 -2.9448
 9409SOL     OW39862   0.889   3.819   9.223 -0.7170  0.9034 -0.6233
 9409SOL    HW139863   0.832   3.816   9.300  2.1423  1.9493  1.5437
 9409SOL    HW239864   0.828   3.838   9.152 -0.0329 -0.2873 -1.5272
 9410SOL     OW39865   1.361   0.039   9.001  0.3420 -0.3653  0.9284
 9410SOL    HW139866   1.367   4.680   8.976  2.4571 -0.1590  0.6801
 9410SOL    HW239867   1.327   0.028   9.089  0.1272 -1.4500  0.7089
 9411SOL     OW39868   0.835   3.031   7.450 -0.1352 -0.1647 -0.1222
 9411SOL    HW139869   0.771   3.048   7.519 -0.2449  0.0696 -0.2828
 9411SOL    HW239870   0.893   2.970   7.496  0.9126  0.0061 -1.2225
 9412SOL     OW39871   3.407   2.811  12.082  0.6554  0.7117 -0.1843
 9412SOL    HW139872   3.347   2.807  12.156 -1.8728  0.2551 -2.2610
 9412SOL    HW239873   3.482   2.758  12.109 -0.8997 -0.6812  1.4010
 9413SOL     OW39874   2.533   0.619  15.365 -0.2905  0.1167 -0.2999
 9413SOL    HW139875   2.459   0.643  15.309 -1.1756 -0.9001  0.4366
 9413SOL    HW239876   2.589   0.695  15.348  0.3103 -0.6387 -1.5806
 9414SOL     OW39877   3.778   4.404   4.701  0.2031  0.0282 -0.5741
 9414SOL    HW139878   3.684   4.414   4.686  0.1459  2.0409  1.1896
 9414SOL    HW239879   3.806   4.357   4.623  1.5974 -2.6333  1.5057
 9415SOL     OW39880   4.456   4.363   7.824  0.0718 -0.0930  0.1104
 9415SOL    HW139881   4.501   4.315   7.894  2.5307  1.6911 -0.2638
 9415SOL    HW239882   4.456   4.451   7.862  0.9859  1.2843 -3.0579
 9416SOL     OW39883   2.575   4.678   2.785 -0.0859  0.6235  0.6852
 9416SOL    HW139884   2.594   4.629   2.706 -0.2502  1.0994  0.3447
 9416SOL    HW239885   2.647   0.008   2.787 -0.6126  1.2474 -0.2770
 9417SOL     OW39886   1.852   1.395  13.428 -0.1500  0.4914  0.3962
 9417SOL    HW139887   1.821   1.341  13.501  3.0344  0.0632  1.4378
 9417SOL    HW239888   1.944   1.370  13.424 -0.4474 -0.4193 -0.7625
 9418SOL     OW39889   2.698   1.686  15.543  0.1777  0.2479 -0.1805
 9418SOL    HW139890   2.732   1.693  15.632 -1.9010  0.7869  0.5865
 9418SOL    HW239891   2.772   1.642  15.501 -0.0886  2.2643 -2.7383
 9419SOL     OW39892   3.891   4.295   3.286 -0.0756 -0.0674  0.4299
 9419SOL    HW139893   3.871   4.269   3.376 -0.7474  1.0914  0.6269
 9419SOL    HW239894   3.942   4.221   3.254  1.1893  1.2122 -0.5065
 9420SOL     OW39895   0.711   4.206   2.924 -0.3179  0.3504 -0.5723
 9420SOL    HW139896   0.721   4.145   2.997 -0.1854 -0.5708 -1.3646
 9420SOL    HW239897   0.802   4.217   2.894 -0.6888  0.4978 -1.6680
 9421SOL     OW39898   4.699   1.743  12.107 -0.0264  0.2764  0.2682
 9421SOL    HW139899   0.031   1.688  12.151 -0.4145 -0.9142 -0.6562
 9421SOL    HW239900   0.007   1.829  12.096  2.1818 -1.4932 -4.8476
 9422SOL     OW39901   0.993   1.947  11.724 -0.5767 -0.0021  0.2784
 9422SOL    HW139902   1.033   2.000  11.656 -0.4607  2.5826  2.3622
 9422SOL    HW239903   1.063   1.932  11.788 -0.5472 -1.4634 -0.0860
 9423SOL     OW39904   2.999   3.595   5.342  0.1018  0.3677  0.2732
 9423SOL    HW139905   3.042   3.673   5.306 -1.4101  0.7727 -0.6541
 9423SOL    HW239906   3.027   3.619   5.431  0.3245  3.1100 -0.5436
 9424SOL     OW39907   0.665   1.105   3.734  0.0410 -0.0775  0.1879
 9424SOL    HW139908   0.720   1.184   3.742  2.3477 -1.5737 -0.8840
 9424SOL    HW239909   0.725   1.032   3.747  0.9442  0.4644 -0.8739
 9425SOL     OW39910   2.747   1.066   0.689  0.1839 -0.3232  0.2403
 9425SOL    HW139911   2.821   1.006   0.687 -0.1990 -0.8839  2.3532
 9425SOL    HW239912   2.731   1.066   0.784 -0.7376 -1.5737  0.0700
 9426SOL     OW39913   3.275   2.721   0.489  0.8455  0.0581  0.0124
 9426SOL    HW139914   3.369   2.709   0.505  0.4119  0.3677  2.7936
 9426SOL    HW239915   3.276   2.803   0.441  0.2422 -1.0933 -1.9750
 9427SOL     OW39916   1.714   2.879   5.958  0.6990  0.9824 -0.5951
 9427SOL    HW139917   1.643   2.876   6.022 -1.5992  0.7899 -3.1354
 9427SOL    HW239918   1.795   2.899   6.005  0.2674  0.9536  0.1478
 9428SOL     OW39919   0.032   1.161  15.500  0.0932  0.3662  0.3743
 9428SOL    HW139920   0.114   1.112  15.503  0.3145  0.7806  1.1070
 9428SOL    HW239921   4.723   1.096  15.444  2.3027 -0.0998 -0.7385
 9429SOL     OW39922   1.566   1.760  14.551 -0.1795 -0.1523 -0.0827
 9429SOL    HW139923   1.649   1.807  14.561  0.3417 -1.4891  1.8892
 9429SOL    HW239924   1.555   1.709  14.631 -0.2627  2.8567  1.8511
 9430SOL     OW39925   2.122   0.494  16.344  0.4223 -0.1029  0.0184
 9430SOL    HW139926   2.049   0.448  16.303  1.0506 -0.8801 -0.2262
 9430SOL    HW239927   2.131   0.438  16.421 -0.2265 -0.2029  0.0157
 9431SOL     OW39928   0.339   4.583   5.992 -0.2436  0.4666 -1.1365
 9431SOL    HW139929   0.311   4.631   6.070 -0.6786 -0.2044 -0.8841
 9431SOL    HW239930   0.349   4.492   6.023 -1.5899  1.7260  3.0603
 9432SOL     OW39931   1.954   0.930   5.960 -0.0144  0.0472  0.6958
 9432SOL    HW139932   2.032   0.885   5.992 -0.4626 -2.3009 -1.5227
 9432SOL    HW239933   1.901   0.851   5.957 -1.2670  0.9354 -0.4556
 9433SOL     OW39934   4.181   1.623  13.924 -0.1455  0.5456  0.0523
 9433SOL    HW139935   4.236   1.566  13.871  1.2820  0.5972  1.4915
 9433SOL    HW239936   4.177   1.573  14.005 -1.6535 -1.7907 -1.4569
 9434SOL     OW39937   2.615   4.422   6.878 -0.0430 -0.2458  0.2437
 9434SOL    HW139938   2.639   4.334   6.908 -0.6102  0.0928  1.7101
 9434SOL    HW239939   2.693   4.453   6.832  2.0602  0.6487  4.3701
 9435SOL     OW39940   3.559   0.295  10.037 -0.2235 -0.1022  0.1405
 9435SOL    HW139941   3.470   0.264  10.021  0.4840 -1.7241 -0.7805
 9435SOL    HW239942   3.568   0.363   9.970 -0.7794  2.4684  2.7012
 9436SOL     OW39943   2.045   1.981   8.711  0.8079 -0.0792  0.5263
 9436SOL    HW139944   2.096   2.057   8.683 -0.0330  0.7514  1.2434
 9436SOL    HW239945   2.109   1.916   8.683  0.9103  0.2771 -0.0684
 9437SOL     OW39946   4.045   2.713   6.176  0.2750 -0.1251 -0.3435
 9437SOL    HW139947   3.967   2.748   6.219  1.6539  1.6246  0.7325
 9437SOL    HW239948   4.084   2.787   6.130  1.2334  0.6953  1.7599
 9438SOL     OW39949   0.600   1.853   8.855  0.2854  0.2509  0.0589
 9438SOL    HW139950   0.664   1.922   8.871  1.7589 -0.8578 -0.9521
 9438SOL    HW239951   0.527   1.891   8.903  0.2683 -1.0614  1.0938
 9439SOL     OW39952   3.395   1.488  12.332 -0.2264  0.0546 -0.1706
 9439SOL    HW139953   3.425   1.524  12.416 -0.2079  0.3946 -0.3253
 9439SOL    HW239954   3.407   1.396  12.357 -0.5773 -0.0317 -0.3243
 9440SOL     OW39955   2.628   0.265   5.100 -0.0077 -0.4429 -0.2606
 9440SOL    HW139956   2.648   0.353   5.068 -0.0491 -0.2532  0.2424
 9440SOL    HW239957   2.620   0.274   5.195 -0.8662 -0.1700 -0.3592
 9441SOL     OW39958   2.953   2.741   1.331  0.4669  0.0532  0.5676
 9441SOL    HW139959   2.863   2.758   1.360  0.9306  2.5644  0.5262
 9441SOL    HW239960   2.941   2.733   1.236 -0.2478  4.0417  0.3131
 9442SOL     OW39961   1.904   0.140   4.718 -0.1109  0.7221  0.3112
 9442SOL    HW139962   1.882   0.072   4.654  1.3408  0.8577 -0.3213
 9442SOL    HW239963   1.881   0.094   4.799  0.9418 -1.1158 -0.4235
 9443SOL     OW39964   1.129   0.372  12.085  0.1846 -0.1738  0.3376
 9443SOL    HW139965   1.161   0.438  12.024 -0.1142 -0.5045 -0.1732
 9443SOL    HW239966   1.139   0.293  12.031 -0.9540 -1.5419  2.1193
 9444SOL     OW39967   1.264   1.663   5.492 -0.0567 -0.0305 -0.1028
 9444SOL    HW139968   1.249   1.665   5.586 -1.6910 -1.8638 -0.3147
 9444SOL    HW239969   1.216   1.744   5.474 -0.7684 -0.5699 -0.6665
 9445SOL     OW39970   0.903   3.983   2.388  0.2071 -0.2911  0.9184
 9445SOL    HW139971   0.983   3.965   2.339 -1.0990 -0.2032 -1.2612
 9445SOL    HW239972   0.847   3.912   2.358  1.7618 -0.4123 -1.6798
 9446SOL     OW39973   3.190   3.029   9.550 -0.4323 -0.5613 -0.6895
 9446SOL    HW139974   3.218   3.117   9.524  2.0068 -0.9898  0.4584
 9446SOL    HW239975   3.277   2.989   9.549  0.9330  2.3342  1.8060
 9447SOL     OW39976   0.859   4.387   6.477  0.0772  0.1695  0.3111
 9447SOL    HW139977   0.916   4.311   6.490  1.1425  0.8872 -0.0986
 9447SOL    HW239978   0.863   4.427   6.563  2.2736 -0.3145  0.4416
 9448SOL     OW39979   2.348   1.911   7.291  0.1956 -0.2665  0.3300
 9448SOL    HW139980   2.253   1.910   7.278  0.2529  1.7610 -0.2696
 9448SOL    HW239981   2.378   1.830   7.250  4.0287  2.0425 -1.3578
 9449SOL     OW39982   1.976   2.919   6.058  0.3161  0.5909  0.3985
 9449SOL    HW139983   1.964   2.948   6.148  0.4482 -2.1055  1.2659
 9449SOL    HW239984   2.071   2.912   6.060  0.4047  1.7161  0.3905
 9450SOL     OW39985   2.966   0.891   3.508  0.1376 -0.1743  0.0751
 9450SOL    HW139986   3.015   0.825   3.557 -2.6456 -1.5155  1.0482
 9450SOL    HW239987   3.031   0.887   3.438 -0.3596  1.6179 -0.4691
 9451SOL     OW39988   3.659   1.675   5.564 -0.3655  0.4574  0.1363
 9451SOL    HW139989   3.581   1.668   5.619  0.7409  2.0840  1.9123
 9451SOL    HW239990   3.631   1.733   5.494  0.8488  0.5213 -0.2968
 9452SOL     OW39991   2.066   1.446   3.293  0.7390  0.0442 -0.4095
 9452SOL    HW139992   2.002   1.505   3.253  1.0399  2.1624  2.2654
 9452SOL    HW239993   2.036   1.360   3.263  1.1540 -0.6736  1.2526
 9453SOL     OW39994   2.111   1.836   1.913  0.1858  0.5460 -0.8975
 9453SOL    HW139995   2.139   1.893   1.984  2.8135  0.4863 -1.8811
 9453SOL    HW239996   2.193   1.809   1.871  0.2995 -0.3033 -0.1200
 9454SOL     OW39997   0.326   1.665  16.946  0.4979 -0.2279  0.2183
 9454SOL    HW139998   0.262   1.722  16.903 -1.3994 -0.6258  2.4834
 9454SOL    HW239999   0.395   1.730  16.959  1.2177 -0.6785 -1.3864
 9455SOL     OW40000   3.194   2.368   7.707 -0.1757 -0.1128 -0.2728
 9455SOL    HW140001   3.213   2.392   7.616  0.0497 -0.5312 -0.3393
 9455SOL    HW240002   3.099   2.381   7.711  0.1833  2.2858  0.3356
 9456SOL     OW40003   2.367   0.199  16.781  0.4573  0.3506  0.1716
 9456SOL    HW140004   2.292   0.146  16.756 -0.6571  0.5537  3.1498
 9456SOL    HW240005   2.343   0.291  16.768 -1.2912  0.1558  2.1226
 9457SOL     OW40006   2.136   2.548   2.743 -0.4889  0.0510  0.0185
 9457SOL    HW140007   2.046   2.517   2.734 -1.0009  1.1198  1.5512
 9457SOL    HW240008   2.121   2.639   2.720 -2.1393 -0.1074  0.4631
 9458SOL     OW40009   3.804   1.980  12.640 -0.4366 -0.1575 -0.5415
 9458SOL    HW140010   3.792   1.886  12.649 -1.3518 -0.3184 -3.3486
 9458SOL    HW240011   3.802   2.006  12.732 -0.1759 -3.0103  0.2731
 9459SOL     OW40012   1.372   4.417   4.302 -0.4589  0.4857 -0.4012
 9459SOL    HW140013   1.330   4.344   4.346 -1.2018  1.1259 -0.0568
 9459SOL    HW240014   1.460   4.378   4.300  0.5026  2.6276 -0.1673
 9460SOL     OW40015   2.714   1.344   7.289  0.5407  0.5132 -0.3751
 9460SOL    HW140016   2.622   1.330   7.268  1.0125 -2.7243 -0.3796
 9460SOL    HW240017   2.743   1.273   7.232  1.8833  0.3714  0.4855
 9461SOL     OW40018   4.575   1.259   2.328  0.1968  0.3875 -0.5935
 9461SOL    HW140019   4.616   1.200   2.264 -2.3808 -2.1867  0.1263
 9461SOL    HW240020   4.485   1.226   2.324 -0.5875  2.5109 -0.1252
 9462SOL     OW40021   1.947   3.184   2.951 -0.0629 -0.2920  0.3249
 9462SOL    HW140022   2.000   3.247   3.000  0.6031 -2.0223  1.8144
 9462SOL    HW240023   1.869   3.236   2.934 -0.3273 -0.4617  1.0285
 9463SOL     OW40024   2.183   0.285  16.501  0.4210 -0.1675  0.1333
 9463SOL    HW140025   2.153   0.289  16.592 -0.4117  0.0442 -0.1417
 9463SOL    HW240026   2.182   0.193  16.474  2.1240  0.7302 -3.0787
 9464SOL     OW40027   0.509   1.372   2.018  0.1621  0.9083 -0.3937
 9464SOL    HW140028   0.572   1.435   2.052 -0.3955  2.2193 -1.7924
 9464SOL    HW240029   0.466   1.427   1.952 -1.0725  2.0424  1.3666
 9465SOL     OW40030   2.665   1.483   3.786 -0.5595 -0.0968  0.2129
 9465SOL    HW140031   2.668   1.453   3.696  2.0226 -0.4017  0.4105
 9465SOL    HW240032   2.660   1.399   3.833 -3.5036 -1.2562 -2.1616
 9466SOL     OW40033   0.380   2.835   5.633  0.2596  0.0013 -0.6227
 9466SOL    HW140034   0.365   2.812   5.541  1.2787  2.9617 -1.5033
 9466SOL    HW240035   0.417   2.755   5.670  0.5855  0.1206 -0.6929
 9467SOL     OW40036   2.131   4.384   9.328 -0.1653 -0.4239 -0.3701
 9467SOL    HW140037   2.074   4.425   9.263 -0.3205 -1.3973 -0.8458
 9467SOL    HW240038   2.215   4.411   9.291  0.3810  0.4788  1.5221
 9468SOL     OW40039   3.280   3.979   9.912 -0.0925  0.3113  0.2500
 9468SOL    HW140040   3.244   3.947   9.994 -0.8723  1.0518  0.1973
 9468SOL    HW240041   3.317   3.900   9.874  0.7685  1.0394 -0.4416
 9469SOL     OW40042   2.100   4.147   6.456  0.6236 -0.4512  0.0957
 9469SOL    HW140043   2.127   4.233   6.490 -1.6689  0.8895 -1.4514
 9469SOL    HW240044   2.141   4.141   6.369  1.0128  1.1806  0.1614
 9470SOL     OW40045   4.062   4.099   3.203 -0.0286  0.6050  0.2739
 9470SOL    HW140046   4.152   4.103   3.235 -0.5245 -0.8896  1.8695
 9470SOL    HW240047   4.053   4.026   3.142  1.6097 -1.3161  2.3356
 9471SOL     OW40048   0.107   2.175   9.451  0.0818  0.0957  0.0722
 9471SOL    HW140049   0.119   2.149   9.542  0.0305  0.6829  0.2495
 9471SOL    HW240050   0.015   2.149   9.441 -0.0044  1.1101 -1.8602
 9472SOL     OW40051   2.980   4.288  10.884  0.3936  0.4615  0.0713
 9472SOL    HW140052   3.032   4.319  10.958  1.4455  1.0601 -0.9103
 9472SOL    HW240053   2.895   4.322  10.912 -1.7387 -1.8045 -3.6565
 9473SOL     OW40054   2.403   0.594   7.817 -0.0561 -0.4350  0.3063
 9473SOL    HW140055   2.460   0.638   7.754 -1.8726  0.6302 -0.5980
 9473SOL    HW240056   2.412   0.645   7.898 -1.9802 -1.1345  0.9724
 9474SOL     OW40057   0.360   4.043   6.843 -0.5213  0.5203 -0.1154
 9474SOL    HW140058   0.296   4.004   6.783  1.5709 -0.5633 -1.6439
 9474SOL    HW240059   0.381   3.956   6.878 -0.2576  0.8703  0.5849
 9475SOL     OW40060   4.350   0.369   8.305 -0.2623 -0.1348  0.0182
 9475SOL    HW140061   4.318   0.391   8.393  0.2055  1.9195 -0.3300
 9475SOL    HW240062   4.274   0.405   8.258 -0.4116  1.1092  1.1991
 9476SOL     OW40063   0.224   3.958  14.315  0.1708  0.9191 -0.3423
 9476SOL    HW140064   0.145   4.000  14.281 -0.2581 -0.4941 -1.0795
 9476SOL    HW240065   0.238   4.026  14.382  0.9653 -0.1764  0.6041
 9477SOL     OW40066   2.255   1.317   5.832  0.6694 -0.0580  0.3765
 9477SOL    HW140067   2.347   1.337   5.817  0.3686  1.1369  0.1039
 9477SOL    HW240068   2.211   1.390   5.789  1.5538 -0.2723 -0.8720
 9478SOL     OW40069   4.554   2.821   5.203 -0.4809 -0.3250  0.2163
 9478SOL    HW140070   4.466   2.847   5.177 -0.7348  0.4136  1.7596
 9478SOL    HW240071   4.610   2.827   5.125 -0.4706  2.5466  0.4440
 9479SOL     OW40072   3.181   3.052   8.277 -0.1487  0.1490 -0.0713
 9479SOL    HW140073   3.262   3.031   8.323  0.0387  2.3840  0.6095
 9479SOL    HW240074   3.175   3.145   8.297  0.1166  0.3086 -0.7459
 9480SOL     OW40075   4.570   2.197   4.686 -0.2043 -0.1221  0.2291
 9480SOL    HW140076   4.570   2.157   4.773  0.4217  1.0101  0.7400
 9480SOL    HW240077   4.651   2.246   4.700  0.9536 -1.6769 -1.0775
 9481SOL     OW40078   0.795   3.954  16.837 -0.2279  0.0841  0.6444
 9481SOL    HW140079   0.814   3.953  16.744  0.2900 -1.3229  0.7651
 9481SOL    HW240080   0.885   3.950  16.868 -0.5063  0.6855  1.5339
 9482SOL     OW40081   0.063   2.065  11.595 -0.1445  0.6545 -0.2273
 9482SOL    HW140082   0.008   2.020  11.530  1.3500  0.4897 -1.3734
 9482SOL    HW240083   0.057   2.001  11.666 -1.0309  0.8661 -0.1122
 9483SOL     OW40084   0.166   1.030   7.922 -0.6403  0.4421 -0.1155
 9483SOL    HW140085   0.191   0.986   7.840 -0.4158  1.1660 -0.4297
 9483SOL    HW240086   0.075   1.000   7.923  0.2312 -2.2153 -0.4448
 9484SOL     OW40087   4.342   2.439   5.364 -0.0844  0.3576 -0.2808
 9484SOL    HW140088   4.317   2.393   5.444 -1.7233 -0.7543 -1.4439
 9484SOL    HW240089   4.364   2.369   5.303 -0.5322  0.4962 -0.6053
 9485SOL     OW40090   0.478   0.987   1.667  0.0658  0.4420 -0.5926
 9485SOL    HW140091   0.494   1.061   1.608 -0.7334 -1.3526 -3.0718
 9485SOL    HW240092   0.460   0.919   1.602 -0.9170  0.7812 -0.6835
 9486SOL     OW40093   3.248   0.106   3.157  0.0247 -0.3987  0.1175
 9486SOL    HW140094   3.309   0.150   3.098 -1.7111  0.6330 -0.9236
 9486SOL    HW240095   3.278   0.016   3.146 -1.3064 -0.6621 -1.3040
 9487SOL     OW40096   3.949   2.658  14.899 -0.6592  0.1813  0.8439
 9487SOL    HW140097   3.913   2.592  14.839  1.0895 -0.1120  0.1270
 9487SOL    HW240098   3.899   2.639  14.979  2.3889 -1.0642  2.4609
 9488SOL     OW40099   2.687   4.694   5.206  0.2264  0.5785  0.0828
 9488SOL    HW140100   2.636   0.031   5.245  0.0062  0.7176 -0.4591
 9488SOL    HW240101   2.777   4.723   5.220  0.6706 -0.5118 -0.5060
 9489SOL     OW40102   3.353   1.943   4.589 -0.4149  0.5908  0.7393
 9489SOL    HW140103   3.341   1.852   4.617 -0.8473  0.9992  1.9034
 9489SOL    HW240104   3.444   1.947   4.561 -0.5858 -1.3118 -0.1208
 9490SOL     OW40105   1.204   0.990   8.197  0.8082  0.6745  0.3391
 9490SOL    HW140106   1.159   0.956   8.120  0.8907  0.5066  0.3627
 9490SOL    HW240107   1.148   1.064   8.217  0.9641  0.2608  2.3941
 9491SOL     OW40108   0.792   3.676   7.010 -0.5022  0.3530 -0.0550
 9491SOL    HW140109   0.757   3.591   7.036 -0.1214  0.3311  0.3737
 9491SOL    HW240110   0.837   3.700   7.091 -1.0170 -0.5263  0.4887
 9492SOL     OW40111   4.011   4.019   0.235  0.7406 -0.4357  0.2697
 9492SOL    HW140112   4.031   3.963   0.310  1.4803 -1.1348 -0.4497
 9492SOL    HW240113   4.056   3.976   0.162  0.5091 -1.5496  0.7817
 9493SOL     OW40114   0.568   0.579   5.266  0.1399  0.1782 -0.2490
 9493SOL    HW140115   0.626   0.515   5.308  1.4068  1.3985 -0.1341
 9493SOL    HW240116   0.547   0.540   5.181  0.1752  0.3412 -0.3334
 9494SOL     OW40117   1.910   1.128  16.562 -0.0021  0.0217  0.8998
 9494SOL    HW140118   1.998   1.093  16.552  0.3943  1.4383 -0.6535
 9494SOL    HW240119   1.914   1.208  16.510 -0.5500 -1.4519 -1.4690
 9495SOL     OW40120   1.060   0.531  16.554  0.1230  0.5013  0.3650
 9495SOL    HW140121   1.061   0.479  16.473 -1.2129 -0.6563  1.0796
 9495SOL    HW240122   0.980   0.501  16.598  0.8011  0.2220  1.4206
 9496SOL     OW40123   1.447   3.989   5.143  0.2182 -0.3744 -0.0049
 9496SOL    HW140124   1.379   3.921   5.137  0.0214 -0.1367 -0.4642
 9496SOL    HW240125   1.522   3.941   5.178  0.3073  1.4660  2.2979
 9497SOL     OW40126   1.114   1.246  12.224  0.1380 -0.5630 -0.1367
 9497SOL    HW140127   1.177   1.311  12.256 -1.8274  0.7470  1.0670
 9497SOL    HW240128   1.135   1.254  12.131  0.5195  3.0014  0.2388
 9498SOL     OW40129   3.881   1.664   4.091  0.6899 -0.6100  0.1486
 9498SOL    HW140130   3.821   1.737   4.073  0.9774 -0.5793 -0.7027
 9498SOL    HW240131   3.844   1.582   4.058 -1.5766  0.6632 -0.5672
 9499SOL     OW40132   0.424   2.959   5.196 -0.2785  0.1845 -0.0862
 9499SOL    HW140133   0.355   2.982   5.259  0.7267  1.6329  0.4868
 9499SOL    HW240134   0.505   2.989   5.238  0.6075 -1.0068 -0.9656
 9500SOL     OW40135   0.200   2.139   9.737 -0.4069  0.1220 -0.2651
 9500SOL    HW140136   0.279   2.156   9.788 -0.1885  2.8255 -1.5004
 9500SOL    HW240137   0.130   2.163   9.798  0.3436 -0.9982  1.0359
 9501SOL     OW40138   3.381   1.213   2.895  0.1402 -0.2731 -0.2724
 9501SOL    HW140139   3.395   1.166   2.813  1.4959 -0.2693 -0.0307
 9501SOL    HW240140   3.286   1.205   2.891  0.1306  0.2274 -1.0640
 9502SOL     OW40141   3.840   4.425   3.044  0.2313  0.4257  0.3830
 9502SOL    HW140142   3.858   4.390   3.131  0.2085  1.6205  0.8696
 9502SOL    HW240143   3.896   4.502   3.031 -1.2593  1.1205 -1.9048
 9503SOL     OW40144   3.393   3.717   2.560 -0.2964  0.2699 -0.2907
 9503SOL    HW140145   3.368   3.706   2.468  0.5856 -0.7915 -0.4055
 9503SOL    HW240146   3.476   3.669   2.559 -0.5458 -0.1103 -3.0515
 9504SOL     OW40147   1.563   0.521  10.277 -0.4167  0.1494 -0.2453
 9504SOL    HW140148   1.484   0.566  10.307  0.6763  0.7278  1.7375
 9504SOL    HW240149   1.560   0.540  10.183  1.2703 -1.0901 -0.5597
 9505SOL     OW40150   0.000   2.860   8.973  0.1010 -0.2011  0.3201
 9505SOL    HW140151   0.085   2.897   8.951  0.2615 -0.3000  0.7619
 9505SOL    HW240152   4.726   2.778   8.923  1.1564 -0.2239  0.2065
 9506SOL     OW40153   1.779   3.524   3.270  0.1679  0.0893 -0.2301
 9506SOL    HW140154   1.740   3.589   3.329  1.1926  0.4373  0.0716
 9506SOL    HW240155   1.815   3.590   3.210  0.6869 -1.6508 -1.8185
 9507SOL     OW40156   3.535   0.680   4.916 -0.4072  0.0847 -0.5168
 9507SOL    HW140157   3.487   0.604   4.949  0.7611 -0.8293 -0.9361
 9507SOL    HW240158   3.584   0.715   4.991  0.8973 -1.6481 -0.5757
 9508SOL     OW40159   1.515   2.011   0.535 -0.1780  0.0405  0.2764
 9508SOL    HW140160   1.606   1.987   0.515 -0.0971  0.1320  0.5449
 9508SOL    HW240161   1.475   1.992   0.450 -0.2178 -0.9365  0.5083
 9509SOL     OW40162   0.085   1.326  11.023  0.2642 -0.2776  0.6384
 9509SOL    HW140163   0.085   1.413  11.062  0.0542 -0.6856  1.5618
 9509SOL    HW240164   0.032   1.281  11.089 -2.4772 -1.0807 -2.1458
 9510SOL     OW40165   1.913   4.272   9.472 -0.2992 -0.3740 -0.0995
 9510SOL    HW140166   1.991   4.304   9.426  0.5870  2.2265  3.1468
 9510SOL    HW240167   1.944   4.263   9.562 -1.3047 -2.2861  0.0380
 9511SOL     OW40168   0.360   3.477   0.120  0.0703 -0.5543 -0.2409
 9511SOL    HW140169   0.292   3.425   0.162  1.4559 -1.5797  0.7444
 9511SOL    HW240170   0.376   3.416   0.048 -0.9288 -4.6014  2.9874
 9512SOL     OW40171   3.521   0.900   3.821 -0.2477 -0.5143 -0.1219
 9512SOL    HW140172   3.561   0.951   3.892 -1.4608 -0.7470  0.7296
 9512SOL    HW240173   3.429   0.912   3.845  0.6003  2.0297  1.9047
 9513SOL     OW40174   3.357   4.428   9.025 -0.1870 -0.3216  0.0026
 9513SOL    HW140175   3.304   4.357   9.062 -0.2710 -0.6282 -0.7009
 9513SOL    HW240176   3.440   4.383   9.007  0.9582  1.1269  1.7060
 9514SOL     OW40177   3.581   1.123   3.984 -0.0727  0.0502  0.4660
 9514SOL    HW140178   3.524   1.146   4.058 -0.8615 -2.3210  0.6003
 9514SOL    HW240179   3.627   1.206   3.972  1.6365 -1.0842 -0.7781
 9515SOL     OW40180   1.088   1.906   4.092 -0.3347 -0.5247  0.0916
 9515SOL    HW140181   1.005   1.901   4.138 -1.4288  1.2851 -1.6862
 9515SOL    HW240182   1.133   1.976   4.141  0.4092 -0.2470 -0.9867
 9516SOL     OW40183   2.208   2.346   7.470 -0.2364  0.6014 -0.0725
 9516SOL    HW140184   2.216   2.252   7.486  2.4243  1.0262  1.0727
 9516SOL    HW240185   2.239   2.382   7.553  1.8674  0.1717 -0.6863
 9517SOL     OW40186   1.553   4.212   4.292  0.5560 -0.1834 -0.0687
 9517SOL    HW140187   1.574   4.167   4.210  1.2134  1.1360 -0.6335
 9517SOL    HW240188   1.580   4.145   4.355 -1.2158 -1.1492 -0.3522
 9518SOL     OW40189   3.748   3.564   4.050  0.5164 -1.2533 -0.3742
 9518SOL    HW140190   3.744   3.484   4.101 -2.1690 -1.4360 -0.8732
 9518SOL    HW240191   3.712   3.539   3.964 -0.5017  1.1561 -0.6540
 9519SOL     OW40192   3.991   0.789   3.313 -0.1532  0.3800  0.2040
 9519SOL    HW140193   3.970   0.881   3.295 -0.9252 -0.0019 -0.8803
 9519SOL    HW240194   4.050   0.803   3.387 -0.1711  1.4139  0.0326
 9520SOL     OW40195   2.559   0.115   6.736  0.1358  0.3846  0.0706
 9520SOL    HW140196   2.492   0.098   6.670 -0.8315  1.1634  0.8602
 9520SOL    HW240197   2.595   0.198   6.705  1.9595 -0.6532 -0.6142
 9521SOL     OW40198   2.854   1.550   2.242  0.5266 -0.0958  0.0106
 9521SOL    HW140199   2.869   1.614   2.173  2.5111  0.9643  1.4465
 9521SOL    HW240200   2.907   1.477   2.210 -0.9489 -0.5494 -1.4238
 9522SOL     OW40201   4.515   2.895   8.227 -0.0897 -0.0427 -0.0500
 9522SOL    HW140202   4.493   2.832   8.296 -1.1796  0.3749 -0.0144
 9522SOL    HW240203   4.481   2.975   8.266  1.0868  0.8114 -0.7667
 9523SOL     OW40204   0.649   1.067   4.667  0.4244 -0.6505 -0.6936
 9523SOL    HW140205   0.699   0.987   4.684 -0.4990 -0.8795  0.8229
 9523SOL    HW240206   0.616   1.091   4.753 -0.4323 -0.7543 -0.9930
 9524SOL     OW40207   0.892   3.564   3.352  0.2010 -0.5089  0.5103
 9524SOL    HW140208   0.828   3.495   3.372  0.2771 -0.4174  1.0672
 9524SOL    HW240209   0.841   3.642   3.373 -0.6570 -1.3102  1.4108
 9525SOL     OW40210   1.361   2.605   5.504 -0.0970  0.5855  0.0937
 9525SOL    HW140211   1.452   2.609   5.473 -0.8907  0.5965 -2.2478
 9525SOL    HW240212   1.375   2.660   5.581 -0.1984 -1.5853  1.6765
 9526SOL     OW40213   3.623   3.326   2.038 -0.4594  0.0520  0.4585
 9526SOL    HW140214   3.563   3.281   2.097  1.1322 -2.0213  0.5363
 9526SOL    HW240215   3.567   3.369   1.975  0.6827  0.9704  0.0694
 9527SOL     OW40216   0.697   3.364   8.403  0.5550 -0.1260  0.0193
 9527SOL    HW140217   0.675   3.304   8.332 -1.3714  0.7420 -0.1367
 9527SOL    HW240218   0.706   3.441   8.347 -1.2925  0.1291  0.0642
 9528SOL     OW40219   0.775   4.381   7.930  0.9573  0.1518  0.3506
 9528SOL    HW140220   0.768   4.442   8.003  0.9909  0.1333  0.3693
 9528SOL    HW240221   0.686   4.345   7.927  1.5562 -1.3073  0.1299
 9529SOL     OW40222   0.674   3.357   3.359 -0.1997  0.4700  0.3665
 9529SOL    HW140223   0.680   3.300   3.283 -0.9005  2.6500 -1.3151
 9529SOL    HW240224   0.583   3.343   3.383 -0.8154 -0.0414 -2.2438
 9530SOL     OW40225   4.038   4.603   2.345 -0.0317 -0.0210  0.0431
 9530SOL    HW140226   4.092   4.572   2.273 -0.3477 -1.6154  0.4998
 9530SOL    HW240227   4.085   4.559   2.416  0.4111 -0.2670 -0.4043
 9531SOL     OW40228   2.307   1.617   1.906  0.1983 -0.3676 -0.0797
 9531SOL    HW140229   2.363   1.594   1.980  0.5846 -0.1499 -0.3033
 9531SOL    HW240230   2.223   1.623   1.953 -0.1768 -1.5800 -0.5968
 9532SOL     OW40231   4.303   3.089  12.092 -0.2610 -0.2940  0.6892
 9532SOL    HW140232   4.243   3.082  12.166 -1.6472  1.5001 -0.2652
 9532SOL    HW240233   4.299   2.997  12.066 -0.6706 -0.5791  1.7718
 9533SOL     OW40234   0.829   4.721   6.243  0.7447 -0.1155  0.2084
 9533SOL    HW140235   0.784   4.640   6.267 -0.1463  0.5349  0.7464
 9533SOL    HW240236   0.850   0.029   6.327  1.7108  3.0309 -1.5461
 9534SOL     OW40237   0.728   0.789   7.625  0.2613 -0.2693  0.4212
 9534SOL    HW140238   0.686   0.788   7.539  0.7715  0.2254  0.1655
 9534SOL    HW240239   0.654   0.834   7.666  0.4948 -0.4895  1.0848
 9535SOL     OW40240   2.696   0.430   2.878  0.1024 -0.2935  0.0573
 9535SOL    HW140241   2.722   0.398   2.965  1.3438 -0.1104 -0.2515
 9535SOL    HW240242   2.743   0.513   2.875  0.3442 -0.4505 -0.4022
 9536SOL     OW40243   3.607   4.645   3.631 -0.1001  0.0186 -0.2739
 9536SOL    HW140244   3.631   4.576   3.570  0.4049 -0.4612  0.4590
 9536SOL    HW240245   3.679   4.701   3.600 -0.0037 -1.5024 -2.7615
 9537SOL     OW40246   1.554   1.068   5.485  0.4684  0.1608 -0.5727
 9537SOL    HW140247   1.495   1.141   5.504 -1.4639 -1.6020  0.1783
 9537SOL    HW240248   1.606   1.104   5.413  0.7880  1.2315  0.1774
 9538SOL     OW40249   2.461   0.671   6.743  0.3894  0.2815  0.1075
 9538SOL    HW140250   2.526   0.627   6.798  0.5945  0.3214 -0.0986
 9538SOL    HW240251   2.402   0.597   6.732  1.2879 -0.3746 -0.2586
 9539SOL     OW40252   2.964   0.250   6.907 -0.3693  0.1661 -0.3389
 9539SOL    HW140253   2.971   0.292   6.993 -1.8318  0.7707 -0.5158
 9539SOL    HW240254   3.005   0.166   6.929  3.2544  1.7741 -0.9189
 9540SOL     OW40255   2.788   3.917   8.448  0.3874 -0.4296 -0.0684
 9540SOL    HW140256   2.824   3.995   8.405 -2.0433  0.8671  0.2669
 9540SOL    HW240257   2.698   3.937   8.473  0.9596  3.4938 -1.1221
 9541SOL     OW40258   0.934   3.441  17.246 -0.2833  0.1185  0.4703
 9541SOL    HW140259   0.904   3.529  17.223 -2.8499 -0.5270  1.3170
 9541SOL    HW240260   0.851   3.396  17.226  0.6694 -2.0258  1.3172
 9542SOL     OW40261   4.248   2.656  14.278 -0.4991  0.8926  0.5977
 9542SOL    HW140262   4.239   2.739  14.230 -0.0038  0.8159  0.3731
 9542SOL    HW240263   4.341   2.641  14.264 -0.8053 -1.3670  1.0432
 9543SOL     OW40264   2.284   0.208   5.869 -0.2175  0.2997 -0.0183
 9543SOL    HW140265   2.339   0.222   5.946 -1.4264  2.5802  0.4302
 9543SOL    HW240266   2.347   0.241   5.805 -1.1697  1.6315 -0.2587
 9544SOL     OW40267   0.820   3.968   1.720 -0.4612 -0.2529  0.0630
 9544SOL    HW140268   0.872   4.047   1.734 -0.2324 -0.0752 -1.8229
 9544SOL    HW240269   0.735   3.995   1.755  0.1363  0.9051  0.6235
 9545SOL     OW40270   1.741   0.993   4.808 -0.3232  0.4628 -0.3656
 9545SOL    HW140271   1.815   0.940   4.780 -0.3807  0.6473 -0.8841
 9545SOL    HW240272   1.781   1.076   4.781  1.0737 -0.4474 -1.0998
 9546SOL     OW40273   2.178   4.588   5.996  0.0804  0.4027 -0.3099
 9546SOL    HW140274   2.178   4.671   5.949  0.2122 -1.0427 -2.8957
 9546SOL    HW240275   2.114   4.591   6.067 -1.0681 -1.6921 -1.2354
 9547SOL     OW40276   0.927   3.744   5.578  0.1226  0.1542 -0.4729
 9547SOL    HW140277   0.846   3.692   5.578 -0.6812  1.3918 -0.9407
 9547SOL    HW240278   0.910   3.794   5.498 -2.4081 -0.7929 -0.5322
 9548SOL     OW40279   0.311   3.638  10.314 -0.4219  0.0205  0.2458
 9548SOL    HW140280   0.354   3.724  10.320 -1.0155  0.1579  2.2948
 9548SOL    HW240281   0.236   3.664  10.260 -0.0169  0.2869 -0.1935
 9549SOL     OW40282   4.461   1.705  15.419  0.4653  0.1185  0.3463
 9549SOL    HW140283   4.386   1.755  15.453  0.5778 -0.3823  1.3480
 9549SOL    HW240284   4.487   1.646  15.490  0.1682 -0.3556  0.0536
 9550SOL     OW40285   2.485   2.296   8.488 -0.6808 -0.2945 -0.7183
 9550SOL    HW140286   2.497   2.389   8.467 -0.0328  0.0532  1.1601
 9550SOL    HW240287   2.413   2.273   8.430 -0.9621 -0.4364 -0.3124
 9551SOL     OW40288   2.056   0.753   5.420 -0.0182 -0.2306 -0.1326
 9551SOL    HW140289   2.150   0.766   5.430 -0.2145 -0.3833  1.8691
 9551SOL    HW240290   2.024   0.842   5.434 -1.4446 -0.8835  0.8237
 9552SOL     OW40291   0.058   2.250   5.483 -0.1950  0.0741  0.0201
 9552SOL    HW140292   0.015   2.257   5.398 -0.1913 -0.4051 -0.0182
 9552SOL    HW240293   0.103   2.166   5.475  1.4121  1.0084 -0.8966
 9553SOL     OW40294   4.343   1.149   5.867 -0.7512  0.1483  0.0194
 9553SOL    HW140295   4.340   1.204   5.789 -2.2886  0.3212  0.2090
 9553SOL    HW240296   4.437   1.130   5.876 -1.4623 -2.5409  1.8765
 9554SOL     OW40297   4.478   1.437   2.858  0.1667  0.3876 -0.1717
 9554SOL    HW140298   4.558   1.384   2.855 -0.4485 -0.4280 -2.1236
 9554SOL    HW240299   4.521   1.521   2.847  0.0433  0.3596 -0.8611
 9555SOL     OW40300   3.853   0.122  16.569  0.3233  0.5440  0.0145
 9555SOL    HW140301   3.912   0.049  16.551 -0.1970  0.2076 -0.3251
 9555SOL    HW240302   3.768   0.100  16.530  0.6916 -0.2527 -0.3362
 9556SOL     OW40303   1.030   0.405   5.925  0.2438  0.1744 -0.2073
 9556SOL    HW140304   0.982   0.422   6.006 -0.5037  2.0907 -1.0391
 9556SOL    HW240305   1.109   0.365   5.960 -1.1165 -2.6643 -0.3871
 9557SOL     OW40306   3.303   0.818   7.899  0.1063 -0.4388  0.4677
 9557SOL    HW140307   3.262   0.879   7.961  0.7206 -0.4015  0.8316
 9557SOL    HW240308   3.345   0.766   7.967  0.1238 -0.3511  0.5249
 9558SOL     OW40309   1.180   0.422  14.667 -0.2729 -0.4576  0.0519
 9558SOL    HW140310   1.203   0.453  14.579 -1.3109 -0.6185 -0.2805
 9558SOL    HW240311   1.264   0.386  14.694 -0.5120 -0.5578  0.6549
 9559SOL     OW40312   3.636   0.989   8.165  0.1117 -0.2750  0.2128
 9559SOL    HW140313   3.615   1.054   8.098  4.3387 -0.5559 -1.4064
 9559SOL    HW240314   3.604   1.027   8.247  0.7524 -1.9898  1.2645
 9560SOL     OW40315   0.909   3.740  14.378  0.4896 -0.6074  0.0831
 9560SOL    HW140316   0.818   3.710  14.378  0.1370  0.4644  1.3292
 9560SOL    HW240317   0.923   3.758  14.471 -1.1510  0.0925  0.1895
 9561SOL     OW40318   2.900   1.932  15.068  0.6040  0.0287  0.0951
 9561SOL    HW140319   2.841   1.869  15.108  3.3156 -1.4855  1.7439
 9561SOL    HW240320   2.910   1.907  14.976 -0.1641  0.4735 -0.1096
 9562SOL     OW40321   4.044   1.551   3.221 -0.1190 -0.2404  1.3264
 9562SOL    HW140322   4.043   1.470   3.272  1.6464 -0.4870  0.9533
 9562SOL    HW240323   4.007   1.515   3.140  1.5626 -1.8317  1.2433
 9563SOL     OW40324   2.785   2.235   9.787  0.0670 -0.0650 -0.2230
 9563SOL    HW140325   2.766   2.299   9.718  0.6067  0.0291 -0.2815
 9563SOL    HW240326   2.817   2.295   9.854 -1.3098  1.6657 -1.1233
 9564SOL     OW40327   3.370   4.595  16.028 -0.2215  0.0711 -0.4451
 9564SOL    HW140328   3.301   4.636  16.082  0.9288 -0.5161  1.4595
 9564SOL    HW240329   3.364   4.642  15.944 -1.7769  2.5262  1.0195
 9565SOL     OW40330   2.564   1.686   7.210  0.1494  0.4077  0.2906
 9565SOL    HW140331   2.524   1.638   7.137  2.3386 -0.0765 -0.6092
 9565SOL    HW240332   2.591   1.769   7.172  1.0695  0.3620  0.8554
 9566SOL     OW40333   2.777   4.154   8.782  0.1059 -0.1116 -0.0352
 9566SOL    HW140334   2.733   4.149   8.698  2.1992  1.7384 -1.2269
 9566SOL    HW240335   2.749   4.067   8.810 -0.3694 -0.0327 -0.2763
 9567SOL     OW40336   3.118   2.778   5.320  0.2839  0.3098  0.1144
 9567SOL    HW140337   3.133   2.810   5.409 -0.8693 -0.2663  0.5084
 9567SOL    HW240338   3.042   2.721   5.330 -0.5701  1.6186  1.0139
 9568SOL     OW40339   0.788   1.043  11.612  0.0741 -0.2482  0.2278
 9568SOL    HW140340   0.761   0.998  11.531  0.1652 -0.8004  0.5064
 9568SOL    HW240341   0.762   0.983  11.682  1.4740 -2.5415 -1.2210
 9569SOL     OW40342   2.424   0.582   1.647 -0.0488  0.5080 -0.6769
 9569SOL    HW140343   2.371   0.537   1.713  1.9318 -1.2351 -0.2775
 9569SOL    HW240344   2.485   0.629   1.704  1.0672 -0.2173 -1.2818
   4.73315   4.73315  17.73194
